/*--------------------------------*- C++ -*----------------------------------*\
| =========                 |                                                 |
| \\      /  F ield         | OpenFOAM: The Open Source CFD Toolbox           |
|  \\    /   O peration     | Version:  v1906                                 |
|   \\  /    A nd           | Web:      www.OpenFOAM.com                      |
|    \\/     M anipulation  |                                                 |
\*---------------------------------------------------------------------------*/
FoamFile
{
    version     2.0;
    format      ascii;
    class       volVectorField;
    location    "959";
    object      Ua;
}
// * * * * * * * * * * * * * * * * * * * * * * * * * * * * * * * * * * * * * //

dimensions      [0 1 -1 0 0 0 0];


internalField   nonuniform List<vector> 
9216
(
(-0.0103618085776 0.010369665248 0)
(-0.0109347166519 0.0334665661473 3.91398165943e-27)
(-0.0109307763251 0.0569197484304 -7.07755868812e-31)
(-0.0108281697112 0.0803800352043 0)
(-0.0106820365735 0.103450379874 0)
(-0.0104964074164 0.126036508663 0)
(-0.0102759912249 0.148036964189 0)
(-0.0100238983853 0.169359696908 0)
(-0.0097432118659 0.189921892585 0)
(-0.00943674729365 0.209650248582 0)
(-0.00910763439126 0.228481001088 0)
(-0.00875871146849 0.246360171863 0)
(-0.0083931162693 0.263243370814 0)
(-0.00801356854309 0.279095722494 0)
(-0.00762305085855 0.29389137629 0)
(-0.00722401585746 0.30761316433 0)
(-0.00681916504583 0.32025190815 0)
(-0.0064105902778 0.331805909558 0)
(-0.00600064540499 0.342280161267 0)
(-0.00559102718527 0.351685772411 0)
(-0.0051837315436 0.360039175099 0)
(-0.00478007551223 0.367361562953 0)
(-0.00438172610908 0.373678160387 0)
(-0.00398966505429 0.379017723788 0)
(-0.00360527866298 0.383411905629 0)
(-0.00322926680075 0.386894834812 0)
(-0.0028627823583 0.389502582635 0)
(-0.00250628990573 0.39127281943 0)
(-0.00216074786137 0.39224437245 0)
(-0.00182642766486 0.392456952116 0)
(-0.00150414018836 0.391950741761 0)
(-0.00119391468553 0.390766425793 0)
(-0.000896322344575 0.38894431923 0)
(-0.000611307217161 0.386524510725 0)
(-0.000339379237405 0.383546737037 0)
(-8.03250471797e-05 0.380050101937 0)
(0.000165499436329 0.376072908931 0)
(0.000398443762028 0.371652521225 0)
(0.000618272789692 0.366825225268 0)
(0.000825449499083 0.361626123032 0)
(0.00101984399216 0.356089041021 0)
(0.00120201468384 0.350246444596 0)
(0.00137192265568 0.344129388315 0)
(0.00153020374889 0.337767450249 0)
(0.0016768937871 0.331188718877 0)
(0.00181268602521 0.324419744359 0)
(0.00193767378066 0.317485560605 0)
(0.00205258700382 0.310409653032 0)
(0.00215755755237 0.30321401179 0)
(0.00225333037363 0.295919113253 0)
(0.00234005746103 0.288544002429 0)
(0.00241847847961 0.281106286665 0)
(0.00248874809191 0.273622241761 0)
(0.00255158240257 0.26610681341 0)
(0.00260712487133 0.25857374288 0)
(0.00265605422658 0.251035572522 0)
(0.00269849274012 0.24350378367 0)
(0.00273507255575 0.235988800203 0)
(0.00276589036857 0.228500133213 0)
(0.00279152837367 0.221046378251 0)
(0.00281205797633 0.21363535954 0)
(0.00282801271964 0.206274115673 0)
(0.00283944381494 0.198969039206 0)
(0.00284684181334 0.191725848326 0)
(0.00285024553299 0.184549717254 0)
(0.00285011037738 0.17744523173 0)
(0.00284647242637 0.17041650923 0)
(0.0028397609465 0.163467139086 0)
(0.00283001848204 0.156600291587 0)
(0.00281765623419 0.149818643992 0)
(0.00280273121571 0.143124480572 0)
(0.00278564301011 0.13651960797 0)
(0.00276646836239 0.13000544784 0)
(0.00274559885737 0.123582944765 0)
(0.00272313351573 0.117252654962 0)
(0.00269945683584 0.111014650962 0)
(0.00267468943986 0.10486860874 0)
(0.00264920672865 0.0988137124196 0)
(0.00262314773282 0.0928487429737 0)
(0.00259687449945 0.0869719862571 0)
(0.00257053890604 0.0811813250906 0)
(0.00254448336379 0.0754741528036 0)
(0.0025188653179 0.0698474709909 0)
(0.00249399943253 0.064297810904 0)
(0.00247003886157 0.0588213391302 0)
(0.00244725820017 0.0534137908646 0)
(0.00242578798353 0.0480705916326 0)
(0.00240583092998 0.0427868199728 0)
(0.00238742880379 0.0375573850375 0)
(0.00237055713816 0.0323771213921 0)
(0.00235477048254 0.027241263206 0)
(0.00233877515124 0.0221464196335 0)
(0.00231879518842 0.017093632931 0)
(0.00227851529677 0.0121123810263 0)
(0.00220270047795 0.00699200651711 0)
(0.00273306914676 0.00273294233542 0)
(-0.0335434373691 0.0110289420583 0)
(-0.0370794747473 0.0373689008401 0)
(-0.0369920170404 0.0636362710918 -4.1087453186e-27)
(-0.0364893405554 0.0899357464595 0)
(-0.0357910629612 0.115763589188 0)
(-0.0349237458937 0.141034925959 0)
(-0.0339024252498 0.165641964574 0)
(-0.0327412322012 0.18948335017 0)
(-0.0314551979945 0.212466910335 0)
(-0.030059523885 0.234510811934 0)
(-0.0285701606264 0.255543971217 0)
(-0.027002665281 0.275506315663 0)
(-0.0253728540821 0.294348674614 0)
(-0.0236955497168 0.312032588249 0)
(-0.0219854279681 0.32852982837 0)
(-0.0202557200824 0.34382189789 0)
(-0.0185192705144 0.357899315526 0)
(-0.0167872086282 0.370760936177 0)
(-0.015070204526 0.382413126315 0)
(-0.0133771066692 0.392869023344 0)
(-0.0117163689982 0.402147708451 0)
(-0.0100946405591 0.410273496254 0)
(-0.00851832825438 0.417275179311 0)
(-0.00699212192442 0.423185402422 0)
(-0.0055206575507 0.428040013965 0)
(-0.00410696490143 0.431877542056 0)
(-0.00275420242725 0.434738655518 0)
(-0.00146402613814 0.436665733124 0)
(-0.000238379820238 0.437702417587 0)
(0.000922204739813 0.43789325298 0)
(0.00201676240495 0.437283345817 0)
(0.00304571502151 0.43591784493 0)
(0.00400900804561 0.433842141281 0)
(0.00490780593029 0.431101370442 0)
(0.00574263174612 0.427740026518 0)
(0.00651524066143 0.423801871307 0)
(0.00722669485659 0.419329735379 0)
(0.00787921868109 0.414365371925 0)
(0.00847427285569 0.408949311515 0)
(0.00901442273017 0.403120746166 0)
(0.0095014148409 0.396917424734 0)
(0.00993804604287 0.390375567786 0)
(0.0103262510751 0.383529801082 0)
(0.0106689615559 0.376413098373 0)
(0.010968212555 0.369056749571 0)
(0.0112269823453 0.361490329014 0)
(0.0114473268418 0.353741696178 0)
(0.0116321910679 0.345836987593 0)
(0.0117835793832 0.337800647335 0)
(0.0119043315552 0.329655440224 0)
(0.0119963374085 0.321422509356 0)
(0.0120622704371 0.313121407572 0)
(0.0121038543287 0.304770177465 0)
(0.012123548609 0.296385396582 0)
(0.0121228746451 0.287982274673 0)
(0.0121040474257 0.279574707152 0)
(0.0120683669741 0.271175382685 0)
(0.0120177913581 0.262795838401 0)
(0.0119533990452 0.254446571127 0)
(0.0118768975643 0.246137088102 0)
(0.0117891604962 0.237876014947 0)
(0.0116916670144 0.229671136189 0)
(0.0115851167521 0.221529494811 0)
(0.0114707950021 0.21345741865 0)
(0.0113492672181 0.205460607584 0)
(0.0112216657042 0.197544143547 0)
(0.0110884653939 0.189712563967 0)
(0.0109506879018 0.181969855426 0)
(0.0108087592997 0.174319513433 0)
(0.0106636287429 0.166764521317 0)
(0.0105157091701 0.15930739853 0)
(0.0103659081127 0.151950167969 0)
(0.0102146517068 0.144694395652 0)
(0.01006282664 0.137541150219 0)
(0.00991088814046 0.130491037795 0)
(0.00975971242244 0.123544157846 0)
(0.0096097888993 0.116700136655 0)
(0.00946198352016 0.109958083231 0)
(0.00931681558724 0.103316624806 0)
(0.00917513252431 0.0967738661147 0)
(0.00903747123334 0.0903274293413 0)
(0.00890464528562 0.0839744191398 0)
(0.00877719054628 0.0777114691559 0)
(0.00865586512715 0.0715347146934 0)
(0.00854117768603 0.0654398472395 0)
(0.00843379832095 0.0594220962403 0)
(0.00833416287183 0.0534762929268 0)
(0.0082427813876 0.0475968607387 0)
(0.00815988468472 0.0417778785608 0)
(0.0080855538622 0.0360130386605 0)
(0.00801921591187 0.0302955574969 0)
(0.00795914554551 0.0246175928072 0)
(0.00790045960473 0.0189679587866 0)
(0.00782850799445 0.013322878947 0)
(0.00765432065177 0.00763799565921 0)
(0.00698712056062 0.00219710774288 0)
(-0.057426426362 0.0111761535006 0)
(-0.0635754429672 0.0379855825639 0)
(-0.0633568457345 0.0645849766072 -4.11248856793e-27)
(-0.0624853005479 0.0912677273941 0)
(-0.0613032188116 0.117467627378 0)
(-0.0598445916648 0.143094422061 0)
(-0.0581302102731 0.168036485161 0)
(-0.0561824202596 0.192190150456 0)
(-0.0540255823125 0.215461560742 0)
(-0.051685152589 0.237767680518 0)
(-0.0491874359015 0.259036722889 0)
(-0.0465586609572 0.279208347746 0)
(-0.0438248830108 0.298233557468 0)
(-0.0410111189427 0.3160744154 0)
(-0.0381414417932 0.332703548481 0)
(-0.0352382114161 0.348103547107 0)
(-0.0323223740817 0.362266225307 0)
(-0.029412793438 0.375191846451 0)
(-0.0265267401021 0.386888279013 0)
(-0.0236793043552 0.397370175856 0)
(-0.0208840401414 0.406658139338 0)
(-0.0181524239703 0.414777950875 0)
(-0.015494604639 0.421759822828 0)
(-0.0129188660905 0.427637733494 0)
(-0.0104324337832 0.432448798148 0)
(-0.0080409063199 0.43623272155 0)
(-0.00574908293175 0.439031284352 0)
(-0.00356034744423 0.440887897417 0)
(-0.001477501122 0.441847180895 0)
(0.000497900731132 0.441954595585 0)
(0.00236472045743 0.441256107939 0)
(0.00412292531793 0.439797860137 0)
(0.00577268566445 0.437625894554 0)
(0.00731518450688 0.434785931671 0)
(0.00875174637899 0.431323107809 0)
(0.010084553935 0.427281776774 0)
(0.01131579994 0.422705324562 0)
(0.0124484400378 0.417636012603 0)
(0.0134853408176 0.412114838803 0)
(0.0144300393852 0.406181418609 0)
(0.0152858961387 0.399873884371 0)
(0.0160568574819 0.393228800002 0)
(0.0167466165851 0.38628109535 0)
(0.0173593739016 0.379064011494 0)
(0.0178990085684 0.371609066729 0)
(0.0183698322034 0.363946030001 0)
(0.0187757742205 0.356102916991 0)
(0.0191211251352 0.34810599018 0)
(0.0194097394962 0.339979782524 0)
(0.0196457662766 0.33174712181 0)
(0.0198328738426 0.323429179712 0)
(0.0199749656098 0.315045517528 0)
(0.0200754314458 0.306614156081 0)
(0.0201378474716 0.298151637992 0)
(0.0201652581614 0.289673113369 0)
(0.0201608588531 0.281192412797 0)
(0.0201273118061 0.272722141614 0)
(0.0200674097353 0.264273756484 0)
(0.01998342811 0.255857661461 0)
(0.019877767078 0.247483281371 0)
(0.0197523408638 0.239159152408 0)
(0.0196091949876 0.23089298602 0)
(0.0194499326877 0.222691748896 0)
(0.0192763036837 0.214561713056 0)
(0.0190896666128 0.206508521206 0)
(0.0188915457187 0.198537220495 0)
(0.0186831280777 0.190652312156 0)
(0.018465784723 0.182857768899 0)
(0.018240601312 0.175157069171 0)
(0.018008861028 0.16755319979 0)
(0.0177716077884 0.160048677536 0)
(0.017530088948 0.152645540332 0)
(0.017285350492 0.145345359398 0)
(0.0170386386282 0.138149222853 0)
(0.0167910270107 0.13105774273 0)
(0.0165437769911 0.124071035264 0)
(0.0162979972067 0.117188726486 0)
(0.0160549630374 0.110409932966 0)
(0.0158158092313 0.103733269663 0)
(0.0155818093984 0.0971568343784 0)
(0.0153541022907 0.0906782203476 0)
(0.0151339323584 0.0842945066293 0)
(0.0149224101206 0.0780022773606 0)
(0.0147207142731 0.0717976193468 0)
(0.014529885555 0.0656761483152 0)
(0.0143509893065 0.0596330130575 0)
(0.014184939359 0.0536629260115 0)
(0.014032615114 0.0477601659317 0)
(0.0138947050671 0.0419185926935 0)
(0.0137717674247 0.0361315995897 0)
(0.0136640961346 0.0303920029747 0)
(0.0135718240966 0.0246916896775 0)
(0.0134950622995 0.0190207013284 0)
(0.013432673188 0.0133613866884 0)
(0.013325394517 0.00777089490309 0)
(0.012082020916 0.00226353601093 0)
(-0.0818677359049 0.0113059236074 0)
(-0.0907045854924 0.0385658059155 0)
(-0.0903837672462 0.0655117220829 4.1105786129e-27)
(-0.0891250390852 0.0925618360449 0)
(-0.0874205731686 0.119112959918 0)
(-0.0853204217048 0.145069815869 0)
(-0.0828543846073 0.17031645022 0)
(-0.0800547216393 0.19474620006 0)
(-0.0769565574891 0.21826315099 0)
(-0.0735968400888 0.240783017866 0)
(-0.0700135383168 0.262233503937 0)
(-0.0662446800689 0.282554411731 0)
(-0.0623277455694 0.301697473306 0)
(-0.058298887552 0.319625966889 0)
(-0.0541925608677 0.336314139452 0)
(-0.0500409532125 0.351746498641 0)
(-0.0458738610623 0.365916992849 0)
(-0.0417183266985 0.378828137778 0)
(-0.0375987385585 0.390490104956 0)
(-0.0335366410541 0.400919822344 0)
(-0.0295510100308 0.410140095706 0)
(-0.0256581771536 0.418178788297 0)
(-0.0218722114369 0.425068056612 0)
(-0.0182048887649 0.430843664266 0)
(-0.0146661096383 0.435544360461 0)
(-0.0112638552417 0.439211331839 0)
(-0.00800459361038 0.441887707769 0)
(-0.0048931940499 0.443618121556 0)
(-0.00193330650909 0.444448309076 0)
(0.000872765169012 0.444424747593 0)
(0.00352370677784 0.443594322999 0)
(0.00601935329409 0.442004057237 0)
(0.00836027141331 0.439700719521 0)
(0.0105480204772 0.436730709072 0)
(0.0125847734332 0.433139772507 0)
(0.0144734899258 0.428972804338 0)
(0.0162175780777 0.424273670632 0)
(0.0178210865047 0.419085052954 0)
(0.019288372296 0.413448313064 0)
(0.0206243014187 0.4074033767 0)
(0.0218339244539 0.400988635686 0)
(0.0229226831501 0.394240865888 0)
(0.0238960935763 0.387195162377 0)
(0.024759955385 0.379884888112 0)
(0.0255200417815 0.372341639493 0)
(0.0261823091156 0.36459522396 0)
(0.0267525941781 0.356673654494 0)
(0.0272368226605 0.348603154769 0)
(0.0276407153386 0.340408181128 0)
(0.0279699956812 0.332111453679 0)
(0.028230107743 0.323734003532 0)
(0.028426423867 0.31529522683 0)
(0.028563977504 0.306812953324 0)
(0.0286476726866 0.298303518662 0)
(0.0286820349744 0.289781848693 0)
(0.0286714236389 0.281261543539 0)
(0.0286198028485 0.272754970398 0)
(0.028530956773 0.264273351893 0)
(0.0284082818358 0.255826859683 0)
(0.0282550032502 0.247424699389 0)
(0.0280739874465 0.239075197583 0)
(0.0278679575224 0.230785876641 0)
(0.0276393237487 0.222563529257 0)
(0.0273903941788 0.214414278339 0)
(0.0271232201652 0.206343635208 0)
(0.0268397982545 0.198356542043 0)
(0.0265419275217 0.190457412508 0)
(0.0262313988363 0.182650156648 0)
(0.0259098610386 0.17493820486 0)
(0.0255789946029 0.167324517276 0)
(0.0252403845214 0.159811593984 0)
(0.0248956761908 0.152401472441 0)
(0.0245464537311 0.145095727883 0)
(0.0241943772228 0.137895463129 0)
(0.0238410662151 0.130801303702 0)
(0.0234882182588 0.123813384518 0)
(0.0231374980687 0.116931343945 0)
(0.0227906382189 0.110154311419 0)
(0.0224493350066 0.103480904181 0)
(0.0221153324879 0.0969092190663 0)
(0.0217903262617 0.0904368345935 0)
(0.0214760322735 0.0840608091124 0)
(0.021174099681 0.0777776898511 0)
(0.0208861654835 0.0715835183059 0)
(0.0206137771217 0.0654738461154 0)
(0.0203584334497 0.059443746279 0)
(0.0201215172057 0.0534878323929 0)
(0.0199043231686 0.047600268395 0)
(0.0197080043227 0.0417747764617 0)
(0.0195336027751 0.0360046184807 0)
(0.0193820555786 0.0302825630031 0)
(0.0192543451464 0.0246007769089 0)
(0.0191516017391 0.0189506981754 0)
(0.0190713415654 0.0133179420448 0)
(0.0189212873155 0.00777946192141 0)
(0.0170054510957 0.00228930838738 0)
(-0.10670971966 0.0114728097149 0)
(-0.118242019099 0.039326729938 0)
(-0.117812618507 0.066752036966 0)
(-0.116151366179 0.0942947919325 0)
(-0.113902787315 0.121314250926 0)
(-0.111134171375 0.147709626752 0)
(-0.107885663507 0.173359706134 0)
(-0.104200534128 0.198153866133 0)
(-0.100125705192 0.221993431104 0)
(-0.0957104842083 0.244792481211 0)
(-0.0910053599149 0.266478117513 0)
(-0.0860608361645 0.286990460446 0)
(-0.0809264795621 0.306282363736 0)
(-0.0756500333997 0.324318897034 0)
(-0.0702767768137 0.341076638128 0)
(-0.0648489485478 0.356542826487 0)
(-0.0594054242701 0.370714416809 0)
(-0.0539814379078 0.383597079957 0)
(-0.0486085459979 0.395204185349 0)
(-0.043314598356 0.405555804632 0)
(-0.0381239227094 0.414677761606 0)
(-0.0330574624307 0.422600755257 0)
(-0.0281330858169 0.429359565999 0)
(-0.0233657901692 0.434992354127 0)
(-0.0187680372447 0.439540043943 0)
(-0.0143499390208 0.443045787647 0)
(-0.0101195549366 0.445554493148 0)
(-0.00608302133524 0.44711240505 0)
(-0.00224479647432 0.447766724682 0)
(0.00139225976819 0.447565263056 0)
(0.00482667618519 0.44655611727 0)
(0.00805834601165 0.44478742746 0)
(0.011088222269 0.442306928602 0)
(0.0139184089532 0.439161934685 0)
(0.0165519192295 0.435398991598 0)
(0.0189926498657 0.431063702499 0)
(0.0212452044679 0.426200556794 0)
(0.023314876713 0.420852778883 0)
(0.0252074856106 0.415062197862 0)
(0.0269293703909 0.408869135952 0)
(0.0284872364708 0.402312314336 0)
(0.0298881591453 0.395428774827 0)
(0.0311394376378 0.388253817306 0)
(0.0322486041694 0.380820951415 0)
(0.0332232838306 0.373161863255 0)
(0.0340712067414 0.365306395723 0)
(0.0348000729489 0.35728254387 0)
(0.0354175671332 0.349116463435 0)
(0.0359312296256 0.340832494085 0)
(0.0363484750415 0.33245319507 0)
(0.0366764721148 0.323999394797 0)
(0.0369221689466 0.315490251092 0)
(0.0370921852896 0.306943323305 0)
(0.0371928476293 0.298374652311 0)
(0.0372300973801 0.289798849338 0)
(0.0372095382922 0.281229188821 0)
(0.0371363628267 0.272677706009 0)
(0.0370154128702 0.264155294245 0)
(0.0368511246089 0.255671802859 0)
(0.0366476014256 0.247236130385 0)
(0.0364085755071 0.238856314441 0)
(0.0361374899236 0.230539613377 0)
(0.0358374734307 0.222292581769 0)
(0.0355114272751 0.214121135216 0)
(0.0351620086035 0.206030607308 0)
(0.0347917170024 0.198025794914 0)
(0.0344028817005 0.190110995497 0)
(0.0339977430244 0.182290033075 0)
(0.0335784391442 0.174566277161 0)
(0.0331470786009 0.166942651852 0)
(0.0327057234658 0.159421639894 0)
(0.0322564503735 0.152005279066 0)
(0.031801328354 0.144695155915 0)
(0.0313424673005 0.137492394336 0)
(0.0308819900943 0.130397644081 0)
(0.0304220686739 0.123411066522 0)
(0.0299648911781 0.116532322574 0)
(0.0295126867911 0.10976055999 0)
(0.029067689382 0.103094404694 0)
(0.0286321528323 0.0965319530216 0)
(0.0282083130089 0.0900707692104 0)
(0.0277983955309 0.083707884755 0)
(0.0274045779685 0.0774398036028 0)
(0.0270289919014 0.0712625093814 0)
(0.0266736871346 0.0651714780958 0)
(0.0263406300311 0.0591616920664 0)
(0.0260316722768 0.0532276577846 0)
(0.0257485497917 0.0473634222294 0)
(0.0254928647155 0.0415625905783 0)
(0.0252661032959 0.0358183390696 0)
(0.0250696677504 0.0301234402792 0)
(0.0249049659684 0.0244702882561 0)
(0.0247732418186 0.0188510090406 0)
(0.0246695257777 0.0132521357955 0)
(0.0244698793631 0.00775271880464 0)
(0.0219538135841 0.00228976021144 0)
(-0.132092537549 0.0116811505458 0)
(-0.146362788255 0.0402960522209 0)
(-0.145812296248 0.0683407694434 0)
(-0.143724948125 0.0965159967751 0)
(-0.140901065505 0.12413478449 0)
(-0.137426316711 0.151089763219 0)
(-0.133352546833 0.177253339049 0)
(-0.128735398245 0.202509986729 0)
(-0.123634928702 0.226757624072 0)
(-0.11811402915 0.249908381569 0)
(-0.112236846719 0.271888754522 0)
(-0.106067333935 0.292639456594 0)
(-0.0996680026859 0.31211497054 0)
(-0.0930988545717 0.330282853992 0)
(-0.0864165420901 0.347122852608 0)
(-0.0796737098287 0.362625873983 0)
(-0.072918563605 0.376792870038 0)
(-0.0661946012848 0.389633676271 0)
(-0.0595405483134 0.401165850527 0)
(-0.0529904155428 0.411413552896 0)
(-0.0465737149019 0.420406499575 0)
(-0.0403157345097 0.428179017551 0)
(-0.0342379048209 0.434769213692 0)
(-0.028358151134 0.440218262254 0)
(-0.0226912732782 0.444569801508 0)
(-0.0172492575546 0.447869423746 0)
(-0.0120415839383 0.450164236837 0)
(-0.00707545102857 0.451502477681 0)
(-0.00235600204346 0.451933160491 0)
(0.00211351719135 0.451505749121 0)
(0.0063315752756 0.450269847267 0)
(0.010298274788 0.448274989593 0)
(0.0140150349446 0.445570111548 0)
(0.0174846491551 0.442203669618 0)
(0.0207110460913 0.438223202615 0)
(0.0236991923606 0.433675195736 0)
(0.0264549480082 0.428604912223 0)
(0.028984972247 0.423056249273 0)
(0.0312965953406 0.417071614438 0)
(0.0333977398114 0.410691820085 0)
(0.0352968061469 0.403955994354 0)
(0.0370026054213 0.396901507163 0)
(0.0385242543472 0.389563910792 0)
(0.0398711146596 0.381976894345 0)
(0.0410526937714 0.374172252439 0)
(0.0420785881075 0.366179867784 0)
(0.0429583879285 0.35802770828 0)
(0.0437016242184 0.349741838237 0)
(0.044317678773 0.341346444337 0)
(0.0448157368742 0.332863875484 0)
(0.0452047060556 0.324314696723 0)
(0.0454931785582 0.315717755656 0)
(0.0456893634383 0.307090260905 0)
(0.0458010635351 0.298447870255 0)
(0.0458356254779 0.289804787342 0)
(0.045799934876 0.28117386383 0)
(0.0457003871064 0.272566705585 0)
(0.0455429023564 0.263993779454 0)
(0.0453329175188 0.255464519111 0)
(0.0450754198296 0.246987426655 0)
(0.0447749573524 0.238570168829 0)
(0.0444356874293 0.230219665006 0)
(0.0440614009658 0.221942166485 0)
(0.0436555799658 0.21374332493 0)
(0.0432214294437 0.205628250352 0)
(0.0427619376261 0.197601557298 0)
(0.0422799091308 0.189667400441 0)
(0.0417780216681 0.181829498965 0)
(0.0412588549051 0.174091151663 0)
(0.040724938807 0.166455242683 0)
(0.040178774172 0.158924240301 0)
(0.0396228694457 0.151500188972 0)
(0.0390597507514 0.14418469721 0)
(0.0384919859605 0.136978921656 0)
(0.0379221838586 0.12988354984 0)
(0.0373530058428 0.12289878185 0)
(0.0367871552803 0.116024313215 0)
(0.0362273784663 0.109259318978 0)
(0.0356764461999 0.102602440957 0)
(0.0351371462981 0.096051777837 0)
(0.0346122598789 0.0896048797302 0)
(0.0341045480582 0.0832587465266 0)
(0.0336167255663 0.0770098312565 0)
(0.0331514442502 0.0708540474791 0)
(0.0327112667036 0.0647867814497 0)
(0.032298649517 0.0588029078725 0)
(0.0319159204832 0.0528968097307 0)
(0.0315652665632 0.0470624012443 0)
(0.0312487222914 0.0412931548235 0)
(0.0309681748473 0.0355821335856 0)
(0.0307253804612 0.0299220507802 0)
(0.0305219813272 0.0243053228246 0)
(0.0303591114963 0.0187241829033 0)
(0.0302295674883 0.0131651387194 0)
(0.0299797191362 0.00770537739395 0)
(0.0268840097977 0.00228121478512 0)
(-0.15815038732 0.011936140501 0)
(-0.175219877814 0.0414916960267 0)
(-0.174530781865 0.0703025628001 4.13409419031e-27)
(-0.171985723836 0.0992587642684 0)
(-0.168545576335 0.127615837608 0)
(-0.164315873844 0.155258264669 0)
(-0.159361770746 0.182050697018 0)
(-0.153752978029 0.207871716677 0)
(-0.147564373858 0.232615238722 0)
(-0.140874009797 0.256191233017 0)
(-0.133761128986 0.278525725201 0)
(-0.126304380549 0.299560457643 0)
(-0.118580283544 0.319252222998 0)
(-0.110661944155 0.337571940508 0)
(-0.102618042145 0.354503537911 0)
(-0.0945120697155 0.37004269721 0)
(-0.0864018287462 0.384195518439 0)
(-0.0783391592947 0.39697715382 0)
(-0.0703698963013 0.408410462608 0)
(-0.0625340123657 0.418524734048 0)
(-0.0548659276051 0.427354519446 0)
(-0.047394925635 0.434938604265 0)
(-0.0401456437042 0.441319136595 0)
(-0.0331385697339 0.446540911819 0)
(-0.026390522219 0.450650797153 0)
(-0.0199150648068 0.453697267947 0)
(-0.0137228614932 0.455730022472 0)
(-0.00782195519126 0.456799644133 0)
(-0.00221800265719 0.45695728836 0)
(0.00308553767701 0.456254376369 0)
(0.00808720981802 0.454742307944 0)
(0.0127874848652 0.452472277387 0)
(0.0171883821009 0.449494661919 0)
(0.0212935217759 0.445859273972 0)
(0.0251078703719 0.441614836212 0)
(0.0286375979408 0.436808882833 0)
(0.031889926116 0.431487595216 0)
(0.0348729969449 0.425695667311 0)
(0.0375957416935 0.419476190867 0)
(0.0400677697797 0.412870557694 0)
(0.0422992550702 0.405918376928 0)
(0.0443008387894 0.398657406054 0)
(0.0460835263942 0.39112349511 0)
(0.0476585979166 0.383350543984 0)
(0.0490375101141 0.375370473074 0)
(0.0502318104442 0.367213207786 0)
(0.0512530424318 0.358906677459 0)
(0.0521126629318 0.350476829152 0)
(0.0528219521433 0.341947656689 0)
(0.0533919371641 0.333341244976 0)
(0.0538333111045 0.324677829372 0)
(0.0541563684693 0.315975869277 0)
(0.0543709396482 0.307252134758 0)
(0.0544863445487 0.298521804436 0)
(0.0545113485471 0.289798572537 0)
(0.0544541395629 0.281094762511 0)
(0.0543223093881 0.272421444493 0)
(0.0541228564549 0.26378855367 0)
(0.0538621929786 0.255205006772 0)
(0.0535461719472 0.246678813857 0)
(0.053180116827 0.238217183004 0)
(0.0527688678789 0.229826615745 0)
(0.0523168281757 0.221512991642 0)
(0.0518280219537 0.213281640701 0)
(0.0513061490096 0.205137403001 0)
(0.0507546468595 0.197084675244 0)
(0.050176745366 0.189127444571 0)
(0.0495755249597 0.1812693102 0)
(0.0489539644771 0.173513494011 0)
(0.0483149893603 0.165862841301 0)
(0.0476615077241 0.15831981333 0)
(0.0469964447489 0.150886473199 0)
(0.0463227644315 0.143564466847 0)
(0.0456434888179 0.136355000768 0)
(0.0449617051784 0.129258818155 0)
(0.0442805707878 0.122276174857 0)
(0.0436033070556 0.115406816571 0)
(0.0429331920432 0.108649958353 0)
(0.0422735442266 0.102004267519 0)
(0.0416277057653 0.0954678505862 0)
(0.0409990191298 0.0890382449598 0)
(0.0403908044705 0.0827124156165 0)
(0.0398063324782 0.076486757113 0)
(0.0392487992026 0.0703571008237 0)
(0.03872129851 0.0643187273903 0)
(0.0382267978283 0.0583663842329 0)
(0.0377681139754 0.0524943081249 0)
(0.0373478941812 0.0466962527115 0)
(0.0369686005655 0.0409655234088 0)
(0.0366325021987 0.035295019704 0)
(0.0363416712107 0.0296772975534 0)
(0.0360979536112 0.024104628493 0)
(0.0359024273958 0.0185690774697 0)
(0.0357460606073 0.0130568210025 0)
(0.0354466911691 0.00764227240981 0)
(0.0317812484246 0.00226741522009 0)
(-0.185029709283 0.0122420247182 0)
(-0.204975257568 0.0429335757984 0)
(-0.204125371237 0.0726677684826 -4.13189285402e-27)
(-0.201082396885 0.102564166771 0)
(-0.196974080265 0.131807893335 0)
(-0.1919279194 0.160273381577 0)
(-0.186024470301 0.187815955247 0)
(-0.17934967706 0.214307268847 0)
(-0.171995359376 0.239636705612 0)
(-0.164056706358 0.263712004372 0)
(-0.155629833083 0.286459044516 0)
(-0.146809619188 0.307821246137 0)
(-0.137687872096 0.327758619062 0)
(-0.128351819943 0.346246547317 0)
(-0.118882932804 0.363274381304 0)
(-0.109356059765 0.37884390113 0)
(-0.0998388743709 0.392967709113 0)
(-0.090391611457 0.405667609021 0)
(-0.081067079705 0.416973029839 0)
(-0.0719109160219 0.426919551723 0)
(-0.0629620418825 0.435547585926 0)
(-0.0542532592456 0.442901248589 0)
(-0.0458119221305 0.44902744831 0)
(-0.0376606096281 0.453975183581 0)
(-0.0298177448698 0.457795021709 0)
(-0.0222981153406 0.460538713453 0)
(-0.015113285238 0.462258890599 0)
(-0.00827190514253 0.463008799699 0)
(-0.00177995021724 0.462842040954 0)
(0.00435908922548 0.461812277275 0)
(0.0101440275197 0.459973042355 0)
(0.0155758075419 0.457377302918 0)
(0.0206572625106 0.454077255178 0)
(0.0253929919413 0.450124228565 0)
(0.0297891520554 0.445568318912 0)
(0.0338532660087 0.440458266282 0)
(0.0375940505678 0.43484130514 0)
(0.0410212596525 0.42876304149 0)
(0.044145539301 0.422267349435 0)
(0.0469782975756 0.415396283155 0)
(0.0495315814845 0.408190001846 0)
(0.0518179634829 0.400686706319 0)
(0.05385042992 0.392922587019 0)
(0.0556422748049 0.38493178377 0)
(0.0572069924964 0.376746358102 0)
(0.05855817378 0.368396279048 0)
(0.0597094001808 0.359909423533 0)
(0.0606741419764 0.35131159225 0)
(0.0614656559913 0.342626541911 0)
(0.0620968895363 0.333876034202 0)
(0.0625803875839 0.325079901526 0)
(0.0629282100258 0.316256128799 0)
(0.0631518566024 0.307420950157 0)
(0.0632622061427 0.298588958558 0)
(0.0632694674487 0.289773225894 0)
(0.063183147527 0.280985430551 0)
(0.0630120336908 0.272235989255 0)
(0.0627641938752 0.26353418966 0)
(0.0624469906232 0.254888320396 0)
(0.0620671116539 0.246305795229 0)
(0.0616306115581 0.237793268585 0)
(0.0611429663681 0.229356739846 0)
(0.0606091349869 0.221001644662 0)
(0.0600336284782 0.21273293177 0)
(0.0594205811548 0.204555124771 0)
(0.0587738242129 0.196472368548 0)
(0.0580969562528 0.188488460908 0)
(0.0573934115948 0.180606870185 0)
(0.0566665215303 0.172830740306 0)
(0.0559195698671 0.165162884773 0)
(0.0551558389016 0.157605771634 0)
(0.0543786477213 0.150161501211 0)
(0.0535913800041 0.142831778834 0)
(0.0527975037005 0.135617884334 0)
(0.0520005806485 0.12852064036 0)
(0.0512042688007 0.121540381007 0)
(0.0504123158082 0.114676922444 0)
(0.0496285467214 0.10792953662 0)
(0.0488568450244 0.101296929289 0)
(0.0481011296605 0.0947772229674 0)
(0.0473653275858 0.0883679455956 0)
(0.0466533442847 0.0820660251293 0)
(0.0459690319851 0.075867790352 0)
(0.0453161577173 0.0697689778621 0)
(0.0446983711276 0.063764745168 0)
(0.0441191739086 0.057849689813 0)
(0.0435818909433 0.0520178744819 0)
(0.0430896447123 0.0462628586134 0)
(0.0426453329612 0.0405777364887 0)
(0.042251610213 0.0349551830779 0)
(0.0419108689592 0.0293875221135 0)
(0.0416251839049 0.0238667665954 0)
(0.0413956722912 0.0183846568985 0)
(0.0412117381954 0.012927002285 0)
(0.0408633194189 0.00756514034673 0)
(0.0366351440181 0.00224967630218 0)
(-0.212890915055 0.0126034516575 0)
(-0.235804397412 0.0446458155772 0)
(-0.234765930702 0.0754742842587 0)
(-0.23117486734 0.106483607831 0)
(-0.226333777961 0.136773916858 0)
(-0.220394956203 0.166207415514 0)
(-0.213457098123 0.194628363501 0)
(-0.205625145717 0.221900449359 0)
(-0.19701051676 0.247908113525 0)
(-0.187727975375 0.272556996533 0)
(-0.177892661926 0.295773409099 0)
(-0.167617521679 0.317503377791 0)
(-0.157011159128 0.337711325771 0)
(-0.146176107426 0.356378492663 0)
(-0.13520749445 0.373501173201 0)
(-0.124192086746 0.389088838984 0)
(-0.113207699095 0.403162202117 0)
(-0.102322957671 0.415751281503 0)
(-0.0915974012586 0.426893539134 0)
(-0.0810818888643 0.436632158205 0)
(-0.070819262222 0.44501453268 0)
(-0.0608451857432 0.452091023356 0)
(-0.0511890695606 0.457914008656 0)
(-0.0418749739386 0.462537221547 0)
(-0.0329224087069 0.466015326595 0)
(-0.024346971123 0.468403662833 0)
(-0.0161608095961 0.46975806921 0)
(-0.00837293778298 0.470134720964 0)
(-0.000989449577712 0.46958993437 0)
(0.00598631495161 0.468179895149 0)
(0.0125536318746 0.465960531149 0)
(0.0187141057668 0.462986890237 0)
(0.0244715484265 0.459313168088 0)
(0.0298317473809 0.454992440111 0)
(0.0348022303065 0.450076348766 0)
(0.039392045523 0.444614987795 0)
(0.0436115619868 0.438656768436 0)
(0.0474722902714 0.432248312979 0)
(0.0509867224107 0.42543436639 0)
(0.0541681881408 0.418257720551 0)
(0.0570307222021 0.410759148138 0)
(0.0595889396235 0.402977345172 0)
(0.0618579146939 0.394948882509 0)
(0.0638530622376 0.386708167372 0)
(0.0655900186863 0.378287416336 0)
(0.067084523142 0.369716641451 0)
(0.0683522973873 0.361023651109 0)
(0.0694089264062 0.352234067321 0)
(0.0702697397765 0.343371360688 0)
(0.0709496968144 0.334456904106 0)