/*--------------------------------*- C++ -*----------------------------------*\
| =========                 |                                                 |
| \\      /  F ield         | OpenFOAM: The Open Source CFD Toolbox           |
|  \\    /   O peration     | Version:  v1906                                 |
|   \\  /    A nd           | Web:      www.OpenFOAM.com                      |
|    \\/     M anipulation  |                                                 |
\*---------------------------------------------------------------------------*/
FoamFile
{
    version     2.0;
    format      ascii;
    class       volScalarField;
    location    "808";
    object      p;
}
// * * * * * * * * * * * * * * * * * * * * * * * * * * * * * * * * * * * * * //

dimensions      [0 2 -2 0 0 0 0];


internalField   nonuniform List<scalar> 
9216
(
273.72148191
273.801239534
273.966276165
274.217995988
274.554979908
274.975640077
275.478010071
276.059778634
276.718335602
277.450804126
278.254086764
279.124895556
280.059797528
281.055240251
282.107594077
283.213171176
284.368263023
285.569152224
286.812145003
288.093576204
289.40983736
290.757375852
292.132719519
293.532471174
294.953330745
296.392086248
297.845634287
299.31096837
300.785198345
302.265536707
303.749317385
305.233979949
306.71708787
308.196312425
309.669449973
311.134403946
312.589201955
314.031976986
315.460983892
316.874579739
318.271239749
319.649536975
321.00815772
322.345880737
323.661592173
324.95426448
326.22297094
327.466864494
328.685191908
329.877272704
331.042513015
332.180384806
333.290439458
334.372287417
335.425611531
336.450147254
337.445695725
338.412104619
339.349280925
340.25717251
341.135780535
341.985141755
342.805340496
343.596491694
344.358752347
345.09230529
345.797370014
346.474187177
347.123028714
347.74418308
348.337964573
348.904699326
349.444733808
349.958421592
350.446130991
350.908232669
351.345106407
351.757129605
352.144683197
352.508141114
352.847875367
353.164246551
353.457608125
353.72829803
353.976642212
354.202947446
354.407504174
354.590580691
354.752425551
354.893263651
355.013299459
355.112717764
355.191695269
355.250435598
355.289576361
355.306394822
273.641774166
273.721894222
273.887274622
274.139996499
274.478415934
274.90087091
275.40534957
275.98950424
276.650687802
277.38598911
278.19227464
279.066224181
280.004371478
281.003136092
282.058859751
283.167832128
284.326321444
285.530593491
286.776936368
288.061673191
289.381181698
290.731901672
292.110350512
293.513126563
294.936921755
296.378521922
297.834817396
299.302801158
300.779578012
302.262361109
303.748480017
305.235376275
306.72061065
308.201856943
309.676908762
311.143672884
312.600175042
314.044552319
315.475058316
316.890054811
318.28801631
319.667521081
321.027255159
322.366002894
323.682650509
324.976176308
326.24565389
327.490242179
328.709188391
329.901818043
331.067537766
332.205825428
333.316232881
334.398376303
335.45193894
336.476661752
337.472346178
338.438845148
339.376065859
340.283961181
341.162532419
342.011821099
342.831911671
343.622923647
344.385014181
345.118370524
345.823212406
346.499784782
347.148359946
347.769230549
348.362711397
348.929132727
349.468841673
349.982195801
350.469564241
350.931321514
351.367848343
351.77952581
352.166735878
352.52985594
352.869259081
353.185309083
353.478360474
353.748754045
353.996816744
354.22285776
354.427168318
354.610018408
354.771656519
354.912306987
355.032169339
355.131414841
355.210180697
355.268545953
355.306422589
355.32321551
273.475991254
273.557259645
273.724172655
273.97919934
274.3206636
274.746858866
275.255711701
275.844806971
276.511425657
277.252584362
278.065076971
278.94551417
279.890363175
280.895983076
281.958659239
283.074632198
284.240125389
285.451367067
286.704611504
287.996154572
289.322349383
290.679616749
292.064456537
293.473454318
294.90328966
296.350740075
297.812687209
299.286118921
300.768133996
302.255942873
303.746871254
305.238359817
306.727966961
308.213367424
309.692354235
311.162836616
312.622841098
314.070508592
315.504094789
316.921966525
318.32260152
319.704584127
321.066604517
322.407453925
323.7260234
325.021298689
326.292358667
327.538370011
328.75858544
329.952338304
331.119040756
332.258178385
333.369308416
334.452054487
335.506104949
336.531207865
337.527169457
338.493849356
339.431159215
340.339058221
341.217551849
342.066687621
342.886553952
343.67727611
344.439015108
345.171963808
345.87634579
346.552411553
347.200437313
347.820721253
348.413582213
348.979355977
349.518393829
350.031058882
350.517724505
350.978770715
351.414582504
351.825546325
352.212048358
352.57447115
352.913191858
353.228579097
353.520991219
353.790773411
354.038256072
354.263752204
354.467555914
354.649940128
354.81115517
354.951426646
355.070953629
355.169905596
355.248417858
355.30657935
355.34434989
355.362303447
273.221105636
273.303660956
273.472971272
273.731602207
274.077816405
274.509831675
275.025480622
275.622243311
276.297289311
277.047521787
277.869621978
278.760092204
279.715297123
280.731501418
281.804904413
282.931670265
284.107954846
285.329928239
286.593794394
287.895806951
289.232282999
290.599613752
291.994273961
293.412828934
294.851940979
296.308373976
297.778997862
299.260791571
300.750846204
302.246366811
303.744674572
305.243207581
306.739522233
308.231293294
309.716314336
311.192496921
312.657870309
314.110579867
315.548886023
316.971161951
318.375891845
319.761667983
321.127188425
322.47125357
323.79276341
325.090713717
326.364192991
327.61237842
328.834532662
330.029999718
331.198201674
332.338634607
333.450865406
334.534527806
335.589319369
336.614997722
337.611377741
338.578328037
339.515768355
340.423666305
341.302034963
342.150929812
342.9704465
343.760717942
344.52191217
345.254229524
345.957900536
346.633183157
347.280360603
347.899738571
348.491643018
349.056417341
349.594420067
350.106021995
350.591603818
351.051553236
351.486262546
351.896125771
352.281536249
352.64288384
352.980552564
353.294917938
353.586344721
353.855184432
354.101773249
354.326429749
354.529452993
354.711120488
354.871686417
355.011379706
355.130402116
355.228926058
355.307091988
355.365003954
355.40265296
355.420823329
272.876036432
272.960240539
273.132840096
273.396424563
273.749163123
274.189162839
274.714124226
275.321380796
276.007947128
276.770568729
277.605771211
278.509907471
279.479201832
280.50979007
281.597755091
282.739157867
283.930063972
285.16656573
286.444800689
287.760966574
289.111333542
290.492253893
291.900170025
293.331620674
294.783246121
296.251792293
297.734114287
299.227179148
300.72806832
302.233979501
303.742228287
305.250249103
306.755596191
308.255944073
309.749087466
311.232940781
312.705537415
314.165028451
315.609681172
317.037877023
318.448109418
319.838981058
321.209201145
322.557582176
323.883036711
325.184573784
326.461295366
327.712392558
328.937141898
330.13490147
331.305107201
332.447269016
333.560967243
334.645848919
335.701624387
336.728063834
337.724994131
338.692295635
339.629899291
340.53778369
341.415972409
342.264531294
343.083565976
343.873219314
344.633669018
345.365125174
346.067827902
346.742044884
347.388068997
348.00621579
348.596821047
349.160238185
349.696835731
350.206994645
350.691105721
351.149566858
351.582780419
351.991150502
352.375080301
352.734969432
353.071211358
353.384190822
353.674281403
353.941843105
354.187220091
354.410738477
354.612704273
354.793401395
354.95308981
355.092003735
355.210349924
355.308306099
355.386019712
355.443606243
355.481070844
355.499239731
272.439001143
272.525296724
272.702131774
272.97210273
273.33324974
273.783528962
274.320464313
274.941194934
275.642531187
276.42101194
277.272960128
278.194535193
279.181781093
280.230668998
281.337134377
282.497108401
283.70654405
284.96143733
286.257844292
287.591894415
288.959801089
290.357869709
291.782503991
293.230210875
294.697604477
296.181409247
297.678462656
299.185717429
300.700243499
302.219229615
303.739984708
305.259938714
306.776643441
308.28777314
309.791124167
311.284614535
312.766283062
314.23428807
315.686905723
317.122527955
318.539660071
319.936917996
321.313025266
322.666809728
323.997200074
325.303222148
326.583995188
327.838727907
329.066714592
330.267331128
331.440031101
332.584341901
333.699860956
334.786252028
335.843241682
336.870615842
337.868216549
338.835938829
339.773727741
340.681575544
341.559519019
342.40763687
343.226047263
344.014905384
344.774401098
345.504756582
346.206224007
346.879083168
347.523639112
348.140219689
348.729173091
349.290865296
349.825677487
350.334003397
350.816246631
351.272817931
351.704132451
352.110606994
352.492657287
352.850695262
353.185126397
353.496347097
353.784742169
354.050682362
354.294522028
354.516596875
354.717221852
354.896689144
355.055266312
355.193194565
355.310687201
355.40792843
355.485072482
355.542242308
355.579449721
355.597523493
271.907722789
271.996609019
272.178708031
272.456616607
272.828205924
273.291234914
273.842998691
274.480386429
275.199947718
275.997959457
276.87048963
277.813456298
278.822680341
279.893931186
281.022965323
282.205557887
283.43752788
284.714757828
286.03320874
287.388931254
288.778073783
290.196888424
291.641735232
293.109085384
294.595523621
296.097750245
297.612582861
299.136957952
300.66793234
302.202684507
303.738515707
305.272850717
306.803238661
308.327353593
309.842994001
311.348082379
312.840664277
314.318906931
315.781097467
317.225640712
318.651056617
320.055977346
321.439144059
322.799403432
324.135703957
325.447092074
326.732708168
327.991782487
329.223631017
330.427651354
331.603318619
332.750181438
333.86785803
334.956032425
336.01445083
337.042918163
338.04129476
339.009493266
339.947475692
340.855250647
341.732870705
342.580429914
343.398061395
344.185935029
344.944255184
345.673258464
346.373211456
347.044408444
347.687169081
348.301835997
348.888772332
349.448359209
349.980993116
350.487083234
350.967048704
351.421315843
351.850315341
352.254479435
352.634239094
352.990021228
353.322245935
353.631323812
353.917653338
354.18161835
354.423585627
354.643902584
354.842895102
355.0208655
355.178090652
355.314820304
355.431275584
355.527647855
355.604097972
355.66075475
355.697633984
355.715558186
271.27937906
271.371413533
271.5599122
271.847464579
272.231725598
272.7102015
273.279896241
273.937383194
274.67888515
275.500353555
276.397542643
277.366076404
278.401506879
279.499363098
280.655190826
281.864583723
283.123206951
284.426814386
285.771260681
287.152509312
288.566637696
290.009840252
291.478430149
292.968840311
294.4776241
296.001455921
297.537131956
299.081571011
300.63181552
302.185032599
303.73851486
305.289681381
306.836078437
308.375379936
309.90538706
311.424027736
312.92935564
314.419548719
315.892907274
317.347851594
318.782919198
320.196761702
321.588141375
322.955927409
324.299091975
325.616706091
326.907935379
328.172035733
329.408348966
330.616298458
331.795384883
332.945182004
334.065332618
335.155544642
336.2155874
337.245288082
338.24452844
339.213241672
340.151409523
341.059059573
341.936262698
342.78313068
343.599813929
344.386499286
345.143407882
345.870793002
346.568937937
347.238153791
347.878777217
348.491168079
349.075707008
349.632792869
350.162840133
350.666276156
351.143538392
351.595071533
352.021324623
352.422748143
352.799791092
353.152898102
353.482506581
353.789043924
354.072924804
354.334548558
354.574296688
354.792530481
354.989588779
355.165785899
355.321409733
355.456720029
355.571946902
355.667289738
355.742916207
355.798960418
355.835442266
355.853176371
270.550539988
270.646350722
270.842521611
271.141623114
271.541035428
272.037943983
272.628985509
273.310338332
274.077820208
274.926983375
275.853201532
276.851746355
277.917851976
279.046767094
280.23379531
281.474324919
282.763849739
284.097982685
285.472463759
286.883163985
288.326086569
289.797366398
291.293268678
292.81018737
294.34464382
295.893285843
297.452887353
299.020348537
300.592696435
302.167085837
303.740799917
305.311251456
306.875983641
308.432670412
309.979116205
311.513255411
313.033151311
314.536994506
316.023100831
317.48990881
318.935976655
320.359978891
321.760702611
323.137043475
324.488001445
325.812676371
327.110263427
328.380048506
329.621403578
330.833782097
332.016714468
333.169803653
334.292720922
335.385201807
336.447042263
337.478095078
338.478266521
339.447513251
340.385839457
341.293294235
342.169969161
343.015996034
343.831544749
344.616821264
345.372065608
346.0975499
346.793576332
347.460475089
348.098602171
348.708337112
349.290080563
349.844251762
350.371285872
350.871631216
351.3457464
351.794097384
352.217154472
352.615389295
352.989271772
353.339267101
353.665832783
353.969415718
354.250449381
354.509351105
354.74651948
354.962331893
355.157142221
355.331278683
355.485041887
355.618703084
355.732502628
355.826648735
355.901316513
355.956645912
355.992661351
356.010169184
269.717092302
269.817395504
270.022685846
270.335495444
270.752856099
271.271546791
271.887742678
272.597130186
273.395028192
274.276503177
275.236471994
276.269789486
277.371319555
278.535989895
279.758831766
281.035006869
282.359823723
283.72874595
285.137394702
286.581547147
288.057132632
289.560227742
291.087051228
292.63395942
294.197442573
295.774122301
297.360750146
298.95420713
300.551504107
302.149782631
303.746315603
305.338508839
306.923902191
308.500169742
310.065119769
311.616694203
313.152967528
314.672145079
316.172560794
317.652674421
319.111068258
320.546443456
321.957615958
323.343512128
324.703164151
326.035705239
327.340364737
328.616463158
329.86340723
331.080684985
332.267860962
333.424571553
334.550520552
335.645474929
336.709260869
337.741760096
338.7429065
339.712683052
340.651119019
341.558287446
342.434302872
343.279319244
344.093527991
344.877156178
345.630464726
346.353746608
347.047325004
347.711551356
348.346803298
348.953482441
349.532011992
350.082834213
350.606407729
351.10320468
351.573707773
352.018407215
352.437797596
352.832374722
353.202632439
353.549059473
353.872136325
354.172332212
354.450102126
354.705883985
354.940095926
355.153133737
355.345368463
355.517144181
355.66877598
355.800548133
355.912712501
356.005487294
356.079055835
356.133564369
356.169043061
356.186289494
268.77414424
268.879768732
269.095848509
269.424848099
269.863355898
270.407635126
271.053280527
271.795366769
272.628600121
273.547459053
274.546316108
275.619538067
276.761563484
277.96695877
279.2304554
280.546971557
281.911621676
283.319717247
284.766761734
286.248442046
287.760618409
289.299314078
290.860705853
292.441116092
294.037006533
295.644974087
297.261748429
298.884191172
300.509296209
302.134190851
303.756136709
305.3725318
306.98091225
308.578952316
310.164464669
311.735399921
313.289845457
314.82602362
316.34228923
317.837126535
319.309145606
320.757078285
322.179773717
323.576193582
324.945407056
326.286585615
327.598997718
328.882003454
330.135049198
331.35766236
332.549446248
333.710075138
334.839289559
335.936891877
337.002742176
338.036754499
339.038893429
340.009171047
340.947644222
341.854412235
342.729614681
343.573429604
344.386071806
345.167791266
345.918871596
346.639628483
347.330408042
347.991585046
348.62356098
349.226761912
349.801636137
350.348651639
350.868293328
351.361060125
351.827461875
352.268016157
352.683244998
353.073671549
353.43981673
353.78219591
354.101315619
354.397670346
354.67173943
354.923984082
355.154844538
355.364737384
355.554053047
355.723153487
355.872370081
356.002001748
356.112313272
356.203533887
356.275856136
356.329433625
356.364302877
356.381252002
267.715904178
267.827823304
268.056648512
268.404732205
268.868095365
269.442343652
270.122339819
270.902396844
271.776469491
272.738326889
273.781697151
274.900381094
276.088335196
277.339726594
278.648964553
280.010713435
281.41989217
282.871664663
284.361424838
285.884779173
287.437528886
289.015653253
290.615295084
292.232748923
293.864452285
295.506979848
297.157040376
298.811475839
300.467262184
302.121511093
303.771471519
305.414532522
307.048225871
308.670225847
310.27835003
311.87055888
313.444954531
314.999778797
316.533410453
318.04436183
319.531274839
320.992916457
322.428173811
323.836048906
325.215653114
326.566201471
327.887006903
329.177474395
330.437095227
331.665441296
332.862159618
334.026967038
335.159645246
336.260036101
337.328037358
338.36359878
339.366718703
340.337441019
341.27585259
342.18208104
343.056292897
343.898692005
344.709518139
345.489045739
346.237582689
346.955469037
347.643075617
348.300802475
348.92907709
349.528352321
350.099104109
350.641828892
351.157040796
351.64526858
352.107052421
352.542940538
352.953485719
353.339241794
353.700760083
354.038585865
354.353254903
354.645290054
354.915197984
355.163466025
355.39055919
355.596917355
355.782952642
355.949046997
356.095549995
356.222776859
356.331006711
356.420481195
356.491403065
356.543933904
356.578117876
356.594732648
266.535524696
266.654899459
266.898795316
267.269386662
267.761962108
268.371283503
269.091285966
269.915331575
270.836452974
271.847565866
272.941640018
274.111826605
275.351543983
276.65452741
278.014849845
279.426921384
280.885474238
282.385539084
283.922417312
285.491652494
287.089003327
288.710419554
290.35202175
292.010085479
293.681029907
295.36141072
297.047916787
298.737369856
300.42672633
302.113080151
303.79366555
305.46586112
307.127193157
308.775335603
310.408111361
312.023491966
313.619596289
315.194688354
316.747174272
318.275598455
319.778639134
321.255103349
322.703921455
324.124141299
325.51492212
326.875528302
328.205323033
329.503761968
330.770386941
332.004819839
333.206756643
334.375961765
335.512262698
336.615545085
337.685748208
338.722861005
339.726918571
340.697999214
341.636221993
342.541744759
343.414762571
344.255506475
345.064242499
345.841270794
346.586924794
347.301570316
347.98560448
348.639454405
349.263575598
349.858450027
350.424583835
350.96250474
351.472759103
351.955908747
352.412527535
352.843197787
353.248506572
353.629041941
353.985389129
354.318126799
354.627823329
354.915033217
355.180293591
355.42412089
355.647007705
355.849419822
356.031793466
356.194532772
356.338007478
356.462550884
356.568458026
356.655984107
356.725343255
356.776706221
356.810125338
356.826366766
265.224900742
265.353137689
265.614911141
266.012118993
266.53909525
267.189509931
267.956115458
268.831082438
269.80631117
270.873693272
272.025312203
273.253582405
274.551332778
275.9118442
277.328852373
278.796526875
280.309435877
281.862503873
283.4509678
285.070335087
286.716345842
288.384940417
290.072233035
291.77449173
293.488124576
295.209671784
296.935802889
298.663317864
300.389150885
302.110374547
303.824205597
305.528010156
307.219307047
308.89576927
310.555225392
312.1956593
313.815208816
315.412163205
316.984959725
318.532179311
320.052541542
321.544898977
323.008231031
324.44163746
325.844331622
327.215633565
328.554963077
329.861832737
331.135841077
332.37666589
333.584057792
334.757834078
335.897872991
337.004108426
338.076525204
339.115154906
340.120072354
341.09139272
342.029269262
342.933891628
343.805484673
344.64430766
345.450653759
346.224849684
346.967255353
347.67826343
348.358298651
349.007816812
349.627303393
350.217271735
350.778260795
351.31083247
351.815568546
352.293067303
352.743939867
353.168806349
353.568291859
353.943022445
354.293621018
354.620703313
354.924873924
355.206722458
355.466819828
355.705714723
355.92393027
356.121960906
356.300269491
356.459284642
356.599398342
356.720963776
356.824293435
356.909657618
356.9772829
357.027349826
357.059920221
357.075747478
263.774405613
263.913237209
264.196330084
264.62515927
265.192799466
265.891494703
266.712478946
267.646423774
268.683837938
269.815388386
271.03213171
272.325659933
273.688172452
275.112490529
276.592031481
278.12075807
279.693115546
281.30396537
282.94852154
284.622292942
286.321033429
288.040700347
289.777421684
291.527471871
293.287256004
295.053301934
296.822259062
298.590902204
300.356138578
302.115014529
303.864724902
305.602619992
307.326208879
309.033162624
310.721315667
312.388665654
314.033371822
315.653752135
317.248279284
318.815575768
320.354408136
321.863680599
323.342428105
324.789809068
326.205097842
327.587677094
328.937030131
330.252733299
331.534448485
332.78191583
333.994946695
335.173416997
336.317260976
337.426465527
338.50106514
339.541137573
340.546800261
341.518207524
342.455548516
343.359045907
344.228955152
345.065564279
345.869193981
346.64019791
347.378962943
348.0859093
348.761490338
349.406191935
350.020531349
350.605055546
351.160338954
351.686980698
352.185601353
352.656839301
353.101346765
353.519785622
353.912823067
354.281127208
354.625362659
354.94618618
355.244242422
355.520159797
355.774546526
356.00798688
356.221037635
356.414224773
356.588040435
356.74294013
356.879340222
356.997615707
357.098098243
357.181074455
357.246784606
357.295420311
357.32705336
357.342423078
262.172541706
262.324138504
262.632841122
263.099481108
263.71545013
264.471110336
265.35573174
266.358092197
267.466990262
268.671635779
269.961909958
271.32850679
272.762977909
274.257707376
275.805842036
277.401198855
279.038165194
280.711602466
282.416759075
284.149195192
285.904719937
287.679340563
289.469223157
291.270664513
293.08007498
294.893971645
296.708980399
298.52184442
300.329436208
302.12876866
303.91700826
305.691484819
307.44969486
309.189306104
310.908159046
312.604266667
314.275812492
315.921147138
317.538783656
319.12739182
320.685791543
322.212945567
323.707951646
325.170034339
326.598536628
327.992911438
329.352713206
330.677589507
331.967272876
333.2215728
334.440368046
335.623599345
336.771262608
337.883402747
338.96010826
340.001506649
341.007760777
341.979066154
342.915649193
343.81776632
344.685703865
345.519778536
346.320338319
347.087763558
347.822468015
348.524899682
349.195541189
349.834909624
350.443555716
351.022062281
351.571041976
352.091134376
352.583002475
353.047328691
353.484810518
353.896155913
354.282078545
354.643292975
354.980509863
355.294431246
355.585745944
355.855125122
356.103218063
356.330648148
356.538009101
356.725861491
356.894729519
357.045098098
357.177410233
357.292064685
357.389413931
357.469762568
357.533365684
357.58042657
357.611028384
357.625894891
260.405471821
260.572603859
260.912356731
261.424583633
262.098393619
262.921638207
263.881028222
264.962940724
266.154075236
267.441921716
268.815039603
270.263174177
271.777248914
273.349275676
274.972220054
276.639850728
278.346592303
280.087392736
281.857610021
283.652918622
285.46923394
287.302652623
289.149407127
291.005834006
292.868356058
294.733478145
296.59779482
298.458006321
300.31093818
302.153558996
303.982998475
305.796559955
307.591723731
309.366152574
311.11769326
312.844376056
314.544412162
316.216189498
317.858267152
319.469368745
321.048374815
322.594314452
324.10635637
325.583799656
327.026064363
328.432682121
329.803286826
331.137605487
332.435449241
333.696704606
334.921325019
336.109322806
337.260761679
338.375749979
339.454434762
340.496996932
341.503647469
342.474624859
343.410193669
344.310644248
345.176293349
346.007485527
346.804595018
347.568027856
348.298223903
348.995658566
349.660843926
350.294329134
350.89669992
351.468577197
352.010614747
352.52349608
353.007930561
353.464648978
353.894398673
354.297938421
354.676033154
355.029448671
355.358946384
355.665278194
355.949181509
356.211374478
356.452551443
356.673378655
356.87449027
357.056484649
357.219920973
357.365316186
357.493142248
357.603823751
357.697735821
357.775202312
357.836494434
357.881828501
357.911299491
357.925614078
258.45638029
258.642652912
259.0204831
259.588227955
260.331852266
261.235820561
262.283485611
263.458173612
264.744017169
266.126501462
267.592739268
269.131525677
270.733237718
272.389643471
274.093673755
275.839193802
277.620797141
279.433631601
281.27325884
283.135543747
285.016568176
286.91256386
288.81986146
290.734855319
292.653985376
294.573737437
296.490659789
298.401391032
300.302690611
302.191467611
304.064804671
305.919970781
307.754425994
309.565826457
311.35202575
313.111073903
314.841213967
316.540876661
318.208673746
319.843390256
321.443975701
323.009534393
324.539315239
326.032701221
327.489198855
328.908427762
330.290110461
331.634062354
332.940181931
334.208441158
335.438876167
336.631578317
337.786685873
338.904376461
339.984860563
341.028376223
342.035185135
343.005570176
343.939834431
344.838301567
345.701317442
346.529252625
347.322505571
348.08150601
348.806718262
349.498644043
350.157824533
350.784841429
351.380316869
351.94491215
352.479325303
352.984287596
353.460559178
353.908924024
354.330184426
354.725155213
355.094657863
355.439514636
355.76054282
356.058549137
356.334324351
356.588638127
356.822234146
357.035825519
357.23009053
357.405668711
357.563157282
357.703107945
357.826024052
357.932358111
358.022509629
358.096823453
358.155588082
358.199033438
358.227267804
358.240979019
256.304585761
256.514795211
256.939959093
257.576124636
258.404852749
259.405989649
260.558456007
261.841699546
263.236736228
264.726760257
266.297368794
267.936493131
269.63414327
271.382063784
273.173374337
275.002240848
276.863599635
278.752939861
280.666138825
282.599339405
284.548857821
286.51111212
288.482566308
290.459690577
292.438942276
294.416772748
296.389657831
298.35414439
300.306897525
302.244746181
304.164712822
306.06402376
307.940114967
309.790634579
311.613443944
313.406616214
315.168431518
316.897369998
318.592103816
320.25148821
321.87455126
323.460482682
325.008622032
326.518446717
327.989560112
329.421680059
330.814627701
332.168316647
333.482742313
334.757971426
335.994131679
337.191401769
338.350001986
339.470185718
340.552232124
341.596440295
342.603125084
343.572614787
344.505250642
345.401388116
346.261399696
347.085678907
347.874645082
348.62874845
349.348475019
350.034350818
350.686945093
351.306872186
351.894791903
352.451408342
352.977467219
353.473751891
353.941078278
354.380289014
354.79224708
355.177829215
355.537919281
355.873401748
356.185155355
356.474047022
356.740926012
356.986618373
357.211921701
357.417600222
357.604380261
357.772946078
357.923936129
358.057939722
358.175494073
358.277081786
358.363128662
358.434001847
358.490008453
358.531393405
358.558278712
358.571331584
253.924283134
254.164967182
254.649922011
255.371575299
256.305214439
257.424328343
258.701966001
260.112657292
261.633681194
263.245696139
264.932829364
266.682382725
268.484327569
270.330734615
272.215236581
274.132575034
276.078248135
278.048253698
280.038910058
282.046732612
284.068344765
286.100406887
288.1395554
290.182354641
292.225273157
294.264699067
296.29699197
298.318559178
300.325931507
302.315829266
304.285199392
306.231219957
308.151300073
310.043078924
311.904427214
313.733445822
315.528458745
317.288003494
319.010821652
320.695848835
322.342202845
323.949170502
325.516193963
327.042856876
328.528871008
329.974063573
331.378365221
332.74179842
334.064466027
335.346539803
336.58824895
337.789868814
338.951710164
340.074109398
341.15742016
342.202006709
343.2082394
344.176492442
345.107144022
346.000578666
346.857191599
347.677394614
348.461622968
349.210342594
349.924057049
350.603313531
351.248707526
351.860885653
352.440546554
352.988439749
353.50536258
353.992155484
354.449695952
354.878891567
355.28067255
355.655984142
356.005779091
356.331010387
356.632624311
356.911553807
357.168712179
357.404987099
357.621234972
357.818275675
357.996887713
358.157803823
358.301707032
358.429227191
358.540937958
358.637354197
358.71892978
358.786055924
358.83905951
358.878200992
358.903617662
358.915954054
251.282715135
251.563039079
252.124948035
252.955090387
254.019665109
255.283350524
256.711413303
258.272190843
259.938572765
261.688558023
263.505061125
265.375228498
267.289542025
269.240925053
271.223973243
273.234357753
275.268399823
277.322790335
279.394417085
281.480260874
283.577325253
285.682573511
287.792860522
289.904866103
292.015055204
294.119703635
296.214983071
298.297086319
300.362350044
302.407351262
304.428948488
306.424271334
308.390702513
310.325871666
312.227660684
314.09420476
315.923880874
317.715293465
319.467263756
321.178819548
322.849181368
324.477746764
326.064074198
327.607866912
329.108957723
330.56729531
331.982931478
333.356009048
334.686749772
335.975441896
337.222427316
338.428088694
339.592836946
340.717099802
341.80131193
342.845907256
343.851313851
344.817951757
345.746233795
346.63656932
347.489370517
348.305060735
349.084084061
349.826915349
350.534069775
351.206111173
351.843658445
352.447389626
353.018043304
353.556417426
354.063365601
354.539791308
354.986640461
355.404892979
355.79555387
356.159644357
356.498193316
356.812229203
357.10277246
357.370828365
357.617380234
357.843382991
358.049757102
358.237382925
358.407095539
358.559680082
358.69586763
358.816331603
358.921684679
359.012476218
359.089190084
359.152242826
359.201982394
359.238686164
359.26250707
359.274064853
248.33743804
248.670679512
249.333813934
250.304046032
251.534206668
252.976742432
254.586653669
256.324582038
258.158430539
260.063675693
262.022644402
264.023178687
266.057138863
268.119060138
270.205098782
272.312287499
274.438060005
276.579982139
278.735623244
280.902505791
283.078079285
285.259676859
287.444433505
289.629177809
291.810346364
293.984022096
296.146071604
298.292352773
300.418922187
302.522173855
304.598874075
306.646119779
308.66127354
310.641952827
312.586051157
314.491748025
316.357486591
318.181949336
319.964048047
321.702916307
323.397892833
325.048501861
326.654434146
328.215527602
329.731749928
331.203184068
332.630015234
334.012518751
335.351047735
336.64601966
337.897901938
339.107196874
340.27442689
341.400120763
342.484801799
343.528978609
344.533139168
345.497748538
346.423250533
347.310073144
348.158637384
348.969368747
349.742710351
350.479136569
351.179166038
351.843372902
352.472395497
353.066941832
353.627791623
354.155794841
354.651867059
355.116982074
355.552162553
355.958469534
356.336991629
356.688834552
357.015111379
357.316933625
357.595403062
357.851604083
358.08659645
358.301408394