/*--------------------------------*- C++ -*----------------------------------*\
| =========                 |                                                 |
| \\      /  F ield         | OpenFOAM: The Open Source CFD Toolbox           |
|  \\    /   O peration     | Version:  v1906                                 |
|   \\  /    A nd           | Web:      www.OpenFOAM.com                      |
|    \\/     M anipulation  |                                                 |
\*---------------------------------------------------------------------------*/
FoamFile
{
    version     2.0;
    format      ascii;
    class       volVectorField;
    location    "808";
    object      U;
}
// * * * * * * * * * * * * * * * * * * * * * * * * * * * * * * * * * * * * * //

dimensions      [0 1 -1 0 0 0 0];


internalField   nonuniform List<vector> 
9216
(
(0.00270963465497 -0.0027120062153 0)
(0.00285692041179 -0.00875209559056 1.17241183653e-27)
(0.00284876596081 -0.014886237535 1.84076113969e-31)
(0.00281148585338 -0.0210207679931 0)
(0.00275973588152 -0.0270524989543 0)
(0.00269496763289 -0.0329571701424 0)
(0.0026188771172 -0.0387089393747 0)
(0.00253279608719 -0.044284832128 0)
(0.00243803856789 -0.0496646550948 0)
(0.00233586197103 -0.0548310051549 0)
(0.00222754687785 -0.0597692151341 0)
(0.00211428070938 -0.0644673093492 0)
(0.00199723897067 -0.0689158634097 0)
(0.00187745905942 -0.0731078652117 0)
(0.00175594439571 -0.0770385026368 0)
(0.00163353634987 -0.0807049724276 0)
(0.00151104081466 -0.0841062428428 0)
(0.00138909727374 -0.0872428544444 0)
(0.00126832315413 -0.0901166957956 0)
(0.00114917759303 -0.0927308260803 0)
(0.00103211865575 -0.0950892852158 0)
(0.000917459599692 -0.0971969518562 0)
(0.000805534738661 -0.0990593950122 0)
(0.000696547250876 -0.100682768913 0)
(0.000590740818043 -0.102073702847 0)
(0.000488238997638 -0.103239226686 0)
(0.000389220736723 -0.104186691126 0)
(0.000293752429738 -0.104923715365 0)
(0.00020196660539 -0.105458128862 0)
(0.000113889280398 -0.105797934574 0)
(2.96235860289e-05 -0.105951252208 0)
(-5.08496710387e-05 -0.105926357507 0)
(-0.00012748435768 -0.105731488031 0)
(-0.00020031956091 -0.105374908831 0)
(-0.000269311349674 -0.104864908703 0)
(-0.000334525196004 -0.104209741773 0)
(-0.000395948453468 -0.103417603572 0)
(-0.000453672724113 -0.102496603523 0)
(-0.000507708856053 -0.101454739886 0)
(-0.000558169870787 -0.100299875832 0)
(-0.000605086640086 -0.0990397191803 0)
(-0.000648589846709 -0.0976818010949 0)
(-0.000688726862232 -0.0962334609897 0)
(-0.000725642003638 -0.0947018285604 0)
(-0.000759395175795 -0.0930938139552 0)
(-0.000790139980451 -0.0914160933562 0)
(-0.000817944804624 -0.0896751047107 0)
(-0.000842968262252 -0.0878770370945 0)
(-0.000865283239697 -0.086027831564 0)
(-0.000885049329144 -0.0841331738904 0)
(-0.000902340420199 -0.0821985002102 0)
(-0.000917313677228 -0.0802289927281 0)
(-0.00093004110272 -0.0782295891813 0)
(-0.000940674755767 -0.0762049805571 0)
(-0.000949282783266 -0.0741596235855 0)
(-0.000956010453786 -0.0720977396349 0)
(-0.00096092099959 -0.0700233289549 0)
(-0.000964152151294 -0.067940169564 0)
(-0.00096576219403 -0.0658518323457 0)
(-0.00096588155304 -0.0637616790665 0)
(-0.000964564329211 -0.0616728772079 0)
(-0.000961934575349 -0.0595883961882 0)
(-0.000958043639186 -0.0575110214194 0)
(-0.000953010646887 -0.0554433483483 0)
(-0.000946885879915 -0.0533877952427 0)
(-0.000939785077198 -0.0513465947961 0)
(-0.000931759155815 -0.0493218058329 0)
(-0.000922921856169 -0.0473153027901 0)
(-0.000913326060967 -0.0453287865565 0)
(-0.000903084417105 -0.0433637722272 0)
(-0.00089225260338 -0.0414215998016 0)
(-0.000880942508153 -0.0395034209607 0)
(-0.00086921276466 -0.0376102101829 0)
(-0.000857174169858 -0.035742751173 0)
(-0.000844887880952 -0.0339016491729 0)
(-0.000832462719265 -0.0320873177608 0)
(-0.000819961381575 -0.0302999927901 0)
(-0.000807489359125 -0.0285397200171 0)
(-0.000795109543433 -0.0268063711393 0)
(-0.000782922454183 -0.0250996326754 0)
(-0.000770989554682 -0.0234190242398 0)
(-0.000759404531699 -0.0217638888838 0)
(-0.0007482255924 -0.0201334138609 0)
(-0.000737537431608 -0.0185266227704 0)
(-0.000727392577751 -0.0169423992686 0)
(-0.000717863322419 -0.0153794821255 0)
(-0.00070899125087 -0.0138364944939 0)
(-0.000700826044945 -0.0123119478285 0)
(-0.000693376266817 -0.0108042907309 0)
(-0.000686615255314 -0.00931195770539 0)
(-0.00068037959395 -0.0078335218364 0)
(-0.000674201067418 -0.00636805180871 0)
(-0.000666751709957 -0.00491619208962 0)
(-0.000652186859659 -0.00348899879036 0)
(-0.000625820915515 -0.00200680985999 0)
(-0.000826023093358 -0.000825855760654 0)
(0.00877214623797 -0.00288701341275 0)
(0.00969967980278 -0.00976988788588 0)
(0.00967728130962 -0.0166399501177 -1.23116850544e-27)
(0.00954784002092 -0.0235153967025 0)
(0.00936871963155 -0.0302663365011 0)
(0.00914725970392 -0.0368710157103 0)
(0.00888787576113 -0.0433020050734 0)
(0.00859476106746 -0.0495340604238 0)
(0.00827224228712 -0.0555447690064 0)
(0.00792461673259 -0.0613147845977 0)
(0.00755619706574 -0.0668278508525 0)
(0.00717107770103 -0.0720707488528 0)
(0.00677320938674 -0.0770331534998 0)
(0.00636617608101 -0.0817074514799 0)
(0.00595332851512 -0.086088508027 0)
(0.00553758151175 -0.0901734272769 0)
(0.00512160162421 -0.0939612922605 0)
(0.00470761723801 -0.0974529215583 0)
(0.00429764600394 -0.100650626606 0)
(0.00389330623664 -0.103557998278 0)
(0.00349606936954 -0.106179705022 0)
(0.00310706280726 -0.108521323713 0)
(0.00272733559773 -0.110589185071 0)
(0.00235764687509 -0.112390248881 0)
(0.00199873724174 -0.113931991923 0)
(0.00165110075822 -0.11522231959 0)
(0.00131525809915 -0.11626948633 0)
(0.000991513321288 -0.117082032785 0)
(0.000680227817003 -0.1176687275 0)
(0.000381565361001 -0.118038517862 0)
(9.57691500805e-05 -0.118200491236 0)
(-0.000177121483756 -0.118163779739 0)
(-0.000436991256903 -0.117937657811 0)
(-0.000683891758922 -0.117531429944 0)
(-0.000917778996269 -0.11695436554 0)
(-0.00113879458335 -0.116215694887 0)
(-0.00134698540506 -0.11532457687 0)
(-0.00154257682131 -0.114290070833 0)
(-0.00172569394531 -0.113121110098 0)
(-0.00189663469477 -0.111826475245 0)
(-0.0020555916099 -0.110414771281 0)
(-0.00220292317919 -0.108894404599 0)
(-0.00233887711688 -0.107273564889 0)
(-0.00246385900499 -0.10556020658 0)
(-0.00257815803733 -0.103762035982 0)
(-0.00268221240176 -0.101886497627 0)
(-0.00277633863116 -0.0999407668307 0)
(-0.00286099311489 -0.0979317409589 0)
(-0.00293650600459 -0.0958660371709 0)
(-0.00300333843501 -0.0937499882777 0)
(-0.00306182197973 -0.0915896451396 0)
(-0.00311241104903 -0.0893907764458 0)
(-0.00315542867798 -0.0871588748831 0)
(-0.00319131369631 -0.084899159884 0)
(-0.00322037365375 -0.0826165865128 0)
(-0.00324302619377 -0.0803158500387 0)
(-0.00325955969338 -0.078001396294 0)
(-0.00327036833073 -0.0756774268418 0)
(-0.00327572100555 -0.0733479096219 0)
(-0.00327598938408 -0.0710165835599 0)
(-0.00327142544026 -0.0686869684076 0)
(-0.00326238178887 -0.0663623678512 0)
(-0.00324909819386 -0.0640458778117 0)
(-0.00323191332735 -0.061740387471 0)
(-0.00321106044543 -0.0594485856351 0)
(-0.00318686979639 -0.0571729595037 0)
(-0.00315957376138 -0.0549157991867 0)
(-0.00312949906858 -0.0526791944655 0)
(-0.00309688167104 -0.0504650378728 0)
(-0.00306204809303 -0.0482750200056 0)
(-0.00302524048877 -0.0461106318934 0)
(-0.00298678646064 -0.0439731596307 0)
(-0.00294693477028 -0.0418636868183 0)
(-0.00290601315072 -0.0397830893046 0)
(-0.00286427528549 -0.0377320385042 0)
(-0.00282204614682 -0.0357109969772 0)
(-0.00277958083918 -0.0337202232387 0)
(-0.00273719712071 -0.0317597687194 0)
(-0.00269514674793 -0.0298294845381 0)
(-0.00265373480453 -0.0279290202235 0)
(-0.00261320407432 -0.0260578326836 0)
(-0.00257384082745 -0.0242151868754 0)
(-0.0025358726347 -0.0224001671223 0)
(-0.0024995600267 -0.0206116798676 0)
(-0.00246510770412 -0.018848467449 0)
(-0.00243274068038 -0.0171091130961 0)
(-0.00240262705307 -0.015392057334 0)
(-0.00237493317228 -0.0136956048332 0)
(-0.00234974666982 -0.0120179399278 0)
(-0.0023270828784 -0.0103571206888 0)
(-0.00230674089688 -0.00871103944225 0)
(-0.00228810287514 -0.0070772270959 0)
(-0.00226945679276 -0.00545205107203 0)
(-0.00224576238948 -0.00382780888255 0)
(-0.00218818730357 -0.00218347056811 0)
(-0.00200530035917 -0.000623772170391 0)
(0.0150172241404 -0.00293288830116 0)
(0.0166279661584 -0.00993067758705 0)
(0.0165672764858 -0.0168909942695 -1.22912945317e-27)
(0.0163363039719 -0.0238670877959 0)
(0.01602461075 -0.0307150104708 0)
(0.0156419640509 -0.037411497787 0)
(0.0151948724004 -0.0439280834668 0)
(0.0146902651325 -0.050238970438 0)
(0.0141354723076 -0.0563214232548 0)
(0.0135379421525 -0.0621559578794 0)
(0.0129050751599 -0.0677263484268 0)
(0.0122439901418 -0.0730195448745 0)
(0.0115614362525 -0.0780255075418 0)
(0.0108636284737 -0.0827369895297 0)
(0.0101562439724 -0.0871492801333 0)
(0.00944432376434 -0.0912599338865 0)
(0.00873233913895 -0.0950684935784 0)
(0.00802413999927 -0.0985762248211 0)
(0.00732306691369 -0.10178586517 0)
(0.00663192244009 -0.10470139824 0)
(0.00595310489768 -0.107327851252 0)
(0.00528858288512 -0.109671120889 0)
(0.00464003296091 -0.11173782314 0)
(0.00400880475752 -0.113535168204 0)
(0.00339605220767 -0.115070855092 0)
(0.00280268367895 -0.116352985046 0)
(0.00222948276256 -0.117389988788 0)
(0.00167704322084 -0.118190565908 0)
(0.00114587963446 -0.1187636325 0)
(0.000636349643385 -0.119118275325 0)
(0.000148755025444 -0.119263712817 0)
(-0.000316734824694 -0.119209255286 0)
(-0.000759986400066 -0.118964269954 0)
(-0.00118100110725 -0.118538148994 0)
(-0.0015798129288 -0.117940274217 0)
(-0.00195657564863 -0.117179985816 0)
(-0.00231146757946 -0.116266550825 0)
(-0.00264478189791 -0.115209133521 0)
(-0.00295682956331 -0.114016767871 0)
(-0.00324802773365 -0.112698330774 0)
(-0.00351880243805 -0.111262518112 0)
(-0.00376967510479 -0.109717822024 0)
(-0.00400116553051 -0.108072511606 0)
(-0.00421387652906 -0.106334615078 0)
(-0.00440839781329 -0.104511905669 0)
(-0.00458538895276 -0.102611889057 0)
(-0.00474548484072 -0.100641794707 0)
(-0.00488937717955 -0.098608568642 0)
(-0.00501772215878 -0.096518869947 0)
(-0.00513122071585 -0.0943790684757 0)
(-0.00523052900523 -0.092195246034 0)
(-0.00531633761935 -0.0899731983239 0)
(-0.00538928532784 -0.0877184398659 0)
(-0.00545003740405 -0.0854362091438 0)
(-0.00549920301911 -0.0831314762056 0)
(-0.00553741268397 -0.0808089498219 0)
(-0.00556523951826 -0.0784730864201 0)
(-0.00558327569083 -0.0761280979251 0)
(-0.00559205762097 -0.0737779608013 0)
(-0.00559214109211 -0.0714264233622 0)
(-0.00558403024112 -0.069077013724 0)
(-0.00556825086815 -0.0667330455588 0)
(-0.00554528293527 -0.0643976242026 0)
(-0.00551563144399 -0.0620736502548 0)
(-0.00547976207054 -0.0597638233968 0)
(-0.00543816896326 -0.0574706436555 0)
(-0.00539131317762 -0.0551964130686 0)
(-0.00533968677469 -0.0529432349182 0)
(-0.00528375381408 -0.0507130136789 0)
(-0.00522401028748 -0.0485074528408 0)
(-0.0051609276159 -0.0463280539582 0)
(-0.00509500810138 -0.0441761139131 0)
(-0.00502673104624 -0.0420527238957 0)
(-0.00495660359222 -0.0399587669591 0)
(-0.00488510975125 -0.0378949178072 0)
(-0.00481275660655 -0.0358616414108 0)
(-0.00474002662651 -0.0338591942342 0)
(-0.00466741928604 -0.0318876244649 0)
(-0.00459540707467 -0.0299467751709 0)
(-0.00452447258238 -0.0280362864955 0)
(-0.00445506854982 -0.0261556009415 0)
(-0.00438765040874 -0.0243039676493 0)
(-0.00432264059246 -0.0224804498529 0)
(-0.00426045629251 -0.0206839311523 0)
(-0.00420147787057 -0.0189131248438 0)
(-0.00414607099564 -0.0171665816083 0)
(-0.00409455798445 -0.0154426994879 0)
(-0.00404723179467 -0.0137397299669 0)
(-0.00400432674679 -0.0120557814344 0)
(-0.00396602003524 -0.0103888064138 0)
(-0.00393240312372 -0.00873655952912 0)
(-0.00390350586611 -0.00709647793372 0)
(-0.00387936893872 -0.0054653576358 0)
(-0.00385981629023 -0.0038376778283 0)
(-0.00382841569917 -0.00222838699335 0)
(-0.00347977246741 -0.000646415858574 0)
(0.021410110351 -0.0029782275514 0)
(0.0237247718515 -0.0100810946608 0)
(0.0236350831112 -0.0171369512804 1.22855876574e-27)
(0.0233005259832 -0.0242092983714 0)
(0.0228499026836 -0.0311481258896 0)
(0.0222976643438 -0.0379286750102 0)
(0.0216532551964 -0.0445213025302 0)
(0.0209267631351 -0.0508995060685 0)
(0.020128847432 -0.057040198033 0)
(0.0192703603202 -0.0629238405529 0)
(0.018362030143 -0.0685344063578 0)
(0.01741417361 -0.0738592467469 0)
(0.0164364997103 -0.0788888778734 0)
(0.0154379440742 -0.0836167127759 0)
(0.014426595316 -0.0880387608357 0)
(0.0134096380562 -0.0921533161049 0)
(0.0123933755348 -0.0959606493624 0)
(0.0113832474741 -0.0994627171513 0)
(0.0103839109926 -0.102662894982 0)
(0.00939929585756 -0.105565740396 0)
(0.00843270860222 -0.108176787053 0)
(0.00748689509414 -0.110502370168 0)
(0.00656414289654 -0.112549480781 0)
(0.00566633245327 -0.114325646207 0)
(0.00479502413102 -0.115838832668 0)
(0.00395148986437 -0.11709736636 0)
(0.00313678066625 -0.118109868998 0)
(0.00235173844311 -0.118885204294 0)
(0.00159704595326 -0.119432432419 0)
(0.000873222819544 -0.119760769906 0)
(0.000180662305247 -0.119879551457 0)
(-0.0004803785995 -0.119798209057 0)
(-0.0011097478897 -0.119526204522 0)
(-0.0017074245728 -0.11907302755 0)
(-0.00227348688166 -0.118448155019 0)
(-0.00280813031952 -0.117661018161 0)
(-0.00331164076549 -0.116720971519 0)
(-0.00378441282152 -0.115637262691 0)
(-0.00422692160115 -0.114419003798 0)
(-0.00463973906454 -0.113075144327 0)
(-0.0050235046064 -0.111614446298 0)
(-0.00537893953607 -0.110045461373 0)
(-0.00570681688616 -0.10837651078 0)
(-0.00600797444559 -0.106615667567 0)
(-0.00628328439925 -0.104770741965 0)
(-0.00653366553217 -0.102849269249 0)
(-0.00676005339848 -0.100858500762 0)
(-0.00696341229142 -0.098805397376 0)
(-0.00714470659139 -0.0966966259555 0)
(-0.00730491311106 -0.0945385580331 0)
(-0.00744499422397 -0.0923372711262 0)
(-0.00756591106982 -0.0900985518496 0)
(-0.0076685989474 -0.0878279011592 0)
(-0.00775398180617 -0.0855305408459 0)
(-0.00782295026578 -0.0832114215124 0)
(-0.00787637760613 -0.0808752311323 0)
(-0.00791510055619 -0.0785264043807 0)
(-0.00793993681004 -0.0761691318596 0)
(-0.00795166848858 -0.0738073693826 0)
(-0.00795106088886 -0.0714448465011 0)
(-0.00793884822996 -0.0690850744958 0)
(-0.00791575312171 -0.0667313531211 0)
(-0.00788247399287 -0.0643867764115 0)
(-0.00783970453369 -0.0620542369654 0)
(-0.00778812206723 -0.0597364291494 0)
(-0.00772840620115 -0.0574358507808 0)
(-0.00766122744076 -0.0551548038502 0)
(-0.00758726433296 -0.0528953939465 0)
(-0.00750719176719 -0.0506595290643 0)
(-0.00742169613683 -0.0484489175217 0)
(-0.00733146304031 -0.0462650657326 0)
(-0.00723719021432 -0.0441092755595 0)
(-0.00713957461044 -0.0419826420259 0)
(-0.00703932313878 -0.0398860510708 0)
(-0.00693713933644 -0.0378201781168 0)
(-0.00683373211412 -0.0357854870389 0)
(-0.00672980236611 -0.0337822302907 0)
(-0.00662605003068 -0.0318104496748 0)
(-0.00652316104429 -0.0298699784877 0)
(-0.00642181300057 -0.027960444409 0)
(-0.00632266279935 -0.0260812738476 0)
(-0.00622635113067 -0.0242316970088 0)
(-0.00613349105198 -0.0224107543662 0)
(-0.00604467133875 -0.0206173036655 0)
(-0.00596044600676 -0.0188500280378 0)
(-0.00588133634125 -0.0171074440927 0)
(-0.00580782119936 -0.015387910169 0)
(-0.00574033766975 -0.0136896327805 0)
(-0.00567927333681 -0.0120106697546 0)
(-0.00562497069657 -0.010348925582 0)
(-0.00557773752427 -0.00870213837163 0)
(-0.00553789688097 -0.00706784423999 0)
(-0.00550584531896 -0.00544333184318 0)
(-0.00548103745352 -0.00382424056608 0)
(-0.00543724069928 -0.00223272925643 0)
(-0.00488902582695 -0.000655270473295 0)
(0.0279098196696 -0.00303776605525 0)
(0.0309302844098 -0.0102788679593 0)
(0.0308089890925 -0.0174672597456 0)
(0.0303655111841 -0.0246689817984 0)
(0.0297686788629 -0.0317291680242 0)
(0.0290380732628 -0.0386213497586 0)
(0.028186569447 -0.0453144512531 0)
(0.0272278431855 -0.0517810555989 0)
(0.0261762697704 -0.0579976323791 0)
(0.025046426297 -0.0639446202569 0)
(0.0238526449624 -0.069606323106 0)
(0.0226086413561 -0.0749707057318 0)
(0.0213272390615 -0.0800291061561 0)
(0.0200201755807 -0.0847758954923 0)
(0.0186979979219 -0.0892081126405 0)
(0.0173700210919 -0.0933250969163 0)
(0.0160443524778 -0.0971281361611 0)
(0.0147279509735 -0.100620142869 0)
(0.0134267246829 -0.103805365857 0)
(0.0121456370325 -0.106689141061 0)
(0.0108888293246 -0.109277681718 0)
(0.00965973290064 -0.111577905884 0)
(0.00846118382111 -0.113597297627 0)
(0.00729551679249 -0.115343797185 0)
(0.00616465534394 -0.116825715078 0)
(0.0050701778592 -0.118051665021 0)
(0.00401337929583 -0.119030510975 0)
(0.00299531008901 -0.119771324065 0)
(0.00201681355313 -0.120283345992 0)
(0.00107854418947 -0.12057595626 0)
(0.0001809885151 -0.120658637636 0)
(-0.00067552982405 -0.120540968129 0)
(-0.001490831564 -0.120232535728 0)
(-0.00226489154347 -0.119742962868 0)
(-0.00299782376541 -0.119081850529 0)
(-0.00368988252596 -0.118258749747 0)
(-0.0043414528379 -0.117283129858 0)
(-0.00495304907256 -0.116164347539 0)
(-0.00552530357492 -0.114911617233 0)
(-0.00605896289966 -0.113533983185 0)
(-0.00655487433112 -0.112040293624 0)
(-0.00701397993661 -0.110439177253 0)
(-0.0074373015178 -0.108739022496 0)
(-0.00782593319079 -0.106947959494 0)
(-0.00818102560193 -0.105073845146 0)
(-0.0085037779145 -0.10312425109 0)
(-0.00879542217285 -0.101106454786 0)
(-0.00905721556989 -0.0990274334795 0)
(-0.00929042580515 -0.0968938610699 0)
(-0.00949632443923 -0.0947121076026 0)
(-0.00967617399006 -0.092488241308 0)
(-0.00983122307669 -0.0902280328159 0)
(-0.00996269589111 -0.08793696136 0)
(-0.0100717897001 -0.0856202225572 0)
(-0.0101596671481 -0.0832827375029 0)
(-0.0102274564676 -0.0809291627074 0)
(-0.0102762468162 -0.0785639005528 0)
(-0.0103070912405 -0.0761911098151 0)
(-0.0103210048935 -0.0738147159363 0)
(-0.0103189704159 -0.071438420627 0)
(-0.0103019385043 -0.069065710535 0)
(-0.0102708350095 -0.0666998646901 0)
(-0.0102265629941 -0.06434396058 0)
(-0.0101700105795 -0.0620008787026 0)
(-0.0101020534614 -0.0596733055865 0)
(-0.0100235624615 -0.0573637353055 0)
(-0.00993540549274 -0.0550744696277 0)
(-0.0098384538934 -0.0528076169458 0)
(-0.00973358306239 -0.0505650902339 0)
(-0.00962167695448 -0.0483486042792 0)
(-0.00950362695294 -0.0461596724931 0)
(-0.00938033427404 -0.0439996035586 0)
(-0.00925270702753 -0.0418694982117 0)
(-0.00912166063648 -0.0397702463969 0)
(-0.00898811334591 -0.0377025250485 0)
(-0.00885298501056 -0.0356667966569 0)
(-0.00871719150281 -0.0336633088011 0)
(-0.00858164234597 -0.0316920947309 0)
(-0.0084472345275 -0.0297529751157 0)
(-0.00831484944775 -0.0278455609434 0)
(-0.0081853465968 -0.0259692576228 0)
(-0.00805956020954 -0.0241232702 0)
(-0.0079382931564 -0.0223066096752 0)
(-0.007822313575 -0.0205181002312 0)
(-0.00771234923501 -0.0187563872373 0)
(-0.00760908442909 -0.017019945729 0)
(-0.0075131553357 -0.0153070890141 0)
(-0.00742514830185 -0.0136159767287 0)
(-0.00734559894909 -0.0119446220767 0)
(-0.00727499798699 -0.0102908974573 0)
(-0.00721380679384 -0.00865254273322 0)
(-0.00716249040552 -0.00702717522901 0)
(-0.00712148270187 -0.00541232786077 0)
(-0.0070894615287 -0.00380396606931 0)
(-0.00703087144989 -0.00222532869167 0)
(-0.00630847574208 -0.000655033893017 0)
(0.0345542533365 -0.00311320553095 0)
(0.0382914824079 -0.0105320411099 0)
(0.0381339717193 -0.0178924760632 0)
(0.0375735533706 -0.0252609216107 0)
(0.03682014185 -0.0324768154768 0)
(0.0358989441036 -0.0395115935097 0)
(0.0348268296032 -0.0463324413277 0)
(0.0336216179437 -0.0529108404166 0)
(0.032301917014 -0.0592227721532 0)
(0.0308864747885 -0.0652487397195 0)
(0.0293935961764 -0.0709735769514 0)
(0.0278406723432 -0.0763861435163 0)
(0.0262438354813 -0.0814789334823 0)
(0.0246177330997 -0.0862476363482 0)
(0.0229754135265 -0.0906906839325 0)
(0.021328302332 -0.0948088098967 0)
(0.0196862534394 -0.0986046411666 0)
(0.0180576514394 -0.102082333637 0)
(0.0164495501095 -0.105247258389 0)
(0.0148678273304 -0.108105739891 0)
(0.0133173469056 -0.110664844038 0)
(0.0118021134042 -0.11293221145 0)
(0.0103254165635 -0.114915929981 0)
(0.00888995684196 -0.116624439667 0)
(0.00749795348292 -0.118066463246 0)
(0.00615123075456 -0.119250955687 0)
(0.00485128697764 -0.120187066858 0)
(0.0035993445684 -0.12088411232 0)
(0.00239638735325 -0.121351548368 0)
(0.00124318441345 -0.121598948279 0)
(0.000140308104652 -0.121635973918 0)
(-0.00091186320662 -0.121472381762 0)
(-0.00191312360306 -0.121117914007 0)
(-0.00286345203477 -0.120582359258 0)
(-0.00376299965966 -0.119875473884 0)
(-0.0046120883615 -0.119006960298 0)
(-0.00541120451061 -0.1179864333 0)
(-0.00616099287474 -0.116823387999 0)
(-0.00686224748988 -0.115527168875 0)
(-0.00751590230221 -0.11410694053 0)
(-0.00812301899084 -0.112571660667 0)
(-0.00868477482147 -0.110930055631 0)
(-0.00920244824375 -0.10919059886 0)
(-0.0096774049762 -0.107361492405 0)
(-0.0101110825044 -0.105450651694 0)
(-0.0105049755746 -0.103465693549 0)
(-0.0108606207496 -0.101413927483 0)
(-0.0111795824215 -0.0993023501596 0)
(-0.0114634384803 -0.0971376429411 0)
(-0.0117137678587 -0.0949261723031 0)
(-0.0119321382554 -0.0926739929408 0)
(-0.0121200960892 -0.0903868532567 0)
(-0.0122791570819 -0.0880702029625 0)
(-0.012410799357 -0.0857292024043 0)
(-0.0125164574969 -0.0833687332482 0)
(-0.0125975192517 -0.0809934100732 0)
(-0.0126553233549 -0.0786075924565 0)
(-0.0126911599292 -0.076215397078 0)
(-0.0127062718954 -0.0738207094239 0)
(-0.0127018586504 -0.0714271946627 0)
(-0.0126790803854 -0.0690383073548 0)
(-0.0126390641275 -0.0666572996859 0)
(-0.0125829098452 -0.0642872280222 0)
(-0.0125116975737 -0.0619309576521 0)
(-0.0124264939381 -0.0595911656961 0)
(-0.0123283589871 -0.0572703422377 0)
(-0.012218351806 -0.0549707898296 0)
(-0.0120975358467 -0.0526946215882 0)
(-0.0119669826035 -0.050443758162 0)
(-0.0118277746452 -0.0482199238872 0)
(-0.0116810068062 -0.0460246424689 0)
(-0.011527786626 -0.0438592325215 0)
(-0.0113692330135 -0.0417248032972 0)
(-0.0112064742813 -0.0396222508877 0)
(-0.0110406446551 -0.0375522551606 0)
(-0.0108728804065 -0.0355152776277 0)
(-0.0107043148142 -0.0335115604166 0)
(-0.0105360730543 -0.0315411264462 0)
(-0.0103692662824 -0.029603780887 0)
(-0.0102049859195 -0.0276991139145 0)
(-0.0100442974577 -0.0258265047617 0)
(-0.00988823468793 -0.0239851269998 0)
(-0.00973779371814 -0.0221739549869 0)
(-0.00959392758027 -0.0203917713467 0)
(-0.00945754090221 -0.0186371753406 0)
(-0.00932948541146 -0.0169085919592 0)
(-0.00921055602474 -0.0152042815653 0)
(-0.00910148853096 -0.0135223500843 0)
(-0.0090029593657 -0.0118607596946 0)
(-0.00891558944564 -0.0102173410003 0)
(-0.00883995331406 -0.00858981320663 0)
(-0.00877658861725 -0.00697580356154 0)
(-0.00872588663307 -0.00537288711089 0)
(-0.00868583380588 -0.00377702011634 0)
(-0.00861224418596 -0.00221121917868 0)
(-0.00772276771552 -0.000651551552201 0)
(0.0413804695228 -0.00320665208391 0)
(0.0458503512187 -0.0108463244466 0)
(0.0456501871475 -0.0184209144699 1.21898865346e-27)
(0.044961971947 -0.0259962369158 0)
(0.0440381837654 -0.0334045827793 0)
(0.0429103261971 -0.0406147583682 0)
(0.0415999796762 -0.0475918405507 0)
(0.040129828485 -0.0543060361154 0)
(0.0385233838744 -0.0607328500832 0)
(0.0368041446983 -0.0668530220543 0)
(0.0349948570245 -0.0726522125979 0)
(0.0331169334807 -0.0781205592249 0)
(0.0311900427241 -0.0832521436037 0)
(0.029231860619 -0.0880444206999 0)
(0.027257964446 -0.0924976513406 0)
(0.0252818438462 -0.0966143692366 0)
(0.0233150008685 -0.100398903203 0)
(0.021367111106 -0.103856965877 0)
(0.0194462218597 -0.106995312789 0)
(0.0175589661502 -0.109821469854 0)
(0.0157107768964 -0.11234352363 0)
(0.0139060887466 -0.114569966252 0)
(0.0121485199646 -0.116509585911 0)
(0.010441029019 -0.118171393354 0)
(0.00878604430766 -0.11956457531 0)
(0.00718556667764 -0.120698466429 0)
(0.00564124709184 -0.121582532544 0)
(0.00415444208834 -0.122226359287 0)
(0.00272625129097 -0.122639641692 0)
(0.00135754048066 -0.122832170468 0)
(4.89603041715e-05 -0.122813814713 0)
(-0.00119906534854 -0.122594535864 0)
(-0.00238630853661 -0.122184260618 0)
(-0.00351275491459 -0.121592974646 0)
(-0.00457859696363 -0.120830622034 0)
(-0.0055842304837 -0.119907089045 0)
(-0.00653024930242 -0.118832167909 0)
(-0.00741743777732 -0.117615522978 0)
(-0.00824676088764 -0.116266657885 0)
(-0.0090193521857 -0.114794884526 0)
(-0.00973649973514 -0.113209294458 0)
(-0.0103996304543 -0.111518733166 0)
(-0.0110102931595 -0.109731777535 0)
(-0.0115701407412 -0.107856716752 0)
(-0.0120809118234 -0.105901536751 0)
(-0.0125444122777 -0.103873908255 0)
(-0.0129624969466 -0.10178117838 0)
(-0.013337051869 -0.0996303657063 0)
(-0.0136699773541 -0.0974281586807 0)
(-0.0139631721244 -0.095180917165 0)
(-0.0142185188708 -0.0928946768825 0)
(-0.014437871385 -0.0905751564928 0)
(-0.0146230435986 -0.0882277669408 0)
(-0.0147758006212 -0.0858576227099 0)
(-0.0148978520529 -0.0834695545277 0)
(-0.0149908475572 -0.0810681230613 0)
(-0.0150563748587 -0.0786576330703 0)
(-0.0150959599919 -0.0762421475231 0)
(-0.0151110698118 -0.0738255011406 0)
(-0.0151031164158 -0.0714113129082 0)
(-0.0150734633226 -0.0690029971081 0)
(-0.0150234329043 -0.0666037725515 0)
(-0.0149543147915 -0.0642166697378 0)
(-0.0148673746702 -0.0618445358252 0)
(-0.0147638631477 -0.0594900373594 0)
(-0.0146450241228 -0.0571556608772 0)
(-0.0145121023921 -0.0548437115534 0)
(-0.0143663500416 -0.0525563101922 0)
(-0.0142090314851 -0.0502953888873 0)
(-0.0140414268724 -0.0480626857683 0)
(-0.0138648338885 -0.0458597392196 0)
(-0.0136805678511 -0.0436878820003 0)
(-0.0134899602731 -0.0415482356216 0)
(-0.0132943559417 -0.0394417053457 0)
(-0.0130951087709 -0.0373689760671 0)
(-0.0128935765647 -0.0353305093303 0)
(-0.0126911149759 -0.0333265416192 0)
(-0.0124890708202 -0.0313570840607 0)
(-0.0122887750079 -0.029421923569 0)
(-0.0120915352379 -0.0275206254684 0)
(-0.011898628669 -0.0256525375372 0)
(-0.0117112946842 -0.0238167954363 0)
(-0.0115307279183 -0.0220123294061 0)
(-0.0113580716504 -0.0202378721479 0)
(-0.0111944117264 -0.0184919677251 0)
(-0.0110407711577 -0.0167729814606 0)
(-0.0108981056482 -0.0150791107218 0)
(-0.010767300355 -0.0134083966637 0)
(-0.0106491683653 -0.0117587376434 0)
(-0.0105444511979 -0.0101279046443 0)
(-0.0104538209847 -0.00851356258426 0)
(-0.0103778749006 -0.0069132907831 0)
(-0.0103169788286 -0.00532460971434 0)
(-0.0102685684142 -0.00374335955089 0)
(-0.0101802281637 -0.0021921029472 0)
(-0.00912698870171 -0.00064614448488 0)
(0.0484295860509 -0.00332021482541 0)
(0.0536520865046 -0.0112283508246 0)
(0.0534009127618 -0.0190630849897 -1.21833971752e-27)
(0.0525708221464 -0.0268889660785 0)
(0.0514588472243 -0.0345293831784 0)
(0.0501037315773 -0.0419498612849 0)
(0.0485327245765 -0.0491129539491 0)
(0.0467743207043 -0.0559874482148 0)
(0.0448578005017 -0.0625484676169 0)
(0.0428121498447 -0.0687772781065 0)
(0.0406651346382 -0.0746607996293 0)
(0.0384426009682 -0.0801909692598 0)
(0.0361680068041 -0.0853640178201 0)
(0.0338621676881 -0.0901797261685 0)
(0.0315431850835 -0.0946407123272 0)
(0.029226518696 -0.0987517851705 0)
(0.026925163078 -0.102519385656 0)
(0.024649891265 -0.105951124414 0)
(0.0224095337793 -0.10905541509 0)
(0.0202112672923 -0.111841196531 0)
(0.0180608939292 -0.114317733003 0)
(0.0159630976128 -0.116494479782 0)
(0.0139216691066 -0.118381000905 0)
(0.0119396951056 -0.119986926278 0)
(0.0100197103225 -0.121321936266 0)
(0.0081638137846 -0.122395763279 0)
(0.00637375288014 -0.123218201498 0)
(0.00465097977255 -0.123799117827 0)
(0.00299668584223 -0.124148459327 0)
(0.00141181935247 -0.124276248448 0)
(-0.000102901334005 -0.124192597222 0)
(-0.00154700429219 -0.123907660974 0)
(-0.00292024478089 -0.12343161423 0)
(-0.00422261752033 -0.122774658437 0)
(-0.00545435945379 -0.121946960277 0)
(-0.00661594579222 -0.120958623516 0)
(-0.0077080852072 -0.119819651511 0)
(-0.00873171165233 -0.118539910524 0)
(-0.00968797291541 -0.11712909423 0)
(-0.0105782162798 -0.115596690314 0)
(-0.0114039716302 -0.113951949846 0)
(-0.0121669325455 -0.112203859924 0)
(-0.0128689358076 -0.110361119961 0)
(-0.0135119398822 -0.108432121813 0)
(-0.0140980027933 -0.106424933892 0)
(-0.0146292598869 -0.104347289238 0)
(-0.0151079018449 -0.102206577533 0)
(-0.0155361533659 -0.100009840908 0)
(-0.015916252824 -0.0977637734076 0)
(-0.0162504332685 -0.0954747238912 0)
(-0.0165409050497 -0.0931487021236 0)
(-0.0167898404003 -0.0907913877485 0)
(-0.0169993602388 -0.0884081417956 0)
(-0.0171715234708 -0.0860040202804 0)
(-0.0173083189892 -0.0835837894235 0)
(-0.0174116605297 -0.0811519419285 0)
(-0.017483384443 -0.0787127137442 0)
(-0.0175252503532 -0.0762701006813 0)
(-0.0175389445543 -0.0738278742892 0)
(-0.0175260858849 -0.0713895964009 0)
(-0.0174882337164 -0.0689586318516 0)
(-0.0174268975897 -0.0665381589395 0)
(-0.0173435479736 -0.0641311773453 0)
(-0.0172396275618 -0.0617405133346 0)
(-0.0171165625367 -0.0593688222412 0)
(-0.0169757732326 -0.0570185883386 0)
(-0.0168186837066 -0.0546921223671 0)
(-0.0166467297903 -0.0523915570611 0)
(-0.0164613653185 -0.0501188411336 0)
(-0.0162640663261 -0.0478757321922 0)
(-0.0160563331346 -0.0456637891109 0)
(-0.0158396903458 -0.0434843643324 0)
(-0.0156156848654 -0.041338596579 0)
(-0.0153858821455 -0.0392274043437 0)
(-0.0151518608932 -0.0371514805117 0)
(-0.0149152065195 -0.0351112883337 0)
(-0.0146775036149 -0.0331070589491 0)
(-0.0144403277326 -0.0311387905347 0)
(-0.0142052367391 -0.0292062491445 0)
(-0.0139737619693 -0.0273089712024 0)
(-0.0137473993955 -0.0254462676256 0)
(-0.0135276009891 -0.0236172294611 0)
(-0.0133157664371 -0.0218207349632 0)
(-0.0131132353495 -0.0200554579666 0)
(-0.0129212800978 -0.0183198774646 0)
(-0.0127410994131 -0.0166122883059 0)
(-0.0125738129006 -0.014930812999 0)
(-0.0124204566016 -0.0132734148544 0)
(-0.0122819796852 -0.0116379124444 0)
(-0.0121592421924 -0.0100219959826 0)
(-0.0120530125196 -0.00842325016908 0)