/*--------------------------------*- C++ -*----------------------------------*\
| =========                 |                                                 |
| \\      /  F ield         | OpenFOAM: The Open Source CFD Toolbox           |
|  \\    /   O peration     | Version:  v1906                                 |
|   \\  /    A nd           | Web:      www.OpenFOAM.com                      |
|    \\/     M anipulation  |                                                 |
\*---------------------------------------------------------------------------*/
FoamFile
{
    version     2.0;
    format      ascii;
    class       surfaceScalarField;
    location    "540";
    object      phia;
}
// * * * * * * * * * * * * * * * * * * * * * * * * * * * * * * * * * * * * * //

dimensions      [0 3 -1 0 0 0 0];
oriented        oriented;


internalField   nonuniform List<scalar> 
18240
(
0.000846660837753
-0.000846838971636
0.00173518952944
-0.000888759159125
0.00262167618808
-0.000886657964226
0.00350088073634
-0.000879445700503
0.00437008107256
-0.000869356242902
0.00522656494923
-0.000856733605724
0.00606813553312
-0.000841710588571
0.0068923791023
-0.000824499885764
0.00769743859392
-0.000805183026054
0.00848116434663
-0.000783986534743
0.00924204569462
-0.000760987725888
0.00997821410939
-0.000736431636351
0.0106885105858
-0.000710385576859
0.0113713480746
-0.00068310120111
0.0120259013915
-0.000654624917481
0.0126508412658
-0.000625202232839
0.0132456354897
-0.000594848626348
0.0138091688881
-0.000563792618279
0.0143411436649
-0.000532012076157
0.014840600873
-0.000499711620479
0.0153074089341
-0.000466828859436
0.0157407028227
-0.000433541903864
0.0161404485804
-0.000399750403255
0.0165058165826
-0.000365608175417
0.0168368105002
-0.000330983267262
0.0171325905415
-0.000296011029485
0.0173931537232
-0.000260537823076
0.0176176224835
-0.000224689385847
0.0178059638356
-0.000188302380056
0.0179572584251
-0.000151503783245
0.0180714441796
-0.000114133988632
0.0181475777753
-7.63304437784e-05
0.0181855923953
-3.79513686023e-05
0.0181845694071
8.39297922625e-07
0.0181444918149
4.01512874287e-05
0.0180645364419
7.97854827011e-05
0.0179448109694
0.000119808101468
0.0177846784931
0.000159976906033
0.0175844618551
0.000200306931432
0.0173438108817
0.000240510057978
0.0170633588911
0.000280548266823
0.0167431427343
0.000320090142182
0.0163841969873
0.000359046612081
0.0159870386957
0.000397047384248
0.0155531887481
0.000433953809587
0.0150837359793
0.000469357412191
0.0145807772751
0.000503064477613
0.0140460778174
0.00053462058077
0.0134824206993
0.000563763855502
0.0128923767116
0.000589983248405
0.0122795427226
0.000612941162282
0.0116474228014
0.000632079353815
0.0110005149183
0.000647014541808
0.0103432887222
0.000657207575294
0.00968106347008
0.000662329921358
0.00901906637047
0.00066200143821
0.0083630587732
0.000656108304229
0.00771848837184
0.000644597025429
0.00709086620608
0.000627716187794
0.00648505527891
0.000605855571669
0.00590544881441
0.000579689364205
0.005355477891
0.000550025687038
0.00483774144873
0.000517803835136
0.00435387779663
0.000483919113653
0.00390476847402
0.000449159069496
0.00349065693019
0.000414158620432
0.0031112633258
0.000379425352148
0.00276588660033
0.00034540980472
0.00245338817675
0.000312514778236
0.00217228500025
0.000281121870506
0.00192074457035
0.000251546628225
0.00169671365822
0.000224039006579
0.00149796990996
0.000198745419037
0.00132225305348
0.000175719706943
0.00116732960466
0.000154925175783
0.00103106781377
0.000136263802634
0.000911473040294
0.000119599042072
0.000806704697555
0.000104771646382
0.000715096535739
9.16152859394e-05
0.00063514774454
7.99537105982e-05
0.000565550367562
6.9606650383e-05
0.000505200530942
6.03561063089e-05
0.000453332188668
5.18790786514e-05
0.000409990406052
4.33492271764e-05
0.00037499120163
3.50113021402e-05
0.000343131694886
3.18691274042e-05
0.000313139270557
3.00072101905e-05
0.000286736893391
2.64164880393e-05
0.000260242561476
2.65137258403e-05
0.000231137504271
2.91271309015e-05
0.000201113044548
3.00513861982e-05
0.000170175041028
3.09703073229e-05
0.000135020068487
3.51948232394e-05
9.31911954914e-05
4.18700232586e-05
4.52068905864e-05
4.80205542985e-05
4.5226588236e-05
0.000893915446112
-0.00174095234434
0.00184303909415
-0.00183810375596
0.00278694362337
-0.00183076648983
0.0037222330505
-0.00181495659733
0.00464646012053
-0.00179378143043
0.00555703895161
-0.00176753298413
0.00645157193804
-0.00173643459196
0.0073276397184
-0.00170078587836
0.00818312694168
-0.00166085277097
0.00901590725823
-0.00161698112341
0.00982420801637
-0.00156946139738
0.0106062298263
-0.00151866231604
0.0113605559993
-0.00146487402145
0.0120857138752
-0.0014084612226
0.0127806257782
-0.00134968772991
0.0134441178083
-0.00128888851409
0.0140754087441
-0.00122627840379
0.0146735727913
-0.00116214195494
0.0152380632595
-0.00109662887947
0.0157681366864
-0.00102996044464
0.0162634085431
-0.000962214101678
0.0167232465768
-0.00089354461683
0.0171473557812
-0.000823959858623
0.0175351488129
-0.000753554489532
0.0178863571494
-0.000682278538224
0.0182003858243
-0.000610181027238
0.0184769469634
-0.000537172652918
0.0187154054561
-0.000463276833441
0.0189154305406
-0.000388387998304
0.0190763380031
-0.000312527540812
0.0191977568013
-0.000235600481811
0.0192789750119
-0.000157652136586
0.0193196124505
-7.86239973339e-05
0.0193189743165
1.38680579908e-06
0.0192767288602
8.23735077224e-05
0.0191922737101
0.000164162758479
0.019065410128
0.000246659812297
0.0188957246703
0.000329597011277
0.0186832525728
0.000412777721014
0.018427876591
0.000495832825274
0.0181299714686
0.000578461802344
0.0177898217088
0.000660198366093
0.0174082401963
0.000740645326607
0.016986008861
0.000819248415143
0.016524468117
0.000895519772143
0.0160249882663
0.000968817985931
0.0154895302216
0.00103855529426
0.0149201586001
0.00110398423964
0.0143195744504
0.00116438840441
0.0136906776491
0.00121888428247
0.0130370619804
0.0012666053054
0.0123626192591
0.00130653955531
0.011671964323
0.00133772623929
0.0109700491082
0.0013591541647
0.0102624626774
0.00136998102988
0.0095550159935
0.00136949334228
0.00885387706745
0.00135731869738
0.00816512720961
0.00133340471292
0.0074947465416
0.00129817217863
0.00684817656318
0.00125249141961
0.00623019814742
0.00119774147451
0.00564458033107
0.00113570967086
0.00509403088465
0.00106841896189
0.0045801913326
0.000997818314144
0.00410384484
0.000925558093106
0.0036651289346
0.000852920991897
0.00326367924167
0.000780910790857
0.00289870185574
0.000710416998535
0.00256895935746
0.000642276826719
0.00227281407718
0.000577282313283
0.00200825506421
0.000516113724143
0.0017730047559
0.00045929482017
0.00156461547452
0.000407137091076
0.00138060128088
0.000359735597923
0.00121853307181
0.000316995111677
0.00107610998835
0.000278689230651
0.000951194940556
0.000244517968761
0.000841826745922
0.000214144379613
0.000746229070985
0.000187219296331
0.000662798984878
0.000163390277523
0.000590097718023
0.000142316111426
0.000526799895867
0.00012366188598
0.000471585135827
0.000107103481378
0.000422636529869
9.2307127828e-05
0.000377952854017
7.97056185619e-05
0.000338300412836
7.15324813161e-05
0.000306002139844
6.23188126145e-05
0.000278830470912
5.36029375431e-05
0.000253519038427
5.1843018791e-05
0.000227589663766
5.5078157415e-05
0.000198709316352
5.89589696529e-05
0.00016772800217
6.19830893476e-05
0.000134320114132
6.8637583594e-05
9.50280770982e-05
8.12039761855e-05
4.67028090648e-05
9.63849591163e-05
9.19438646803e-05
0.00090213594782
-0.0026432906269
0.00185695350974
-0.00279313665286
0.00280757877733
-0.0027816045421
0.00374967365828
-0.00275726686283
0.00468051595553
-0.00272483253281
0.00559747650833
-0.00268470590357
0.00649807032431
-0.00263723202798
0.00737990197765
-0.00258282535193
0.00824077723187
-0.00252192516001
0.00907861640472
-0.00245502207048
0.00989157114158
-0.0023826054131
0.010677911572
-0.00230519715819
0.0114361501801
-0.00222329297697
0.0121649058747
-0.00213740280394
0.0128630346818
-0.00204798691397
0.0135294733034
-0.00195550350669
0.0141633766694
-0.00186034141618
0.0147639441065
-0.00176287536288
0.0153305641333
-0.00166339705181
0.0158626271959
-0.00156217834896
0.016359678965
-0.00145940202226
0.0168212239932
-0.00135523272848
0.0172468886051
-0.00124974811701
0.0176362197823
-0.00114301652798
0.0179888585969
-0.00103502827141
0.0183043378498
-0.000925778559539
0.0185822658628
-0.000815198617412
0.0188221256873
-0.00070324216609
0.0190234687735
-0.00058981611671
0.0191857181099
-0.00047486952073
0.0193083707044
-0.000358325205445
0.0193908064549
-0.000240167723259
0.0194324989025
-0.000120375956938
0.0194328322408
9.86293008352e-07
0.0193913181128
0.000123840479049
0.0193074215305
0.000248004518907
0.0191807813075
0.000373264699115
0.0190110440441
0.000499291391757
0.0187980834611
0.000625714247938
0.0185418402081
0.000752044550426
0.0182425347036
0.000877753757812
0.0179005101634
0.00100220211429
0.0175164343035
0.00112471747667
0.0170911455726
0.00124452649546
0.0166258434411
0.00136082741075
0.0161219430776
0.0014727175556
0.0155812596684
0.00157925331045
0.0150058824212
0.00167937075518
0.0143983616617
0.00177193323837
0.0137616116469
0.00185565440417
0.013099100097
0.00192915111951
0.0124147717651
0.0019908996306
0.0117132113231
0.00203933146175
0.0109995432587
0.0020728659449
0.0102795016289
0.00209007780608
0.00955924076403
0.00208980976772
0.00884525909135
0.00207136535436
0.0081441147081
0.00203461461862
0.00746223944389
0.00198011938913
0.00680558079262
0.00190922029237
0.00617931173325
0.00182408235307
0.00558743020145
0.00172765939729
0.00503257940946
0.00162333459799
0.00451613602037
0.00151432216008
0.00403854148101
0.00140320571185
0.00359967280355
0.0012918351382
0.00319903699935
0.00118158255687
0.00283577561937
0.00107370588027
0.00250859035134
0.000969481177632
0.00221572954245
0.000870155872618
0.00195502244922
0.000776828046224
0.00172398393625
0.000690336969733
0.00151995273733
0.000611169636016
0.00134025333705
0.000539435791144
0.00118232165177
0.000474927959565
0.00104377556297
0.000417237649921
0.000922435737926
0.000365861536597
0.000816322521887
0.00032026226722
0.000723654147152
0.000279893665586
0.000642833350084
0.000244217595796
0.000572428635605
0.000212728308005
0.000511129640326
0.000184968940997
0.000457679818693
0.00016056222956
0.000410688322457
0.0001393079541
0.000369095075193
0.000121308870968
0.000332215799775
0.000108422990219
0.000297353941389
9.71935459628e-05
0.000264255853937
8.67155634044e-05
0.000237271555558
7.88446258774e-05
0.000215097058581
7.72739264164e-05
0.000186546454211
8.75341967709e-05
0.000152311733569
9.62480745921e-05
0.000116702760412
0.000104285694403
7.77625329051e-05
0.000120179107891
3.96310291378e-05
0.000134545875754
0.00013159190941
0.000910589766574
-0.00355408449717
0.00187342983466
-0.00375619431672
0.00283216442306
-0.00374055434414
0.00378224021694
-0.0037075580859
0.00472079917436
-0.00366360360639
0.0056451396001
-0.00360925784231
0.00655270238279
-0.0035450022883
0.00744106468538
-0.00347139400766
0.00830798258863
-0.00338904437655
0.00915137537842
-0.00329861462209
0.00996936416868
-0.0032007880141
0.0107602427288
-0.00309626759571
0.0115225116056
-0.00298574693853
0.0122548363408
-0.0028699104031
0.0129560775431
-0.0027494034955
0.0136252379246
-0.00262483677475
0.0142614892074
-0.00249675746384
0.0148641101048
-0.00236565833293
0.0154325118367
-0.00223195223749
0.0159661701286
-0.00209598721021
0.0164646518467
-0.00195802524597
0.0169275446309
-0.0018182640139
0.0173544874532
-0.00167682007328
0.0177451013639
-0.00153375646022
0.0180990261121
-0.00138906942531
0.0184158544832
-0.00124272019021
0.0186951760672
-0.00109462373415
0.0189365166577
-0.000944683122246
0.01913938943
-0.000792779469448
0.0193032404328
-0.000638807979403
0.0194275074121
-0.000482669913713
0.0195115722257
-0.000324307190081
0.0195548279733
-0.00016369673841
0.0195566400707
-8.87871719878e-07
0.0195164211504
0.000164006723484
0.0194336006873
0.000330775143575
0.0193077063435
0.000499118306461
0.0191383401412
0.000668619498835
0.0189252622535
0.000838762729636
0.0186683694588
0.00100891037447
0.0183677755233
0.00117832896297
0.0180237867279
0.00134617441815
0.0176369735969
0.00151152188299
0.0172081410108
0.00167335251861
0.0167383910909
0.00183057818597
0.0162290928057
0.00198201901017
0.0156819450272
0.00212641154163
0.015098960401
0.00226236864329
0.0144825457163
0.00238836858029
0.0138355181651
0.00250270603332
0.0131612146394
0.00260348627064
0.0124635388753
0.00268861060581
0.0117470743793
0.0027558390869
0.0110171034439
0.00280288318851
0.0102796318556
0.00282760405979
0.00954126876579
0.00282823053013
0.00880907469325
0.00280362443582
0.00809029713952
0.00275346001308
0.00739213366918
0.00267835399291
0.00672134306245
0.0025800823638
0.00608383477934
0.00246166137823
0.00548399873919
0.00232756276655
0.00492432515252
0.00218307281482
0.00440561891767
0.00203308875806
0.0039276485026
0.00188122925927
0.00348984049128
0.00172968806279
0.00309155717125
0.00157990063539
0.00273192483074
0.00143336403954
0.00240959731028
0.00129182601508
0.00212267191062
0.0011570920677
0.00186872313693
0.00103078253294
0.00164492747749
0.000914134061479
0.00144826208604
0.000807835084617
0.00127574261821
0.000711954707141
0.00112460202455
0.00062606914352
0.000992355526694
0.000549486313943
0.000876784015216
0.00048143654027
0.000775897422893
0.000421153510465
0.000687922552431
0.000367873934695
0.000611293607749
0.000320852518545
0.000544630404983
0.000279398257493
0.000486705928077
0.00024290078033
0.000436400214556
0.000210876188809
0.000392334182442
0.000183382787753
0.000353895893611
0.000159756863352
0.000316800411256
0.00014552949312
0.000281808453885
0.000132198283287
0.000250601923416
0.000117936187338
0.00021923314462
0.000110229775614
0.000187117166343
0.000109408547441
0.000162895112233
0.000111780866899
0.000130327955355
0.000128845463223
9.26214484173e-05
0.000142022285261
6.08176798185e-05
0.000152017109578
3.14024730547e-05
0.000163992215573
0.00016300571128
0.000921525432951
-0.0044758159738
0.00189553857312
-0.00473042405226
0.00286529182876
-0.004710525587
0.00382611416152
-0.00466859665043
0.00477503762547
-0.00461274148999
0.00570927084517
-0.00454370347833
0.00662617364239
-0.00446211471215
0.00752326808341
-0.00436869550755
0.00839826088397
-0.00426424064111
0.00924904855127
-0.00414960251847
0.0100737329692
-0.00402566833583
0.0108706164546
-0.00389334317291
0.0116382092727
-0.0037535269159
0.012375214686
-0.00360709864927
0.013080528704
-0.00345489486675
0.0137532160397
-0.00329769672359
0.0143925032742
-0.00313621138641
0.014997747543
-0.00297106418016
0.0155684252982
-0.00280278524771
0.0161040967416
-0.00263180852578
0.0166043935728
-0.00245846532848
0.0170689830303
-0.00228299110827
0.0174975583016
-0.00210552611391
0.0178898058257
-0.00192612900633
0.0182454012687
-0.00174478288012
0.0185639823512
-0.0015614134437
0.0188451515885
-0.0013758980388
0.019088455431
-0.00118808619013
0.0192933940121
-0.000997810176083
0.0194594069749
-0.000804907249072
0.0195858906829
-0.000609232861508
0.0196721914758
-0.000410681504849
0.0197176316822
-0.000209203526015
0.0197215123557
-4.82953402196e-06
0.0196831485988
0.00020231626035
0.0196018819983
0.000411992901751
0.0194771245755
0.000623833385597
0.0193083785336
0.000837328326651
0.01909528446
0.00105182577352
0.0188376425421
0.0012665260832
0.0185354575602
0.00148049357068
0.0181889535338
0.00169266262947
0.0177986076866
0.00190185747304
0.0173651530457
0.00210680129756
0.016889599727
0.0023061310824
0.0163732300424
0.00249839277044
0.0158176191703
0.00268203212271
0.0152246436479
0.00285535875667
0.0145965298175
0.00301650285282
0.0139359090922
0.00316335260718
0.0132459239914
0.00329350267772
0.0125303476724
0.00340422480688
0.0117937286855
0.00349249959803
0.0110415081515
0.00355515375855
0.010280061428
0.00358910293227
0.00951662178775
0.00359173179121
0.00875904976541
0.00356126022232
0.00801554596728
0.00349703332764
0.00729444569591
0.00339952523012
0.00660375349432
0.00327084471608
0.0059507125352
0.00311477090465
0.00534043172795
0.00293790957357
0.00477505030435
0.00274851713916
0.00425421369903
0.00255398573451
0.00377640018491
0.00235909587434
0.00334032577133
0.00216580616224
0.00294533006956
0.00197493008835
0.0025907136835
0.00178800428841
0.00227516328698
0.00160739185728
0.00199659243414
0.00143567217046
0.0017522012898
0.00127517676341
0.0015386423838
0.00112769276873
0.00135230756536
0.000994167412791
0.00118973448295
0.000874526242101
0.00104788038285
0.000767922872976
0.000924165004602
0.000673203612482
0.000816360173085
0.000589244717893
0.000722480828052
0.000515036718089
0.000640774212977
0.000449585189232
0.000569728810838
0.000391902842485
0.000508051404322
0.000341081132049
0.000454667932112
0.0002962907329
0.000408774831718
0.00025677657305
0.000369921939958
0.000222243976124
0.000335181101507
0.000194506952765
0.000301442549923
0.000179279076622
0.000267391723555
0.000166261326859
0.00022889675698
0.000156444511025
0.000193170717815
0.000145970912544
0.000160049520408
0.000142548697484
0.000132788521733
0.000139062880917
0.000109013862831
0.000152648099676
7.66841526089e-05
0.000174387643042
4.71009960136e-05
0.000181627652157
2.37443755589e-05
0.000187370839988
0.000186763836363
0.00093525203874
-0.00541127547985
0.00192356650672
-0.005718959428
0.0029073719057
-0.00569455014346
0.00388185434239
-0.00564329749273
0.00484392668927
-0.00557502993822
0.00579068812945
-0.00549067904215
0.00671940356768
-0.00539104152367
0.00762752052263
-0.00527702104846
0.00851268825363
-0.00514961345895
0.00937276823842
-0.00500988409822
0.0102058444847
-0.00485894197538
0.0110102240671
-0.00469791603991
0.0117844379177
-0.00452792922675
0.0125272312699
-0.00435007583921
0.0132375551876
-0.00416539728373
0.0139145475646
-0.00397486252724
0.0145575163932
-0.00377934785587
0.0151659130278
-0.00357962301748
0.0157393096199
-0.00337633790691
0.0162773679956
-0.00317001722265
0.0167798152832
-0.00296105651573
0.0172464130567
-0.00274972681462
0.0176769358784
-0.00253618025865
0.0180711451129
-0.00232046343763
0.018428773838
-0.00210253006709
0.0187495076687
-0.00188225953602
0.0190329770791
-0.00165947293956
0.0192787453231
-0.00143395370396
0.019486307682
-0.00120546504941
0.0196550861826
-0.000973772089551
0.0197844361821
-0.000738662520732
0.0198736487434
-0.000499967639763
0.019921966563
-0.000257588364378
0.0199285970762
-1.1521140531e-05
0.0198927395055
0.000238119091531
0.0198136098336
0.000491073543309
0.0196904790227
0.00074692126588
0.0195227074902
0.00100506235817
0.0193097896014
0.00126471195224
0.0190513901089
0.00152489901561
0.0187473847846
0.00178447783538
0.0183978870597
0.00204214422482
0.0180032726265
0.00229646107504
0.0175641861632
0.00254588180875
0.0170815445016
0.00278877211897
0.0165565263191
0.00302341546193
0.0159905680892
0.00324800052429
0.0153853648765
0.00346057746777
0.0147429024486
0.00365898694144
0.0140655238672
0.00384075753281
0.0133560608117
0.00400299970984
0.0126180131276
0.00414230796527
0.0118557981621
0.00425476139983
0.0110749642889
0.0043360322208
0.0102823593789
0.00438176690368
0.0094860317228
0.00438811646237
0.00869493336169
0.00435242653134
0.0079184497506
0.00427358477903
0.00716649959176
0.00415154553601
0.00644887499138
0.00398853627668
0.00577533781489
0.00378837413232
0.0051524105303
0.00356089844398
0.00458146312497
0.00331952642805
0.00405977276401
0.00307573572681
0.00358329730311
0.00283562374776
0.00314969828605
0.0025994482595
0.00275879656537
0.00236586385419
0.0024105596251
0.00213626378289
0.00210387528797
0.00191409081984
0.00183642737312
0.00170312726429
0.00160488465949
0.00150672213852
0.00140509853935
0.00132747521678
0.0012325147362
0.00116674778775
0.00108292496522
0.0010241124748
0.000952956391569
0.00089789064683
0.000840016576689
0.000786144965106
0.000741965145377
0.000687298832595
0.000656846139599
0.000600158871789
0.00058292172289
0.000523512980921
0.000518750385112
0.000456077310169
0.000463115836116
0.000396719857652
0.000415015466884
0.000344396128617
0.00037368018732
0.000298118273399
0.000338441781964
0.00025748978542
0.000303519407334
0.000229438165099
0.000269224265169
0.000213584580472
0.000237722372952
0.000197774428431
0.000208462341583
0.000185717698254
0.000174760581872
0.000179687958638
0.00014025744212
0.000177069660025
0.000105286402179
0.000174056734229
8.20998563934e-05
0.000175860533236
6.2747248401e-05
0.000193765132325
3.82923904145e-05
0.000206110757206
1.90433235127e-05
0.000206645207706
0.000205815745659
0.000951977381324
-0.00636346267182
0.00195780274448
-0.00672500507282
0.00295880091204
-0.00669577040004
0.00394997527117
-0.00663469180344
0.00492808945497
-0.00655336247224
0.00589010993139
-0.00645291543602
0.0068331864586
-0.00633433139733
0.00775467447357
-0.00619871932434
0.0086521538458
-0.0060472997394
0.00952344226983
-0.0058813756019
0.0103666036507
-0.00570230239514
0.0111799507271
-0.0055114576699
0.0119620427076
-0.00531021114222
0.0127116771721
-0.0050998951901
0.0134278770654
-0.00488177694614
0.0141098721835
-0.00465703190082
0.0147570762725
-0.00442672067194
0.0153690595527
-0.00419176912483
0.0159455184467
-0.00395295375557
0.0164862428912
-0.00371089242779
0.0169910836941
-0.00346604195018
0.017459920486
-0.00321870182702
0.0178926328474
-0.0029690245254
0.0182890745403
-0.00271703049923
0.0186490527789
-0.00246262726076
0.0189723112451
-0.00220563036434
0.0192585180194
-0.00194578562559
0.0195072563334
-0.00168279135612
0.0197180194125
-0.00141632105307
0.0198902075601
-0.00114604665334
0.0200231298784
-0.000871664911485
0.020116008781
-0.000592920231016
0.0201679917002
-0.000309638776305
0.0201781678114
-2.17585375212e-05
0.0201455932183
0.00027063839368
0.0200693226718
0.000567294763832
0.0199484496138
0.000867750730934
0.0197821510166
0.00117132306116
0.0195697368601
0.0014770936797
0.0193106986709
0.00178391022184
0.0190047548928
0.00209039988531
0.0186518861614
0.00239499653141
0.0182523577983
0.00269597820962
0.0178067242233
0.00299150954227
0.0173158161813
0.00327967975711
0.0167807123674
0.00355852466416
0.0162027052478
0.00382601855482
0.0155832756896
0.00408002430121
0.0149240960299
0.00431818844633
0.01422709593
0.00453778740461
0.01349460603
0.00473552000136
0.0127296383987
0.00490731872548
0.0119362424986
0.00504819463415
0.011119978983
0.00515235181125
0.0102882105306
0.00521358333397
0.00945013229234
0.00522626105577
0.00861612640238
0.00518649387928
0.00779685277658
0.00509292892005
0.00700430223669
0.00494416183329
0.00625045085027
0.00474245095242
0.005550224774
0.00448865937173
0.00491315039152
0.00419803136018
0.00433891682134
0.00389381833114
0.0038199050546
0.00359480666393
0.00334693797096
0.0033086438744
0.00291626112413
0.00303016761018
0.00252973232569
0.00275242635342
0.00218906370328
0.00247695589598
0.0018935508956
0.00220961941871
0.00164051280566
0.00195617442881
0.00142586905242
0.00172136652692
0.00124427961125
0.00150906168455
0.00108958178274
0.0013214392217
0.000956362305336
0.00115732846366
0.00084092502912
0.00101332579456
0.00074094060508
0.000886130474421
0.000654593430648
0.000773647495237
0.00057996506571
0.000674788509368
0.00051527314829
0.000588205974376
0.000459194861144
0.000512157024415
0.000410605476072
0.000445311060896
0.000368564954593
0.000386440399528
0.0003323830161
0.000334305255298
0.000301614886718
0.000288264700847
0.000269175483
0.00026188571301
0.000239101204571
0.000243668421782
0.000207176326928
0.000229710390388
0.000176252004849
0.000216654696247
0.00014476471046
0.00021119071866
0.000117343205722
0.000204509020877
8.76012136074e-05
0.000203818467921
6.06023119615e-05
0.000202882160767
4.7236275866e-05
0.000207160057811
3.00582440815e-05
0.000223311628346
1.48572700118e-05
0.000221864508756
0.000220685235327
0.000971895545546
-0.00733556960178
0.00199859311447
-0.00775192793357
0.00302007967655
-0.00771748039507
0.00403112273225
-0.00764595747771
0.00502830442652
-0.0075507644176
0.00600842856752
-0.00743325766797
0.00696850684629
-0.00729462493826
0.00790578326376
-0.00713620798247
0.00881775532097
-0.00695948044426
0.00970218806244
-0.00676601322056
0.0105571230748
-0.00655743796986
0.0113808805527
-0.00633541129773
0.0121720565845
-0.00610157838795
0.0129295134034
-0.00585753827395
0.013652364892
-0.00560480925058
0.0143399548332
-0.00534479725512
0.0149918307001
-0.00507876607759
0.0156077108874
-0.0048078130813
0.0161874491925
-0.00453284962577
0.0167309953189
-0.00425459006099
0.0172383562163
-0.00397354790536
0.0177095575602
-0.00369004197062
0.0181446102466
-0.00340420941206
0.0185434805313
-0.00311602660524
0.018906067401
-0.00282533327986
0.0192321841911
-0.00253185988631
0.0195215464443
-0.00223525394325
0.0197737620451
-0.0019351066274
0.0199883254893
-0.00163097756514
0.0201646132003
-0.00132242111969
0.0203018833195
-0.00100901529016
0.0203992776541
-0.00069038864602
0.0204558317927
-0.00036626066887
0.0204704910514
-3.64795704688e-05
0.0204421371263
0.000298936648313
0.0203696234264
0.000639758532667
0.0202518218238
0.00098550826129
0.0200876766798
0.00133542962592
0.0198762662155
0.0016884712014
0.0196168639415
0.00204328488139
0.0193089969003
0.00239824483498
0.0189524907158
0.00275148593879
0.018547496426
0.00310096136217
0.0180944899493
0.00344451049437
0.0175942430422
0.00377992719906
0.0170477649151
0.00410500901846
0.0164562269893
0.00441756926963
0.0158208840886
0.00471538469382
0.0151430313562
0.00499606645053
0.0144240216506
0.00525682320883
0.01366543485
0.00549414505513
0.0128694015219
0.0057033834293
0.0120392321146
0.00587841541639
0.0111801587
0.00601146425565
0.0103001615532
0.00609364274469
0.00941007072936
0.00611640606786
0.00852240262925
0.00607422991172
0.00764850652414
0.00596688881761
0.00680310137898
0.00578962960247
0.00599923243672
0.00554637417617
0.00526358273859
0.00522436249522
0.00461235913842
0.00484930657919
0.00404155089381
0.00446468289507
0.00353327392797
0.00410314494127
0.00306729553313
0.00377467507838
0.00263848596095
0.00345902638793
0.00225512753407
0.0031358194452
0.00192278733014
0.00280932711677
0.00164106299854
0.00249136262081
0.00140645237282
0.00219079667365
0.00121390748913
0.00191391512913
0.0010563991581
0.00166656352331
0.000924880191927
0.00145295267358
0.000811789978084
0.00127041151626
0.000713354292455
0.00111175841693
0.000628228794745
0.000971253425329
0.000555465717366
0.000846409416565
0.000493076113048
0.000737176299715
0.000438971082875
0.000642309943026
0.000392110656785
0.000559015429416
0.00035149679669
0.000485925021101
0.000316173121044
0.000421766193992
0.000285411577817
0.000365070941663
0.000258419764091
0.000315262276785
0.000230182756281
0.00029013015804
0.000203694289589
0.000270165557136
0.000176273340574
0.00025714207571
0.000145859963673
0.00024708085007
0.000117791941457
0.000239273291063
8.9411276659e-05
0.000232906677172
6.92603610551e-05
0.0002239902526
4.81837667684e-05
0.000223981084852
3.26973099202e-05
0.00022266569492
2.29873320734e-05
0.0002330472044
1.09867354081e-05
0.000233888346475
0.000231679483617
0.000995219345108
-0.00833100307444
0.00204636069806
-0.0088032940821
0.00309182367893
-0.00876317008092
0.00412609337327
-0.00868045161502
0.00514552873847
-0.00857042253955
0.00614673899285
-0.00843468808325
0.00712657036349
-0.00827467376149
0.00808213501257
-0.00809198678825
0.00901083318112
-0.00788838924477
0.00991036894436
-0.00766575554181
0.010778758599
-0.00742602995193
0.0116143333203
-0.00717118359
0.0124157348239
-0.00690317264151
0.0131819054389
-0.00662389631207
0.0139120706035
-0.00633515652226
0.0146057152249
-0.00603861819257
0.0152625519433
-0.00573577339254
0.0158824836646
-0.00542790924025
0.0164655595538
-0.00511608391313
0.0170119284687
-0.00480111094635
0.0175217905261
-0.00448355566512
0.0179953518041
-0.00416374234774
0.0184327831389
-0.00384177343532
0.018834187021
-0.00351755648978
0.0191995716699
-0.00319083746466
0.0195288334843
-0.0028612345461
0.0198217444637
-0.00252827131496
0.0200779439511
-0.00219140588164
0.020296931311
-0.00185005832163
0.0204780602522
-0.00150363694872
0.0206205342226
-0.0011515698958
0.0207234053427
-0.000793334062741
0.0207855800688
-0.000428503630078
0.0208058340299
-5.67956454747e-05
0.020782838234
0.000321876168302
0.0207151992437
0.0007073471349
0.0206015128875
0.00109914984471
0.0204404314005
0.00149647204452
0.0202307399768
0.00189812903388
0.0199714381956
0.00230255871626
0.0196618171354
0.00270784344559
0.0193015227165
0.00311176374261
0.0188905919337
0.00351188136627
0.0184294516893
0.00390564624561
0.0179188700395
0.00429051028981
0.0173598604099
0.00466402673692
0.0167535423738
0.00502390041987
0.0161009872413
0.00536796020368
0.0154030703033
0.00569400545037
0.0146604149612
0.0059995107077
0.0138734717207
0.00628111557803
0.0130429463677
0.00653395258928
0.0121706111839
0.00675078325571
0.0112607681434
0.00692136187261
0.0103218950665
0.00703256172057
0.0093676728008
0.00707069004508
0.00841445284958
0.00702750954125
0.00747175031331
0.00690965523402
0.00655870533844
0.00670273074133
0.00568122739907
0.00642389937066
0.00489577659019
0.0060098601828
0.00423361644652
0.00551151395367
0.00368226689554
0.00501609111819
0.00320227748354
0.0045831924971
0.0027479803037
0.00422903615727
0.00231512414412
0.0038919281155
0.00193039098547
0.00352059689036
0.00160660060152
0.00313314908698
0.00134195371538
0.00275603263978
0.00113079776527
0.0024019676873
0.000967205062506
0.00207750697612
0.000842193129349
0.00179157190689
0.000741145354906
0.00155398912921
0.000652173572299
0.00135937635984
0.000572411571356
0.0011915111749
0.000503293495176
0.00104036803438
0.000445944903541
0.000903752544405
0.000397763217544
0.000785354618042
0.000355403078051
0.000684665933453
0.000318759877139
0.000595655568596
0.000287059698933
0.000517623742619
0.00025915878925
0.000449667546046
0.000234401824269
0.00038983117496
0.000209652412992
0.000340016771943
0.00018546725321