/*--------------------------------*- C++ -*----------------------------------*\
| =========                 |                                                 |
| \\      /  F ield         | OpenFOAM: The Open Source CFD Toolbox           |
|  \\    /   O peration     | Version:  v1906                                 |
|   \\  /    A nd           | Web:      www.OpenFOAM.com                      |
|    \\/     M anipulation  |                                                 |
\*---------------------------------------------------------------------------*/
FoamFile
{
    version     2.0;
    format      ascii;
    class       surfaceScalarField;
    location    "617";
    object      phia;
}
// * * * * * * * * * * * * * * * * * * * * * * * * * * * * * * * * * * * * * //

dimensions      [0 3 -1 0 0 0 0];
oriented        oriented;


internalField   nonuniform List<scalar> 
18240
(
0.00134700991244
-0.00134703553583
0.00282167892385
-0.0014746940937
0.00429528971129
-0.00147363902845
0.0057501586101
-0.00145489331909
0.00717827181159
-0.00142814221755
0.00857288512452
-0.00139463690912
0.00992793888246
-0.00135508335313
0.0112379823019
-0.00131006618782
0.0124981244609
-0.00126017226798
0.0137040940699
-0.00120599155163
0.0148521975415
-0.00114813405958
0.0159393769952
-0.00108720056335
0.0169631410652
-0.00102379507561
0.0179216120355
-0.000958491237618
0.0188134305676
-0.00089184991038
0.0196377963045
-0.000824385152634
0.0203943529398
-0.000756588316233
0.021083228557
-0.000688894176636
0.0217049079329
-0.000621711313265
0.0222602783374
-0.00055538810542
0.0227504948172
-0.000490248602188
0.0231770356179
-0.000426557647493
0.0235415644504
-0.000364561098514
0.0238459976791
-0.000304449230397
0.0240923655192
-0.000246400183406
0.0242828912697
-0.000190540926133
0.0244198519368
-0.000136993056823
0.0245056686276
-8.58310660423e-05
0.0245427664035
-3.71301566406e-05
0.0245336750326
9.07775886678e-06
0.0244808898245
5.27528530136e-05
0.0243869735376
9.39033930103e-05
0.0242544093744
0.000132531876838
0.0240857254825
0.000168671657745
0.0238833523628
0.000202340904041
0.0236497438261
0.000233596897273
0.0233872310124
0.000262480699293
0.0230981509593
0.000289068934043
0.0227847003632
0.000313418575125
0.0224490693293
0.000335620357213
0.0220932946922
0.000355742732735
0.0217193980027
0.000373886370986
0.021329238774
0.000390127427415
0.0209246559163
0.000404572812346
0.0205073212851
0.000417302952825
0.0200788838314
0.000428427593329
0.0196408239617
0.000438028299433
0.0191945996746
0.000446214525898
0.0187415021452
0.000453066087498
0.0182828031007
0.000458689295844
0.0178196120938
0.000463159681647
0.0173530243056
0.000466577970516
0.0168839798151
0.000469013305824
0.0164134109626
0.000470558885858
0.01594210394
0.000471275972943
0.0154708447855
0.000471248965706
0.0150002834764
0.000470530424154
0.0145310776129
0.000469195382052
0.0140637592634
0.000467287631689
0.0135988754041
0.00046487302182
0.0131368577065
0.000461987182018
0.012678158875
0.000458687577071
0.012223125709
0.000455002861429
0.0117721305713
0.000450983411084
0.0113254480667
0.000446652447987
0.0108833810056
0.000442054807023
0.0104461412156
0.000437209992294
0.0100139694743
0.000432158908355
0.0095870209884
0.000426918980795
0.00916547889352
0.000421528630672
0.00874944506898
0.000416004623764
0.00833904687139
0.000410384055876
0.00793433393103
0.000404684079708
0.00753537785216
0.000398941220908
0.0071421756982
0.000393173661684
0.00675474240292
0.000387417701125
0.00637302158043
0.000381692762272
0.00599697040142
0.000376034851763
0.00562647837311
0.000370464475179
0.00526144440714
0.000365016939134
0.00490170413445
0.000359713341681
0.00454709888928
0.000354587576636
0.00419741214926
0.000349660553544
0.0038524301941
0.000344963707282
0.00351188835668
0.000340516499651
0.00317552348867
0.000336346044083
0.00284303154946
0.000332467445659
0.00251411410762
0.000328897956268
0.00218845379084
0.000325636624588
0.00186577057385
0.000322663243148
0.00154585708938
0.00031989099527
0.00122875622168
0.000317081039968
0.000915171162578
0.000313565037143
0.000608137509225
0.0003070147613
0.000319583394969
0.000288531678551
0.000319571109516
0.00148916513727
-0.00283622751961
0.00315147502085
-0.00313703127854
0.00480468785237
-0.00312688066884
0.00643410593055
-0.00308433896032
0.00803230759513
-0.00302637275369
0.00959235192724
-0.00295470856207
0.0111076485008
-0.00287040880246
0.0125721446771
-0.00277458936044
0.0139803942114
-0.00266845067954
0.0153276215862
-0.00255324557583
0.0166097221365
-0.0024302634594
0.0178232892194
-0.00230079392364
0.0189655799571
-0.00216611460293
0.0200345203237
-0.00202745748148
0.0210286463338
-0.00188600460423
0.0219470954179
-0.00174285968449
0.0227895314203
-0.00159905285977
0.0235561301824
-0.00145551793016
0.0242474961601
-0.00131310564358
0.0248646491247
-0.00117256557974
0.0254089387637
-0.00103456637229
0.0258820375273
-0.000899680418976
0.0262858573845
-0.000768408825423
0.0266225514441
-0.000641166780396
0.0268944346541
-0.000518310978861
0.0271039946153
-0.000400123853406
0.0272538161702
-0.000286841885941
0.0273466004159
-0.000178637753278
0.0273850921589
-7.5648854899e-05
0.0273721052183
2.20427715332e-05
0.027310449136
0.000114382309057
0.0272029675969
0.000201363500088
0.02705247627
0.000282996897945
0.0268617903374
0.000359336624349
0.0266336554887
0.000430449760227
0.0263707920773
0.000496439771829
0.0260758303362
0.000557416735738
0.0257513564066
0.00061352271078
0.025399848358
0.000664901187375
0.0250237256219
0.000711723275438
0.0246252862525
0.000754156899482
0.0242067594005
0.000792393685718
0.0237702438601
0.000826617971923
0.0233177631533
0.000857034207453
0.0228512054268
0.00088383585143
0.0223723807637
0.000907233112429
0.0218829625394
0.000927421835167
0.0213845465804
0.000944611452813
0.0208785940721
0.000958994008693
0.0203664921631
0.000970772229044
0.0198494984763
0.000980128856637
0.0193288026861
0.000987254789636
0.0188054725961
0.00099231892722
0.0182805161415
0.00099549632467
0.017754828928
0.000996938741116
0.017229256036
0.0009968027539
0.0167045408412
0.000995221172992
0.016181385973
0.000992331018052
0.0156604032321
0.00098824591422
0.0151421730622
0.000983083796835
0.0146271954032
0.000976940355311
0.0141159471087
0.000969916282567
0.0136088336649
0.000962091786567
0.0131062440894
0.000953553176079
0.0126085035435
0.000944368432853
0.0121159253832
0.000934612908397
0.0116287648299
0.000924345938251
0.0111472679696
0.000913635436103
0.0106716267464
0.000902535541745
0.0102020248264
0.000891109918802
0.00973859427988
0.000879410449359
0.00928145830371
0.000867499079549
0.00883068999819
0.000855427603714
0.00838635199607
0.000843257936812
0.00794845776845
0.000831043060455
0.00751700821637
0.000818845638406
0.00709195591481
0.000806720220412
0.00667323871196
0.000794730141184
0.00626074729725
0.000782931093533
0.00585435581786
0.000771386267179
0.00545389310055
0.000760151401462
0.0050591702624
0.000749288113287
0.0046699558917
0.000738850515184
0.00428600060867
0.000728896629399
0.00390701648519
0.000719476546076
0.00353269851811
0.000710641611887
0.00316270849671
0.000702433690649
0.00279669291429
0.000694891028379
0.00243426939202
0.000688036614578
0.00207503307632
0.000681877020782
0.00171851740887
0.000676384071764
0.00136409440854
0.000671482434397
0.00101061455206
0.000667023451479
0.000654884222516
0.000662724598105
0.000287701700643
0.000655693892762
0.000607262580623
0.0015154705348
-0.00435172480687
0.00319906046961
-0.00482064973289
0.00487601336063
-0.00480386189054
0.00652905672588
-0.00473741060201
0.00815002991644
-0.00464737435776
0.00973166618166
-0.00453637288498
0.0112672022695
-0.00440597322646
0.0127504593614
-0.00425787430411
0.0141759047533
-0.00409392428144
0.0155386999659
-0.00391606842342
0.0168347140654
-0.00372630561588
0.0180605336206
-0.00352664086982
0.0192134422962
-0.00331905114351
0.0202914048081
-0.00310544710758
0.0212930232358
-0.00288765067226
0.0222175045605
-0.00266736781142
0.0230646029487
-0.00244617862171
0.0238345796668
-0.00222552110512
0.0245281396922
-0.00200669274525
0.0251463915349
-0.00179084350154
0.0256907848306
-0.00157898640822
0.0261630754759
-0.00137199673873
0.0265652683933
-0.00117062812401
0.0268995906568
-0.000975514290494
0.0271684408542
-0.00078718717038
0.0273743703629
-0.000606078166987
0.0275200386974
-0.000432535819127
0.0276082016357
-0.000266825047315
0.02764167113
-0.000109143540335
0.0276233088307
4.03811601522e-05
0.0275559897942
0.000181676551884
0.0274425998553
0.000314729963416
0.0272860034903
0.000439568862905
0.027089044993
0.000556272058792
0.0268545173686
0.000664953349749
0.0265851677344
0.000765766727178
0.0262836688731
0.000858891905178
0.0259526280236
0.000944541227373
0.0255945605825
0.00102294523815
0.0252119016419
0.00109436018857
0.0248069816168
0.00115905380386
0.0243820402081
0.00121731332545
0.0239392038285
0.00126943145168
0.0234805017185
0.00131571476073
0.0230078450761
0.00135646977836
0.0225230451209
0.0013920116729
0.0220277939051
0.00142265046975
0.0215236841254
0.00144869995336
0.0210121915554
0.00147046409607
0.020494696382
0.00148824619062
0.0199724671711
0.00150233563686
0.0194466834201
0.00151301735395
0.0189184208503
0.00152055908767
0.0183886747839
0.0015252211877
0.0178583464931
0.0015272446046
0.0173282669175
0.00152686107501
0.0167991837031
0.00152428191946
0.0162717847434
0.00151970863919
0.0157466855514
0.0015133225676
0.0152244521104
0.00150529578975
0.0147055882321
0.00149578160976
0.014190557283
0.00148492564965
0.0136797692986
0.00147285703973
0.0131736012555
0.00145969948426
0.0126723838107
0.00144556302938
0.0121764199348
0.00143055487613
0.0116859713082
0.00141477158048
0.011201275259
0.00139830938661
0.0107225309477
0.00138125672295
0.0102499146802
0.0013637038776
0.00978356613305
0.00134573570354
0.00932360218529
0.00132744049469
0.00887010347238
0.00130890285698
0.00842312693317
0.00129021171208
0.00798269302026
0.00127145334916
0.0075487971541
0.0012527185216
0.00712139788529
0.00123409573037
0.00670042743223
0.00121567742788
0.00628578106889
0.00119755361631
0.00587732687082
0.00117981718371
0.00547489653344
0.0011625579049
0.00507829440251
0.00114586694203
0.00468728987386
0.00112983132017
0.00430162569947
0.00111453757937
0.0039210119833
0.00110006672587
0.00354513354919
0.00108649692184
0.00317364509882
0.00107389875695
0.00280617632135
0.00106233668769
0.00244232519119
0.00105186448778
0.00208165337365
0.00104252594543
0.00172366068829
0.0010343539673
0.00136773727329
0.00102738396945
0.00101305866996
0.00102168120089
0.000658513343116
0.00101724871422
0.000304573083875
0.00100961302989
0.000911825667457
0.00153880394768
-0.00589055565617
0.00324541900865
-0.00652729253571
0.00494552068604
-0.0065039921056
0.00662103573518
-0.00641295388801
0.00826333428649
-0.00628970129827
0.00986482553967
-0.00613789232224
0.011418523346
-0.00595969925644
0.0129180912757
-0.00575747026399
0.0143578952497
-0.00553375631856
0.0157330412343
-0.00529124225329
0.0170393886725
-0.00503268093404
0.0182735506532
-0.00476083048004
0.0194328737078
-0.00447840186523
0.0205154102426
-0.00418801102135
0.0215198751363
-0.00389214298124
0.0224456008411
-0.00359312060824
0.0232924809318
-0.00329308584147
0.0240609175683
-0.00299398451139
0.0247517611051
-0.00269756308608
0.0253662581748
-0.00240536698447
0.0259059945725
-0.00211874925471
0.0263728497994
-0.00183887799295
0.0267689475238
-0.00156675191073
0.0270966191669
-0.00130321155048
0.0273583629261
-0.00104895658689
0.0275568159479
-0.000804556379254
0.0276947204741
-0.000570465581251
0.0277749025784
-0.000347031907409
0.0278002433758
-0.000134509150911
0.0277736625206
6.69376915326e-05
0.0276980933539
0.000257221325478
0.0275764689747
0.000436330442121
0.0274117016254
0.000604312224111
0.0272066725657
0.000761277620838
0.0269642136319
0.000907388679564
0.0266871008586
0.00104285637713
0.0263780382247
0.00116793128461
0.0260396543924
0.00128290227423
0.0256744889544
0.00138808773727
0.0252849916827
0.00148383497243
0.0248735109096
0.00157051190883
0.0244422949573
0.00164850704257
0.023993482436
0.0017182215345
0.023529105642
0.00178006952609
0.0230510826642
0.00183447049851
0.0225612226214
0.00188184984607
0.022061219518
0.00192263145365
0.0215526592121
0.00195723850245
0.0210370149518
0.00198608632756
0.0205156559287
0.00200958352448
0.0199898443584
0.00202812522953
0.0194607453799
0.00204209466935
0.018929425437
0.00205185706227
0.0183968631748
0.00205776177382
0.0178639487675
0.00206013702039
0.0173314953565
0.00205929276321
0.0168002388884
0.00205551633964
0.016270849591
0.00204907613707
0.0157439318588
0.00204021817142
0.0152200352705
0.00202917047697
0.0146996541032
0.00201614054407
0.0141832374739
0.00200132025445
0.013671188167
0.00198488399214
0.0131638716048
0.00196699388031
0.0126616138129
0.0019477983267
0.0121647090806
0.00192743728287
0.0116734170422
0.00190604096973
0.0111879690342
0.00188373489302
0.010708564408
0.00186063852778
0.0102353757202
0.00183686987032
0.00976854449896
0.00181254391752
0.00930818548385
0.00178777660799
0.00885438212761
0.00176268300946
0.00840719014815
0.00173738057771
0.00796663306464
0.00171198703685
0.00753270531835
0.00168662295485
0.00710536812196
0.00166140936346
0.00668455237537
0.00163646970011
0.00627015506242
0.00161192725305
0.00586204213025
0.00158790654964
0.00546004560051
0.00156453073068
0.00506396651018
0.00154192247148
0.00467357281924
0.00152020138392
0.00428860240074
0.00149948454173
0.00390876166292
0.00147988398828
0.00353372833036
0.00146150692496
0.0031631502768
0.00144445344122
0.00279664706543
0.00142881662344
0.00243380705835
0.00141468118316
0.00207418445584
0.0014021254077
0.00171729070508
0.00139122523251
0.00136258589515
0.00138206681813
0.00100948865588
0.00137475659034
0.000657582820358
0.00136913368013
0.000308647863536
0.00135852714512
0.00122046297015
0.00156875983337
-0.00745934217307
0.00330723370118
-0.00826579516337
0.00503860234623
-0.0082353889364
0.00674416113338
-0.00811854112549
0.00841483748737
-0.00796040592696
0.0100426700035
-0.00776575309705
0.0116203850669
-0.00753744249485
0.0131414363444
-0.00727854963419
0.0146000536864
-0.00699240168001
0.0159912736096
-0.00668249009269
0.0173109480056
-0.00635238316374
0.0185557354184
-0.00600564560513
0.0197230748557
-0.00564576891504
0.0208111479424
-0.00527611158159
0.0218188292146
-0.00489985160988
0.0227456306663
-0.00451994925751
0.0235916397719
-0.00413912200844
0.0243574571806
-0.00375982880424
0.0250441325757
-0.00338426521288
0.0256531047397
-0.00301436568373
0.0261861432826
-0.00265181416397
0.0266452975393
-0.00229805840423
0.027032848719
-0.00195432906485
0.0273512700534
-0.00162165863341
0.0276031896907
-0.00130090178292
0.0277913606258
-0.000992752639205
0.0279186316616
-0.000697761749476
0.0279879239051
-0.000416349043362
0.0280022067248
-0.000148816670673
0.0279644783564
0.00010464159788
0.0278777453493
0.000343930055814
0.0277450050642
0.000569046686663
0.0275692302158
0.000780063209475
0.0273533541632
0.000977130034954
0.0271002569151
0.00116046245009
0.0268127550954
0.00133033493089
0.0264935901834
0.0014870730741
0.0261454213616
0.00163104816669
0.0257708163041
0.00176266998599
0.025372246412
0.00188238223067
0.0249520797323
0.00199065605308
0.0245125782409
0.00208798615072
0.0240558926587
0.00217488480638
0.0235840616044
0.00225187840141
0.0230990082054
0.00231950176806
0.0226025410533
0.00237829497637
0.0220963525851
0.00242879792409
0.0215820218008
0.00247154737608
0.0210610143686
0.00250707185087
0.0205346870169
0.00253588903215
0.0200042892437
0.00255850113743
0.0194709691795
0.00257539291451
0.0189357766404
0.00258702774233
0.0183996701191
0.00259384646317
0.0178635207861
0.0025962644626
0.0173281201374
0.00259467153322
0.0167941844401
0.00258943008537
0.0162623624935
0.00258087612877
0.015733239991
0.00256931863264
0.0152073468607
0.0025550415516
0.0146851610542
0.00253830419888
0.0141671150237
0.00251934410729
0.0136535985758
0.00249837815674
0.0131449641845
0.00247560595363
0.0126415287049
0.00245121137586
0.012143577396
0.0024253661161
0.011651364472
0.00239823129767
0.0111651158765
0.00236996083842
0.0106850287963
0.00234070283108
0.0102112733697
0.00231060245532
0.00974399141018
0.00227980290229
0.00928329731786
0.00224844765349
0.00882927631758
0.00221668082833
0.00838198488209
0.00218464875588
0.00794144880732
0.00215249972522
0.0075076634442
0.00212038486282
0.00708059189869
0.00208845734336
0.00666016532762
0.00205687265632
0.00624628149982
0.00202578738923
0.00583880534126
0.00199535900358
0.00543756801275
0.00196574432765
0.00504236780913
0.00193709897869
0.00465296981601
0.00190957570997
0.00426910715345
0.00188332361648
0.00389048112501
0.00185848648703
0.00351676262038
0.00183520197048
0.00314759244238
0.00181360018704
0.00278258235196
0.00179380327719
0.00242131507492
0.00177592511803
0.00206334466174
0.00176007269728
0.00170819741377
0.0017463494858
0.00135538013211
0.00173486197986
0.00100441077713
0.001725705017
0.000654993934643
0.00171852886456
0.000308828558682
0.001704670845
0.00152928137465
0.00160663752639
-0.00906600663464
0.00338629465608
-0.0100454799111
0.00515789442527
-0.0100070172614
0.00690196096975
-0.00986263591649
0.00860889855755
-0.0096673718891
0.0102703019609
-0.00942718473098
0.0118785432013
-0.00914571193267
0.0134268162705
-0.00882685079629
0.014909184663
-0.00847479810373
0.0163206060403
-0.00809393939132
0.017656933215
-0.00768873818537
0.018914895339
-0.0072636354487
0.020092061458
-0.00682296266689
0.02118679106
-0.00637086866659
0.0221981736034
-0.00591126153455
0.0231259615809
-0.00544776444405
0.0239704986267
-0.00498368614676
0.0247326470938
-0.00452200416857
0.0254137160867
-0.00406536097034
0.0260153940379
-0.00361607018378
0.0265396858962
-0.00317613242463
0.0269888580995
-0.00274725677533
0.027365389921
-0.00233088689525
0.0276719330391
-0.00192822751193
0.0279112764176
-0.00154027075558
0.0280863174428
-0.0011678189997
0.0282000357605
-0.000811505231682
0.0282554709193
-0.000471809103616
0.0282557006351
-0.000149071118269
0.0282038215769
0.000156496185947
0.0281029304428
0.000444796884558
0.0279561061579
0.000715846924568
0.0277663953021
0.000969750173907
0.0275367971718
0.0012067045208
0.0272702507317
0.00142698538735
0.0269696241113
0.00163093827903
0.026637704243
0.00181896979321
0.0262771891809
0.00199154029136
0.0258906802626
0.00214915607024
0.0254806767053
0.00229236314333
0.0250495698174
0.00242174037684
0.0245996395038
0.00253789406657
0.0241330502833
0.00264145168754
0.0236518495604
0.0027330569265
0.0231579653984
0.00281336376725
0.0226532065565
0.00288303177275
0.0221392620531
0.0029427203955
0.0216177029996
0.00299308449026
0.0210899839733
0.00303476892937
0.0205574466206
0.00306840450727
0.0200213227504
0.00309460310252
0.0194827395344
0.00311395427317
0.0189427240678
0.0031270213056
0.0184022098115
0.00313433884453
0.0178620421828
0.00313641015531
0.0173229857217
0.00313370606827
0.01678573014
0.00312666366593
0.0162508976046
0.00311568665758
0.0157190486302
0.00310114551501
0.0151906888756
0.00308337919463
0.0146662743255
0.00306269654227
0.0141462171034
0.00303937909149
0.0136308895277
0.00301368339252
0.0131206286153
0.0029858444837
0.0126157387928
0.00295607870688
0.0121164949709
0.00292458739391
0.0116231438933
0.00289155971582
0.0111359058562
0.00285717615256
0.0106549748575
0.0028216109845
0.0101805191918
0.00278503520221
0.00971268068836
0.00274761835899
0.00925157450821
0.00270953070478
0.00879728782408
0.00267094425305
0.00834987917915
0.00263203405648
0.00790937696725
0.00259297846761
0.00747577869193
0.00255395959064
0.00704904956259
0.00251516281709
0.00662912193655
0.00247677657
0.00621589427628
0.00243899126176
0.00580923097566
0.00240199849695
0.00540896183748
0.00236598963147
0.00501488239236
0.00233115462059
0.0046267539567
0.00229768037004
0.00424430445059
0.00226574942348
0.0038672289829
0.00223553831133
0.00349519107048
0.00220721630714
0.00312782362728
0.00218094406794
0.00276473051497
0.00215687286714
0.00240548804064
0.00213514406397
0.00204964761357
0.00211588972416
0.00169674058003
0.00209923388551
0.00134628766087
0.00208529271024
0.000997824222412
0.00207414619775
0.000651033777804
0.00206529818461
0.000307446435429
0.00204823703428
0.00183671700451
0.00165326600903
-0.0107192992573
0.00348388326466
-0.011876126049
0.00530521109398
-0.0118283731983
0.0070967723395
-0.0116542256284
0.00884831795207
-0.0114189457404
0.0105508995667
-0.0111297946041
0.0121964605318
-0.0107913010469
0.0137778854912
-0.0104083038503
0.0152890466233
-0.00998598723392
0.0167248207643
-0.00952974145825
0.018081079872
-0.00904502511044
0.0193546590064
-0.00853724231631
0.0205433061612
-0.00801163742598
0.0216456180477
-0.00747320805979
0.0226609655986
-0.00692663644129
0.0235894126652
-0.00637623875326
0.0244316312539
-0.00582593180396
0.0251888164701
-0.00527921632384
0.0258626042937
-0.004739175537
0.0264549949222
-0.00420848740949
0.026968284037
-0.00368944792004
0.0274050034221
-0.00318400238111
0.0277678715334
-0.00269378099449
0.0280597533966
-0.00222013519183
0.0282836284779
-0.00176417140844
0.0284425644592
-0.00132678037479
0.0285396949273
-0.000908660841921
0.0285781991715
-0.000510338309121
0.0285612830398
-0.000132179694644
0.0284921601995
0.000225594495254
0.0283740342546
0.000562898547166
0.0282100827855
0.000879774285011
0.0280034395923
0.00117636950044
0.0277571827896
0.00145293761676
0.027474321428
0.00170982326916
0.0271577849297
0.00194745144129
0.0268104139893
0.00216631760626
0.0264349527862
0.00236697849108
0.0260340423443
0.00255004369535
0.0256102148892
0.00271616788445
0.0251658890929
0.00286604362237
0.0247033661647
0.003000394524
0.0242248267459
0.00311996877349
0.02373232865
0.0032255327472
0.0232278054278
0.00331786482745
0.0227130658476
0.00339774922583
0.0221897942574
0.00346596994681
0.0216595519322
0.00352330479017
0.0211237793358
0.00357051956548
0.0205837993834
0.00360836249237
0.0200408215728
0.0036375589878
0.01949594703
0.00365880686557
0.0189501742579
0.00367277214889
0.018404405594
0.00368008553745
0.0178594540935
0.00368133968723
0.017316050813
0.00367708732391
0.016774852167
0.00366784027325
0.0162364473325
0.00365406938452
0.0157013653636
0.00363620534776
0.0151700820191
0.0036146403243
0.0146430259876
0.00358973031813
0.0141205845683
0.00356179816779
0.0136031085358
0.00353113702992
0.0130909163133
0.00349801421668
0.0125842972379
0.00346267523072
0.0120835141094
0.00342534786899
0.0115888048618
0.00338624623776
0.0111003835998
0.00334557458013
0.0106184408866
0.00330353078088
0.0101431435603
0.00326030949558
0.0096746339912
0.00321610480317
0.00921302907231
0.00317111237744
0.00875841886341
0.00312553111815
0.00831086517599
0.00307956427837
0.00787040001753
0.00303342006479
0.00743702415599
0.00298731177897
0.00701070571662
0.00294145750193
0.00659137903624
0.00289607940734
0.00617894367942
0.00285140272426
0.00577326379718
0.00280765443625
0.0053741677285
0.00276506175228
0.00498144797733
0.00272385042827
0.00459486146508
0.00268424298669
0.00421413014522
0.00264645690005
0.00383894188112
0.00261070280306
0.00346895166854
0.00257718279437
0.00310378313121
0.00254608891546
0.00274303040509
0.00251760187187
0.00238626069561
0.00249189017017
0.00203301758557
0.00246910945925
0.00168282596663
0.00244940216893
0.0013352008404
0.00243289542178
0.000989663582166
0.00241966238914
0.000645849232457
0.00240909046337
0.000305166147639
0.00238889799022
0.00214187287307
0.00170945846826
-0.0124287846433
0.00360154494188
-0.0137682399066
0.00548279217425
-0.013709648959
0.00733146643322
-0.0135029280328
0.00913650537883
-0.0132240129976
0.0108883010569
-0.0128816184355
0.012578286162
-0.0124813142764
0.0141989875898
-0.0120290332985
0.0157440678788
-0.0115310954829
0.0172083315691
-0.0109940330045
0.0185877005637
-0.0104244218901
0.0198791650222
-0.00982873444065
0.0210807150047
-0.0092132149924
0.0221912581714
-0.00858377867035
0.0232105272742
-0.007945932892
0.0241389816767
-0.0073047203409
0.0249777059609
-0.0066646831614
0.0257283097772
-0.00602984702701
0.0263928319853
-0.00540372450314
0.0269736531797
-0.00478933515338
0.0274734188824
-0.0041892400278
0.0278949760107
-0.00360558568629
0.0282413224367
-0.00304015343968
0.0285155693304
-0.00249440786164
0.0287209131374
-0.00196954082503
0.0288606147669
-0.00146650736062
0.0289379819921
-0.000986053251752
0.0289563533444
-0.000528734588399
0.028919081259
-9.49323646943e-05
0.0288295149445
0.00031513631001
0.0286909803346
0.000701408824177
0.028506769234
0.00106396130613
0.0282801180358
0.00140299677767
0.0280141957636
0.0017188362084
0.027712091895
0.00201190360084
0.0273768065015
0.00228271352081
0.0270112416335
0.00253185928498
0.0266181944885
0.00276000264907
0.026200351217
0.00296786408348
0.0257602820377
0.00315621435896
0.02530043668
0.00332586635619
0.0248231409719
0.00347766776191
0.0243305937216
0.00361249361174
0.0238248647792
0.0037312394058
0.0233078934954
0.00383481386264
0.0227814884718
0.00392413210438
0.0222473278456
0.00400010844146
0.0217069609778
0.00406364960553
0.0211618107828
0.00411564770086
0.0206131775029
0.00415697376904
0.0200622431312
0.0041884713302
0.0195100771887
0.00421095081342
0.0189576430054
0.00422518429428
0.0184058051026
0.00423190141728
0.0178553367853
0.00423178592345
0.0173069284515
0.00422547357387
0.01676119572
0.00421355084956
0.0162186878319
0.00419655509932
0.0156798954635
0.0041749754611
0.0151452583947
0.00414925510645
0.0146151722466
0.00411979408876
0.0140899947525
0.00408695324109
0.0135700508764
0.00405105838723
0.0130556372803
0.00401240524001
0.0125470255655
0.00397126426776
0.0120444648278
0.00392788586461
0.0115481830549
0.00388250515696
0.0110583879327
0.00383534677367
0.0105752666766
0.00378662898943
0.0100989854592
0.00373656758016
0.00962968811177
0.00368537889231
0.00916749465402
0.00363328248301
0.00871249936713
0.00358050292399
0.00826476892375
0.00352727114377
0.00782434030905
0.0034738249767
0.00739121899487
0.00342040930043
0.00696537710518
0.00336727549013
0.00654675197929
0.00331468056334
0.00613524486964
0.00326288578716
0.00573072012472
0.00321215510418
0.00533300459244
0.0031627531786
0.00494188754103
0.00311494339537
0.00455712083377
0.0030689856348
0.00417841961247
0.00302513412981
0.00380546323112
0.00298363524472
0.0034378966889
0.00294472545547
0.00307533233897
0.00290862939077
0.0027173521976
0.00287555817742
0.00236351064227
0.00284570786513
0.00201333806036
0.00281925829091
0.00166634573602
0.00279637160326
0.00132203105473
0.00277718760077
0.000979889412959
0.00276178128112
0.000639513685959
0.00274944478642
0.00030222804761
0.00272616217771
0.00244408986095
0.0017761665603
-0.0142049776151
0.00374119241184
-0.0157332946278
0.0056934418788
-0.0156619263072
0.0076096314278
-0.0154191459077
0.00947770374504
-0.0150921133673
0.011287258281
-0.0146912010612
0.0130291307061
-0.0142232146707
0.0146954453473
-0.0136953758603
0.0162796473228
-0.0131153252801
0.0177764917571
-0.0124909051972
0.0191819982889
-0.0118299560728
0.02049337904
-0.0111401427723
0.0217089474911
-0.010428810898
0.0228280135528
-0.00970287210664
0.0238507695946
-0.0089687161601
0.0247781707869
-0.00823214866591
0.025611813878
-0.00749835321285
0.0263538179098
-0.00677187790934
0.0270067117837
-0.00605664503149
0.0275733326346
-0.0053559825321
0.028056739607
-0.00467267331025
0.0284601451414
-0.00400901738945
0.028786865064
-0.00336689929534
0.0290402850918
-0.00274785367001
0.0292238405239
-0.00215312178883
0.0293410033178
-0.00158369552695
0.0293952722337
-0.00104034728384
0.0293901616364
-0.000523648944532
0.0293291879012
-3.39833244378e-05
0.0292158526972
0.000428446978529
0.0290536226876
0.000863614553989
0.0288459185532
0.0012716413174
0.028596092869
0.00165279858759
0.0283074176078
0.00200748773822
0.0279830729572
0.00233622475353
0.02762613794
0.00263962516588
0.0272395832244
0.00291839084221
0.0268262648893
0.00317329793072
0.0263889194908
0.00340518661906
0.0259301594379
0.00361495163147
0.0254524692917
0.00380353388762
0.0249582022462
0.00397191225175
0.0244495775558
0.00412109588625
0.0239286782817
0.00425211630039
0.0233974501543
0.00436601972496
0.0228577009679
0.00446385904012
0.0223111012869
0.0045466859613
0.0217591858954
0.00461554283007
0.0212033567112
0.00467145478411
0.0206448865759
0.0047154217784
0.0200849245342
0.00474841128983
0.0195245019492
0.00477135127429
0.0189645399304
0.00478512421243
0.0184058573469
0.00479056184256
0.0178491797736
0.0047884413434
0.0172951485992
0.00477948252426
0.0167443305592
0.00476434665422
0.0161972269329
0.00474363640837
0.0156542826393
0.0047178974117
0.0151158945331
0.0046876207787
0.0145824191562
0.00465324699381
0.0140541793477
0.00461517047921
0.0135314700195
0.00457374509588
0.0130145626205
0.00452928991451
0.0125037086567
0.00448209544755
0.0119991419122
0.00443242971371
0.0115010797902
0.00438054431332
0.0110097235225
0.00432667995764
0.0105252576962
0.00427107165091
0.0100478489222
0.00421395306429
0.00957764409444
0.00415556033862
0.00911476810839
0.00409613495719
0.00865932145683
0.00403592596522
0.00821137759077
0.0039751912686
0.00777098041278
0.00391419831567
0.00733814178851
0.00385322396416
0.00691283938685
0.00379255384683
0.00649501472306
0.00373248108413
0.00608457166004
0.00367330465234
0.00568137522625
0.00361532728213
0.00528525095811
0.00355885318209
0.00489598460883
0.00350418547552
0.0045133223934
0.00345162362515
0.00413697160413
0.00340146073763
0.00376660173385
0.0033539809995
0.0034018459772
0.0033094571346
0.00304230322605
0.00326814809492
0.00268754045259
0.00323029685512
0.00233709581753
0.00319612853344
0.00199048202338
0.00316584835804
0.00164719015832
0.00313963968526
0.00130669511923
0.00311765983574
0.000968464172611
0.00309999094042
0.000632050115087
0.00308583629298
0.000298713428522
0.00305947623508
0.00274279285823
0.00185454750872
-0.0160595518244
0.00390519511047
-0.0177839691379
0.00594063720529
-0.0176973966831
0.00793570671483
-0.0174142432254
0.00987713851886
-0.0170335731861