/*--------------------------------*- C++ -*----------------------------------*\
| =========                 |                                                 |
| \\      /  F ield         | OpenFOAM: The Open Source CFD Toolbox           |
|  \\    /   O peration     | Version:  v1906                                 |
|   \\  /    A nd           | Web:      www.OpenFOAM.com                      |
|    \\/     M anipulation  |                                                 |
\*---------------------------------------------------------------------------*/
FoamFile
{
    version     2.0;
    format      ascii;
    class       volScalarField;
    location    "625";
    object      p;
}
// * * * * * * * * * * * * * * * * * * * * * * * * * * * * * * * * * * * * * //

dimensions      [0 2 -2 0 0 0 0];


internalField   nonuniform List<scalar> 
9216
(
273.744070777
273.823827999
273.988863573
274.240581534
274.577562772
274.998219276
275.50058459
276.082347216
276.740896981
277.473356704
278.276628995
279.147425458
280.08231327
281.077739453
282.130074643
283.235630338
284.390698463
285.591560819
286.834524272
288.115922721
289.432148554
290.779648057
292.154950158
293.554656415
294.975468085
296.414171768
297.867665643
299.332941633
300.807111409
302.287385713
303.771100536
305.255693529
306.738730452
308.217880505
309.690942554
311.155817799
312.610536555
314.053229434
315.482154173
316.895665332
318.292241172
319.670452127
321.028987668
322.366623829
323.682250032
324.974835928
326.243458152
327.487266781
328.705511985
329.897510376
331.062671518
332.200464436
333.31044394
334.392217529
335.445471449
336.469938214
337.465422305
338.431768485
339.368887
340.276722843
341.155280325
342.004593384
342.824749359
343.615860439
344.378086478
345.111607641
345.816646099
346.493439928
347.142263547
347.763402927
348.357174634
348.923902429
349.463934822
349.977623128
350.465337471
350.927446382
351.364331214
351.776367377
352.163937137
352.527412592
352.867166859
353.183558878
353.476943001
353.747655723
353.996023709
354.222352554
354.426933323
354.610033542
354.771902554
354.912765407
355.032828645
355.132280611
355.21130732
355.270137665
355.309595624
355.325930625
273.664365119
273.744484808
273.909864201
274.162584315
274.501001171
274.923452629
275.42792675
276.012075676
276.673252197
277.408544932
278.21482028
279.088757746
280.026891032
281.025639374
282.081344513
283.19029576
284.348761423
285.553006895
286.799320456
288.08402479
289.403497916
290.754179154
292.132586296
293.53531719
294.959064274
296.400612849
297.856853876
299.324779763
300.801496061
302.28421531
303.770267936
305.257094826
306.742257712
308.223429702
309.698405472
311.165091064
312.621513366
314.06580869
315.496231872
316.911143881
318.309020526
319.688439232
321.048087392
322.386748484
323.703310131
324.996749739
326.266142338
327.510645929
328.729509179
329.922056663
331.087696468
332.225905505
333.336237074
334.418306386
335.471798112
336.496452239
337.492071598
338.458508141
339.39567041
340.303510295
341.182030384
342.031271227
342.851318481
343.642290685
344.404346113
345.137671047
345.84248624
346.519035678
347.167592576
347.788448615
348.381919409
348.948334231
349.488040898
350.001396023
350.488769296
350.950534298
351.387072184
351.798763121
352.185989387
352.54912749
352.888550726
353.204622041
353.497696084
353.76811289
354.016199465
354.24226436
354.446598852
354.629472481
354.791133868
354.931807175
355.051692121
355.150959514
355.22974436
355.288115525
355.325958944
355.342268265
273.498586633
273.579854701
273.746766833
274.00179193
274.343253835
274.76944586
275.278294462
275.867384343
276.533996351
277.275146891
278.087629708
278.968055264
279.912890644
280.918494701
281.981152697
283.097104926
284.262574758
285.473790216
286.727005553
288.018516424
289.344675981
290.701904833
292.086702951
293.495655722
294.925442881
296.372841776
297.834734288
299.308108123
300.79006237
302.27780733
303.768669065
305.26008813
306.749623339
308.234949315
309.713859556
311.184263178
312.644187221
314.091772495
315.525275242
316.943062196
318.34361166
319.725507886
321.08744165
322.428204087
323.746686867
325.041875632
326.312849891
327.55877621
328.778907943
329.972578323
331.139200135
332.278258842
333.389312291
334.471983981
335.525962871
336.550996868
337.546892777
338.51351006
339.450760918
340.358604352
341.237046345
342.086134208
342.905956817
343.696639204
344.458342788
345.191260162
345.895615251
346.571658252
347.219665653
347.839935301
348.432786233
348.998553858
349.537589579
350.050256096
350.536926817
350.997981309
351.433804527
351.844782443
352.231301132
352.593742638
352.932483953
353.247893184
353.540328473
353.810134517
354.057641478
354.283161907
354.48698967
354.66939729
354.830634823
354.970927395
355.090473428
355.189440899
355.267961878
355.326117402
355.363854903
355.381675406
273.243707749
273.326262849
273.495572452
273.75420207
274.100414254
274.532426703
275.048071894
275.644829729
276.319869621
277.070094542
277.892185556
278.782644776
279.737836685
280.754025757
281.827411157
282.954156846
284.130418563
285.352366216
286.616203661
287.918184393
289.254625451
290.621917938
292.016536606
293.435046685
294.874110537
296.330492
297.801061113
299.282796807
300.77279033
302.268246761
303.766487472
305.264950616
306.761192818
308.25288893
309.737832791
311.21393607
312.679228326
314.13185505
315.570076995
316.992267472
318.396911022
319.78260007
321.148033037
322.492010475
323.813432749
325.111295785
326.384688461
327.632788118
328.854857792
330.050241633
331.218362098
332.358715408
333.47086881
334.554456171
335.609175397
336.63478423
337.631097869
338.597985021
339.535365726
340.443207664
341.321524175
342.17037078
342.989843353
343.780074812
344.541233365
345.273519318
345.977163327
346.65242326
347.299582399
347.918946309
348.510840952
349.075609535
349.613610526
350.12521448
350.610801961
351.070760376
351.505481826
351.915359991
352.300787955
352.662155196
352.999845431
353.314233767
353.605684626
353.8745491
354.121163011
354.345844505
354.548892263
354.730583334
354.891171428
355.03088482
355.149924348
355.248460908
355.326632449
355.384538811
355.422167193
355.44028892
272.898647456
272.982851456
273.155450563
273.419034074
273.771771097
274.211768563
274.736726851
275.343979299
276.030540307
276.793155181
277.628349334
278.532475449
279.50175765
280.532331499
281.620279718
282.761663086
283.952547014
285.189023664
286.46723046
287.783364999
289.133697357
290.514579749
291.922454538
293.353860418
294.805437686
296.273932266
297.75619932
299.249205932
300.750033652
302.255880258
303.764061494
305.272011897
306.777285889
308.27755814
309.77062358
311.254396794
312.726911417
314.186318728
315.630886273
317.058995707
318.469140726
319.859924254
321.230055786
322.578348053
323.903713913
325.205162639
326.481796506
327.732806853
328.957470518
330.155145821
331.325268984
332.467350161
333.580969962
334.665775641
335.721477811
336.747846859
337.744709904
338.711947484
339.649490765
340.557318492
341.435454436
342.283964562
343.102954658
343.892567661
344.652981399
345.384405991
346.087081622
346.76127596
347.40728189
348.02541489
348.616010692
349.179422584
349.716018976
350.226180637
350.710298177
351.168769242
351.601995951
352.010382089
352.394330547
352.754240578
353.090505294
353.403509034
353.693624987
353.961212727
354.206615996
354.430160454
354.632151654
354.812873004
354.972583909
355.111517899
355.229880857
355.327849313
355.405569212
355.463154316
355.50060925
355.518760045
272.461623086
272.547918742
272.724753646
272.994724124
273.355870207
273.806147924
274.343081027
274.96380847
275.665140414
276.443615507
277.295556461
278.217122489
279.204357322
280.253231908
281.359681504
282.51963708
283.729051436
284.983920411
286.28029991
287.61431929
288.982191842
290.380222884
291.80481608
293.252478345
294.71982379
296.203576883
297.700575143
299.207771357
300.72223555
302.241156573
303.76184349
305.281726373
306.798357198
308.309410388
309.812682499
311.306091743
312.787677164
314.255597304
315.708128577
317.143663154
318.560706607
319.957875112
321.333892482
322.687586825
324.017887117
325.323819469
326.604503404
327.859147903
329.087047537
330.287578454
331.46019452
332.604423378
333.719862728
334.806176574
335.863091736
336.890394364
337.887926737
338.855584084
339.793311678
340.701101954
341.578991875
342.427060293
343.245425516
344.03424284
344.793702228
345.524025922
346.225466143
346.898302696
347.542840622
348.159407724
348.748352127
349.310039696
349.844851482
350.353181039
350.835431772
351.292014178
351.723343141
352.129835156
352.511905619
352.869966095
353.204421676
353.515668353
353.804090502
354.070058418
354.31392599
354.536028435
354.736680197
354.916172918
355.074773577
355.212722724
355.330232905
355.427487506
355.504639928
355.561812487
355.599017483
355.617085414
271.930357454
272.019243947
272.201343237
272.479251925
272.850841089
273.313869502
273.865632097
274.503017837
275.222576084
276.020583492
276.893107796
277.836066801
278.845281137
279.916519983
281.0455396
282.228114901
283.460064692
284.737271317
286.055695632
287.411388137
288.800497145
290.219274668
291.664080708
293.131386413
294.617776522
296.119951358
297.634728573
299.15904472
300.689956715
302.224643149
303.760405412
305.294668429
306.824981494
308.349018843
309.864579168
311.369585174
312.862082639
314.340239032
315.802341731
317.246795815
318.672121501
320.076951219
321.460026406
322.820194014
324.15640282
325.467699542
326.753224853
328.012209282
329.243969098
330.447902176
331.623483915
332.77026321
333.88785855
334.975954223
336.034296691
337.062691114
338.060998064
339.029130407
339.967050368
340.874766749
341.752332308
342.599841254
343.417426855
344.205259116
344.963542507
345.692513709
346.392439362
347.063613774
347.706356592
348.321010407
348.907938294
349.467521269
350.000155682
350.506250541
350.986224776
351.440504455
351.869519988
352.273703291
352.653484984
353.009291593
353.341542804
353.650648774
353.937007519
354.201002393
354.442999668
354.663346239
354.862367445
355.040365041
355.197615314
355.334367399
355.4508418
355.547229257
355.623690158
355.680353178
355.717234551
355.735158174
271.302027982
271.394062995
271.582562412
271.87011564
272.254377448
272.732853915
273.302548779
273.960035178
274.701535639
275.523001335
276.420186213
277.388713981
278.424136394
279.521982215
280.677796947
281.88717401
283.145778347
284.449363641
285.793784372
287.175003875
288.589099453
290.032265438
291.500814942
292.991180861
294.499916552
296.023696449
297.55931678
299.10369643
300.653877929
302.207028513
303.760440934
305.311534429
306.857855447
308.397078091
309.92700375
311.445560576
312.950802479
314.440907652
315.914176651
317.36903003
318.80400558
320.217755195
321.609041427
322.976733755
324.319804639
325.637325389
326.928461919
328.192470413
329.428692974
330.636553273
331.815552265
332.965263995
334.085331534
335.175463069
336.235428184
337.265054325
338.264223486
339.232869096
340.170973124
341.078563354
341.955710856
342.802527584
343.619164105
344.405807395
345.162678698
345.890031386
346.588148812
347.257342111
347.897947942
348.510326136
349.094857259
349.651940078
350.181988924
350.68543098
351.162703482
351.614250868
352.040521891
352.441966696
352.819033915
353.172167773
353.501805239
353.80837324
354.092285953
354.353942193
354.593722921
354.811988865
355.009078295
355.185304944
355.340956116
355.476290975
355.59153907
355.686899321
355.762539075
355.818592313
355.855079258
355.872815374
270.573204387
270.669015946
270.865188215
271.164291444
271.563705699
272.060616195
272.651659423
273.333013431
274.100495677
274.94965808
275.875874019
276.874414844
277.940514372
279.069420994
280.256438026
281.496953494
282.786460976
284.120573172
285.495029902
286.905702031
288.348592648
289.819836543
291.315698866
292.832573548
294.366981933
295.915571865
297.475117317
299.042518552
300.614802719
302.189124734
303.762767922
305.333145229
306.897800028
308.454406464
310.00076919
311.534822832
313.054630915
314.558384295
316.044399075
317.511114052
318.957087723
320.380994897
321.781622963
323.157867877
324.5087299
325.833309181
327.130801197
328.400492141
329.641754282
330.854041372
332.036884107
333.189885741
334.312717828
335.405116177
336.466877017
337.497853399
338.497951845
339.467129259
340.40539006
341.312783566
342.189401555
343.035376013
343.850877003
344.636110631
345.39131705
346.116768481
346.812767188
347.479643399
348.117753128
348.727475884
349.309212262
349.863381405
350.390418339
350.890771209
351.364898405
351.813265622
352.236342861
352.634601403
353.008510778
353.358535754
353.685133363
353.988750004
354.269818618
354.528755977
354.76596009
354.981807746
355.17665221
355.350821094
355.5046144
355.638302802
355.752126129
355.846292136
355.920975639
355.976316507
356.012339171
356.029850454
269.739773004
269.840077432
270.045369847
270.358182245
270.775546211
271.294240498
271.910439976
272.619830749
273.417731344
274.299207882
275.259176842
276.2924927
277.394018995
278.558683082
279.781515895
281.05767884
282.382480168
283.751383269
285.16000909
286.604134636
288.079689119
289.582749031
291.109533058
292.656397503
294.219832622
295.796460065
297.383031432
298.976427839
300.57366025
302.171870362
303.768331231
305.360448851
306.945763271
308.521948791
310.086813918
311.638300827
313.17448426
314.693569818
316.193891718
317.673909994
319.132207239
320.567484901
321.978559229
323.364356894
324.723910391
326.056353242
327.360915105
328.636916802
329.883765372
331.100949152
332.288032987
333.444653567
334.570514983
335.66538449
336.729088561
337.761509192
338.76258054
339.732285832
340.670654582
341.577760065
342.453717038
343.298679651
344.112839514
344.896423856
345.649693736
346.372942242
347.066492641
347.730696431
348.365931273
348.972598762
349.551122058
350.101943333
350.625521079
351.122327261
351.592844362
352.03756232
352.456975407
352.851579064
353.221866725
353.56832666
353.891438868
354.191672027
354.469480555
354.725301765
354.959553163
355.172629894
355.36490235
355.536713957
355.688379171
355.820181666
355.932372751
356.025170201
356.098757015
356.153279187
356.188766824
356.206017759
268.796841613
268.902467743
269.118550495
269.447554147
269.886066907
270.4303517
271.076002939
271.818094913
272.651333486
273.570196705
274.569056685
275.642279783
276.784304146
277.989695793
279.253185841
280.569692139
281.934328831
283.342407146
284.789430331
286.271085112
287.78323158
289.321892885
290.883245765
292.463612548
294.059454984
295.66737002
297.284087403
298.906468845
300.531508364
302.15633342
303.778205797
305.394523698
307.002823465
308.600779578
310.186204957
311.757050467
313.311403767
314.847487478
316.363656712
317.858396018
319.330315772
320.778148129
322.200742551
323.597061036
324.966173082
326.30725049
327.619562039
328.90246814
330.15541549
331.377931816
332.569620741
333.73015685
334.859280981
335.956795799
337.022561685
338.056492968
339.058554512
340.028758669
340.967162565
341.873865731
342.749007994
343.592767617
344.4053596
345.187034103
345.938074894
346.658797792
347.349549015
348.010703407
348.642662493
349.245852341
349.820721208
350.367736996
350.88738449
351.380162433
351.846580448
352.287155834
352.702410292
353.092866586
353.459045204
353.801461026
354.120620046
354.417016173
354.691128124
354.943416452
355.174320712
355.384256787
355.573614396
355.742754797
355.892008683
356.021674332
356.13201595
356.22326225
356.295605397
356.349198752
356.384078536
356.401032984
267.738618021
267.850539351
268.079368531
268.427457813
268.890827883
269.46508408
270.145088748
270.925154425
271.799235393
272.761100292
273.804476737
274.923165059
276.111121267
277.362512061
278.671746297
280.033487971
281.442655685
282.894413064
284.384153792
285.907484155
287.460205222
289.038296165
290.637899728
292.255310435
293.88696581
295.529440584
297.179443597
298.833816935
300.489536679
302.143714678
303.793600066
305.436582108
307.070192801
308.692106668
310.300141548
311.892258172
313.466558961
315.021286024
316.554818441
318.06566886
319.552479511
321.014017697
322.449170877
323.856941388
325.236440935
326.586884893
327.90758652
329.197951135
330.457470351
331.685716395
332.882336607
334.047048157
335.179633054
336.27993347
337.347847468
338.383325113
339.386365035
340.357011413
341.295351383
342.201512835
343.075662549
343.918004603
344.728778992
345.508260355
346.256756752
346.974608383
347.662186204
348.319890351
348.948148359
349.547413105
350.118160503
350.660886923
351.17610637
351.664347433
352.126150062
352.562062193
352.972636273
353.35842573
353.719981423
354.057848112
354.372560985
354.66464227
354.934597959
355.182914668
355.410056663
355.616463053
355.802545182
355.968684223
356.115229006
356.242494043
356.350757796
356.440261366
356.51120705
356.563755997
356.59795208
356.614573028
266.558254156
266.677631716
266.921532818
267.292131549
267.784716238
268.394048318
269.114062435
269.938120136
270.859253503
271.870377658
272.964461796
274.134656525
275.374379673
276.677365993
278.037687993
279.449755356
280.908299936
282.408352099
283.945212982
285.514425948
287.11174954
288.73313339
290.374698016
292.032718959
293.70361541
295.383943113
297.070391034
298.759781041
300.449069695
302.135351114
303.815859729
305.487974356
307.149221536
308.797275465
310.429959327
312.04524494
313.641251483
315.216243288
316.768626791
318.296946733
319.799881683
321.276239022
322.724949452
324.145061165
325.53573375
326.896231941
328.225919273
329.524251745
330.790771541
332.025100887
333.226936101
334.396041933
335.532246209
336.635434895
337.705547599
338.742573574
339.746548226
340.717550164
341.655698744
342.561152097
343.434105555
344.274790421
345.083472963
345.860453553
346.606065825
347.320675769
348.004680649
348.658507698
349.282612499
349.877477057
350.443607507
350.981531509
351.491795317
351.974960589
352.431600963
352.862298471
353.26763983
353.648212669
354.004601737
354.337385143
354.647130647
354.934392063
355.199705788
355.443587476
355.666528897
355.868994988
356.051421114
356.214210555
356.35773221
356.482318589
356.588264002
356.675822976
356.745209099
356.79659271
356.830025634
356.846274052
265.247644158
265.375884699
265.637664821
266.03488222
266.561870476
267.212299137
267.978920041
268.853903167
269.829148141
270.896545905
272.048179243
273.276461951
274.574222313
275.934740648
277.351752142
278.819425924
280.332329765
281.885387829
283.473836774
285.093183814
286.739168892
288.407732254
290.094988062
291.797204344
293.510789206
295.232282933
296.958355168
298.685806028
300.411569859
302.132719452
303.846471771
305.550193185
307.241402771
308.917773811
310.577135161
312.217471019
313.836919526
315.433770279
317.006460877
318.553572604
320.073825391
321.566072159
323.029292682
324.462587081
325.865169077
327.236359083
328.575577247
329.88233651
331.156235759
332.396953143
333.60423963
334.777912865
335.917851434
337.023989575
338.096312444
339.134851956
340.139683262
341.110921852
342.048721299
342.953271555
343.824797768
344.66355948
345.469850128
346.24399667
346.98635925
347.697330733
348.377336024
349.02683106
349.64630142
350.236260504
350.797247285
351.32982362
351.8345712
352.312088151
352.762985379
353.187882703
353.587404872
353.962177495
354.312822969
354.639956436
354.944181825
355.226088005
355.486245085
355.725200893
355.943477647
356.141568845
356.319936384
356.479007921
356.619174503
356.740788411
356.84416129
356.929562709
356.997218602
357.047308895
357.079894952
357.095730167
263.7971604
263.935996442
264.21909779
264.647939073
265.215594564
265.91430768
266.735311702
267.669277445
268.706712864
269.838284101
271.055046968
272.34859273
273.711120092
275.135449675
276.614998227
278.143728008
279.71608384
281.326926821
282.971470657
284.645224002
286.343940549
288.063577532
289.800262891
291.550271058
293.31000718
295.075999194
296.844896635
298.613474477
300.378640132
302.137440159
303.887069646
305.624879147
307.348378026
309.055237639
310.743292742
312.410541307
314.055142916
315.675415882
317.269833258
318.837017911
320.375736764
321.884894405
323.363526162
324.810790829
326.225963142
327.608426144
328.95766352
330.273251989
331.55485381
332.802209492
334.01513076
335.193493894
336.337233492
337.446336806
338.520838679
339.560817218
340.566390203
341.537712294
342.47497298
343.378395259
344.248234902
345.084780242
345.888352266
346.659304901
347.398025276
348.104933842
348.780484158
349.42516227
350.039485566
350.6240011
351.179283339
351.705931393
352.20456576
352.675824683
353.12036017
353.538833812
353.931912432
354.300263683
354.644551636
354.965432421
355.263549972
355.539531898
355.793985541
356.027494222
356.240613708
356.433868931
356.607750952
356.762714199
356.899173965
357.017504224
357.11803568
357.201054056
357.266798867
357.31546113
357.347111947
357.362490624
262.195304139
262.346906511
262.655619643
263.122274799
263.73826302
264.493945744
265.378592129
266.380979117
267.489904305
268.694576589
269.984876254
271.351496429
272.785987947
274.280734157
275.828881266
277.424245694
279.061214336
280.734648223
282.439795443
284.172215937
285.927718652
287.702310746
289.49215826
291.29355801
293.102920408
294.91676266
296.731710801
298.544508199
300.352027566
302.15128204
303.939438368
305.713826646
307.471943698
309.211457571
310.930209089
312.626211591
314.297648962
315.942872196
317.560394727
319.14888672
320.707168481
322.234203152
323.729088885
325.191050637
326.619431788
328.013685659
329.373367076
330.698124004
331.98768936
333.241873016
334.460554115
335.643673763
336.791228245
337.903262843
338.979866426
340.021166861
341.027327375
341.998543839
342.935043025
343.83708171
344.704946567
345.538954638
346.339454233
347.106826002
347.841483993
348.543876464
349.214486279
349.853830732
350.462460716
351.040959167
351.589938813
352.110039243
352.601923398
353.066273576
353.503787072
353.915171558
354.301140329
354.662407475
354.999683089
355.313668536
355.605051863
355.874503364
356.122671356
356.350178171
356.55761641
356.745545461
356.914488311
357.064928641
357.197308243
357.312024697
357.409429357
357.489825833
357.55346833
357.600559298
357.631181262
357.646057956
260.428236861
260.595375705
260.935141666
261.447387386
262.121221254
262.944493868
263.903915028
264.985860675
266.177029188
267.464909389
268.838059643
270.286224225
271.800325711
273.372375156
274.99533746
276.662980703
278.369728998
280.110529891
281.880741057
283.676036716
285.492332108
287.325723783
289.172444176
291.028829874
292.891303771
294.756370863
296.620625888
298.480769288
300.333626843
302.176167408
304.005520989
305.818991226
307.614058745
309.388386657
311.139822107
312.866395734
314.56631913
316.237980615
317.879939687
319.49092038
321.069803651
322.615619009
324.12753559
325.604852896
327.046991398
328.453483136
329.823962412
331.158156639
332.455877351
333.71701146
334.941512796
336.129394071
337.280719387
338.395597467
339.474175754
340.516635537
341.52318818
342.494072551
343.4295536
344.329922053
345.195495036
346.026617471
346.823663948
347.587040845
348.317188346
349.014582164
349.679734654
350.313195212
350.915549773
351.48741941
352.029458015
352.542349144
353.026802144
353.483547706
353.913332994
354.316916508
354.695062809
355.048537213
355.378100539
355.684503974
355.968484099
356.230758115
356.472019303
356.692932751
356.894131363
357.076212171
357.239732981
357.385209333
357.513111792
357.623863593
357.717838587
357.795359412
357.856696248
357.902064574
357.931558467
357.945884555
258.479141291
258.665422338
259.043268576
259.611036667
260.354690445
261.258693348
262.306396857
263.481125812
264.767011427
266.149537539
267.615815658
269.154639723
270.756385737
272.412820896
274.116875258
275.862413425
277.644028396
279.456867582
281.296492308
283.158767224
285.039774022
286.935744355
288.843008876
290.757961992
292.67704376
294.596740161
296.51359969
298.424261194
300.325484378
302.214178629
304.087426904
305.942498524
307.776853893
309.588149535
311.374239418
313.133173981
314.863196691
316.5627387
318.230412203
319.865002677
321.465460073
323.03088915
324.560539256
326.053793812
327.510159766
328.92925717
330.310808964
331.654630967
332.960622078
334.228754672
335.459065283
336.651645672
337.806634502
338.924209801
340.004582452
341.047990902
342.054697247
343.024984775
343.959156974
344.857537919
345.720473873
346.548335805
347.341522561
348.100464256
348.825625574
349.517508578
350.176654771
350.803646139
351.399105074
351.963693079
352.498108338
353.003082211
353.479374868
353.92777022
354.34907041
354.74409001
355.113650133
355.458572552
355.77967394
356.077760266
356.353621408
356.608026
356.841716561
357.055404912
357.249767934
357.425443664
357.583027756
357.723070308
357.846073071
357.952486975
358.042710019
358.1170857
358.175901297
358.219385602
358.247646031
358.261370363
256.327334224
256.537553912
256.962737577
257.598931651
258.427695979
259.42887536
260.581388892
261.864682618
263.259770821
264.749846093
266.320504115
267.959674852
269.657367165
271.405324652
273.196666172
275.025556971
276.886932835
278.77628249
280.689482908
282.622676725
284.572180011
286.534410744
288.505832949
290.482916906
292.462120128
294.439894164
296.412715108
298.377130099
300.329804542
302.267567702
304.187442391
306.086655275
307.962642717
309.813053249
311.635748649
313.428802504
315.1904954
316.919307936
318.613912745
320.273165534
321.896094857
323.481890896
325.029893677
326.539581064
328.010556888
329.442539435
330.835350285
332.188903478
333.503194854
334.778291555
336.01432169
337.211464367
338.369940289
339.490003258
340.57193285
341.616028576
342.622605717
343.591992996
344.524532088
345.420578894
346.280506343
347.104708395
347.893604817
348.647646265
349.367319158
350.053149924
350.70570818
351.325608613
351.913511335
352.470120705
352.996182649
353.492480665
353.959830744
354.399075501
354.811077802
355.196714161
355.556868092
355.892423575
356.204258723
356.493239666
356.760214718
357.006008816
357.231418278
357.437205902
357.62409644
357.792772463
357.943870642
358.077978448
358.19563124
358.297309795
358.383438182
358.454381891
358.510446605
358.551876079
358.578791134
358.591858893
253.947008284
254.187704939
254.672683933
255.394372225
256.328055718
257.447221593
258.724916846
260.135669287
261.656755837
263.268833004
264.956026281
266.705636021
268.507632302
270.354084802
272.238625392
274.155994962
276.101691129
278.071711287
280.062373438
282.070192751
284.091792483
286.123832956
288.162950627
290.205709972
292.248579734
294.287948306
296.320175579
298.341669191
300.348960288
302.338769536
304.308044234
306.253962848
308.173934902
310.065600023
311.926829373
313.755724313
315.550609326
317.310022426
319.032705693
320.717595249
322.363809396
323.970635454
325.53751607
327.064035378
328.549905613
329.994954457
331.399113008
332.762404178
334.084931257
335.366866435
336.608439333
337.809925723
338.971636796
340.093909375
341.177097536
342.221565977
343.227685502
344.195830771
345.126380436
346.019719492
346.876243638
347.696365148
348.480519754
349.229173866
349.942831504
350.62204032
351.267396229
351.879546255
352.459189411
353.007075538
353.524002253
354.010810199
354.468376994
354.897610262
355.299440158
355.674811736
356.024677424
356.349989739
356.651694323
356.930723304
357.187988979
357.424377818
357.640744832
357.837908313
358.016645005
358.17768573
358.321711483
358.449349994
358.561172778
358.657692566
358.739361165
358.80656792
358.859638016
358.898830361
358.924281047
358.936634492
251.305403553
251.585742834
252.147681505
252.977866738
254.042495757
255.306244632
256.734377545
258.295229299
259.961686996
261.711747262
263.528322583
265.398557675
267.312933055
269.264370972
271.247466246
273.257889364
275.291961056
277.346371793
279.418009063
281.503853436
283.600908321
285.706136965
287.816394309
289.928360341
292.038500296
294.143090308
296.238302425
298.320329814
300.385509509
302.430418901
304.451916897
306.44713352
308.413451939
310.348502277
312.250166932
314.116581616
315.946123847
317.737398597
319.489227635
321.200639295
322.870854643
324.49927175
326.085449603
327.629091946
329.130032094
330.588219201
332.00370554
333.376634384
334.707227928
335.995774849
337.242617478
338.4481389
339.612750468
340.736880345
341.820963647
342.865434753
343.870722206
344.837246523
345.76542102
346.655655555
347.508362829
348.323966711
349.102911817
349.845673528
350.552767541
351.224758206
351.862264922
352.465966194
353.036601052
353.574967841
354.081920516
354.558362836
355.00524092
355.423534793
355.814249464
356.178406025
356.517033074
356.831158619
357.121802474
357.389969072
357.636640676
357.86277092
358.069278748
358.257042763
358.426896072
358.579621646
358.715948233
358.836546811
358.942027556
359.032937341
359.109757633
359.172902688
359.222718448
359.259480631
359.28334056
359.294917819
248.360073025
248.693333412
249.356504224
250.32678896
251.557016079
252.999629342
254.609625893
256.347644136
258.181583933
260.08691901
262.0459739
264.046588739
266.080622383
268.142608964
270.22870394
272.33593942
274.461748654
276.603697124
278.759353873
280.926241148
283.101808294
285.283388402
287.468116537
289.652821533
291.833940342
294.007556345
296.169536591
298.315739374
300.442221677
302.545377898
304.621974721
306.669109526
308.68414538
310.664700297
312.608668345
314.514229597
316.37982779
318.204145994
319.986096573
321.72481369
323.419636629
325.070090189
326.675865671
328.236801525
329.75286596
331.224142419
332.650816589
334.033164259
335.371538988
336.666358691
337.91809121
339.127239287
340.294325778
341.419879906
342.504425434
343.548471446
344.552506402
345.516995872
346.442384192
347.329099894
348.177564547
348.988204215
349.761462596
350.497814649
351.197779597
351.861932166
352.490911262
353.085425444
353.646254948
354.174250227
354.670327287
355.135460294
355.570672204
355.977024252
356.355605132
356.707520502
357.033883221
357.335804403
357.61438521
357.87070919
358.105835006
358.320789515