/*--------------------------------*- C++ -*----------------------------------*\
| =========                 |                                                 |
| \\      /  F ield         | OpenFOAM: The Open Source CFD Toolbox           |
|  \\    /   O peration     | Version:  v1906                                 |
|   \\  /    A nd           | Web:      www.OpenFOAM.com                      |
|    \\/     M anipulation  |                                                 |
\*---------------------------------------------------------------------------*/
FoamFile
{
    version     2.0;
    format      ascii;
    class       surfaceScalarField;
    location    "751";
    object      phi;
}
// * * * * * * * * * * * * * * * * * * * * * * * * * * * * * * * * * * * * * //

dimensions      [0 3 -1 0 0 0 0];
oriented        oriented;


internalField   nonuniform List<scalar> 
18240
(
-0.00035224467447
0.000352278551377
-0.000737928544314
0.000385725619386
-0.00112326885494
0.000385374747344
-0.00150363966534
0.000380414251242
-0.00187697811049
0.000373371244005
-0.00224153075433
0.000364597713998
-0.0025957943282
0.000354294641568
-0.00293839477987
0.000342647167754
-0.00326818600929
0.000329820500092
-0.00358413457718
0.000315996920502
-0.00388544335467
0.00030133613121
-0.00417140713461
0.000286013740424
-0.00444155465356
0.000270172876419
-0.0046954743122
0.000253971169156
-0.00493297708032
0.000237525989748
-0.00515389484677
0.000220970740643
-0.00535826745481
0.000204393611086
-0.00554611609683
0.000187902956555
-0.00571765658231
0.000171559124466
-0.00587304943203
0.000155448353776
-0.00601264038474
0.00013960716128
-0.00613668813409
0.000124104259139
-0.00624563177478
0.000108957291014
-0.00633979669963
9.42222382587e-05
-0.00641968807172
7.99024356803e-05
-0.00648567529075
6.60451095918e-05
-0.00653830984912
5.26429445192e-05
-0.00657798895291
3.97373383573e-05
-0.00660529610624
2.73128847353e-05
-0.00662064491137
1.54071357183e-05
-0.00662464085952
3.99898096572e-06
-0.00661770443048
-6.87824872594e-06
-0.00660044977693
-1.72542418701e-05
-0.00657329479613
-2.70972101853e-05
-0.00653685795216
-3.64390485602e-05
-0.00649155039535
-4.52504438404e-05
-0.00643798660911
-5.35684760365e-05
-0.0063765640621
-6.13663402829e-05
-0.00630788604624
-6.86851358909e-05
-0.00623233080895
-7.55001671153e-05
-0.00615048425524
-8.18559246757e-05
-0.00606270098169
-8.77295659802e-05
-0.00596954426081
-9.31682452276e-05
-0.00587134151282
-9.8150606314e-05
-0.005768629222
-0.000102725751827
-0.00566170536977
-0.000106873471904
-0.00555107661867
-0.000110644017491
-0.00543701024542
-0.000114017923888
-0.00531998119803
-0.000117045876182
-0.00520022598879
-0.000119708850055
-0.00507818697471
-0.000122057249371
-0.00495407063791
-0.000124072199466
-0.00482828675543
-0.000125803266233
-0.00470101337042
-0.000127231589207
-0.00457262832712
-0.000128405404244
-0.00444328316973
-0.000129305794981
-0.00431332487298
-0.000129979373098
-0.00418288075161
-0.000130407272019
-0.00405226809521
-0.000130634271512
-0.00392159208478
-0.000130641727719
-0.00379114142577
-0.000130472559727
-0.00366100109817
-0.000130108654704
-0.00353143202639
-0.00012959108802
-0.00340250038967
-0.000128902594938
-0.00327443976609
-0.000128082524731
-0.00314729854737
-0.000127114822539
-0.00302128298815
-0.000126037194319
-0.00289642415363
-0.000124835081758
-0.00277290068702
-0.0001235446392
-0.00265072652098
-0.000122153049877
-0.00253005219373
-0.00012069491155
-0.00241087442167
-0.000119159269389
-0.00229331513315
-0.00011757912012
-0.00217735379287
-0.000115945417114
-0.00206308334647
-0.000114289410442
-0.00195046604883
-0.000112603894406
-0.00183956579409
-0.000110918194593
-0.00173032800367
-0.000109226824685
-0.00162278784226
-0.00010755694481
-0.00151687460312
-0.000105904598402
-0.00141259552951
-0.000104294533603
-0.00130986498517
-0.000102724108028
-0.00120866362221
-0.000101215373207
-0.00110889257557
-9.97667292839e-05
-0.00101050789019
-9.83971866696e-05
-0.000913399966675
-9.71057537197e-05
-0.000817503358958
-9.59076856623e-05
-0.000722702153967
-9.48013073047e-05
-0.000628916638679
-9.37953222524e-05
-0.000536038098807
-9.28807840565e-05
-0.000444003021314
-9.20433896089e-05
-0.000352783599986
-9.12233494293e-05
-0.000262525189
-9.02644551471e-05
-0.000173922176208
-8.86089556928e-05
-8.98671057819e-05
-8.40628018832e-05
-8.98708147131e-05
-0.000389349864366
0.000741665955529
-0.000824031180241
0.000820448517155
-0.00125624282719
0.000817626164718
-0.00168214831587
0.000806361908401
-0.00209982742869
0.000791089662411
-0.00250749213834
0.00077230498667
-0.00290349290929
0.000750334235902
-0.00328632762118
0.000725524819712
-0.00365470199176
0.000698233156957
-0.00400749104895
0.000668829253813
-0.00434378824632
0.000637671022004
-0.00466284434601
0.000605113393695
-0.00496411663884
0.00057148217081
-0.00524719144222
0.00053708972075
-0.00551183842827
0.00050220919689
-0.00575792079811
0.000467096949934
-0.00598545847003
0.000431966590818
-0.00619452893274
0.000397017220994
-0.00638534174147
0.000362406213645
-0.00655813186638
0.000328282098495
-0.0067132465906
0.000294754986762
-0.00685103211227
0.000261933056824
-0.00697193285145
0.000229889832065
-0.00707637139173
0.000198703544251
-0.00716485949737
0.000168420894468
-0.00723787115742
0.000139098850747
-0.0072959642511
0.000110764835834
-0.00733964646041
8.34607755319e-05
-0.00736950639379
5.71999316549e-05
-0.00738607214298
3.20130904205e-05
-0.00738995001288
7.90219966291e-06
-0.00738167834123
-1.51108940224e-05
-0.00736187577506
-3.70333244761e-05
-0.00733108419193
-5.78511017091e-05
-0.00728992167467
-7.75799958348e-05
-0.00723892283952
-9.62130576402e-05
-0.00717869810845
-0.000113773613078
-0.00710976858538
-0.000130261237845
-0.00703272994662
-0.000145706165684
-0.00694808339113
-0.000160113797254
-0.00685640341116
-0.000173520303388
-0.00675816583771
-0.000185936006682
-0.00665391857233
-0.000197401889138
-0.00654410775071
-0.00020793215808
-0.00642925050249
-0.000217571343585
-0.00630976022133
-0.000226336404006
-0.00618612035919
-0.000234274127051
-0.00605870979039
-0.000241403100366
-0.00592797666249
-0.000247771107101
-0.00579426478653
-0.000253397314199
-0.00565798652595
-0.000258329379243
-0.00551945112726
-0.000262586169812
-0.00537903567129
-0.000266214280979
-0.00523701619174
-0.000269231615552
-0.00509373569571
-0.000271683036943
-0.00494943889112
-0.000273585094468
-0.00480443635595
-0.000274980523724
-0.00465894362793
-0.00027588440659
-0.00451324061324
-0.000276337254054
-0.00436751576734
-0.000276352840267
-0.00422201993881
-0.000275969595614
-0.00407691631062
-0.000275200352311
-0.00393242791519
-0.000274081799354
-0.00378869398561
-0.000272626329746
-0.00364591050617
-0.000270869313385
-0.0035041935671
-0.000268823234892
-0.0033637123693
-0.000266522571116
-0.00322456014941
-0.000263980371306
-0.00308687918589
-0.000261230544554
-0.00295073979555
-0.000258287036533
-0.00281625693423
-0.000255183367664
-0.00268347772077
-0.000251934532013
-0.00255248933468
-0.000248573653134
-0.00242331544367
-0.00024511673124
-0.00229601512838
-0.000241596314745
-0.00217058853019
-0.000238029195399
-0.0020470666195
-0.000234447017629
-0.00192542629887
-0.000230867014807
-0.00180567084458
-0.000227319497944
-0.0016877546443
-0.000223821699466
-0.00157165421215
-0.000220402099922
-0.00145730267907
-0.000217077431755
-0.00134465128622
-0.000213873803374
-0.00123361371508
-0.000210806884203
-0.00112411801906
-0.000207899773571
-0.00101606084558
-0.000205166332533
-0.000909349736483
-0.000202625645175
-0.000803867136859
-0.000200288252626
-0.000699502656522
-0.000198166748181
-0.000596124867994
-0.000196263930567
-0.000493596496607
-0.000194578112367
-0.000391732468963
-0.00019309275427
-0.000290228751183
-0.000191774889188
-0.000188296213455
-0.00019054812687
-8.38065057671e-05
-0.000188559302245
-0.000173681091008
-0.000396307147723
0.00113801112659
-0.000836632643425
0.00126081516172
-0.00127509924031
0.00125613349213
-0.00170719057685
0.00123849460259
-0.00213077903725
0.00121471874897
-0.00254399350346
0.00118556085485
-0.00294513310274
0.00115151431518
-0.00333267597451
0.00111310913639
-0.00370530576357
0.00107090325236
-0.00406190307931
0.00102546801588
-0.00440155823912
0.000977366245157
-0.00472354687096
0.000927143408012
-0.00502733559552
0.0008753106459
-0.00531254779543
0.000822343149685
-0.00557896765766
0.000768668384731
-0.00582650083863
0.000714671097973
-0.00605518096895
0.000660685514922
-0.00626512849827
0.000607005324004
-0.00645656214446
0.000553877973054
-0.00662975769013
0.000501517682033
-0.00678506543761
0.000450100036375
-0.00692286948295
0.000399776447299
-0.0070436111051
0.000350667779455
-0.00714774826614
0.000302879201705
-0.0072357842977
0.000256492141275
-0.0073082270078
0.000211579047283
-0.00736562172741
0.00016819349876
-0.00740850938806
0.000126384763126
-0.00743746308242
8.6186179732e-05
-0.00745304463179
4.76296579947e-05
-0.00745584401544
1.07326030847e-05
-0.00744643419927
-2.44871320408e-05
-0.00742541290558
-5.80252269238e-05
-0.007393355696
-8.9876302609e-05
-0.00735085952556
-0.000120048520529
-0.00729849431506
-0.000148547930957
-0.0072368482586
-0.000175393827839
-0.00716647818019
-0.000200602744477
-0.00708795627971
-0.000224204109053
-0.00700181954959
-0.000246223788285
-0.00690861779729
-0.000266700004942
-0.00680886245105
-0.000285666505138
-0.00670307559374
-0.000303168646111
-0.00659173849818
-0.000319246328592
-0.0064753414637
-0.000333950214224
-0.00635433237031
-0.000347324518547
-0.00622916699715
-0.000359423281743
-0.0061002578881
-0.000370293173772
-0.0059680248948
-0.000379989780784
-0.00583284458938
-0.000388560517563
-0.00569510067211
-0.000396060852438
-0.00555513417097
-0.000402537468091
-0.00541329342608
-0.000408044382639
-0.00526988525935
-0.000412626439346
-0.00512522416162
-0.000416335241032
-0.0049795846238
-0.000419213087815
-0.00483324923701
-0.000421308669261
-0.00468646232987
-0.000422661503884
-0.00453947663013
-0.00042331729174
-0.00439250837496
-0.000423312938205
-0.00424578228533
-0.000422691490727
-0.00409948828722
-0.000421487765374
-0.00395382451757
-0.000419742755984
-0.00380895583126
-0.000417489910477
-0.00366505467189
-0.000414768926157
-0.00352226152115
-0.000411612673395
-0.00338072345135
-0.000408060273082
-0.0032405567088
-0.000404144702631
-0.00310188286865
-0.00039990508759
-0.00296479371758
-0.000395374994107
-0.00282938491019
-0.000390593865382
-0.00269572333134
-0.00038559604577
-0.00256387822901
-0.000380421330141
-0.00243389119353
-0.00037510474214
-0.00230580470822
-0.000369686166547
-0.00217963487865
-0.000364200935829
-0.00205539739186
-0.000358688541297
-0.00193308307789
-0.000353184057222
-0.00181268123231
-0.000347725923197
-0.00169415808375
-0.000342348251638
-0.00157747746907
-0.000337087683717
-0.00146258223734
-0.000331976598203
-0.00134941223727
-0.000327049032428
-0.00123788867659
-0.000322334810102
-0.00112792938794
-0.000317864506106
-0.0010194360831
-0.000313664466865
-0.000912306723137
-0.000309760761403
-0.000806425378502
-0.000306175044435
-0.000701670893441
-0.000302927386949
-0.000597907555746
-0.000300033174436
-0.000494986331481
-0.00029750576827
-0.000392727945581
-0.000295356833752
-0.000290903487741
-0.000293604795446
-0.000189220325123
-0.000292238791497
-8.78491387239e-05
-0.000289938295539
-0.000261533452489
-0.000402510736425
0.00154056001571
-0.000848953890916
0.00170729913368
-0.0012935217826
0.00170074235742
-0.0017314722176
0.00167648610437
-0.00216054038968
0.00164382782973
-0.00257876619478
0.0016038277232
-0.00298438956145
0.00155717852763
-0.00337585834176
0.00150461896047
-0.00375184141469
0.00144692708241
-0.00411122707312
0.00138489465532
-0.00445312179186
0.00131930158378
-0.00477683481403
0.00125089728152
-0.00508186762248
0.00118038384995
-0.00536789087906
0.00110840703691
-0.005634730622
0.00103554820419
-0.00588234293088
0.000962323705351
-0.00611080135419
0.000889183564723
-0.0063202728218
0.000816516625542
-0.0065110088589
0.000744653055858
-0.00668332439506
0.000673872442701
-0.00683759360393
0.000604407551061
-0.00697423183371
0.00053645313627
-0.00709369579433
0.000470169159546
-0.00719646801815
0.000405688962593
-0.00728306052628
0.000343121017376
-0.00735400089827
0.000282555876619
-0.00740983842597
0.000224066201473
-0.00745113091521
0.000167712481408
-0.00747845245988
0.000113541554261
-0.00749238033739
6.15913920265e-05
-0.00749350387536
1.18885016136e-05
-0.00748241078789
-3.55478646629e-05
-0.00745969679459
-8.07084616027e-05
-0.00742595181939
-0.000123590546636
-0.00738177004761
-0.000164201230604
-0.00732773569616
-0.000202553272555
-0.00726443348227
-0.000238668772829
-0.007192434214
-0.000272574807893
-0.00711230577207
-0.000304307133214
-0.00702459862323
-0.000333905599557
-0.00692985730461
-0.000361417816377
-0.00682860599597
-0.000386894391047
-0.00672136050038
-0.000410392567334
-0.00660861400631
-0.000431971340818
-0.00649084952061
-0.000451695081269
-0.00636852590847
-0.000469628601652
-0.00624209071548
-0.000485840799569
-0.00611196656062
-0.000500399743987
-0.00597856425012
-0.000513376348215
-0.00584226955844
-0.000524839547942
-0.00570345652242
-0.000534860034219
-0.00556247463616
-0.000543505576952
-0.00541966219
-0.000550844821493
-0.00527533387002
-0.000556942815787
-0.00512979399842
-0.000561864882572
-0.00498332452657
-0.000565672384232
-0.0048361980231
-0.000568426652545
-0.00468866602828
-0.000570185017761
-0.00454097164344
-0.000571004776388
-0.00439333823039
-0.000570939479373
-0.00424598147154
-0.000570042883925
-0.00409909840006
-0.000568365484983
-0.00395287882927
-0.000565958394723
-0.00380749473543
-0.000562870077136
-0.00366311099176
-0.00055915007833
-0.00351987514211
-0.000554845926993
-0.00337792741093
-0.000550006652606
-0.00323739094212
-0.000544679812235
-0.00309838109036
-0.000538914736992
-0.0029609962058
-0.000532759666727
-0.00282532622991
-0.000526264693726
-0.00269144412102
-0.000519478999168
-0.00255941379091
-0.000512453477387
-0.00242928225019
-0.000505238090591
-0.00230108691567
-0.000497884181339
-0.00217484854701
-0.000490441969584
-0.00205057795105
-0.00048296256801
-0.00192826975443
-0.00047549565426
-0.00180790851289
-0.000468091211874
-0.00168946335101
-0.000460797406167
-0.00157289347968
-0.00045366206985
-0.00145814370896
-0.000446730806611
-0.00134514935648
-0.000440048235097
-0.00123383261689
-0.000433656333205
-0.00112410681869
-0.000427595446457
-0.00101587356568
-0.000421902882808
-0.000909026182958
-0.000416613694592
-0.000803447326138
-0.00041175956371
-0.000699011203251
-0.000407369574057
-0.000595580911184
-0.000403469703798
-0.000493007911332
-0.000400084530449
-0.000391130062528
-0.000397240355717
-0.000289775950055
-0.000394965811063
-0.000188816230664
-0.000393205190105
-8.87329625842e-05
-0.000390028593527
-0.000350270415084
-0.000410509448199
0.0019511074849
-0.000865441911883
0.0021622724521
-0.00131827419531
0.0021536155225
-0.00176407212408
0.00212232500841
-0.00220043579073
0.00208023238695
-0.00262530007791
0.0020287329508
-0.00303683146483
0.00196875078193
-0.0034334363721
0.00190126478412
-0.00381376897154
0.00182730050337
-0.00417672850895
0.00174789504925
-0.00452145081418
0.00166406460573
-0.00484729149146
0.00157677868727
-0.00515380729214
0.00148694018616
-0.00544073251805
0.00139537277072
-0.00570795738048
0.00130281331261
-0.00595550387685
0.00120991037286
-0.00618350620598
0.00111722572975
-0.0063921898915
0.00102524001061
-0.00658185676195
0.000934359204782
-0.00675286873861
0.000844923497805
-0.00690563788539
0.000757215271041
-0.00704061466946
0.000671468220382
-0.00715828236571
0.000587874559111
-0.0072591487728
0.000506592731053
-0.00734374377025
0.000427752695563
-0.00741261323911
0.000351461610445
-0.00746631853237
0.000277806992394
-0.00750543149992
0.000206860467027
-0.007530534921
0.000138679150753
-0.0075422178792
7.33079776918e-05
-0.00754107658977
1.07799208839e-05
-0.00752770943018
-4.88829191053e-05
-0.0075027181658
-0.000105668603589
-0.00746670293526
-0.000159575314819
-0.00742026324609
-0.000210611498458
-0.00736399300184
-0.000258794794792
-0.00729848154152
-0.000304152593811
-0.00722430870751
-0.000346720740741
-0.00714204610763
-0.000386543953311
-0.00705225233688
-0.000423674351592
-0.00695547455423
-0.000458171723342
-0.00685224395911
-0.00049010189393
-0.00674307772653
-0.000519536869157
-0.00662847481453
-0.000546553111828
-0.00650891829236
-0.000571231625848
-0.00638487151424
-0.000593656198194
-0.00625678081781
-0.000613913476823
-0.00612507207671
-0.000632091252888
-0.0059901537439
-0.000648278594908
-0.00585241376162
-0.000662564222649
-0.00571222287578
-0.000675036739956
-0.00556993186672
-0.000685783162035
-0.00542587506453
-0.000694889294875
-0.0052803678357
-0.000702438450897
-0.00513371018684
-0.000708511999077
-0.00498618443446
-0.000713188306002
-0.00483805879857
-0.000716543473777
-0.00468958516667
-0.000718650505757
-0.00454100255567
-0.000719580213766
-0.00439253489596
-0.000719400595221
-0.00424439427735
-0.000718177874575
-0.00409677869046
-0.000715976036639
-0.00394987497974
-0.000712857933425
-0.00380385652011
-0.000708884913601
-0.00365888585841
-0.000704117922354
-0.00351511233151
-0.000698617147107
-0.00337267439711
-0.000692443031814
-0.00323169724204
-0.000685655881263
-0.00309229485318
-0.000678316735253
-0.00295456767974
-0.000670486883249
-0.00281860449642
-0.0006622285628
-0.00268448020051
-0.000653604374934
-0.00255225753902
-0.000644677804632
-0.0024219851087
-0.00063551254256
-0.0022936989954
-0.000626172842694
-0.00216742103766
-0.000616722783465
-0.00204316042351
-0.000607226495132
-0.00192091225168
-0.000597747393303
-0.00180065910002
-0.000588348308777
-0.00168236990628
-0.0005790907339
-0.00156600151563
-0.00057003488672
-0.00145149787765
-0.000561238997949
-0.00133879155462
-0.00055275933312
-0.0012278032126
-0.000544649548078
-0.00111844305256
-0.000536960690583
-0.00101061051685
-0.000529740649425
-0.000904195523336
-0.000523034182142
-0.000799078285338
-0.000516882563035
-0.000695130078505
-0.000511323742386
-0.0005922131399
-0.000506392657231
-0.000490181814424
-0.000502122276357
-0.000388883713682
-0.000498544200174
-0.000288169331816
-0.000495685349338
-0.000187939478505
-0.000493442741773
-8.86539480729e-05
-0.000489322230146
-0.000438927549349
-0.000420679916327
0.00237182541508
-0.000886639081806
0.00262827215052
-0.00135015048374
0.0026171677877
-0.00180603949832
0.00257825483801
-0.00225174279799
0.00252597652483
-0.00268506760712
0.00246209858476
-0.00310409148261
0.00238781548434
-0.00350717174272
0.00230438586667
-0.00389294980615
0.00221311937061
-0.00426034454253
0.00211533056661
-0.00460853697148
0.00201229776588
-0.00493694791933
0.00190523030659
-0.00524521199785
0.00179524483868
-0.00553314920654
0.00168335044676
-0.00580073709968
0.00157044151803
-0.00604808381748
0.00145729723578
-0.00627540418785
0.00134458601803
-0.00648299815815
0.00123287366544
-0.00667123319329
0.00112263362038
-0.00684052910659
0.00101425848319
-0.00699134669746
0.000908071544207
-0.00712417816999
0.000804337992077
-0.0072395407107
0.000703274925341
-0.00733797091337
0.000605060297767
-0.00742002160106
0.000509840186422
-0.00748625858937
0.000417734867479
-0.00753725920957
0.000328843240599
-0.00757361006014
0.000243246339026
-0.0075959061106
0.000161009502394
-0.00760474858374
8.21840786242e-05
-0.00760074414968
6.80832409775e-06
-0.00758450217745
-6.50927907979e-05
-0.00755663405699
-0.000133505484214
-0.00751775040849
-0.00019842851233
-0.00746845980485
-0.000259872564418
-0.0074093660032
-0.000317859892846
-0.00734106665814
-0.000372424196221
-0.00726415058922
-0.00042360993435
-0.00717919666337
-0.000471471998388
-0.00708677125529
-0.00051607477413
-0.00698742742033
-0.000557491595427
-0.00688170265984
-0.00059580360248
-0.00677011846916
-0.000631099044576
-0.00665317847824
-0.000663472008721
-0.00653136840812
-0.000693021647206
-0.00640515461296
-0.000719850864632
-0.00627498444816
-0.000744065553522
-0.00614128521008
-0.000765773316813
-0.00600446488339
-0.000785082778659
-0.00586491144454
-0.000802102416176
-0.00572299393703
-0.00081694001209
-0.00557906208476
-0.000829701656151
-0.00543344761592
-0.000840491390436
-0.00528646410571
-0.000849410435873
-0.00513840845393
-0.000856557075235
-0.00498956086157
-0.000862026138601
-0.00484018634667
-0.000865909140471
-0.00469053474693
-0.000868294034054
-0.00454084216089
-0.000869265593837
-0.00439133087677
-0.000868905409458
-0.00424221063832
-0.00086729246141
-0.00409367842085
-0.000864503293603
-0.00394591945619
-0.000860612703521
-0.0037991068192
-0.000855694002791
-0.00365340218795
-0.000849819720607
-0.0035089552462
-0.000843061857011
-0.00336590420239
-0.00083549250555
-0.00322437505792
-0.000827184013757
-0.00308448194343
-0.00081820944921
-0.00294632632771
-0.000808642613647
-0.00280999725051
-0.000798558314738
-0.00267557055895
-0.00078803221451
-0.00254310911717
-0.000777140902983
-0.00241266214705
-0.000765961597044
-0.00228426548158
-0.000754572043911
-0.00215794106947
-0.000743050107722
-0.00203369731812
-0.00073147354562
-0.00191152879619
-0.00071991952957
-0.00179141668787
-0.000708464343684
-0.00167332870692
-0.000697182886293
-0.00155721966624
-0.00068614833116
-0.00144303159558
-0.000675431648054
-0.00133069441274
-0.000665101263792
-0.0012201262178
-0.000655222632015
-0.00111123403262
-0.000645857926702
-0.00100391421759
-0.000637065700064
-0.000898053222891
-0.000628900655591
-0.000793528032659
-0.000621413453885
-0.000690207017378
-0.000614650768414
-0.000587950661985
-0.000608655274477
-0.000486612499246
-0.000603466019174
-0.000386042970122
-0.000599119330269
-0.000286096394513
-0.000595638995653
-0.00018666495832
-0.000592880727796
-8.81673311316e-05
-0.000587826790151
-0.000527098955056
-0.000433286033288
0.00280514923132
-0.00091297666476
0.00310800340711
-0.0013897608696
0.00309399263317
-0.0018581483641
0.0030466830705
-0.00231536865299
0.00298323751047
-0.00275907156741
0.00290584222906
-0.00318722896051
0.00281601360171
-0.0035981440041
0.00271534165686
-0.00399045155883
0.00260546765755
-0.00436310490486
0.00248802464541
-0.00471535203306
0.0023645855794
-0.00504670453209
0.0022366234558
-0.00535690281953
0.00210548368263
-0.00564588013955
0.00197236823695
-0.00591372808856
0.00183832978341
-0.00616066476492
0.00170427407916
-0.00638700707007
0.00157096826827
-0.00659314705892
0.00143905337575
-0.00677953295611
0.00130905894004
-0.00694665400163
0.00118141864793
-0.00709502928068
0.00105648556452
-0.0072251993872
0.000934546451982
-0.00733772093869
0.000815834369918
-0.00743316274852
0.000700539529123
-0.0075121037142
0.000588818034482
-0.00757513132393
0.000480798804514
-0.00762284097127
0.000376588598469
-0.0076558351556
0.0002762756018
-0.00767472292652
0.000179931663655
-0.00768011880925
8.76136426937e-05
-0.0076726420098
-6.35551298272e-07
-0.00765291442977
-8.47882245876e-05
-0.00762155926646
-0.000164829320312
-0.00757919923239
-0.000240758058207
-0.00752645440628
-0.000312587772532
-0.00746394000415
-0.000380345564201
-0.00739226437619
-0.0004440720032
-0.00731202678548
-0.000503820632352
-0.00722381552973
-0.000559657304169
-0.00712820595095
-0.000611659360537
-0.00702575885404
-0.000659914663828
-0.00691701887855
-0.000704520528855
-0.0068025133094
-0.000745582542751
-0.00668275088092
-0.000783213355604
-0.00655822102699
-0.000817531400653
-0.00642939313754
-0.000848659645899
-0.00629671624686
-0.000876724313865
-0.0061606187281
-0.000901853689584
-0.00602150839456
-0.000924176930579
-0.0058797725902
-0.000943823009339
-0.00573577864769
-0.000960919689113
-0.00558987431
-0.000975592675272
-0.00544238847119
-0.000987964828946
-0.00529363183768
-0.000998155587814
-0.00514389784567
-0.00100628047239
-0.00499346344865
-0.00101245082325
-0.00484259009169
-0.00101677363308
-0.004691524496
-0.00101935160831
-0.00454049955865
-0.00102028331641
-0.00438973501145
-0.0010196635391
-0.0042394381369
-0.00101758367878
-0.00408980420445
-0.00101413231906
-0.00394101692619
-0.00100939578839
-0.00379324862258
-0.00100345881272
-0.00364666040048
-0.000996405113885
-0.00350140205443
-0.000988318024583
-0.00335761199967
-0.000979280999748
-0.00321541696771
-0.000969378085244
-0.00307493177512
-0.000958694252412
-0.00293625890346
-0.000947315647858
-0.00279948820155
-0.000935329705134
-0.00266469645159
-0.000922825155127
-0.00253194710523
-0.000909891918582
-0.00240128992413
-0.000896620897937
-0.00227276082606
-0.000883103689012
-0.00214638166524
-0.000869432207196
-0.00202216023948
-0.000855698277335
-0.00190009024449
-0.00084199315504
-0.00178015146119
-0.000828407055171
-0.00166230989546
-0.000815028628214
-0.00154651814466
-0.000801944480088
-0.00143271571352
-0.000789238651609
-0.0013208295412
-0.000776992170417
-0.00121077446855
-0.000765282574241
-0.00110245389935
-0.000754183529848
-0.000995760374204
-0.000743764433756
-0.000890576322542
-0.000734090142361
-0.000786774789477
-0.00072522072067
-0.000684220191505
-0.000717211249467
-0.000582769441419
-0.000710111929961
-0.00048227378671
-0.000703968111755
-0.000382580071982
-0.000698818727511
-0.00028353686525
-0.000694687037425
-0.000185026035424
-0.00069139929507
-8.74329224871e-05
-0.000685428070137
-0.000614534933706
-0.000448605943438
0.00325379292249
-0.000944990982363
0.00360442861797
-0.00143787746707
0.00358691969956
-0.00192137216889
0.00353021829255
-0.00239244303061
0.00345434895901
-0.00284854769395
0.00336198747235
-0.00328753493961
0.00325504146955
-0.0037076525967
0.00313549994498
-0.00410754141161
0.0030053971299
-0.00448621213367
0.00286673601452
-0.00484300998918
0.00272142407878
-0.00517757157873
0.00257122563912
-0.00548977848867
0.00241773113658
-0.00577971144599
0.00226234163475
-0.00604760757366
0.00210626624183
-0.00629382265333
0.00195052932006
-0.00651879915626
0.00179598475003
-0.0067230404098
0.00164333436504
-0.00690709051565
0.00149314851952
-0.00707151955667
0.00134588683958
-0.00721691324971
0.00120191806035
-0.00734386630468
0.00106153790553
-0.0074529786136
0.000924984643326
-0.00754485352955
0.000792451923165
-0.00762009752103
0.000664098983201
-0.00767932058473
0.000540058260501
-0.00772313695773
0.000420440760821
-0.0077521656964
0.000305339489602
-0.00776703096188
0.000194831396521
-0.00776836176874
8.89782043796e-05
-0.00775679099205
-1.21733294389e-05
-0.00773295470776
-0.000108592290237
-0.00769749027702
-0.000200262358293
-0.00765103428563
-0.000287183492392
-0.00759422053384
-0.000369371847624
-0.00752767767753
-0.000446859625502
-0.00745202698968
-0.000519694822994
-0.00736788001748
-0.000587940654047
-0.00727583650508
-0.000651674828333
-0.00717648230019
-0.000710988522358
-0.00707038762813
-0.000765985281782
-0.00695810539841
-0.00081677966668
-0.00684016993889
-0.000863495914612
-0.00671709577658
-0.000906266401345
-0.00658937687103
-0.000945230200796
-0.00645748588665
-0.000980531494927
-0.00632187392071
-0.00101231815199
-0.00618297024776
-0.00104074019653
-0.00604118250506
-0.00106594850392
-0.00589689686417
-0.00108809342581
-0.00575047861648
-0.00110732368905
-0.00560227270414
-0.00112378526197
-0.00545260462016
-0.00113762053801
-0.00530178120141
-0.00114896752381
-0.00515009172882
-0.0011579593794
-0.00499780885533
-0.00116472398866
-0.00484518976247
-0.00116938389684
-0.00469247707401
-0.00117205628499
-0.00453989991655
-0.00117285329696
-0.00438767467338
-0.00117188237945
-0.00423600581168
-0.0011692469255
-0.0040850863626
-0.00116504688073
-0.00393509842561
-0.0011593795753
-0.00378621331948
-0.00115234044908
-0.00363859173952
-0.00114402391038
-0.00349238359322
-0.00113452401989
-0.00334772785588
-0.00112393522058
-0.00320475216826
-0.00111235284232
-0.00306357248826
-0.00109987358575
-0.00292429256658
-0.00108659576288
-0.00278700351769
-0.00107261948036
-0.00265178329849
-0.00105804659471
-0.00251869631644
-0.00104298060195
-0.00238779301713
-0.0010275263434
-0.00225910961934
-0.0010117896569
-0.00213266788354
-0.00099587690252
-0.00200847502704
-0.000979894452877
-0.00188652370716
-0.00096394811856
-0.00176679213546
-0.000948142555927
-0.00164924427994
-0.000932580663617
-0.00153383017299
-0.000917362973446
-0.00142048631628
-0.000902587073636
-0.00130913616382
-0.000888347033198
-0.00119969069923
-0.000874732892132
-0.00109204906653
-0.000861830157246
-0.000986099285079
-0.000849719395039
-0.000881719010098
-0.000838475826348
-0.0007787763234
-0.000828169026539
-0.000677130769943
-0.000818862737619
-0.000576634421572
-0.000810614483898
-0.000477132623395
-0.000803475280292
-0.000378467183022
-0.000797489641121
-0.000280479904237
-0.000792681508314
-0.000183037915408
-0.000788847607749
-8.65052445841e-05
-0.000781967435299
-0.000701044266281
-0.00046697857268
0.00372080892146
-0.00098336413772
0.0041208544777
-0.00149548929322
0.00409908511576
-0.00199695370376
0.0040317231053
-0.00248439968669
0.00394183531502
-0.00295505294996
0.0038326811719
-0.00340662312752
0.00370665210683
-0.00383730741589
0.00356622474532
-0.00424577440914
0.00341390465469
-0.00463112667793
0.00325212884638
-0.00499284889962
0.00308318685103
-0.00533074814982
0.00290916543344
-0.00564489251806
0.00273191598741
-0.00593555244902
0.00255304198701
-0.00620314821766
0.00237390230721
-0.00644820508956
0.00219562635925
-0.00667131708507
0.00201913671574
-0.00687311891228
0.00184517595447
-0.00705426559291
0.00167433468551
-0.00721541849666
0.00150707893634
-0.00735723686762
0.00134377526493
-0.00748037345171
0.00118471294302
-0.00758547334746
0.00103012254908
-0.00767317488299
0.00088019100067
-0.00774411182893
0.000735072945754
-0.00779891603965
0.000594898933338
-0.00783822008391
0.000459780662526
-0.00786265931667
0.000329813944263
-0.00787287324872
0.000205079871783
-0.00786950601115
8.56447944063e-05
-0.00785320564612
-2.84406186708e-05
-0.00782462396576
-0.000137141684942
-0.00778441419289
-0.00024044066114
-0.00773322900946
-0.000338338058751
-0.00767171820689
-0.000430852900527
-0.00760052618383
-0.000518022803108
-0.00752028937454