/*--------------------------------*- C++ -*----------------------------------*\
| =========                 |                                                 |
| \\      /  F ield         | OpenFOAM: The Open Source CFD Toolbox           |
|  \\    /   O peration     | Version:  v1906                                 |
|   \\  /    A nd           | Web:      www.OpenFOAM.com                      |
|    \\/     M anipulation  |                                                 |
\*---------------------------------------------------------------------------*/
FoamFile
{
    version     2.0;
    format      ascii;
    class       volScalarField;
    location    "444";
    object      p;
}
// * * * * * * * * * * * * * * * * * * * * * * * * * * * * * * * * * * * * * //

dimensions      [0 2 -2 0 0 0 0];


internalField   nonuniform List<scalar> 
9216
(
273.760574851
273.840417419
274.005634702
274.257628878
274.594986788
275.016114854
275.519055543
276.101490141
276.760819983
277.494158968
278.298423816
279.170315394
280.106417626
281.103164879
282.156947184
283.26406133
284.420821311
285.623492061
286.868405182
288.15187541
289.470322538
290.820171294
292.197980629
293.600328009
295.0239473
296.465598385
297.922214526
299.39075817
300.868378462
302.352253819
303.839759915
305.328299145
306.815479049
308.298930439
309.776495844
311.246034988
312.705623494
314.153347311
315.587510845
317.006420733
318.408603009
319.792576928
321.157080493
322.50083529
323.822779717
325.121825804
326.397099219
327.647689322
328.872895048
330.071969409
331.244370071
332.389499806
333.506960549
334.596291285
335.657224051
336.689421009
337.69273086
338.666926768
339.611961362
340.527707435
341.414209708
342.27143011
343.099494274
343.898443383
344.668473446
345.409695526
346.122365773
346.806655911
347.462872216
348.091237894
348.692099257
349.265721589
349.812481086
350.332675478
350.826700507
351.294876416
351.737608111
352.155228277
352.548140606
352.916680115
353.261239152
353.582145192
353.879769511
354.154422606
354.406445655
354.636123515
354.84375926
355.029604775
355.193919131
355.336917284
355.458815169
355.559800322
355.640076758
355.699909442
355.740401552
355.756281385
273.680803968
273.761009215
273.926568679
274.179565015
274.518356575
274.941279621
275.446326417
276.031147265
276.693100425
277.429272317
278.236536056
279.111568525
280.050911373
281.05098071
282.108127431
283.218637148
284.378788504
285.584842536
286.833099002
288.119875494
289.441562613
290.794593757
292.175500341
293.580873374
295.007419887
296.451917317
297.911272094
299.382467637
300.86262573
302.348948684
303.838783803
305.329560344
306.81885738
308.304334974
309.783805471
311.255160242
312.716444001
314.165776662
315.601430825
317.021749218
318.425225146
319.810415833
321.176025675
322.5208159
323.843690418
325.143602267
326.419641821
327.670940562
328.896761357
330.096400116
331.269277795
332.414840565
333.532653124
334.622298006
335.683469703
336.715873809
337.719321373
338.693628546
339.638710514
340.554482359
341.440951853
342.298122217
343.126083007
343.924915466
344.694780724
345.435828402
346.148281333
346.832348089
347.488303482
348.116405606
348.716971458
349.290299057
349.836737629
350.356615282
350.850303302
351.318149802
351.760537823
352.177825264
352.57039659
352.93860928
353.282839072
353.603433059
353.900748479
354.175112538
354.426854834
354.656273914
354.863663469
355.049285623
355.21339115
355.356199286
355.47791165
355.578696197
355.658686265
355.717935423
355.756291593
355.772148332
273.514888331
273.596242346
273.763333254
274.018633535
274.360467796
274.787129557
275.296547458
275.886306666
276.553690949
277.295717376
278.109183298
278.990699989
279.936738791
280.943659465
282.007752134
283.125258034
284.292405961
285.50542486
286.760574919
288.054152623
289.382517515
290.742090873
292.129379444
293.540969031
294.973546452
296.423889135
297.888886245
299.365525121
300.850912235
302.342256961
303.836892717
305.332258415
306.825920034
308.315549759
309.798947957
311.274020342
312.738800346
314.191424272
315.630154091
317.053350762
318.459497487
319.847171335
321.215066954
322.561966736
323.886765029
325.188437057
326.466063632
327.718799114
328.945896654
330.146675433
331.320546399
332.466979094
333.585527838
334.675798393
335.737474479
336.770284562
337.774028577
338.748545043
339.693737796
340.609543673
341.495959036
342.353008198
343.180769444
343.979344414
344.748883349
345.489555554
346.201573584
346.885164955
347.540595016
348.168140039
348.768108527
349.340815845
349.886603804
350.405816943
350.89882025
351.365977249
351.807665794
352.224258057
352.616134369
352.983665218
353.327223168
353.647166935
353.943851418
354.217613926
354.46878239
354.697663742
354.90455037
355.089710651
355.25339359
355.395821293
355.517191153
355.617667962
355.697379822
355.756396892
355.794646948
355.812533022
273.259798788
273.342439317
273.511926259
273.770828989
274.117410484
274.549889197
275.066099177
275.663521553
276.339327851
277.09042266
277.913489662
278.805032927
279.761420014
280.778917643
281.853728469
282.982018935
284.159948638
285.38369015
286.649451499
287.953488965
289.292124016
290.661750591
292.058848054
293.479984446
294.92182684
296.381141766
297.854803978
299.339794876
300.833210317
302.332257507
303.834262197
305.336664175
306.837024046
308.333017697
309.822442468
311.303210324
312.773353649
314.231017311
315.674464047
317.102065466
318.512307077
319.903778357
321.275177505
322.625300721
323.953046785
325.257405717
326.537463294
327.792389266
329.02144192
330.22395603
331.399347558
332.547101514
333.66677686
334.757994419
335.820442036
336.853862657
337.858059741
338.83288561
339.77824706
340.694094057
341.580425463
342.437278099
343.264732481
344.062902263
344.83193984
345.572026165
346.283376089
346.966228538
347.620851463
348.247532386
348.846582844
349.418329328
349.963117153
350.481301825
350.973252293
351.439342808
351.879955551
352.295473043
352.686280185
353.05275728
353.395281536
353.714220765
354.009934406
354.282767955
354.533053562
354.761105207
354.967218905
355.151668603
355.314705969
355.456556803
355.577419939
355.677463933
355.75682353
355.815592593
355.853751844
355.872064039
272.914455347
272.998743999
273.171518422
273.435372161
273.788474493
274.228933361
274.754450524
275.362360812
276.049680527
276.813156901
277.649317711
278.554517957
279.524984534
280.556855666
281.646217209
282.789132898
283.981671594
285.219928662
286.500045236
287.818222308
289.170733868
290.553935651
291.964274067
293.398291376
294.852631973
296.324045309
297.809390592
299.305638287
300.809873835
302.319298131
303.831230528
305.343108252
306.852488877
308.357049237
309.85458689
311.343017921
312.82037786
314.284818636
315.734608789
317.168129601
318.583874694
319.980445422
321.356549958
322.710998093
324.042699944
325.350660314
326.633977154
327.891835656
329.123506619
330.328340424
331.505765429
332.655281983
333.776460966
334.868937948
335.93241195
336.966639858
337.971435443
338.946664072
339.89224199
340.808131351
341.69433972
342.550915398
343.377947063
344.175559341
344.943912503
345.683198208
346.393639142
347.07548488
347.729011379
348.354516901
348.952321296
349.522761951
350.066192847
350.58298052
351.073502886
351.538145252
351.977298939
352.391357381
352.780714601
353.145761453
353.486884025
353.804460081
354.098857452
354.370430741
354.619519754
354.846446491
355.051513636
355.235001872
355.397168368
355.538244512
355.658434408
355.757912543
355.836823305
355.895279034
355.933281635
355.951667997
272.4770764
272.563455463
272.740463335
273.010700295
273.372206694
273.822939594
274.360424141
274.981800882
275.683881857
276.463207773
277.316103662
278.238731208
279.227136857
280.277294387
281.385142118
282.546614169
283.757666706
285.014298982
286.312570531
287.648614339
289.018647525
290.418979191
291.846016963
293.296271619
294.76636128
296.253014271
297.753072071
299.26349121
300.781345515
302.30382735
303.828249306
305.352044557
306.872768127
308.388097057
309.895830441
311.393888467
312.880311978
314.353260659
315.811011815
317.251957753
318.674603854
320.07756524
321.459564265
322.819426615
324.156078357
325.468541637
326.75593145
328.017451105
329.252388879
330.460113408
331.640070382
332.791778001
333.914823842
335.008860501
336.073602736
337.108823372
338.114350771
339.09006506
340.035895934
340.951819197
341.83785487
342.694063998
343.520546986
344.317440603
345.084916438
345.823178012
346.532459247
347.213021594
347.865152427
348.489162113
349.085382257
349.654162689
350.195869521
350.710882046
351.199590614
351.662393474
352.099694498
352.511900031
352.899416509
353.26264739
353.601990744
353.917836329
354.210563223
354.480537111
354.728108023
354.953607858
355.157348276
355.339618484
355.500683382
355.640781667
355.760124268
355.858893735
355.937242862
355.99529341
356.03305767
356.051379985
271.945386094
272.034354658
272.216623849
272.494794502
272.866737881
273.330213913
273.882518937
274.520543586
275.240839143
276.039684398
276.913149455
277.857154664
278.867523417
279.940027804
281.070427193
282.254499732
283.488067641
284.76701678
286.087311684
287.445006607
288.836253749
290.257309054
291.704536558
293.174411444
294.66352255
296.16857425
297.686388262
299.213905102
300.748185607
302.286412124
303.825889719
305.364046667
306.898435423
308.426733157
309.946741242
311.456384673
312.953711176
314.436889694
315.904208647
317.354073587
318.785004683
320.195633656
321.584700612
322.951050414
324.293629036
325.611479541
326.903738142
328.169629968
329.408465004
330.61963383
331.8026036
332.956913909
334.082172956
335.178053674
336.244290174
337.280674232
338.287052093
339.263321339
340.209428074
341.125364168
342.011164771
342.866905886
343.692702114
344.488704456
345.255098189
345.992100768
346.699959706
347.378950476
348.029374284
348.651555874
349.245841139
349.812594764
350.352197658
350.865044415
351.35154059
351.812100005
352.24714192
352.657088239
353.042360653
353.403377816
353.740552553
354.054289078
354.344980353
354.613005422
354.858726981
355.082488887
355.284613985
355.465401873
355.625127013
355.764037059
355.882351512
355.980260258
356.057923955
356.115472526
356.152921036
356.171106941
271.316563573
271.408678842
271.597344748
271.885154528
272.269763369
272.748678494
273.318905136
273.97701817
274.719242112
275.541530355
276.439639272
277.409195207
278.44575273
279.544843601
280.702016487
281.912868135
283.173066962
284.478370272
285.824636296
287.207832246
288.624039403
290.069456177
291.540399826
293.03330745
294.544736642
296.071366079
297.609996218
299.157550122
300.711074429
302.267740355
303.824844588
305.379809923
306.930186156
308.47365065
310.008007719
311.531188087
313.04124788
314.536367058
316.014847497
317.475110524
318.915694162
320.335249889
321.732539202
323.106429769
324.455891501
325.779992301
327.077893839
328.348847098
329.592188056
330.807333209
331.993775353
333.15107925
334.278877663
335.376867315
336.444805297
337.482505415
338.489835049
339.466711932
340.413101476
341.329013962
342.214502279
343.069659458
343.894616719
344.689541215
345.454634253
346.190129108
346.896289264
347.573406169
348.221797361
348.841804067
349.43378912
349.998134358
350.535238291
351.045513298
351.529383059
351.987279599
352.41964053
352.82690603
353.209515972
353.567906922
353.902509266
354.213744315
354.50202152
354.767735773
355.011264789
355.232966656
355.433177463
355.61220916
355.770347594
355.907850784
356.024947434
356.121836656
356.198686274
356.255630705
356.292690328
356.310693425
270.587180482
270.683070423
270.879404973
271.178758523
271.578511427
272.075850195
272.667412854
273.349379283
274.117569018
274.967536279
275.894656966
276.894205135
277.961417509
279.091545545
280.279895808
281.521859723
282.81293444
284.14873636
285.52500917
286.937627714
288.382599196
289.856062612
291.354287421
292.873671916
294.410741869
295.962149555
297.524673391
299.095218041
300.670815001
302.248623431
303.825930801
305.400153919
306.968839805
308.529666138
310.0804408
311.619101316
313.143713737
314.652471031
316.143690938
317.615813385
319.067397417
320.497117786
321.903761133
323.28622195
324.643498234
325.974687043
327.278979849
328.55565791
329.80408754
331.023715507
332.214064413
333.374728317
334.505368401
335.605708962
336.67553351
337.714681248
338.723043677
339.700561618
340.647222332
341.56305707
342.448138641
343.302579391
344.126529091
344.920173194
345.683730874
346.417453379
347.121622041
347.796546559
348.442562829
349.060031033
349.649333191
350.210870981
350.745062993
351.252342269
351.733153295
352.187949294
352.617189059
353.021334056
353.400845225
353.75617999
354.087789139
354.396113861
354.68158281
354.94460926
355.185588447
355.404894923
355.602880235
355.779870592
355.93616491
356.072033129
356.187714859
356.28341771
356.359317473
356.415555774
356.452155532
356.469936079
269.753125524
269.853505925
270.058956042
270.372011546
270.789704601
271.308815259
271.925520058
272.635507032
273.434096886
274.316358151
275.277209915
276.311509464
277.414123315
278.579981987
279.80411973
281.081701449
282.40803904
283.778599712
285.189008372
286.635046145
288.11264648
289.617890246
291.147000593
292.696338391
294.262398511
295.841807268
297.431320936
299.027825292
300.628335912
302.22999903
303.830092113
305.426025346
307.015342745
308.595722477
310.164976627
311.721050629
313.262022121
314.786099188
316.291618071
317.777040314
319.240949459
320.682047272
322.099149654
323.491182173
324.857175438
326.196260208
327.507662473
328.790698387
330.044769299
331.269356737
332.464017617
333.628379476
334.762136062
335.865042991
336.936913874
337.977616532
338.987069755
339.965240132
340.912139462
341.827822164
342.712383265
343.565956271
344.388711572
345.180854579
345.94262434
346.674291727
347.376158027
348.04855299
348.691833201
349.306379842
349.892596725
350.450907709
350.98175434
351.485592937
351.962891869
352.414128397
352.839785661
353.240349396
353.616304751
353.968133008
354.296308374
354.601294826
354.883543003
355.143487289
355.38154292
355.598103365
355.793537744
355.968188581
356.122369699
356.256364412
356.370423892
356.464766805
356.539577083
356.595001342
356.631069763
356.648592415
268.80950903
268.915208666
269.131443648
269.460682279
269.899513234
270.444200929
271.090341532
271.833011391
272.666918682
273.586543969
274.586262101
275.660442331
276.803525888
278.010082025
279.274845276
280.592737054
281.958875261
283.368575027
284.817343695
286.300872225
287.815025113
289.355830037
290.919468408
292.502267308
294.100693346
295.71134837
297.330967073
298.956416104
300.584694405
302.212934294
303.838402268
305.458501081
307.070771404
308.672891968
310.262679658
311.838089004
313.397210971
314.938271093
316.459626934
317.959764999
319.437297047
320.89095601
322.319591427
323.722164648
325.097743688
326.445498008
327.764693076
329.054685
330.314915061
331.544904449
332.744249012
333.912614323
335.049730857
336.155389604
337.229437857
338.271775512
339.282351588
340.261161293
341.208243287
342.123677485
343.007582957
343.860116329
344.681470124
345.471871515
346.231580845
346.960890468
347.660123167
348.32963083
348.969792537
349.581012902
350.163719688
350.718361722
351.245406025
351.74533529
352.218644603
352.665838548
353.087427672
353.483925316
353.855844001
354.203692123
354.527970439
354.829168765
355.107762709
355.364210514
355.598950141
355.812396354
356.004938226
356.176936595
356.328721986
356.460592762
356.57281366
356.665613804
356.739186758
356.793687903
356.829151916
356.846379375
267.750541873
267.862533631
268.091509134
268.439824147
268.903500183
269.478144118
270.158620242
270.9392433
271.81397003
272.776571741
273.820778889
274.940394826
276.12937872
277.381900605
278.692372813
280.055463007
281.466093613
282.919432284
284.410876895
285.936038126
287.490721596
289.070911206
290.672754558
292.292551177
293.926743679
295.57191198
297.224770151
298.882165538
300.541079475
302.198629041
303.852068417
305.498791801
307.136335942
308.762380029
310.374746307
311.971399615
313.550446145
315.110131387
316.648837366
318.16507917
319.657500925
321.124871204
322.566078062
323.98012367
325.366118759
326.723276812
328.050908241
329.348414447
330.615282017
331.851076916
333.055438974
334.228076466
335.368761133
336.477323378
337.55364804
338.597670391
339.609372809
340.588781659
341.535964902
342.45102981
343.334121398
344.185420793
345.005144245
345.79354185
346.550896809
347.277524168
347.973769977
348.640009745
349.276647213
349.884112314
350.462859388
351.013364579
351.53612344
352.031647807
352.500462857
352.943103603
353.360111528
353.752030884
354.119405083
354.462772989
354.78266526
355.079600805
355.354083265
355.606597762
355.837607668
356.047551736
356.236841248
356.405857592
356.554949961
356.684433388
356.794586931
356.885653203
356.957835814
357.011296764
357.046080221
357.062976207
266.56937923
266.68882405
266.932864537
267.30367868
267.796555563
268.406258425
269.12672401
269.95131627
270.87306993
271.884902935
272.97978747
274.150877261
275.391593404
276.695674042
278.057195248
279.470570422
280.930535345
282.432124485
283.970643315
285.541639713
287.140876964
288.764309606
290.408063255
292.068418685
293.741800466
295.424769811
297.11402125
298.806382249
300.49881499
302.18841924
303.872434883
305.548246006
307.213384416
308.865529436
310.502509128
312.122299918
313.72302526
315.302953395
316.860494237
318.394195528
319.902738285
321.384931738
322.839707743
324.266114913
325.663312405
327.030563625
328.367229762
329.672763402
330.946702111
332.188662258
333.398332922
334.575470199
335.719891717
336.831471691
337.910136307
338.955859755
339.968660657
340.948599201
341.895774653
342.810323554
343.692418169
344.542265526
345.360106501
346.146215324
346.900898881
347.624496272
348.317377881
348.979944619
349.612626408
350.21588085
350.790190945
351.336063082
351.854023981
352.344618025
352.808403583
353.245949798
353.657832513
354.044630684
354.406922189
354.745280042
355.06026835
355.35243853
355.622325605
355.870444612
356.097287366
356.303319184
356.488976178
356.654662431
356.800747774
356.927565731
357.035411933
357.1245419
357.195171037
357.247472011
357.281495401
357.298019946
265.257919105
265.386223027
265.648135026
266.045556173
266.572821256
267.223601764
267.990651909
268.866144314
269.841981461
270.910057317
272.062457793
273.291599935
274.590315357
275.951887847
277.370056186
278.838993293
280.35327091
281.907817415
283.497873895
285.118952252
286.766797327
288.437354503
290.126743261
291.831237145
293.54724992
295.271327679
297.000145967
298.730510884
300.459362762
302.183780662
303.900987278
305.608354564
307.303407584
308.983825201
310.647441669
312.292246326
313.916382149
315.518143218
317.095971207
318.648451006
320.174305628
321.672390469
323.141687116
324.58129674
325.990433288
327.368416455
328.714664667
330.028687997
331.310081265
332.558517193
333.773739919
334.955558687
336.103842087
337.2185126
338.299541878
339.346946426
340.360784165
341.341151404
342.288180759
343.202039366
344.082928002
344.931080255
345.746762469
346.530273409
347.281944501
348.002139446
348.691254226
349.349716178
349.977983333
350.576542654
351.145908477
351.686619834
352.199237961
352.684342819
353.142529795
353.574405668
353.980584707
354.361684355
354.718321006
355.051105676
355.360639738
355.64751083
355.912288793
356.155521988
356.377733624
356.579418585
356.761040246
356.923027852
357.065773981
357.189632434
357.294916247
357.381897144
357.450802766
357.501814246
357.534993616
357.551106849
263.806537946
263.945433322
264.228657797
264.657689813
265.225604881
265.924648747
266.746057344
267.680504437
268.71850112
269.850716768
271.068210503
272.362576932
273.72601817
275.151358321
276.632017766
278.161962556
279.735641548
281.347920105
282.994016498
284.669444193
286.369961994
288.091532474
289.830289172
291.582512301
293.344613005
295.113125365
296.884705215
298.656133927
300.424325402
302.186332725
303.939357331
305.680755998
307.408044466
309.118900251
310.811164073
312.482839633
314.132091953
315.757244458
317.356774928
318.92931051
320.473621896
321.988616868
323.473333277
324.92693171
326.34868784
327.737984732
329.094305029
330.417223274
331.706398254
332.961565639
334.182530772
335.369161939
336.521383961
337.639172468
338.72254869
339.771575098
340.786351701
341.76701329
342.713727341
343.626692824
344.506139527
345.352328095
346.165550292
346.946129682
347.694422168
348.410816631
349.095735037
349.749632458
350.372996186
350.96634479
351.530225976
352.065214579
352.571909211
353.050929295
353.502910764
353.928502351
354.328360719
354.703146244
355.053517998
355.380129281
355.683622841
355.964626438
356.223748565
356.461574298
356.678661658
356.875537906
357.052696589
357.210594411
357.34964886
357.470235952
357.572688552
357.657293995
357.724294038
357.773882347
357.806129266
357.821786991
262.203741849
262.355398644
262.664225328
263.131056481
263.747284988
264.503274912
265.388298505
266.391136049
267.500588608
268.705868593
269.996859759
271.36425869
272.799619638
274.295329443
275.844537892
277.4410652
279.079302278
280.754114498
282.460754588
284.194787481
285.95202741
287.728487135
289.520338551
291.323884584
293.135541965
294.951834433
296.769394729
298.584973085
300.395449208
302.197843189
303.989328723
305.767242701
307.529088874
309.272542044
310.995449608
312.695831261
314.371876985
316.021943563
317.644549867
319.238371075
320.802232029
322.335099844
323.836076009
325.304388082
326.73938122
328.140509573
329.507327748
330.839482302
332.136703436
333.398796838
334.625635888
335.817154161
336.973338549
338.094222881
339.17988245
340.230429235
341.246008262
342.226794733
343.172992392
344.084832544
344.962574222
345.806504665
346.616940698
347.394229913
348.138752429
348.850921878
349.531186676
350.180030037
350.797970095
351.385558511
351.943379146
352.4720452
352.972196478
353.444495332
353.889622761
354.308273572
354.701151669
355.068964842
355.412419638
355.732216184
356.029043049
356.303572439
356.556455405
356.788317629
356.999755212
357.19133115
357.363571789
357.516963995
357.651952402
357.768937171
357.868271882
357.950262904
358.015166533
358.063186831
358.094407412
358.10956492
260.435697439
260.60288546
260.942753799
261.455158928
262.129211316
262.952764791
263.912532757
264.994895002
266.186553814
267.475001827
268.84880108
270.297699353
271.812622634
273.385585363
275.009555938
276.678306125
278.386264035
280.128381553
281.900021107
283.69686204
285.514825119
287.350012738
289.198663504
291.057120424
292.921813087
294.789253406
296.656043281
298.518890497
300.374628427
302.22023344
304.052842947
305.869768103
307.668497064
309.446700323
311.202232241
312.933130482
314.637613434
316.314075937
317.96108369
319.577366548
321.161810832
322.713450896
324.2314601
325.715141473
327.163918182
328.577324047
329.954994069
331.296655174
332.602117039
333.871263225
335.104042511
336.30046073
337.460573055
338.58447711
339.672306842
340.724227553
341.740431949
342.72113752
343.666585034
344.577038293
345.452784826
346.294137505
347.101436696
347.875052782
348.615388669
349.322882095
349.998007339
350.64127636
351.25323884
351.834481663
352.385626925
352.907329763
353.400274457
353.865170929
354.30274944
354.713756123
355.098946891
355.459082335
355.794921475
356.107216361
356.396706257
356.664112336
356.910132663
357.135437336
357.340664402
357.526415653
357.69325344
357.84169723
357.972221135
358.085251479
358.181165069
358.260286746
358.32288928
358.369191053
358.399285971
358.413893878
258.485593573
258.671917432
259.049853566
259.617762083
260.361609773
261.26586391
262.313880334
263.488988409
264.775323792
266.158374525
267.625255964
269.164765585
270.767282668
272.424577622
274.129583771
275.876169246
277.658930914
279.473020531
281.314004224
283.177751964
285.060351184
286.958039704
288.867154649
290.784097218
292.705314513
294.627299864
296.546609385
298.459889766
300.36390922
302.255585001
304.132007853
305.990455677
307.828396973
309.643496294
311.433615494
313.196812743
314.931339038
316.635632837
318.308313356
319.948172761
321.554167279
323.125407461
324.661147873
326.160776476
327.623803971
329.04985324
330.438649001
331.79000763
333.103827208
334.380077718
335.618791558
336.82005439
337.983996627
339.110785653
340.200619143
341.253719523
342.270329927
343.250711523
344.19514252
345.103918428
345.977353864
346.815785109
347.619573782
348.389110454
349.124818799
349.827158758
350.496629731
351.133771991
351.739167886
352.313440858
352.857254283
353.371308171
353.856335886
354.313099105
354.742382953
355.144989921
355.521733944
355.873433882
356.200907094
356.504963041
356.786396966
357.045984119
357.28447405
357.502585743
357.701002796
357.880369528
358.041287093
358.184310478
358.309945584
358.418646928
358.510815473
358.586797939
358.646883962
358.691304319
358.720167888
358.734175652
256.332753682
256.543009154
256.96826799
257.604580734
258.433510803
259.43490787
260.587696345
261.871327692
263.266821368
264.757374608
266.328587136
267.968392355
269.666802165
271.415563
273.207796641
275.037671542
276.900127176
278.790656524
280.705141457
282.639730094
284.590744571
286.554609341
288.527795303
290.506779862
292.488027965
294.467998923
296.44317698
298.410117801
300.365495625
302.306148528
304.229108064
306.131609928
308.011099313
309.865233468
311.691882763
313.489129241
315.2552618
316.988769166
318.688331879
320.352813265
321.981249144
323.57283653
325.12692175
326.642988347
328.12064507
329.559614243
330.959720434
332.320879467
333.643087552
334.926410612
336.170973699
337.376950835
338.544555315
339.674031007
340.765644712
341.819680111
342.836433302
343.816210301
344.759326349
345.666107138
346.536891632
347.372036241
348.171919965
348.936949923
349.667567004
350.364250802
351.027523834
351.657954279
352.256157356
352.822795157
353.358574711
353.864245213
354.340593173
354.788437879
355.208624552
355.602018698
355.96949821
356.311946975
356.63024685
356.925270934
357.197876331
357.448897671
357.679141196
357.889379039
358.080344695
358.252728298
358.407173271
358.544272647
358.664566565
358.768539768
358.85661987
358.92917499
358.986513542
359.028882278
359.056402459
359.069754668
253.951378415
254.192102258
254.677139485
255.398921034
256.332737761
257.452082937
258.730010255
260.141054171
261.66249772
263.275002625
264.962698545
266.712889058
268.515546771
270.362743627
272.248113812
274.166400968
276.113106059
278.084230638
280.076097652
282.085228028
284.108251418
286.14183509
288.182622766
290.227186435
292.272002595
294.313467801
296.347950612
298.37186793
300.381760365
302.37435841
304.346618887
306.29573002
308.219110867
310.114410473
311.979509288
313.812517883
315.611769851
317.375812208
319.103395876
320.793465601
322.445148016
324.057738404
325.630686904
327.163584576
328.656149886
330.1082159
331.519718093
332.890682558
334.221214354
335.511485814
336.76172483
337.97220331
339.143226159
340.2751212
341.368230456
342.422903191
343.439491057
344.418345528
345.359817788
346.264260888
347.13203412
347.96350895
348.759076362
349.519154501
350.244196633
350.934697854
351.591201221
352.214301291
352.804646721
353.362939654
353.889934413
354.386433152
354.853281458
355.291361611
355.701586176
356.084890078
356.442222886
356.774540414
357.082796385
357.367934325
357.630879571
357.872532235
358.093760364
358.295394336
358.478221453
358.642981717
358.790363728
358.921001605
359.035472039
359.134292038
359.217916824
359.286739107
359.341086453
359.381219995
359.40727754
359.419916897
251.308716841
251.589073418
252.151049931
252.981298492
254.046022617
255.309906348
256.738222417
258.299313977
259.966075538
261.716509624
263.533532943
265.404292931
267.319271811
269.27139313
271.255253142
273.266524356
275.301530407
277.356965723
279.429722856
281.516788429
283.615172807
285.721846704
287.833672897
289.947339224
292.059318874
294.165896448
296.263253166
298.347592305
300.415261448
302.46284856
304.487223228
306.485525966
308.455150182
310.393736065
312.29917601
314.169615664
316.003442493
317.79927137
319.555933914
321.272468146
322.948104616
324.582250575
326.174473802
327.724486343
329.232129192
330.697358408
332.120232203
333.500898635
334.839583279
336.136576568
337.392220664
338.606896309
339.781009973
340.914982086
342.00923674
343.064193629
344.080262451
345.057840333
345.997312219
346.899054346
347.763440384
348.590849806
349.381677893
350.136346264
350.855313626
351.539085019
352.188219974
352.803337586
353.385119764
353.934311022
354.451716221
354.938196176
355.394661027
355.822063818
356.221391281
356.5936565
356.939888357
357.261123323
357.55839482
357.832724553
358.085113314
358.316532917
358.527919272
358.72016569
358.894118045
359.050569626
359.190257809
359.313860317
359.421992832
359.515206589
359.59398674
359.658750249
359.709845586
359.747551309
359.772019743
359.783884019
248.362333031
248.695598409
249.358782758
250.329094848
251.559371723
253.002067567
254.612190753
256.350390442
258.18457567
260.090226941
262.049672873
264.050755392
266.085333666
268.147941648
270.234734892
272.342746528
274.469412054
276.612300687
278.768986651
280.93699878
283.113794067
285.296713961
287.482902039
289.669195306
291.852038606
294.027523803
296.191527518
298.339919644
300.46876857
302.574480251
304.653833781
306.703937669
308.722165791
310.706146835
312.653785495
314.563272508
316.433062373
318.261849036
320.048555751
321.79232753
323.492514357
325.148651529
326.76044054
328.327729649
329.850496344
331.328832669
332.762932018
334.153076786
335.499625766
336.803000497
338.063670508
339.282138024
340.458922776
341.594547903
342.689527599
343.744357434
344.759507766
345.735420947
346.672512327
347.571175264
348.431789578
349.254733007
350.04039462
350.789189195
351.501571474
352.178048755
352.819191657
353.42564093
353.998111793
354.537393258
355.044345739
355.519894247
355.96502164
356.38075902
356.768177
357.128375201
357.462472028
357.771593599
358.056862533
358.319387329
358.560251977
358.780507289