/*--------------------------------*- C++ -*----------------------------------*\
| =========                 |                                                 |
| \\      /  F ield         | OpenFOAM: The Open Source CFD Toolbox           |
|  \\    /   O peration     | Version:  v1906                                 |
|   \\  /    A nd           | Web:      www.OpenFOAM.com                      |
|    \\/     M anipulation  |                                                 |
\*---------------------------------------------------------------------------*/
FoamFile
{
    version     2.0;
    format      ascii;
    class       volScalarField;
    location    "760";
    object      p;
}
// * * * * * * * * * * * * * * * * * * * * * * * * * * * * * * * * * * * * * //

dimensions      [0 2 -2 0 0 0 0];


internalField   nonuniform List<scalar> 
9216
(
304.133053752
304.215472845
304.38271736
304.635051763
304.970975753
305.388651639
305.885818386
306.459839598
307.107747185
307.826286105
308.611959508
309.461072887
310.36977674
311.334106374
312.350018865
313.413426151
314.520224814
315.666321825
316.847657185
318.060222915
319.300079538
320.563369528
321.846328988
323.145296909
324.456723348
325.777175701
327.103344425
328.432047219
329.760232924
331.084984287
332.403520747
333.713199836
335.011518898
336.296115634
337.564768912
338.815398453
340.046064839
341.254968427
342.440448646
343.600982225
344.735181873
345.841793932
346.919696531
347.967896786
348.985528532
349.971849179
350.926237116
351.84818832
352.73731351
353.593334591
354.416081599
355.205489035
355.961592611
356.6845255
357.37451485
358.031877928
358.657018337
359.25042198
359.812652864
360.344348762
360.846216441
361.319026879
361.763609721
362.180847893
362.571671157
362.937050023
363.277988384
363.595516804
363.890684454
364.164552091
364.418183814
364.652640309
364.868971143
365.068208975
365.251363098
365.419415174
365.573314471
365.713975351
365.84227435
365.95904941
366.065098842
366.161182444
366.248022748
366.326308896
366.396701809
366.459843758
366.516373559
366.566948824
366.612495562
366.652040135
366.682501491
366.703743468
366.717699751
366.725890495
366.729869063
366.731226953
304.050719501
304.133588812
304.301524378
304.55515052
304.892825378
305.312656241
305.81233776
306.389191085
307.040205272
307.76208236
308.551283284
309.404073013
310.316563895
311.284756123
312.304574937
313.371903982
314.482614962
315.632593357
316.817760714
318.034093457
319.277638928
320.544528637
321.830989487
323.133352899
324.448062577
325.77168073
327.100893438
328.43251486
329.763491002
331.090902425
332.411966681
333.724040046
335.024618955
336.31134073
337.581984147
338.834469319
340.066857466
341.277350027
342.46428771
343.626148925
344.761548207
345.869234073
346.948086923
347.997116438
349.01545907
350.002375087
350.957245751
351.879570113
352.768961959
353.625146425
354.44795677
355.237330859
355.993307779
356.716024212
357.405710868
358.06268872
358.687365203
359.280230225
359.841852017
360.372872797
360.874004111
361.346021977
361.789761531
362.206111468
362.596007829
362.960427636
363.300381768
363.616907844
363.911062398
364.183913334
364.436531908
364.669985394
364.885329631
365.083602668
365.265818636
365.432962985
365.585988131
365.725810513
365.853308079
365.969319095
366.074641378
366.170032865
366.256212791
366.333864525
366.403639644
366.466164343
366.522047931
366.571888931
366.616369231
366.655305895
366.685524491
366.706294608
366.719820012
366.72757275
366.731260666
366.732631007
303.88268002
303.966683388
304.136466596
304.392845095
304.734132462
305.158375676
305.663194369
306.245827263
306.903176909
307.631857676
308.428244152
309.288518422
310.208715033
311.184762648
312.212521908
313.287819111
314.406475757
315.564333988
316.757278309
317.981253836
319.232281591
320.506471141
321.800031106
323.109277771
324.430642261
325.760676411
327.096057701
328.433593267
329.770223322
331.10302384
332.429208835
333.74613202
335.051288115
336.342313605
337.616987191
338.873229712
340.109103788
341.322812982
342.512700711
343.677248719
344.81507536
345.92493349
347.005708224
348.056414376
349.076193803
350.064312501
351.020157651
351.943234464
352.833163021
353.689674942
354.512610076
355.301913046
356.057629813
356.77990411
357.468973875
358.125167544
358.748900287
359.340670088
359.901053682
360.430702274
360.930337006
361.400744134
361.842769814
362.257314511
362.645326903
363.007797363
363.345750875
363.660239607
363.952334998
364.223119748
364.473679624
364.705095572
364.918436104
365.11475046
365.295062455
365.460365418
365.611617972
365.749740944
365.875615021
365.990079379
366.093930928
366.187924402
366.272773067
366.349150383
366.417692574
366.479002507
366.533655261
366.582203129
366.625262824
366.662854189
366.691884587
366.711669691
366.7242277
366.731381058
366.735017098
366.736604984
303.626771732
303.712252959
303.884889626
304.145517572
304.492373297
304.923406919
305.436122403
306.027630869
306.694700712
307.433810405
308.241201011
309.112926846
310.044902984
311.032948675
312.072826195
313.160274874
314.291040437
315.460899868
316.66568225
317.901286
319.163693064
320.448980489
321.753329906
323.073035246
324.404509114
325.744288022
327.089036774
328.43555208
329.780765627
331.121746588
332.455703716
333.779986891
335.092088315
336.38964324
337.670430322
338.932371527
340.17353168
341.392117597
342.58647689
343.755096401
344.896600368
346.00974827
347.093432468
348.146675593
349.168627788
350.158563761
351.11587974
352.040090293
352.9308251
353.787825612
354.610941698
355.400128209
356.155441527
356.877036043
357.565160614
358.220154929
358.842445818
359.432543431
359.991037294
360.518592152
361.01594359
361.483893329
361.92330416
362.335094421
362.72023197
363.079727599
363.414627853
363.726007309
364.014960344
364.282592586
364.530012201
364.758321359
364.968608094
365.161938944
365.33935251
365.501854183
365.650411957
365.785953354
365.909363235
366.02148241
366.123106823
366.214987236
366.297829277
366.372293841
366.438997796
366.498515072
366.551378529
366.598081694
366.639149039
366.67461394
366.701921353
366.720202883
366.731810962
366.738667801
366.742471816
366.744228797
303.281599931
303.36904539
303.545585349
303.812030018
304.166502539
304.606814453
305.130307425
305.733914486
306.414217539
307.167506924
307.989839733
308.877095157
309.825025449
310.829301637
311.885553562
312.989404203
314.136498556
315.32252753
316.543247442
317.794495746
319.07220364
320.372406116
321.691250021
323.025000532
324.370046451
325.722904574
327.080223369
328.438786057
329.795513288
331.147465393
332.491844265
333.825994785
335.147405897
336.453711286
337.742689645
339.012264536
340.260503845
341.485618846
342.685962898
343.860029791
345.006451781
346.123997339
347.211568667
348.268198981
349.293049642
350.28540712
351.244679857
352.17039502
353.062195203
353.919835058
354.743177898
355.532192261
356.286948461
357.007615104
357.69445559
358.347824566
358.968164338
359.556001186
360.111941576
360.636668198
361.130935781
361.595566602
362.031445605
362.439515047
362.820768548
363.176244493
363.507018694
363.814196342
364.098903259
364.362276652
364.605455579
364.829571502
365.03573931
365.225049228
365.398559936
365.557293069
365.702229101
365.834304459
365.954409607
366.063387825
366.162034423
366.251096157
366.331270615
366.403205396
366.467496825
366.524687869
366.575264888
366.619651482
366.658237399
366.691115989
366.716114108
366.732942277
366.743865833
366.750651077
366.754695329
366.756617418
302.845120621
302.935079674
303.116645707
303.390582063
303.754857434
304.207096544
304.744424596
305.363538711
306.060775257
306.832178429
307.673566237
308.580591917
309.54879925
310.573670995
311.650670174
312.775274438
313.943004049
315.14944422
316.390262655
317.661223135
318.958195952
320.277165916
321.614238544
322.965644921
324.327745641
325.697034088
327.070139272
328.443828263
329.81500844
331.180729451
332.538184879
333.884713529
335.217800427
336.535077425
337.834323402
339.113464059
340.370571283
341.603862108
342.811697295
343.992579538
345.14515136
346.268192713
347.360618338
348.421474914
349.449938044
350.4453091
351.407011971
352.334589729
353.227701243
354.086117764
354.909719478
355.698492064
356.452523248
357.171999353
357.857201867
358.508503997
359.126367202
359.711337694
360.264042853
360.78518751
361.275550044
361.735978179
362.167384397
362.570740822
362.947073454
363.297455597
363.623000381
363.924852311
364.204177863
364.462155285
364.699963901
364.918773366
365.11973345
365.303964924
365.472552034
365.626536806
365.766915128
365.894634303
366.010591661
366.115633786
366.210555987
366.29610166
366.372961223
366.44177033
366.503106913
366.557486379
366.605353779
366.647070195
366.682912824
366.712881563
366.735465451
366.751039764
366.761417436
366.768413156
366.772681001
366.774714997
302.314717947
302.407800267
302.595618205
302.878868756
303.25531845
303.722348311
304.276803166
304.915076694
305.633191771
306.426880809
307.291661581
308.222906171
309.215901489
310.265900679
311.368165469
312.518000053
313.710777457
314.941959499
316.207111536
317.501913104
318.822165476
320.163797003
321.522866935
322.895568286
324.278230126
325.667319583
327.059443719
328.451351249
329.839934353
331.222230371
332.595423249
333.956844746
335.303975373
336.634444949
337.946032763
339.236667285
340.504425442
341.747531457
342.964355274
344.153410599
345.313352613
346.442975386
347.541209043
348.607116737
349.639891461
350.638852739
351.603443236
352.53322531
353.427877525
354.287191164
355.111066735
355.899510504
356.652631046
357.370635847
358.053827928
358.702602516
359.31744374
359.898921334
360.447687314
360.964472581
361.450083377
361.905397489
362.331360067
362.728978905
363.099318964
363.44349596
363.762668781
364.058030621
364.330798748
364.582203066
364.813473796
365.025828901
365.220462054
365.398532051
365.56115441
365.709395519
365.8442692
365.966735106
366.077698273
366.178009192
366.26846387
366.349803463
366.422713105
366.487819589
366.545687486
366.596812879
366.641612987
366.680407877
366.713389004
366.740567694
366.761037444
366.775547403
366.785677715
366.79270113
366.79700893
366.799000943
301.687140362
301.784026567
301.979456774
302.27403727
302.66527445
303.150236581
303.725411065
304.386807749
305.130056417
305.950502304
306.843294253
307.803462784
308.825986501
309.90584646
311.038069024
312.217758353
313.440120047
314.700477577
315.994283117
317.317124242
318.664727739
320.032961574
321.417835805
322.81550303
324.222258773
325.634542034
327.04893613
328.462169693
329.871118079
331.272804877
332.664403177
334.043236781
335.406781133
336.752663882
338.078665011
339.382716493
340.662901458
341.91745289
343.144751866
344.343325394
345.511843891
346.649118368
347.754097361
348.825863677
349.863631002
350.866740399
351.834656757
352.766965194
353.663367462
354.523678362
355.347822193
356.135829246
356.887832356
357.604063535
358.284850669
358.930614318
359.541864578
360.119198037
360.663294756
361.174915271
361.654897505
362.104153515
362.523665884
362.914483576
363.277716976
363.614531803
363.926141591
364.213798415
364.478781712
364.72238524
364.945902545
365.150611761
365.337760919
365.508555174
365.664147187
365.80563125
365.934040841
366.05034853
366.155467094
366.250250946
366.335497234
366.411946121
366.480279861
366.541120455
366.595025768
366.642483774
366.683903958
366.719603813
366.7497865
366.77450729
366.793467379
366.80738684
366.81732365
366.823999056
366.828108988
366.829709859
300.958428309
301.059888195
301.264464305
301.572639403
301.981587175
302.487977264
303.087844947
303.776718898
304.549741191
305.401782222
306.327544103
307.321649431
308.378714019
309.493403757
310.660476861
311.8748135
313.131435112
314.425515712
315.752387364
317.107541673
318.486628831
319.885455401
321.29998173
322.72631958
324.160730359
325.599624119
327.039559344
328.4772433
329.909533137
331.333437363
332.746117034
334.144887086
335.527217354
336.890733201
338.233215657
339.552601031
340.846979967
342.11459596
343.35384338
344.563265049
345.741549435
346.887527544
348.00016957
349.078581367
350.1220008
351.129794029
352.101451749
353.036585435
353.934923607
354.796308135
355.620690609
356.408128788
357.15878314
357.872913493
358.550875811
359.19311911
359.800182517
360.372692486
360.911360147
361.416978765
361.89042124
362.332637534
362.744651862
363.127559377
363.482522022
363.810763107
364.113560099
364.392235123
364.648142754
364.882654976
365.097143644
365.292961497
365.471423471
365.633790595
365.781258598
365.914952307
366.035925159
366.145161693
366.243581126
366.332040789
366.411338765
366.48221519
366.545351824
366.601369835
366.650826339
366.694210224
366.731937524
366.764346599
366.79169477
366.81416531
366.831879832
366.845245712
366.854859538
366.861322691
366.865289197
366.866694209
300.123822259
300.230739625
300.446217721
300.770570783
301.200546978
301.732308474
302.361320048
303.082509602
303.890417671
304.779336988
305.743434399
306.776851794
307.873785092
309.028542382
310.235583662
311.489545366
312.785253048
314.117725446
315.482172735
316.873991287
318.288756747
319.722216762
321.170284266
322.629031933
324.094688063
325.563633998
327.03240295
328.497679873
329.956302462
331.405262805
332.841708666
334.262945124
335.666435802
337.049803648
338.410831145
339.747459883
341.057789495
342.340075965
343.59272937
344.814311138
346.003530888
347.159242964
348.280442737
349.366262744
350.415968748
351.428955753
352.404744016
353.342975102
354.243407984
355.10591523
355.930479271
356.71718879
357.466235231
358.177909461
358.852598603
359.490783067
360.093033798
360.660009772
361.192455739
361.691200218
362.157153683
362.591306868
362.994728989
363.368565618
363.714035781
364.03242767
364.325092263
364.593433956
364.838897432
365.062950237
365.267061196
365.452675923
365.621191987
365.773937494
365.912156956
366.037006585
366.149557627
366.250803254
366.34166582
366.423003041
366.495612708
366.56023537
366.617554409
366.668193539
366.712713228
366.751607787
366.785304064
366.814162569
366.838483293
366.858522559
366.874526721
366.886853744
366.895941553
366.902225207
366.906097097
366.907749359
299.177645107
299.291050577
299.519472832
299.862995316
300.317819839
300.879460842
301.542662457
302.301603067
303.150083428
304.081697307
305.08997551
306.168500015
307.310988238
308.511350122
309.763722288
311.062484138
312.402260752
313.777916903
315.184545776
316.617455184
318.072153337
319.544335563
321.029872895
322.524803018
324.025323739
325.527788925
327.028706532
328.524738409
330.012701513
331.489569926
332.952476638
334.398715665
335.825743668
337.231180994
338.612812006
339.968584648
341.296609226
342.595156458
343.862654867
345.097687624
346.298988957
347.465440237
348.596065853
349.690028968
350.746627219
351.765288431
352.745566371
353.687136583
354.589792313
355.453440547
356.27809817
357.063888271
357.811036605
358.51986824
359.190804422
359.8243597
360.42113934
360.981837095
361.507233354
361.998193712
362.455667957
362.880689417
363.274374518
363.637922273
363.9726132
364.279806929
364.560937444
364.817504635
365.051060678
365.263190015
365.455482452
365.629500633
365.786745493
365.928625981
366.056440338
366.171373567
366.274508413
366.366839715
366.449286899
366.522703462
366.587884313
366.645570307
366.696448707
366.74114904
366.78023784
366.814215943
366.84351939
366.868523865
366.889553663
366.906897963
366.9208362
366.931683324
366.939780951
366.945459819
366.949007212
366.950649465
298.113150801
298.234265405
298.478043821
298.844251749
299.328384749
299.925126121
300.628306494
301.431167817
302.326602023
303.30736049
304.366223831
305.496129334
306.690258023
307.942086626
309.245411371
310.594350917
311.983335181
313.407085724
314.860592138
316.339087655
317.838026156
319.35306198
320.880033289
322.414949325
323.953981541
325.493458334
327.029862587
328.55983211
330.08016146
331.587804612
333.079877849
334.553662549
336.006607398
337.436329826
338.840616526
340.217423009
341.564872195
342.881252128
344.165012915
345.414763047
346.629265254
347.807432044
348.948321062
350.051130381
351.115193795
352.13997619
353.125069007
354.070185842
354.975158171
355.839931234
356.664560065
357.449205693
358.194131525
358.899699958
359.566369231
360.194690602
360.785305886
361.338945455
361.856426765
362.338653514
362.786615484
363.201389093
363.584138587
363.93611764
364.258670857
364.553234306
364.8213337
365.064578246
365.284647702
365.483270041
365.662187901
365.823114349
365.967682694
366.097400687
366.213623297
366.31755497
366.41027657
366.492772404
366.565949413
366.630649651
366.687660803
366.737723608
366.781532773
366.81972828
366.852885203
366.881509951
366.90604312
366.926866132
366.944311
366.958674012
366.970232748
366.979265478
366.986048884
366.9908406
366.993857463
366.995287675
296.922328257
297.052622133
297.314650512
297.707738654
298.226460945
298.864426411
299.614301592
300.468155157
301.417762588
302.454863598
303.57136079
304.759458711
306.011748733
307.321249202
308.681411749
310.0861044
311.529580684
313.006441955
314.511598199
316.04023079
317.58775934
319.14981378
320.722212154
322.300944197
323.8821604
325.462166035
327.037418959
328.604531235
330.160272434
331.701573595
333.22553159
334.729412992
336.210657113
337.666877965
339.095865022
340.495582755
341.864168975
343.199932085
344.501347432
345.767052947
346.995844301
348.186669759
349.338624922
350.450947465
351.523011971
352.554324912
353.544519809
354.493352572
355.400697034
356.266540653
357.090980404
357.874218863
358.616560481
359.318408108
359.980259798
360.602705955
361.186426932
361.732191169
362.240854026
362.713357457
363.150730699
363.554092114
363.924652271
364.263718169
364.572698233
364.853107161
365.106568994
365.334815664
365.539677139
365.723058318
365.886897977
366.033107904
366.163497105
366.2796976
366.383119742
366.474964294
366.556284805
366.628035837
366.691098724
366.746293704
366.794394367
366.836140761
366.872242457
366.903358783
366.930076979
366.952906564
366.972286191
366.988593179
367.002153733
367.013254788
367.022156093
367.029100758
367.03431577
367.038004207
367.040332059
367.041444352
295.595645223
295.736917964
296.020724107
296.445773234
297.005425161
297.691888083
298.496335515
299.409360723
300.421367351
301.522884973
302.704798128
303.958491981
305.275926077
306.649652076
308.072792173
309.538993295
311.042369259
312.577439757
314.139072005
315.722428461
317.322922306
318.936181261
320.55801975
322.18441905
323.811514849
325.435591375
327.053080478
328.660565414
330.254786773
331.832648454
333.391224118
334.927762558
336.439691784
337.924621634
339.380344828
340.804836447
342.196251904
343.552923582
344.873356388
346.156222508
347.400355662
348.604745119
349.768529677
350.890991772
351.971551787
353.009762623
354.005304538
354.957980234
355.867710184
356.734528175
357.558577045
358.340104624
359.079459879
359.777089299
360.433533577
361.049424654
361.625483249
362.162517011
362.661419494
363.123170196
363.548835951
363.939574008
364.296637111
364.621380778
364.915272719
365.17990372
365.416998325
365.62842192
365.816178602
365.982391461
366.129255257
366.258953184
366.373539284
366.4748102
366.564221111
366.642916402
366.711876256
366.771998525
366.824124447
366.869038428
366.907488302
366.940211997
366.967950575
366.991401636
367.011170573
367.027764649
367.041611496
367.053074075
367.062461187
367.070038764
367.07603943
367.080670414
367.084115975
367.086534952
367.088053795
367.088778621
294.121710105
294.276202744
294.586158803
295.04941852
295.657720306
296.40142738
297.269784447
298.251522159
299.335358817
300.510384297
301.766317304
303.093646922
304.483680024
305.928520342
307.42100414
308.954613414
310.523382183
312.121806177
313.744761801
315.387437019
317.045274767
318.713928483
320.389228944
322.067161592
323.743853451
325.415568516
327.078709614
328.729825811
330.365622447
331.982970115
333.578913977
335.150681006
336.695685319
338.211531538
339.696016145
341.147126829
342.563039928
343.942116202
345.28289531
346.584089392
347.844576169
349.0633919
350.239724466
351.37290674
352.462410335
353.507839749
354.508926888
355.465525923
356.377608434
357.245258793
358.068669763
358.848138274
359.584061411
360.27693261
360.927338133
361.5359539
362.103542805
362.630952685
363.119115196
363.569045919
363.981846152
364.358706925
364.700915896
365.009867828
365.287079168
365.534206781
365.753069686
365.945670425
366.11420868
366.26107442
366.388800933
366.499955816
366.59695668
366.681837704
366.756069817
366.820620588
366.876316269
366.923967426
366.964368456
366.998249293
367.026309046
367.049276487
367.067962403
367.083144322
367.095454005
367.10538226
367.113331301
367.119638598
367.124584562
367.128404653
367.131296992
367.133430468
367.134948754
367.135971427
367.136591741
367.136880837
292.486819819
292.657373833
292.998992165
293.508272832
294.174759689
294.986359497
295.929806217
296.991470482
298.158002931
299.416794552
300.756252704
302.165918214
303.636461561
305.159598951
306.727964589
308.334967293
309.974650468
311.641566412
313.330669721
315.037230533
316.756766182
318.484989161
320.217769473
321.951110048
323.681134199
325.404083812
327.116326083
328.814366953
330.494866801
332.154654103
333.790738313
335.400319268
336.980793849
338.52976011
340.045018931
341.524573134
342.966624141
344.36956654
345.731981088
347.05262672
348.330432152
349.564487522
350.754036406
351.898468362
352.997312095
354.050229185
355.05700834
356.017560066
356.931911667
357.800202516
358.622679508
359.399692695
360.131691065
360.819218509
361.462910002
362.063488095
362.621759838
363.138614315
363.615021087
364.052029931
364.45077247
364.812466484
365.138423996
365.43006444
365.688934541
365.916736166
366.115362946
366.286943294
366.433883025
366.558889511
366.664945395
366.75518099
366.832592254
366.899601181
366.957631035
367.007186183
367.048804678
367.083196183
367.111137106
367.133275844
367.150210314
367.162628689
367.17150267
367.177784295
367.182136066
367.184991751
367.186703613
367.187573071
367.187840921
367.187703975
367.187318343
367.186810423
367.18628213
367.185815205
367.185472539
367.185292397
290.674346282
290.864634078
291.244991054
291.81021538
292.54683572
293.439450783
294.471501749
295.626360783
296.888150791
298.242283302
299.675730252
301.177080468
302.736445197
304.345275555
305.996143472
307.682522515
309.398590253
311.139061988
312.899057528
314.673997938
316.459527378
318.251455325
320.045715836
321.838342157
323.625456103
325.40327061
327.168105289
328.916408556
330.644781059
332.349996969
334.029020591
335.679017942
337.297364528
338.881650194
340.429681092
341.939478449
343.409274115
344.837503406
346.222796058
347.563966117
348.860001592
350.110054461
351.313431427
352.469585588
353.578109013
354.638726137
355.651287817
356.615765901
357.532248171
358.40093354
359.222127413
359.996237172
360.723767739
361.405317258
362.0415729
362.63330689
363.181372835
363.686702551
364.150303649
364.573258319
364.956723985
365.301936861
365.610219845
365.882997
366.121817313
366.328391699
366.504646651
366.652797621
366.775438177
366.87562869
366.956936735
367.023334813
367.078803169
367.126497466
367.167678801
367.201665474
367.228510356
367.248893538
367.263715202
367.273490006
367.278586035
367.279528833
367.27768171
367.274394336
367.270332051
367.265755924
367.260929389
367.256117711
367.251509673
367.24725777
367.243466714
367.240214718
367.237557909
367.235539013
367.234191159
367.233520328
288.663889931
288.878756576
289.307111751
289.941103573
290.763051141
291.75304663
292.890183255
294.154019514
295.5256099
296.988105511
298.526974549
300.129936667
301.786716788
303.48871313
305.228650399
307.000262645
308.798027504
310.616957071
312.452440535
314.300128953
316.155851757
318.015556523
319.875266937
321.731057457
323.579045619
325.41540173
327.236376661
329.0383381
330.81780627
332.571484521
334.296280258
335.989317758
337.647946293
339.269745575
340.85252826
342.394338349
343.893445128
345.34833354
346.757692256
348.120400679
349.435516026
350.702261326
351.92001475
353.088300369
354.206780255
355.275247669
356.293621075
357.261938746
358.180353761
359.049129218
359.86863356
360.639335923
361.361801485
362.036686814
362.664735236
363.246772277
363.783701227
364.276498959
364.726212214
365.133954737
365.50090593
365.82831209
366.117492055
366.369849939
366.586899558
366.770306593
366.921958337
367.044071345
367.139348172
367.211178963
367.263844588
367.302573016
367.333112079
367.360209068
367.384827137
367.403169582
367.414627116
367.420194512
367.421352957
367.418340012
367.410983786
367.399217301
367.385406299
367.37185037
367.359050797
367.346773091
367.33515253
367.324466364
367.314830745
367.306356064
367.299080224
367.293026563
367.288197958
367.284595373
367.282221413
367.281049431
286.430089398
286.676072411
287.164792599
287.884423218
288.811307159
289.919328664
291.181808309
292.573462221
294.071666847
295.657075265
297.313698161
299.028614623
300.791481919
302.593983734
304.429310498
306.291721421
308.176204202
310.078226881
311.993565223
313.918185394
315.848163335
317.779627124
319.708715367
321.63155147
323.544238623
325.442879198
327.323620743
329.182714887
331.016571737
332.821802712
334.595244959
336.333972546
338.035303083
339.696803829
341.316295594
342.891851068
344.421786378
345.904647794
347.339195714
348.724387653
350.059361965
351.343423383
352.576030797
353.756787201
354.885431533
355.96183191
356.985979837
357.95798505
358.878070729
359.746568852
360.563915555
361.330646383
362.047391413
362.714870257
363.333886946
363.905324716
364.430140673
364.909360386
365.344072452
365.73542331
366.084612727
366.392890944
366.661559046
366.891975744
367.085575493
367.243907471
367.368710129
367.462046592
367.526536513
367.565727068
367.5846182
367.590210688
367.591524399
367.597144285
367.607915529
367.611346953
367.606610768
367.596124626
367.583271872
367.567516774
367.547452756
367.520956745
367.49315069
367.468681542
367.447206212
367.427111176
367.408462148
367.391768945
367.377002345
367.364259418
367.353475104
367.344614113
367.337612244
367.332425849
367.32902634
367.327353642
283.940911246
284.22705482
284.793025567
285.620906959
286.678412416
287.930789101
289.343669956
290.885658751
292.529816965
294.254188472
296.04158451
297.878907917
299.756282437
301.666187364
303.602713616
305.560986769
307.536755796
309.526121111
311.525365899
313.530854686
315.538968944
317.546059013
319.548403431
321.542178964
323.523454461
325.488221396
327.432468753
329.35227804
331.243907804
333.10385236
334.928865999
336.715965242
338.462430153
340.165812161
341.823942107
343.43492952
344.997150275
346.509227662
347.970010497
349.378550493
350.734081506
352.036002215
353.283862326
354.477352011
355.616293921
356.700636881
357.730450649
358.70592126
359.627346662
360.495132378
361.309786991
362.071917327
362.782223365
363.441492868
364.050595791
364.610478398
365.122157013
365.586711265
366.005276714
366.379036793
366.709214189
366.997062032
367.24385596
367.450889152
367.619475033
367.750966714
367.846812245
367.908682715
367.938745439
367.940213404
367.918372587
367.882276056
367.846894206
367.830512013
367.836266968
367.826392829
367.803589551
367.774464138
367.747832985
367.720618692
367.689102676
367.643901039
367.598246447
367.562747665
367.533757267
367.505921811
367.479882935
367.457137227
367.437172824
367.420202976
367.405950459
367.394339783
367.385208826
367.378471311
367.374069071
367.371907261
281.155131291
281.494306362
282.161143384
283.128168526
284.35042931
285.781065286
287.37547933
289.094654754
290.90677242
292.7874308
294.718868549
296.688645742
298.6881959
300.711528867
302.754212912
304.812656049
306.883647235
308.964094759
311.050896406
313.140883414
315.230792616
317.317236809
319.396662297
321.465303181
323.519161687
325.554048866
327.565706267
329.549961806
331.502865703
333.42076897
335.300337386
337.138527262
338.932574199
340.680007195
342.378668335
344.026715591
345.622602859
347.165051878
348.65302205
350.08567975
351.462371623
352.782604136
354.046028499
355.252430211
356.401722054
357.493938907
358.529233493
359.507872559
360.4302332
361.296799028
362.108155878
362.86498696
363.568067504
364.218259035
364.816503324
365.363815938
365.861279187
366.310034146
366.711271354
367.066219781
367.376133598
367.642276342
367.86590213
368.048234092
368.190441133
368.293617627
368.35877882
368.386906559
368.379135821
368.337306846
368.265461516
368.173599881
368.087811483
368.054184033
368.098979147
368.077106625
368.026771415
367.968370249
367.928576845
367.893586337
367.856769193
367.77057652
367.695630434
367.650686961
367.618317921
367.582700853
367.548238045
367.519649436
367.494409145
367.473408239
367.455792881
367.441575106
367.430406808
367.42218275
367.416823968
367.414196542
278.018517956
278.429651232
279.231262639
280.380470302
281.813467157
283.466364951
285.281044648
287.209199901
289.213836482
291.268800866
293.357002373
295.468054304
297.595972229
299.737309796
301.889838188
304.051718323
306.221053168
308.395699805
310.573235378
312.750991388
314.926091777
317.095452563
319.255728439
321.403224074
323.53383284
325.643071575
327.726287216
329.778924694
331.796748815
333.775948723
335.713117785
337.605160973
339.449258287
341.242900275
342.983938502
344.670597231
346.301435296
347.875302597
349.391299053
350.848732006
352.24708143
353.585976812
354.865181538
356.084583731
357.244191667
358.344130633
359.384640204
360.366071574
361.288884872
362.153646106
362.961023214
363.711781114
364.406776012
365.046949256
365.633320918
366.16698298
366.649091791
367.080859239
367.463541962
367.79842776
368.086818175
368.330005846
368.529244665
368.685709796
368.800442976
368.874276544
368.907727437
368.900854871
368.853093144
368.763196888
368.62986479
368.455066345
368.266639326
368.151663964
368.106376473
368.079482284
368.036996343
367.988271989
367.952819703
367.925808194
367.909332054
367.883011056
367.769510081