/*--------------------------------*- C++ -*----------------------------------*\
| =========                 |                                                 |
| \\      /  F ield         | OpenFOAM: The Open Source CFD Toolbox           |
|  \\    /   O peration     | Version:  v1906                                 |
|   \\  /    A nd           | Web:      www.OpenFOAM.com                      |
|    \\/     M anipulation  |                                                 |
\*---------------------------------------------------------------------------*/
FoamFile
{
    version     2.0;
    format      ascii;
    class       surfaceScalarField;
    location    "760";
    object      phi;
}
// * * * * * * * * * * * * * * * * * * * * * * * * * * * * * * * * * * * * * //

dimensions      [0 3 -1 0 0 0 0];
oriented        oriented;


internalField   nonuniform List<scalar> 
18240
(
-0.00019240749419
0.000192407558995
-0.000393828239377
0.000201420801822
-0.000593711643159
0.000199883475809
-0.00079038517842
0.000196673589701
-0.000982735600251
0.000192350498458
-0.00116977239667
0.000187036848842
-0.00135061122059
0.000180838905371
-0.00152447145542
0.00017386028583
-0.00169067773182
0.000166206363102
-0.00184866063023
0.000157982948629
-0.00199795465437
0.000149294116622
-0.00213819439638
0.000140239792091
-0.00226910825416
0.000130913956471
-0.00239051133102
0.000121403127485
-0.00250229686597
0.000111785640305
-0.00260442794733
0.000102131133244
-0.00269692858073
9.25007457679e-05
-0.00277987584347
8.29473166536e-05
-0.00285339186977
7.35161461055e-05
-0.00291763735961
6.42455465617e-05
-0.00297280506351
5.51678313962e-05
-0.00301911493025
4.63099270962e-05
-0.00305680914457
3.7694349818e-05
-0.00308614877989
2.93397001425e-05
-0.00310741013862
2.12615023109e-05
-0.00312088257974
1.34725112834e-05
-0.00312686582592
5.98339797665e-06
-0.00312566860252
-1.19714704394e-06
-0.00311760622113
-8.06222149539e-06
-0.00310299975601
-1.46063816359e-05
-0.00308217449088
-2.08250972592e-05
-0.00305545917732
-2.67152220034e-05
-0.0030231844112
-3.2274590601e-05
-0.00298568211134
-3.75021991853e-05
-0.00294328403872
-4.23978897858e-05
-0.00289632137037
-4.69625573875e-05
-0.00284512333817
-5.11978426193e-05
-0.00279001688138
-5.51063341753e-05
-0.00273132542495
-5.86912606746e-05
-0.00266936861106
-6.19566780613e-05
-0.00260446124458
-6.49071653532e-05
-0.00253691309934
-6.75479943363e-05
-0.00246702805333
-6.98848404626e-05
-0.00239510395116
-7.19239341596e-05
-0.00232143194165
-7.36718007648e-05
-0.0022462963626
-7.51353916951e-05
-0.00216997428457
-7.63218677388e-05
-0.00209273536988
-7.72387057371e-05
-0.00201484162028
-7.78935398236e-05
-0.00193654715079
-7.82942367407e-05
-0.00185809813429
-7.84488100272e-05
-0.0017797324203
-7.83654554386e-05
-0.00170167966558
-7.80525547657e-05
-0.00162416071804
-7.75186616151e-05
-0.00154738791639
-7.67726123198e-05
-0.00147156415078
-7.58234514508e-05
-0.00139688330939
-7.46806670786e-05
-0.00132352892521
-7.33540421889e-05
-0.00125167474573
-7.1854025587e-05
-0.00118148288893
-7.01914893686e-05
-0.00111310452672
-6.83782342635e-05
-0.00104667751814
-6.64266211204e-05
-0.000982327236466
-6.43501862789e-05
-0.000920163737387
-6.21631006445e-05
-0.000860282836767
-5.98808438344e-05
-0.000802763005668
-5.75194346169e-05
-0.000747666899987
-5.50960936126e-05
-0.000695038315567
-5.26282056008e-05
-0.000644904434945
-5.01339171203e-05
-0.000597273238871
-4.7630851355e-05
-0.000552136674054
-4.5136651447e-05
-0.000509468808317
-4.26675692447e-05
-0.000469229891564
-4.02390507184e-05
-0.000431365260354
-3.78643920975e-05
-0.000395809953764
-3.55554813776e-05
-0.000362488105016
-3.33216687014e-05
-0.000331317641755
-3.11706674046e-05
-0.000302209898465
-2.91076157519e-05
-0.000275074145341
-2.71359730042e-05
-0.00024981747774
-2.52565821627e-05
-0.000226349427767
-2.34682745824e-05
-0.000204582778862
-2.17665968797e-05
-0.000184439366078
-2.01436352217e-05
-0.000165853711294
-1.85856212594e-05
-0.000148783456164
-1.70704648439e-05
-0.000133222556934
-1.55608621443e-05
-0.000119231652663
-1.39910896615e-05
-0.000107010647394
-1.22209625606e-05
-9.71797120669e-05
-9.83110956464e-06
-8.82773288745e-05
-8.902402407e-06
-7.82412364628e-05
-1.00362912226e-05
-6.73660759659e-05
-1.08752942757e-05
-5.51497326257e-05
-1.22166098052e-05
-4.04367337514e-05
-1.47133552898e-05
-2.15772574928e-05
-1.88599641145e-05
-2.15775198522e-05
-0.000203662041882
0.000396069665518
-0.000419351401464
0.000417110224824
-0.000632694317152
0.000413226460293
-0.000842377800998
0.000406357137919
-0.00104733028508
0.00039730305326
-0.00124653568891
0.000386242317704
-0.00143906223603
0.000373365525559
-0.00162408195093
0.00035888006687
-0.001800878714
0.000343003202187
-0.00196885067687
0.000325954979346
-0.0021275084986
0.000307952017877
-0.00227647079012
0.000289202153774
-0.00241545713105
0.000269900380997
-0.00254427981238
0.000250225881895
-0.00266283446463
0.000230340380756
-0.00277109063449
0.000210387379731
-0.00286908221986
0.000190492424525
-0.00295689867384
0.000170763851443
-0.00303467661408
0.000151294185425
-0.00310259260243
0.000132161620557
-0.00316085650111
0.000113431835397
-0.00320970607699
9.51595940821e-05
-0.00324940210038
7.73904852418e-05
-0.00328022457758
6.01622745439e-05
-0.00330246926957
4.35063134793e-05
-0.00331644514748
2.74484930803e-05
-0.00332247187274
1.20102499398e-05
-0.00332087803849
-2.7908701501e-06
-0.00331199960243
-1.69405229991e-05
-0.00329617858221
-3.04272829255e-05
-0.00327376123816
-4.32422986566e-05
-0.00324509718738
-5.53791455398e-05
-0.0032105380812
-6.68335458057e-05
-0.00317043674321
-7.76034010635e-05
-0.00312514593752
-8.76885360061e-05
-0.00307501759455
-9.70907548052e-05
-0.00302040168265
-0.000105813586371
-0.00296164552931
-0.000113862331855
-0.00289909281801
-0.000121243794962
-0.00283308301933
-0.000127966310226
-0.00276395053689
-0.000134039461743
-0.00269202425608
-0.000139474096915
-0.00261762685301
-0.000144282048243
-0.0025410744538
-0.000148476142529
-0.00246267610669
-0.000152069943338
-0.00238273352928
-0.000155077764762
-0.00230154073237
-0.000157514450945
-0.00221938381968
-0.000159395399867
-0.00213654074313
-0.000160736394027
-0.00205328111001
-0.00016155363659
-0.00196986604321
-0.000161863646643
-0.00188654794203
-0.000161683308531
-0.00180357041444
-0.000161029845787
-0.00172116792889
-0.000159920884649
-0.00163956577789
-0.000158374522196
-0.00155897954919
-0.000156409404266
-0.00147961507196
-0.000154044901439
-0.00140166763029
-0.000151301196717
-0.00132532184131
-0.000148199573525
-0.00125075054226
-0.000144762493653
-0.00117811456493
-0.000141013977598
-0.00110756126521
-0.000136979624382
-0.0010392242075
-0.000132687023867
-0.00097322139044
-0.000128165628073
-0.000909654951776
-0.000123447085047
-0.000848609279974
-0.000118564834693
-0.000790150983077
-0.000113554225535
-0.000734327228836
-0.000108451718685
-0.000681166329036
-0.000103294694215
-0.000630676724299
-9.81202577147e-05
-0.000582848502309
-9.29648003696e-05
-0.000537653314075
-8.78626110292e-05
-0.000495046882561
-8.28454620753e-05
-0.000454969785922
-7.79413982539e-05
-0.000417350620465
-7.31746772205e-05
-0.000382107240369
-6.85650114476e-05
-0.000349150042043
-6.41279379586e-05
-0.000318383244372
-5.98744192778e-05
-0.000289707988003
-5.58113304573e-05
-0.000263023617545
-5.19409893408e-05
-0.00023823079744
-4.82612135629e-05
-0.000215233301085
-4.47641513839e-05
-0.000193941934427
-4.14351291083e-05
-0.000174277864054
-3.82497574423e-05
-0.000156178304594
-3.5170145534e-05
-0.000139600827889
-3.21383967134e-05
-0.000124523902412
-2.90681174631e-05
-0.000110906725331
-2.58381886552e-05
-9.84465350877e-05
-2.22914064797e-05
-8.75790094709e-05
-1.9770024175e-05
-7.67523763481e-05
-2.08630764235e-05
-6.51162924568e-05
-2.25115596379e-05
-5.22337527329e-05
-2.50994230025e-05
-3.68668965901e-05
-3.00805735893e-05
-1.84876901787e-05
-3.72395887032e-05
-4.00654311718e-05
-0.000206618346294
0.00060268807571
-0.000424719760175
0.000635211704717
-0.00064064773473
0.000629154501735
-0.000852836473446
0.000618545943235
-0.00106013585741
0.000604602505678
-0.00126149220831
0.000587598736323
-0.00145595286785
0.000567826255399
-0.00164267818325
0.000545605451669
-0.00182094780673
0.000521272898328
-0.00199016210165
0.000495169345936
-0.00214983942857
0.0004676294204
-0.00229961036283
0.000438973162555
-0.00243920956348
0.000409499660734
-0.00256846626706
0.000379482663449
-0.00268729394969
0.000349168146532
-0.0027956799456
0.000318773457651
-0.00289367529654
0.000288487863252
-0.00298138538066
0.00025847402221
-0.0030589613212
0.000228870218992
-0.00312659251783
0.000199792909057
-0.00318450008944
0.000171339505813
-0.00323293144122
0.000143591043562
-0.00327215561532
0.000116614764464
-0.00330245958277
9.04663460722e-05
-0.00332414507736
6.51919200007e-05
-0.00333752612988
4.08296565776e-05
-0.00334292689721
1.74111364878e-05
-0.00334067998464
-5.03766438043e-06
-0.00333112481
-2.64955707651e-05
-0.00331460635108
-4.69456156907e-05
-0.00329147384545
-6.63746693725e-05
-0.00326207969661
-8.47731600009e-05
-0.00322677829183
-0.000102134807327
-0.00318592502403
-0.000118456525853
-0.0031398751902
-0.000133738217882
-0.00308898308991
-0.00014798270303
-0.00303360100973
-0.000161195505575
-0.0029740784174
-0.000173384762572
-0.00291076106178
-0.000184560980199
-0.00284399028946
-0.000194736910842
-0.00277410228673
-0.000203927284243
-0.00270142753451
-0.000212148666729
-0.00262629020397
-0.000219419188272
-0.00254900774788
-0.000225758404893
-0.00246989044447
-0.000231187045557
-0.00238924110681
-0.000235726896828
-0.00230735475591
-0.000239400589752
-0.00222451841757
-0.000242231520402
-0.00214101089689
-0.000244243691703
-0.00205710262397
-0.000245461679383
-0.00197305549549
-0.000245910541614
-0.00188912272359
-0.000245615838268
-0.00180554870366
-0.000244603622453
-0.00172256881234
-0.000242900522473
-0.00164040925156
-0.000240533831276
-0.00155928673085
-0.000237531661445
-0.00147940822665
-0.000233923147397
-0.00140097047432
-0.000229738677675
-0.00132415957423
-0.00022501021196
-0.00124915021852
-0.000219771573689
-0.00117610508527
-0.000214058850386
-0.00110517375236
-0.000207910683101
-0.00103649186768
-0.000201368656376
-0.000970179782306
-0.000194477449132
-0.000906341593095
-0.000187285039583
-0.000845063675387
-0.00017984250903
-0.000786413863196
-0.000172203831985
-0.000730440252266
-0.000164425119922
-0.000677170951234
-0.000156563830136
-0.000626613646787
-0.000148677398296
-0.000578756369954
-0.000140821962456
-0.000533568184677
-0.000133050686738
-0.000491001108157
-0.000125412479197
-0.000450991825182
-0.000117950628674
-0.000413464363122
-0.000110702134205
-0.00037833223766
-0.000103697136901
-0.00034550117838
-9.69590380416e-05
-0.000314871086651
-9.05045523049e-05
-0.000286338378899
-8.43441119015e-05
-0.000259797599882
-7.84818376583e-05
-0.000235143491403
-7.29154169981e-05
-0.000212272610331
-6.76351193045e-05
-0.00019108567261
-6.26221723068e-05
-0.000171489869046
-5.78456525495e-05
-0.000153402234916
-5.32578797044e-05
-0.000136753329262
-4.87873862638e-05
-0.000121492035388
-4.43294983524e-05
-0.000107591851154
-3.97384485162e-05
-9.50561160182e-05
-3.48272448826e-05
-8.39928073147e-05
-3.08334505299e-05
-7.24702489785e-05
-3.23857967929e-05
-5.97140178824e-05
-3.52679978917e-05
-4.51106456704e-05
-3.97030677399e-05
-2.8998797197e-05
-4.61927682573e-05
-1.41519397355e-05
-5.20868087211e-05
-5.42175451674e-05
-0.000210222836808
0.000812910976321
-0.000431880689197
0.000856869622103
-0.000651287397464
0.000848561276808
-0.000866778687934
0.000834037300493
-0.00107713919625
0.000814963081938
-0.00128126877226
0.000791728380578
-0.00147818452504
0.000764742077733
-0.00166703025615
0.000734451252872
-0.00184708107589
0.000701323789789
-0.00201774309034
0.000665831432867
-0.00217854882939
0.000628435233905
-0.00232914942532
0.000589573833925
-0.00246930449716
0.000549654810348
-0.00259887074189
0.00050904898715
-0.00271778999562
0.0004680874819
-0.00282607749078
0.000427061035885
-0.00292381073678
0.000386221195359
-0.00301111942505
0.000345782798236
-0.00308817647186
0.000305927356951
-0.00315519034524
0.000266806875458
-0.0032123985722
0.000228547829527
-0.00326006242463
0.000191254994845
-0.00329846256711
0.000155015009837
-0.003327895608
0.000119899492178
-0.00334867130303
8.59677245705e-05
-0.00336111035814
5.32688237502e-05
-0.00336554259558
2.18434905648e-05
-0.00336230546636
-8.27467423334e-06
-0.00335174268588
-3.70582270858e-05
-0.00333420308529
-6.44850892226e-05
-0.00331003947935
-9.05381432798e-05
-0.00327960760921
-0.000115204895003
-0.00324326505933
-0.000138477216937
-0.00320137024961
-0.000160351192013
-0.00315428139031
-0.000180826928335
-0.00310235552214
-0.000199908418816
-0.00304594753781
-0.000217603332095
-0.00298540931098
-0.000233922827778
-0.00292108883006
-0.000248881293905
-0.00285332945759
-0.000262496111962
-0.00278246921093
-0.00027478735382
-0.00270884017508
-0.000285777520946
-0.00263276794314
-0.000295491232729
-0.00255457118239
-0.000303954973202
-0.0024745612258
-0.000311196803809
-0.00239304177252
-0.000317246146402
-0.00231030860678
-0.000322133545942
-0.00222664940235
-0.000325890509577
-0.00214234353659
-0.000328549336638
-0.0020576619619
-0.000330143027245
-0.0019728670781
-0.00033070519342
-0.00188821262876
-0.000330270049501
-0.00180394358863
-0.000328872419968
-0.00172029603475
-0.000326547827559
-0.00163749699593
-0.00032333261765
-0.00155576423522
-0.000319264163726
-0.00147530599259
-0.000314381129203
-0.0013963205988
-0.000308723805178
-0.00131899602628
-0.000302334517581
-0.00124350924232
-0.000295258086581
-0.0011700254797
-0.000287542344232
-0.00109869724981
-0.00027923864255
-0.00102966328163
-0.000270402360685
-0.000963047188009
-0.000261093281136
-0.000898956137846
-0.000251375840708
-0.000837479337187
-0.000241319068232
-0.000778686717987
-0.00023099622967
-0.000722627654884
-0.000220483975494
-0.000669330216296
-0.000209861088631
-0.000618800756205
-0.000199206698003
-0.000571024366633
-0.000188598224722
-0.000525965876332
-0.000178109072946
-0.000483571771432
-0.000167806515538
-0.000443772497795
-0.00015774985741
-0.000406485312144
-0.000147989308752
-0.000371617007643
-0.000138565450833
-0.000339066654316
-0.000129509428644
-0.000308727816305
-0.000120843441989
-0.000280490543558
-0.000112581456408
-0.000254242806747
-0.000104729654274
-0.000229871771992
-9.72865454614e-05
-0.000207264691993
-9.0242295832e-05
-0.000186309819166
-8.35771489932e-05
-0.000166897163233
-7.72584083767e-05
-0.00014891956645
-7.12355765358e-05
-0.000132274427643
-6.54326179846e-05
-0.000116868395065
-5.97356218672e-05
-0.000102631703716
-5.39752303499e-05
-8.95769807422e-05
-4.78820799445e-05
-7.76332880515e-05
-4.27772770207e-05
-6.55604101116e-05
-4.44588452998e-05
-5.17887848849e-05
-4.90398425374e-05
-3.66504996092e-05
-5.48416322908e-05
-2.29197258418e-05
-5.99238428083e-05
-1.10884885836e-05
-6.39183453711e-05
-6.5306190334e-05
-0.000215039215704
0.00102795025552
-0.000441634930402
0.00108346540332
-0.000665805010217
0.00107273142287
-0.000885789852612
0.00105402221004
-0.00110029856201
0.00102947185903
-0.00130817238151
0.000999602268496
-0.00150838883862
0.000964958604202
-0.00170007059794
0.000926133082413
-0.0018824884593
0.00088374172263
-0.00205505868975
0.0008384017359
-0.00221733565515
0.00079071227347
-0.00236900099175
0.00074123924603
-0.0025098505549
0.000690504450876
-0.00263978031247
0.000638978823699
-0.00275877212392
0.000587079374525
-0.00286688016383
0.000535169158818
-0.00296421847677
0.000483559593833
-0.00305094999154
0.000432514400647
-0.00312727709938
0.000382254555255
-0.00319343382033
0.000332963689236
-0.00324967943067
0.000284793535799
-0.00329629342059
0.000237869083328
-0.00333357155731
0.000192293248504
-0.00336182287968
0.000148150919361
-0.00338136738969
0.000105512343034
-0.0033925342901
6.44358356832e-05
-0.00339566057094
2.49698868019e-05
-0.00339108984122
-1.28452852878e-05
-0.00337917129509
-4.89766504778e-05
-0.00336025873998
-8.33975181577e-05
-0.00333470962763
-0.000116087125189
-0.00330288408426
-0.000147030304322
-0.00326514390157
-0.000176217261162
-0.00322185153222
-0.000203643419116
-0.00317336906036
-0.000229309253357
-0.00312005720614
-0.000253220122219
-0.00306227434035
-0.000275386042304
-0.00300037556948
-0.000295821438865
-0.00293471186407
-0.000314544834568
-0.00286562928435
-0.000331578522457
-0.00279346826895
-0.000346948194828
-0.0027185630314
-0.000360682579314
-0.00264124102398
-0.000372813055599
-0.00256182250461
-0.000383373302934
-0.00248062016337
-0.000392398949866
-0.0023979388374
-0.000399927271823
-0.00231407527153
-0.000405996905678
-0.0022293179475
-0.000410647621907
-0.00214394694347
-0.000413920123395
-0.00205823384038
-0.000415855907408
-0.00197244164255
-0.000416497162948
-0.00188682472109
-0.000415886736972
-0.00180162875393
-0.000414068148022
-0.00171709065926
-0.000411085677514
-0.00163343850161
-0.000406984525852
-0.00155089135236
-0.000401811058086
-0.00146965908804
-0.000395613134495
-0.00138994208903
-0.000388440540163
-0.00131193082746
-0.000380345512153
-0.00123580528647
-0.000371383356667
-0.0011617342118
-0.000361613147397
-0.00108987412392
-0.000351098457325
-0.00102036812381
-0.000339908091241
-0.00095334442739
-0.000328116710343
-0.000888914732379
-0.000315805278043
-0.00082717239796
-0.000303061153585
-0.000768190657583
-0.000289977738339
-0.000712020929678
-0.000276653488377
-0.000658691570293
-0.000263190258128
-0.000608207190255
-0.000249690912733
-0.000560548890321
-0.000236256389722
-0.000515675430611
-0.000222982427696
-0.000473525447115
-0.000209956426005
-0.000434020410614
-0.000197254852119
-0.000397068069818
-0.000184941637499
-0.000362565848391
-0.00017306768766
-0.000330403900817
-0.000161671415338
-0.000300467519165
-0.000150779882818
-0.000272638894635
-0.000140410156225
-0.000246798185332
-0.000130570451304
-0.000222824027859
-0.000121260800555
-0.000200593480213
-0.000112472947225
-0.000179981480201
-0.000104189256251
-0.000160859659606
-9.63803359568e-05
-0.000143094358797
-8.90009809952e-05
-0.000126543503095
-8.19835758426e-05
-0.000111052218364
-7.52270059034e-05
-9.64481817734e-05
-6.85793729684e-05
-8.25238750487e-05
-6.18065118969e-05
-6.95135345687e-05
-5.57877643927e-05
-5.64068793667e-05
-5.75656866043e-05
-4.33750982989e-05
-6.20718445408e-05
-3.02396470641e-05
-6.79773302724e-05
-1.8725030668e-05
-7.14387341194e-05
-9.05908546297e-06
-7.3584561698e-05
-7.43653988421e-05
-0.000221209058313
0.00124915937769
-0.000454190732067
0.00131644714213
-0.000684499633603
0.00130304039124
-0.000910253434316
0.00127977607776
-0.00113006562496
0.00124928411755
-0.00134270409866
0.00121224081068
-0.0015470977014
0.0011693522763
-0.00174234487192
0.00112138032324
-0.00192771459242
0.00106911151454
-0.00210264043168
0.00101332764778
-0.00226670918957
0.000954781105352
-0.00241964583866
0.000894175970611
-0.00256129639901
0.000832155088351
-0.0026916101861
0.000769292689703
-0.00281062256524
0.000706091834467
-0.00291843903452
0.000642985710983
-0.00301522113758
0.000580341781943
-0.00310117445626
0.000518467806739
-0.00317653871271
0.000457618901552
-0.00324157987551
0.000398004944528
-0.00329658405378
0.000339797809265
-0.00334185292533
0.00028313805298
-0.00337770040891
0.000228140833135
-0.00340445031066
0.000174900925316
-0.00342243467765
0.000123496817407
-0.00343199264019
7.39939089917e-05
-0.00343346954256
2.64469033065e-05
-0.00342721620334
-1.90985067921e-05
-0.00341358828156
-6.26044509794e-05
-0.00339294552826
-0.000104040146439
-0.00336565100849
-0.000143381516235
-0.00333207023361
-0.000180610946555
-0.00329257021209
-0.000215717146179
-0.00324751844734
-0.000248695043294
-0.00319728189688
-0.000279545659219
-0.00314222593374
-0.000308275936516
-0.00308271332642
-0.000334898496589
-0.00301910327502
-0.000359431332777
-0.00295175051271
-0.000381897434987
-0.00288100449952
-0.000402324369077
-0.0028072087062
-0.000420743816925
-0.00273070000346
-0.000437191105915
-0.00265180814391
-0.00045170473411
-0.00257085534326
-0.000464325917401
-0.00248815594196
-0.000475098159861
-0.00240401614916
-0.000484066868008
-0.00231873384844
-0.000491279004487
-0.00223259846585
-0.000496782797178
-0.0021458908806
-0.000500627495958
-0.0020588833786
-0.000502863191316
-0.00197183963079
-0.000503540687247
-0.00188501469516
-0.000502711443765
-0.00179865502416
-0.000500427584723
-0.00171299847269
-0.000496741989412
-0.00162827428494
-0.000491708468411
-0.00154470304748
-0.000485382045219
-0.00146249657829
-0.000477819347632
-0.00138185772828
-0.000469079129234
-0.00130298005141
-0.000459222922609
-0.00122604730648
-0.000448315831364
-0.00115123273498
-0.000436427444533
-0.00107869807118
-0.000423632845452
-0.00100859223423
-0.000410013651545
-0.000941049679208
-0.000395658991745
-0.000876188411187
-0.000380666277535
-0.000814107717199
-0.000365141589115
-0.000754885757205
-0.000349199454128
-0.000698577217722
-0.000332961803
-0.000645211361743
-0.000316555913449
-0.000594790816911
-0.000300111284376
-0.000547291507921
-0.000283755557332
-0.000502663959271
-0.000267609866974
-0.000460836053107
-0.000251784258054
-0.00042171692807
-0.000236373935428
-0.000385201492268
-0.00022145706486
-0.000351174791686
-0.00020709440786
-0.000319515670692
-0.000193330582161
-0.000290099389509
-0.000180196229894
-0.000262799197956
-0.00016771043105
-0.000237486925463
-0.000155882818889
-0.000214032728795
-0.000144715102575
-0.000192304036366
-0.000134201750097
-0.000172163690328
-0.000124329716377
-0.000153466985979
-0.000115077153371
-0.000136056935861
-0.000106411142963
-0.000119756377397
-9.82842444428e-05
-0.000104354735267
-9.06287607219e-05
-8.95870272488e-05
-8.3347201578e-05
-7.51201008745e-05
-7.62735806265e-05
-6.08986316718e-05
-7.00093976376e-05
-4.77991021008e-05
-7.06654012845e-05
-3.5642937014e-05
-7.42282253933e-05
-2.53905970796e-05
-7.82299108724e-05
-1.58638492487e-05
-8.09657192941e-05
-7.64726020651e-06
-8.18013744079e-05
-8.20127773454e-05
-0.000228876937691
0.00147803637901
-0.000469806769388
0.00155737704079
-0.000707739473052
0.00154097316132
-0.000940632081085
0.00151266875324
-0.00116697612451
0.00147562822882
-0.00138544863105
0.00143071338586
-0.001594920687
0.00137882440168
-0.00179446534129
0.00132092504787
-0.00198335543411
0.00125800167879
-0.00216105287603
0.00119102516229
-0.0023271916524
0.00112091995567
-0.00248155692585
0.00104854131942
-0.00262406241744
0.00097466065695
-0.00275472787836
0.000899958229289
-0.00287365799882
0.000825022035524
-0.00298102363817
0.000750351432853
-0.00307704583781
0.000676364066328
-0.00316198274917
0.000603404805022
-0.00323611935799
0.000531755599791
-0.00329975973504
0.000461645413436
-0.00335322144781
0.000393259616662
-0.00339683174098
0.00032674844347
-0.00343092508812
0.000262234280604
-0.00345584175122
0.000199817691652
-0.00347192701717
0.000139582189847
-0.00347953083948
8.15978408993e-05
-0.00347900765795
2.59238348138e-05
-0.00347071619426
-2.73898541693e-05
-0.0034550192973
-7.83012280027e-05
-0.00343228344897
-0.000126775871411
-0.00340287819376
-0.000172786644313
-0.00336717537277
-0.000216313636858
-0.00332554820996
-0.000257344174381
-0.0032783702933
-0.000295872821653
-0.00322601448846
-0.000331901321691
-0.00316885183513
-0.000365438443622
-0.00310725046074
-0.000396499720537
-0.00304157455333
-0.000425107085696
-0.00297218341439
-0.000451288415016
-0.00289943061778
-0.000475077002498
-0.00282366327875
-0.000496510988155
-0.00274522144262
-0.00051563276972
-0.00266443758404
-0.00053248841553
-0.00258163621507
-0.000547127104456
-0.00249713358595
-0.000559600602068
-0.00241123747235
-0.000569962789729
-0.0023242470321
-0.000578269247761
-0.00223645272494
-0.000584576902263
-0.002148136281
-0.000588943732679
-0.00205957071294
-0.000591428546989
-0.00197102036015
-0.000592090822488
-0.0018827409604
-0.000590990620691
-0.00179497973758
-0.000588188579415
-0.00170797549804
-0.000583745995332
-0.00162195871957
-0.000577725007614
-0.00153715161761
-0.000570188902021
-0.00145376816063
-0.000561202553292
-0.00137201400445
-0.000550833027815
-0.00129208629657
-0.000539150366544
-0.00121417329815
-0.000526228559685
-0.00113845374981
-0.000512146717518
-0.00106509590645
-0.000496990408608
-0.000994256158755
-0.000480853117018
-0.000926077169875
-0.000463837697144
-0.000860685499284
-0.000446057669422
-0.000798188726217
-0.000427638089976
-0.000738672226629
-0.000408715697225
-0.000682195836728
-0.000389437954006
-0.000628790868721
-0.000369960669617
-0.000578457991772
-0.000350443978049
-0.000531166639354
-0.000331046760614
-0.00048685640155
-0.000311919992202
-0.000445440600185
-0.000293199982785
-0.000406811668567
-0.000275002829011
-0.00037084740345
-0.000257421325008
-0.000337416881352
-0.000240524958018
-0.000306385020791
-0.000224362496332
-0.000277615471719
-0.000208965855476
-0.000250971926361
-0.000194354068993
-0.000226318134887
-0.000180536716189
-0.000203516831496
-0.00016751651999
-0.000182427737464
-0.000155290964012
-0.000162904687265
-0.000143852888148
-0.000144791624974
-0.000133190337535
-0.000127916445987
-0.000123286441577
-0.000112080321768
-0.00011412048931
-9.70373756733e-05
-0.000105671831592
-8.24542894587e-05
-9.79304230271e-05
-6.78082065258e-05
-9.09198212429e-05
-5.29618643697e-05
-8.48559089319e-05
-4.03001875457e-05
-8.33272767431e-05
-2.97743015677e-05
-8.47543133227e-05
-2.12784589942e-05
-8.67259560867e-05
-1.3393124955e-05
-8.88512753364e-05
-6.30806007461e-06
-8.88866537465e-05
-8.83209331556e-05
-0.000238215204064
0.00171625164731
-0.000488818234562
0.00180798013659
-0.000736005195778
0.00178816018976
-0.000977527044416
0.00175419066918
-0.00121172171939
0.00170982297194
-0.00143715551846
0.00165614725365
-0.00165263329917
0.00159430225191
-0.00185720453974
0.00152549635885
-0.00205015623546
0.00145095344592
-0.0022309951911
0.00137186419053
-0.0023994230652
0.0012893479036
-0.00255530748611
0.00120442581561
-0.00269865214695
0.00111800539456
-0.00282956815469
0.00103087431552
-0.00294824820297
0.000943702164045
-0.00305494447035
0.000857047782472
-0.00314995058757
0.000771370267776
-0.00323358759971
0.00068704190368
-0.00330619357334
0.000604361662186
-0.00336811634287
0.000523568274286
-0.00341970882873
0.00044485219633
-0.00346132635927
0.000368366070626
-0.00349332546645
0.000294233487098
-0.00351606368286
0.000222556010423
-0.00352989993706
0.000153418549307
-0.00353519521553
8.68932278719e-05
-0.00353231324148
2.30419723356e-05
-0.00352162090513
-3.80820755405e-05
-0.00350348866477
-9.64333501806e-05
-0.00347829032385
-0.000151974090584
-0.00344640266727
-0.000204674175831
-0.00340820477084
-0.000254511404539
-0.00336407708631
-0.000301471726712
-0.00331440036274
-0.000345549409214
-0.00325955447154
-0.000386747073323
-0.00319991719687
-0.000425075574767
-0.00313586304891
-0.000460553721247
-0.00306776214511
-0.000493207838145
-0.00299597919619
-0.000523071208662
-0.00292087261846
-0.000550183420659
-0.00284279378509
-0.000574589657835
-0.00276208641664
-0.000596339969982
-0.00267908610516
-0.000615488554474
-0.00259411995903
-0.000632093073367
-0.00250750635459
-0.000646214024748
-0.0024195547783
-0.000657914179464
-0.00233056574537
-0.000667258089451
-0.00224083078161
-0.000674311669918
-0.00215063245826
-0.000679141855147
-0.00206024447137
-0.00068181632812
-0.00196993175931
-0.000682403323854
-0.00187995065346
-0.000680971510882
-0.00179054905576
-0.000677589956139
-0.00170196663815
-0.000672328186639
-0.00161443505104
-0.000665256362327
-0.00152817812946
-0.000656445585216
-0.00144341206717
-0.000645968369917
-0.00136034553089
-0.000633899311607
-0.0012791796532
-0.00062031598326
-0.0012001078467
-0.000605300098185
-0.00112331533014
-0.000588938957148
-0.00104897827273
-0.000571327183127
-0.00097726240144
-0.000552568698247
-0.000908320964437
-0.000532778841857
-0.000842291916955
-0.000512086424329
-0.000779294314426
-0.000490635406945
-0.000719423990854
-0.000468585747718
-0.000662748828424
-0.00044611286375
-0.000609304180605
-0.000423405091331
-0.000559089274943
-0.000400658689601
-0.000512065627133
-0.000378070251817
-0.000468158387141
-0.000355827114243
-0.000427261109936
-0.000334097184825
-0.000389243477291
-0.00031302042612
-0.000353960449223
-0.000292704357232
-0.000321260628029
-0.000273224816612
-0.000290992116235
-0.000254631074984
-0.000263005590253
-0.000236952470347
-0.000237155137034
-0.000220204628688
-0.000213297468397
-0.000204394502615
-0.000191289896392
-0.000189524218326
-0.00017098737259
-0.000175593617959
-0.000152238960455
-0.000162601432193
-0.000134883948728
-0.000150545480348
-0.000118747039212
-0.000139423480488
-0.000103630994356
-0.000129236664869
-8.93039720882e-05
-0.000119998988681
-7.54773795757e-05
-0.000111757162578
-6.1763417624e-05
-0.000104633947666
-4.76917939295e-05
-9.89277146445e-05
-3.5350562192e-05
-9.56686940462e-05
-2.56074157095e-05
-9.44976533997e-05
-1.770162733e-05
-9.46319547202e-05
-1.10242463713e-05
-9.55288492365e-05
-4.59447610783e-06
-9.53166092214e-05
-9.29155078775e-05
-0.000249441514452
0.0019656932257
-0.000511656277055
0.00207019496671
-0.000769915526223
0.00204641950569
-0.00102170900332
0.0020059842141
-0.00126518339073
0.00195329742748
-0.0014987722845
0.00188973621629
-0.00172120753137
0.00181673756836
-0.00193152159777
0.00173581049567
-0.00212903271707
0.00164846463665
-0.00231331692325
0.00155614846919
-0.00248417188403
0.00146020293813
-0.00264157716636
0.00136183117299
-0.00278565478437
0.00126208308915
-0.0029166328515
0.00116185246078
-0.00303481409508
0.00106188348757
-0.0031405500545
0.000962783823633
-0.00323422104933
0.000865041346419
-0.00331622150455
0.000769042444755
-0.00338694992654
0.000675090172377
-0.00344680270245
0.000583421140692
-0.00349617088378
0.000494220470744
-0.00353543917701
0.000407634459444
-0.00356498645157
0.000323780860079
-0.0035851871791
0.000242756839071
-0.00359641331512
0.000164644789474
-0.00359903623687
8.9516256629e-05
-0.00359342847362