/*--------------------------------*- C++ -*----------------------------------*\
| =========                 |                                                 |
| \\      /  F ield         | OpenFOAM: The Open Source CFD Toolbox           |
|  \\    /   O peration     | Version:  v1906                                 |
|   \\  /    A nd           | Web:      www.OpenFOAM.com                      |
|    \\/     M anipulation  |                                                 |
\*---------------------------------------------------------------------------*/
FoamFile
{
    version     2.0;
    format      ascii;
    class       volScalarField;
    location    "849";
    object      p;
}
// * * * * * * * * * * * * * * * * * * * * * * * * * * * * * * * * * * * * * //

dimensions      [0 2 -2 0 0 0 0];


internalField   nonuniform List<scalar> 
9216
(
273.649177257
273.72893897
273.893982688
274.145713086
274.482710191
274.903386852
275.405775429
275.987565522
276.646145458
277.378639393
278.181948133
279.052784851
279.987714634
280.983186298
282.03556812
283.141173614
284.296292096
285.497207595
286.740224148
288.021678086
289.337958765
290.685515099
292.06087281
293.460636266
294.881503368
296.320263694
297.773811944
299.23914317
300.713365461
302.193692825
303.677457591
305.162100793
306.645184468
308.1243813
309.597486384
311.062404485
312.517162113
313.959893512
315.388852595
316.802397605
318.199002973
319.577242847
320.935802877
322.273462829
323.589108319
324.881712732
326.150348928
327.394170704
328.612424494
329.804430607
330.969594916
332.107390109
333.217367361
334.299137787
335.352384067
336.376842272
337.372313396
338.33864569
339.275746005
340.183562745
341.062096931
341.911385822
342.731513587
343.522595642
344.284788804
345.018276361
345.723277594
346.400033596
347.04881606
347.669913852
348.263640997
348.830324022
349.370309091
349.883950149
350.371615182
350.833675201
351.270509641
351.682496221
352.070015519
352.433441752
352.773146572
353.089490826
353.382827614
353.65349509
353.901818855
354.12810585
354.332646186
354.515708262
354.677540284
354.818367084
354.938392541
355.037800716
355.116766362
355.175488237
355.214568756
355.231478589
273.569464089
273.649588189
273.814975876
274.067708376
274.406141336
274.828612897
275.333110606
275.917286943
276.578494046
277.313820934
278.12013322
278.994110877
279.932286696
280.931080444
281.98683284
283.095833795
284.254350494
285.458649002
286.705016385
287.989776073
289.309304802
290.660042706
292.038506237
293.441294131
294.86509744
296.306702424
297.762998624
299.230979475
300.707749084
302.190521083
303.676624439
305.163501193
306.648711612
308.129930005
309.604949578
311.071677619
312.528139548
313.972472958
315.402931225
316.817876628
318.215783527
319.595230676
320.954904035
322.293588426
323.610170054
324.903627678
326.173034925
327.417551155
328.636423652
329.828978345
330.99462196
332.132832757
333.2431627
334.325228334
335.378713026
336.40335808
337.398965055
338.365387203
339.302531831
340.210352106
341.08884943
341.938065601
342.758085143
343.54902782
344.311050831
345.044341656
345.749120042
346.425631149
347.07414726
347.694961205
348.288387751
348.854757292
349.394416893
349.907724257
350.395048419
350.856764014
351.293251648
351.704892495
352.092068384
352.455156775
352.794530605
353.110553702
353.403580434
353.673951617
353.921994031
354.14801687
354.352311196
354.535146978
354.696772538
354.837412152
354.957265168
355.056502816
355.135262563
355.193625249
355.231507639
355.248391876
273.403670725
273.484943191
273.651863757
273.906901325
274.248379584
274.674591869
275.183464414
275.772581933
276.43922498
277.180409963
277.992930269
278.873396358
279.818274901
280.823924749
281.8866307
283.00263305
284.168154667
285.379423585
286.632693527
287.924260177
289.250476135
290.607762062
291.992617369
293.401627522
294.831471692
296.278927339
297.740875786
299.214304884
300.696313171
302.184111129
303.675024285
305.166493411
306.656076803
308.141449332
309.620403988
311.090850162
312.550814405
313.998437824
315.431976191
316.849796559
318.250376774
319.632301429
320.994260858
322.33504655
323.653549747
324.948756456
326.219745774
327.465684638
328.685826003
329.879503479
331.046129465
332.185189804
333.296241968
334.378909839
335.432882012
336.45790678
337.4537906
338.420393316
339.3576268
340.265450436
341.143869897
341.992932879
342.812727971
343.603380595
344.365051911
345.097934908
345.802253286
346.478257648
347.126224296
347.746451496
348.339258146
348.904980087
349.443968633
349.956586931
350.443208356
350.904212937
351.339985645
351.750912927
352.137380922
352.49977215
352.838463709
353.153824171
353.446211809
353.715971759
353.963434327
354.188912459
354.39270017
354.575070332
354.736273199
354.876534345
354.996052842
355.094998311
355.173506529
355.231667785
355.26944415
355.287423187
273.148769359
273.231328913
273.400647094
273.659289379
274.005518217
274.437551255
274.953220833
275.550006762
276.225078269
276.975338206
277.797467405
278.687967833
279.643203706
280.659439327
281.732873564
282.859670193
284.035984634
285.257986605
286.521879628
287.823917008
289.16041545
290.527765873
291.922442697
293.341010988
294.780132786
296.236571785
297.707197718
299.188989398
300.679037786
302.17454787
303.67284076
305.171354548
306.667645626
308.159388806
309.644377709
311.120523988
312.585857006
314.038522261
315.476780329
316.899004546
318.303679296
319.689397046
321.054856076
322.398856997
323.720300042
325.018181211
326.291589261
327.539701616
328.761781205
329.957172265
331.125297155
332.265652191
333.37780453
334.461388141
335.516100844
336.54170049
337.538002204
338.504874801
339.442238261
340.350060381
341.228354447
342.07717611
342.896621204
343.686822788
344.447949052
345.180200455
345.88380766
346.559028709
347.20614692
347.825468055
348.417318145
348.982040626
349.519994069
350.031549292
350.517087002
350.976994898
351.411665268
351.82149211
352.206868732
352.568184952
352.905824742
353.220163558
353.511566096
353.780383805
354.02695279
354.251591558
354.454599102
354.636252878
354.796807033
354.93649049
355.055505056
355.154023275
355.232185936
355.290097766
355.327750383
355.345930427
272.803678883
272.887887418
273.060495303
273.324091759
273.676845822
274.116864345
274.64184759
275.249128777
275.935722147
276.698372845
277.533606086
278.437774363
279.407101564
280.437723033
281.525721231
282.667156698
283.858094567
285.094626748
286.372890378
287.6890828
289.039473804
290.420415356
291.828349541
293.259814818
294.711451221
296.18000446
297.662329453
299.155393093
300.656276712
302.162177924
303.670412279
305.178414183
306.683737899
308.184057983
309.677169223
311.160986114
312.633542169
314.092988602
315.537592858
316.965736545
318.375913277
319.76672595
321.136883993
322.485200123
323.810587145
325.112054329
326.38870391
327.639727234
328.864401109
330.062083869
331.232211713
332.374294817
333.487913774
334.572715868
335.628411699
336.654771688
337.651622952
338.618846066
339.556372203
340.464180153
341.342293702
342.19077887
343.009741473
343.799324518
344.559705874
345.29109575
345.993734392
346.667889579
347.313854284
347.931944127
348.522494958
349.085860235
349.622408527
350.132520809
350.616587887
351.075007653
351.508182461
351.916516377
352.300412566
352.660270591
352.996483868
353.309437075
353.599503725
353.867043747
354.112401236
354.335902232
354.537852686
354.718536465
354.878213509
355.017118032
355.135456815
355.233407658
355.311118147
355.368703951
355.406170251
355.424343157
272.366616521
272.452916835
272.629760746
272.899744529
273.260908131
273.711207501
274.248166276
274.868923283
275.570288523
276.348800474
277.20078165
278.122391056
279.109672192
280.158595767
281.265096778
282.425105935
283.63457576
284.889501818
286.185939729
287.520018571
288.887951352
290.286043118
291.710697261
293.158420436
294.6258265
296.109639685
297.606697276
299.11395185
300.628473224
302.147450067
303.668191264
305.188126743
306.704808334
308.215910335
309.719229174
311.212682957
312.694310626
314.162270643
315.614839339
317.050408825
318.46748461
319.864682828
321.240727245
322.594445941
323.924767857
325.230719091
326.511419141
327.766076982
328.993987171
330.194525859
331.367146903
332.511377957
333.626816716
334.7131272
335.770036232
336.797329981
337.794850735
338.762493747
339.700204306
340.607974878
341.48584245
342.333885913
343.152223611
343.941010893
344.700437773
345.430726561
346.13212955
346.804926636
347.449422957
348.065946438
348.654845332
349.216485659
349.751248636
350.259528011
350.741727396
351.198257524
351.629533531
352.035972187
352.41798918
352.775996392
353.110399241
353.421594066
353.7099656
353.975884519
354.219705096
354.441762967
354.642373015
354.821827377
354.98039358
355.118312817
355.235798385
355.333034485
355.410175353
355.467343944
355.504551871
355.522627443
271.835304946
271.924196231
272.106304825
272.384227249
272.755834516
273.218885305
273.770674439
274.408090743
275.127683419
275.925728943
276.798294846
277.741298713
278.750560936
279.821850441
280.950923221
282.133553912
283.365561033
284.642826635
285.961311279
287.317065173
288.706236334
290.125076487
291.569945355
293.037313812
294.523766337
296.026003005
297.540841233
299.065217352
300.596188073
302.130931797
303.666749736
305.201066667
306.73143175
308.255519086
309.771127246
311.276178828
312.768719512
314.246916687
315.709057655
317.153547432
318.578906182
319.983766292
321.366869159
322.727061704
324.063292681
325.374608789
326.660150686
327.919148892
329.150919671
330.354860895
331.530447963
332.677229774
333.794824822
334.882917404
335.941253989
336.969639751
337.967935276
338.936053447
339.873956506
340.781653277
341.659196545
342.506680549
343.324238592
344.112040722
344.870291457
345.599227538
346.299115672
346.970250249
347.61295101
348.227560657
348.814442391
349.373977374
349.906562123
350.412605833
350.892527644
351.34675386
351.775715146
352.179843701
352.559570448
352.915322239
353.247519108
353.556571576
353.842878045
354.10682227
354.348770947
354.569071412
354.768049477
354.946007401
355.103222016
355.239943031
355.356391536
355.452758851
355.529205753
355.58586094
355.622740047
355.640665184
271.206921418
271.298961399
271.487470447
271.775037925
272.159318516
272.637818213
273.207540635
273.865058781
274.606595011
275.428100311
276.325328417
277.293902808
278.329374987
279.42727345
280.583143419
281.792578021
283.051241895
284.354888417
285.699371754
287.080654931
288.494814942
289.938045817
291.406660373
292.897091223
294.405891451
295.929735234
297.465418557
299.009860077
300.560102115
302.113311711
303.666781444
305.2179304
306.764304894
308.303578898
309.83355368
311.352157287
312.857443535
314.347590538
315.820898783
317.275788764
318.710798223
320.124579012
321.515893651
322.883611592
324.226705273
325.54424599
326.835399647
328.099422421
329.335656411
330.543525289
331.722530013
332.872244632
333.992312223
335.082440982
336.142400502
337.17201824
338.171176203
339.139807835
340.077895119
340.985465859
341.862591146
342.709382958
343.525991893
344.312604962
345.06944345
345.79676078
346.494840366
347.163993416
347.804556674
348.416890073
349.0013743
349.558408258
350.088406443
350.591796219
351.069015033
351.520507557
351.946722804
352.348111208
352.725121715
353.078198891
353.407780068
353.714292562
353.998150959
354.259754505
354.499484609
354.717702474
354.914746861
355.09093202
355.246545784
355.381847849
355.497068271
355.592406338
355.668029616
355.724072111
355.760553532
355.778288207
270.478035463
270.57385217
270.770034468
271.069152532
271.468586359
271.965521069
272.556593034
273.237980156
274.005499722
274.854703457
275.780964517
276.779554011
277.845705492
278.974667067
280.161741753
281.402317265
282.691886859
284.026062906
285.400584895
286.811323361
288.254281064
289.725592476
291.221522436
292.738464575
294.272939955
295.821596148
297.381206877
298.948672171
300.521018963
302.095401972
303.669104347
305.239538887
306.804248831
308.360908192
309.907321509
311.441423301
312.961277007
314.465073407
315.951128538
317.417881143
318.863889675
320.287828906
321.688486198
323.064757482
324.415643008
325.74024291
327.037752659
328.307458447
329.548732543
330.761028699
331.94387762
333.096882564
334.219715092
335.312111025
336.373866598
337.404834874
338.404922386
339.374086049
340.312330297
341.21970446
342.096300332
342.942249919
343.757723307
344.542926628
345.29810007
346.023515893
346.719476414
347.386311922
348.024378507
348.63405577
349.215744416
349.769863717
350.296848855
350.797148153
351.271220207
351.719530945
352.142550635
352.54075085
352.914601446
353.264567545
353.591106565
353.894665312
354.175677166
354.434559358
354.671710378
354.887507515
355.082304555
355.256429639
355.410183302
355.543836724
355.657630177
355.751771782
355.826436513
355.881764169
355.917779087
355.935287389
269.644533195
269.744842995
269.950145865
270.262973765
270.680358193
271.199077811
271.815307365
272.52473281
273.322672497
274.204192341
275.164208591
276.197575466
277.299156225
278.463877921
279.686771169
280.962997041
282.287863443
283.656833413
285.065527544
286.509722486
287.985347103
289.488477546
291.015332169
292.562266962
294.125771881
295.702468293
297.289107538
298.88257049
300.479867891
302.078141237
303.674663411
305.266840261
306.852211702
308.428451907
309.993369265
311.544905857
313.081136338
314.60026624
316.100629719
317.580686762
319.039019922
320.474330619
321.885435077
323.271259952
324.630837727
325.96330192
327.267882186
328.54389935
329.790760454
331.007953841
332.195044362
333.35166872
334.477531011
335.572398504
336.636097676
337.668510539
338.669571255
339.639263062
340.577615482
341.4847018
342.360636785
343.205574597
344.019706861
344.803260824
345.55649757
346.279710215
346.973222067
347.637384672
348.272575754
348.879196989
349.457671633
350.00844198
350.531966665
351.028717823
351.49917814
351.943837785
352.363191298
352.757734419
353.127960918
353.474359436
353.797410373
354.097582847
354.375331739
354.631094854
354.865290214
355.078313501
355.270535656
355.442300663
355.593923523
355.725688432
355.837847155
355.930617771
356.00418347
356.058690404
356.094168605
356.111415481
268.70152215
268.807153881
269.023247585
269.352267476
269.790801695
270.335113069
270.980795888
271.722924288
272.556203951
273.475112709
274.474022435
275.547299216
276.689380897
277.894833175
279.158386826
280.474959335
281.839664478
283.2478131
284.694908069
286.176635729
287.688855794
289.227591048
290.789017881
292.369458282
293.965373686
295.573360744
297.190148932
298.812599707
300.437706864
302.062597658
303.684533702
305.300913054
306.909271925
308.507284668
310.092764093
311.663660973
313.218062888
314.754192395
316.270404555
317.765183872
319.237140694
320.685007149
322.107632686
323.503979293
324.873116462
326.214215995
327.526546675
328.809468918
330.062429432
331.284955951
332.476652111
333.637192509
334.766317993
335.86383124
336.929592639
337.96351653
338.965567785
339.93575876
340.874146589
341.780830806
342.655951243
343.499686168
344.312250585
345.093894662
345.844902179
346.565588971
347.256301282
347.917413991
348.549328672
349.152471453
349.72729068
350.274254356
350.793847399
351.286568715
351.752928118
352.193443137
352.60863574
352.999028995
353.365143738
353.707495233
354.026589902
354.322922115
354.596971089
354.849197906
355.080042677
355.289921862
355.479225776
355.648316269
355.797524624
355.92714966
356.03745605
356.128672915
356.200992649
356.254568709
356.289437586
356.306387229
267.643209866
267.755137067
267.98397772
268.332084058
268.795476684
269.369760844
270.049798761
270.829902818
271.704027108
272.66594005
273.709369001
274.828114006
276.016130752
277.267585593
278.576887012
279.938698614
281.347938597
282.799770175
284.289586613
285.812993787
287.365792356
288.943961103
290.54364239
292.161130385
293.792862276
295.435412483
297.08548956
298.739935333
300.39572565
302.049972155
303.699923814
305.342969753
306.976641834
308.598614461
310.206705368
311.798875201
313.373226306
314.928000741
316.461577537
317.972469312
319.45931827
320.920891702
322.356077054
323.763876665
325.143402241
326.493869163
327.814590699
329.104972182
330.364505237
331.592762106
332.789390144
333.954106536
335.086693304
336.186992633
337.254902596
338.290373268
339.293403284
340.264036827
341.202361036
342.108503799
342.982631893
343.824949392
344.635696286
345.415147211
346.163610223
346.881425525
347.568964082
348.226626049
348.854838987
349.454055822
350.024752532
350.567425574
351.082589069
351.570771755
352.032513764
352.468363254
352.878872936
353.26459655
353.626085307
353.963884373
354.278529384
354.570543061
354.840431931
355.088683184
355.31576169
355.522107188
355.708131667
355.874216953
356.02071251
356.147933455
356.256158797
356.345630021
356.416549748
356.469079474
356.50326325
356.519878609
266.462747979
266.582131679
266.82604484
267.196661509
267.689269952
268.298631508
269.018680709
269.842778945
270.763958108
271.775133091
272.869272817
274.039527588
275.279314886
276.582369089
277.942762298
279.354903771
280.81352492
282.313655658
283.850596666
285.419890858
287.017296333
288.638762298
290.280408863
291.938511184
293.609488097
295.289895014
296.976420604
298.665886465
300.355248921
302.04160188
303.722179613
305.394360801
307.055671853
308.703786851
310.33652888
311.951869681
313.547928371
315.122969234
316.675398674
318.203761406
319.706735986
321.183129787
322.631873513
324.052015363
325.442714936
326.803236979
328.132945046
329.431295154
330.697829506
331.932170347
333.134014018
334.303125282
335.439331986
336.542520108
337.612629271
338.649648733
339.653613907
340.624603403
341.562736576
342.468171548
343.341103642
344.181764148
344.990419317
345.767369503
346.512948325
347.227521755
347.91148705
348.565271437
349.18933051
349.784146294
350.350224969
350.88809426
351.398300518
351.881405529
352.3379831
352.768615476
353.173889632
353.554393509
353.910712223
354.243424297
354.553097969
354.840287579
355.105530102
355.349341813
355.572215145
355.774615727
355.956979639
356.11971088
356.263179065
356.387717371
356.493620699
356.58114413
356.650501627
356.701863789
356.735282942
356.751525106
265.152030311
265.280277298
265.542070082
265.939306367
266.466319661
267.116779438
267.883437423
268.758463445
269.733756939
270.80120861
271.952900958
273.181247449
274.479075995
275.839666505
277.25675372
278.724506301
280.23749153
281.790633073
283.379167087
284.998600291
286.644672142
288.313322424
290.000664855
291.702967051
293.416636734
295.138213844
296.864367709
298.591898168
300.317739324
302.038963757
303.75278828
305.456579136
307.147855271
308.824289857
310.483711664
312.124104824
313.743607425
315.340509029
316.91324721
318.460403242
319.980697052
321.472981564
322.936236563
324.369562187
325.772172176
327.143386966
328.48262673
329.789404433
331.063318989
332.304048575
333.511344181
334.685023476
335.824965065
336.931103204
338.003423064
339.041956567
340.046778868
341.018005459
341.955789904
342.860322143
343.731827307
344.570564915
345.376828374
346.150944612
346.893273737
347.60420858
348.284174013
348.933625947
349.553049943
350.142959399
350.7038933
351.236413545
351.741101896
352.218556584
352.669388663
353.094218153
353.49367005
353.868370274
354.218941594
354.545999587
354.850148683
355.131978314
355.392059215
355.630939895
355.849143298
356.047163693
356.225463771
356.384472001
356.524580224
356.646141495
356.749468173
356.834830379
356.902454539
356.95252112
356.985091828
357.00091994
263.701428904
263.840271689
264.12338635
264.552247512
265.11992941
265.818675395
266.639718652
267.573729855
268.611216773
269.742845306
270.959670965
272.253284665
273.615884703
275.040291251
276.519920567
278.04873439
279.621176999
281.23210894
282.876743364
284.550588377
286.249397138
287.969126373
289.705903542
291.456002628
293.21582837
294.981908336
296.750891732
298.519553246
300.284800042
302.043678479
303.793383499
305.531265529
307.254833815
308.961759612
310.649877603
312.317185705
313.961843461
315.58216916
317.176635849
318.74386639
320.28262772
321.791824439
323.270491901
324.717788923
326.132990272
327.515479023
328.864738895
330.18034664
331.46196455
332.709333167
333.922264248
335.100634098
336.244377343
337.353481252
338.427980686
339.467953761
340.473518263
341.444828848
342.382074996
343.285479685
344.155298663
344.991820228
345.795365326
346.566287834
347.304974831
348.011846708
348.687356968
349.331991602
349.946267952
350.530733035
351.085961301
351.612551867
352.11112527
352.582319827
353.026787674
353.445190575
353.838195591
354.206470679
354.550680287
354.871480995
355.169517264
355.445417308
355.699789148
355.933216848
356.146256987
356.339435351
356.513243899
356.668137969
356.804533777
356.922806166
357.023286638
357.106261677
357.171971371
357.220607163
357.25224085
357.267611628
262.099444665
262.2510541
262.55978119
263.026457257
263.64247331
264.398190753
265.282878671
266.285313883
267.39429381
268.599027102
269.88939373
271.256086443
272.69065563
274.185484142
275.73371764
277.329171963
278.9662334
280.639762362
282.34500632
284.077524604
285.833125571
287.607815819
289.397760864
291.199257037
293.008714311
294.822649501
296.637688298
298.450573776
300.258178397
302.057515113
303.845750528
305.620214624
307.378404111
309.117986955
310.836803917
312.532868299
314.204363962
315.849641892
317.46721553
319.055755055
320.614080795
322.141155924
323.636078624
325.098073895
326.526485154
327.920765766
329.280470598
330.60524766
331.89482991
333.149027259
334.367718887
335.550845936
336.698404718
337.810440541
338.887042291
339.928337851
340.93449045
341.905695958
342.84218113
343.744202723
344.612047376
345.446032087
346.24650511
347.013847029
347.748471819
348.450827656
349.121397319
349.760698015
350.369280553
350.947727798
351.496652421
352.016693977
352.508515406
352.972799047
353.410242281
353.821552933
354.207444512
354.568631403
354.905824072
355.219724351
355.51102084
355.780384483
356.028464331
356.25588354
356.463235608
356.651080887
356.819943376
356.970307801
357.102616993
357.217269556
357.314617813
357.394966157
357.458569511
357.505631085
357.536233908
357.551101639
260.332238728
260.499384926
260.839165503
261.351433165
262.025296324
262.848605578
263.808070694
264.89006752
266.081294275
267.369239536
268.742461338
270.190703546
271.704888245
273.277025936
274.900080902
276.567820572
278.274668375
280.01557116
281.785885908
283.581286156
285.397686486
287.231182832
289.078007052
290.934495205
292.797069715
294.662235163
296.526585928
298.386822152
300.239769367
302.082396256
303.9118327
305.725382228
307.520525369
309.29492517
311.046428732
312.773066674
314.473050585
316.144768792
317.78678082
319.397810731
320.976739522
322.522596745
324.034551584
325.511903593
326.954073295
328.360592782
329.731096412
331.065311646
332.363050072
333.624198648
334.84871125
336.036600628
337.187930922
338.302810885
339.381387983
340.423843519
341.430388864
342.401262882
343.33673051
344.237082445
345.102635772
345.933735358
346.730755727
347.494103169
348.224217774
348.921575144
349.586687519
350.220104169
350.822410908
351.394228691
351.936211305
352.449042226
352.933430751
353.390107563
353.819819874
354.223326293
354.60139157
354.954781295
355.284256658
355.590569319
355.874456441
356.136635918
356.377801835
356.598620185
356.799724875
356.981714023
357.145146588
357.290539301
357.41836394
357.529044916
357.622957169
357.700424396
357.761717608
357.807052928
357.836525347
357.850841418
258.382993465
258.569282148
258.947143601
259.514934634
260.258619145
261.162660639
262.21041062
263.385193884
264.671141507
266.053737089
267.520091792
269.058999107
270.660834491
272.317364513
274.021518537
275.767160421
277.54888239
279.361831065
281.201566984
283.063954032
284.945073165
286.841155352
288.748530609
290.663592773
292.582781394
294.502582013
296.419542756
298.330302165
300.231619698
302.120404595
303.993739716
305.84889427
307.683328587
309.494699149
311.280859903
313.039861291
314.769946795
316.469547602
318.137275946
319.771917355
321.372421834
322.937894204
324.467583873
325.960874329
327.417272584
328.836398755
330.217975845
331.561819737
332.86782939
334.135977235
335.366299859
336.558889071
337.713883578
338.831461441
339.911833575
340.955238444
341.961938155
342.932215993
343.86637543
344.764740514
345.627657456
346.455497165
347.2486584
348.007571176
348.732700054
349.424546961
350.083653244
350.710600726
351.306011627
351.870547284
352.404905717
352.909818151
353.386044642
353.834369039
354.255593473
354.650532582
355.020007622
355.364840617
355.685848593
355.983837999
356.259599318
356.513901927
356.747489214
356.961074005
357.155334304
357.330909375
357.488396187
357.628346215
357.751262599
357.857597657
357.947750716
358.02206639
358.080832993
358.12428036
358.152516628
358.166229537
256.231025336
256.441252872
256.866452283
257.502670197
258.331466622
259.332686515
260.485249084
261.768600395
263.163754632
264.653904161
266.224644297
267.863904504
269.561693031
271.30975276
273.101201757
274.930204418
276.79169564
278.681163252
280.594483332
282.527797646
284.477421443
286.439771934
288.411312447
290.388512639
292.367829479
294.345714052
296.318642071
298.283160369
300.235934134
302.1737925
304.093758194
305.993057799
307.869127631
309.719616204
311.542385304
313.335508546
315.097266558
316.826139993
318.52080155
320.180107003
321.803084983
323.388925746
324.936969399
326.446693883
327.91770311
329.349715439
330.742552529
332.096128491
333.410439238
334.685551975
335.921594877
337.118747104
338.277229413
339.397295647
340.47922542
341.523318266
342.529889481
343.499267789
344.431794851
345.327826538
346.187735726
347.011916302
347.800787936
348.554801163
349.274442257
349.960237472
350.612756235
351.23261302
351.820467717
352.377024453
352.90302893
353.399264434
353.866546776
354.305718432
354.717642191
355.103194564
355.463259159
355.798720162
356.110456017
356.399333329
356.666201039
356.911884869
357.137182089
357.342856603
357.529634424
357.698199514
357.849190055
357.983195098
358.100751639
358.20234206
358.288391949
358.359268273
358.415277919
358.456665596
358.48355333
358.496608218
253.85052667
254.091231308
254.576226402
255.297939243
256.231656019
257.350864208
258.628611045
260.039424456
261.560581324
263.172737939
264.860019402
266.609725505
268.411825621
270.258388607
272.143045417
274.06053596
276.006356833
277.976504397
279.967295633
281.975244725
283.996973999
286.029142922
288.068387183
290.111270578
292.154261269
294.193747164
296.22608776
298.247690402
300.255086049
302.244995265
304.214365287
306.16037453
308.080432502
309.972178849
311.833484771
313.662451687
315.457404153
317.216880263
318.939622183
320.624566131
322.270830501
323.877702709
325.444625495
326.971183087
328.457087814
329.902167445
331.306353168
332.669667981
333.992215251
335.274167246
336.51575366
337.71725033
338.878968505
340.001245062
341.08443412
342.128900411
343.135014757
344.10315183
345.033690267
345.927015038
346.783521784
347.603622702
348.387753414
349.136380192
349.850006882
350.529180932
351.174498022
351.786604912
352.366200327
352.914033813
353.43090268
353.917647278
354.375144955
354.804303109
355.206051728
355.581335786
355.931107729
356.256320223
356.557919204
356.83683726
357.093987324
357.330256703
357.546501431
357.74354103
357.922153654
358.083071713
358.226977928
358.354501873
358.466216954
358.562637806
358.644218091
358.71134876
358.764356488
358.803501631
358.828921315
358.841259984
251.208737325
251.489084554
252.051039425
252.881249584
253.945912751
255.2097055
256.637892433
258.198808603
259.86534115
261.615486494
263.432156686
265.302495799
267.216983529
269.168541166
271.151762464
273.162316771
275.196523637
277.251072341
279.322849198
281.408833651
283.506028056
285.611394702
287.721787678
289.83388624
291.944155002
294.048869591
296.144201664
298.226344105
300.291633805
302.336648104
304.358245869
306.353557115
308.319965037
310.255099813
312.156843924
314.023333174
315.852945183
317.644285035
319.396174614
321.10764237
322.777909485
324.406374143
325.992595442
327.536277234
329.037252941
330.49547182
331.910986245
333.283939583
334.614554124
335.903118629
337.149975514
338.355507936
339.520127321
340.644261891
341.728346818
342.772816523
343.77809958
344.744616523
345.672780664
346.563001837
347.41569269
348.23127701
349.010199296
349.75293477
350.459998936
351.131955898
351.769424778
352.373083756
352.94367151
353.481986002
353.988880796
354.465259254
354.912067121
355.330284085
355.720914883
356.084980418
356.423509216
356.737529356
357.028060884
357.296108665
357.542655601
357.768656198
357.975030511
358.162658493
358.332374841
358.484964328
358.621157695
358.741628056
358.84698782
358.93778609
359.01450648
359.077565336
359.127310356
359.164018672
359.187843237
359.199403687
248.263210191
248.596478251
249.259664914
250.229974419
251.460236019
252.902894291
254.512947062
256.251033165
258.085052591
259.990478865
261.949636021
263.950363427
265.984518969
268.046635648
270.132867674
272.240245829
274.366201988
276.508300252
278.664108313
280.831147119
283.006864818
285.188593417
287.373467042
289.558313742
291.739569815
293.913318119
296.075425319
298.221749446
300.348347409
302.451613617
304.52831474
306.575548207
308.590677159
310.571319718
312.515370078
314.42100845
316.286678707
318.111064062
319.893077023
321.631851898
323.326728107
324.977230581
326.583050749
328.144027182
329.66012821
331.131437394
332.558140532
333.940513522
335.278910026
336.573748059
337.825495552
339.034655336
340.201750344
341.327309875
342.411857756
343.455903128
344.459934494
345.424417455
346.349796351
347.236499703
348.084949032
348.895570323
349.668807149
350.405134302
351.10507078
351.769191037
352.398133645
352.992606781
353.553390245
354.081334021
354.577353611
355.042422671
355.477563656
355.883837331
356.26233198
356.614152945
356.940412889
357.242222893
357.52068427
357.776880943
358.011872203
358.226685808