/*--------------------------------*- C++ -*----------------------------------*\
| =========                 |                                                 |
| \\      /  F ield         | OpenFOAM: The Open Source CFD Toolbox           |
|  \\    /   O peration     | Version:  v1906                                 |
|   \\  /    A nd           | Web:      www.OpenFOAM.com                      |
|    \\/     M anipulation  |                                                 |
\*---------------------------------------------------------------------------*/
FoamFile
{
    version     2.0;
    format      ascii;
    class       volVectorField;
    location    "849";
    object      Ua;
}
// * * * * * * * * * * * * * * * * * * * * * * * * * * * * * * * * * * * * * //

dimensions      [0 1 -1 0 0 0 0];


internalField   nonuniform List<vector> 
9216
(
(-0.0103629597561 0.0103700180488 0)
(-0.0109360152038 0.0334677086194 3.91357212629e-27)
(-0.0109320710491 0.0569216357248 -7.07739325193e-31)
(-0.0108294703606 0.0803826669439 0)
(-0.0106833180083 0.10345377652 0)
(-0.0104976947305 0.12604066595 0)
(-0.010277251831 0.148041900542 0)
(-0.0100251641746 0.169365408448 0)
(-0.00974444275941 0.189928396609 0)
(-0.00943798178067 0.209657540084 0)
(-0.00910882528438 0.22848909437 0)
(-0.00875990375489 0.246369058898 0)
(-0.00839425611415 0.263253060692 0)
(-0.00801470700712 0.279106202532 0)
(-0.00762412801567 0.293902649023 0)
(-0.00722508870849 0.30762521117 0)
(-0.00682016820394 0.320264723693 0)
(-0.00641158618025 0.331819468671 0)
(-0.00600156388293 0.342294450417 0)
(-0.00559193590587 0.351700759806 0)
(-0.00518455625793 0.360054838855 0)
(-0.00478088848901 0.367377865106 0)
(-0.00438244972143 0.373695071683 0)
(-0.00399037585439 0.37903520099 0)
(-0.00360589633199 0.383429912847 0)
(-0.00322987141896 0.386913324852 0)
(-0.00286329157055 0.389521514736 0)
(-0.00250678690778 0.391292143923 0)
(-0.00216114889422 0.392264044964 0)
(-0.00182681825461 0.392476922239 0)
(-0.00150443582325 0.391970963552 0)
(-0.00119420202021 0.390786853405 0)
(-0.000896516419683 0.388964902161 0)
(-0.000611496161836 0.386545201303 0)
(-0.00033947818752 0.383567488785 0)
(-8.04225229654e-05 0.380070869913 0)
(0.000165487734946 0.376093648432 0)
(0.0003984296753 0.371673191254 0)
(0.000618339624112 0.366845784175 0)
(0.000825509857998 0.361646534424 0)
(0.00101997982155 0.356109266628 0)
(0.00120214006963 0.350266453084 0)
(0.0013721178489 0.344149145556 0)
(0.0015303846329 0.337786930117 0)
(0.0016771386086 0.33120789125 0)
(0.00181291305745 0.324438588323 0)
(0.00193795898431 0.317504050376 0)
(0.00205285125358 0.310427772689 0)
(0.00215787426631 0.303231739442 0)
(0.00225362349186 0.295936437691 0)
(0.00234039762941 0.288560905713 0)
(0.00241879282135 0.28112276188 0)
(0.00248910427792 0.273638274326 0)
(0.00255191108537 0.266122400291 0)
(0.00260749057138 0.258588872771 0)
(0.00265639116542 0.251050245788 0)
(0.00269886214119 0.243517991668 0)
(0.00273541245312 0.236002546257 0)
(0.00276625856913 0.228513411219 0)
(0.00279186670215 0.221059194029 0)
(0.00281242073359 0.213647708966 0)
(0.00282834567638 0.206286006669 0)
(0.00283979770204 0.198980469518 0)
(0.00284716627793 0.191736827579 0)
(0.00285058770132 0.184560244601 0)
(0.00285042385273 0.177455318177 0)
(0.00284680071801 0.170426155259 0)
(0.00284006150771 0.163476356769 0)
(0.00283033121887 0.156609082368 0)
(0.00281794246474 0.149827020764 0)
(0.00280302727314 0.143132445693 0)
(0.00278591394291 0.136527174911 0)
(0.00276674698096 0.130012619592 0)
(0.00274585389903 0.123589735201 0)
(0.00272339432569 0.117259067686 0)
(0.00269969568187 0.111020700093 0)
(0.00267493226685 0.104874298331 0)
(0.00264942923473 0.0988190567968 0)
(0.00262337251077 0.0928537467678 0)
(0.00259708046826 0.0869766641448 0)
(0.00257074530601 0.0811856825714 0)
(0.0025446720788 0.0754782055737 0)
(0.002519052059 0.0698512266491 0)
(0.00249416843504 0.0643012882088 0)
(0.00247020151568 0.0588245512569 0)
(0.00244739926616 0.0534167657898 0)
(0.00242591111029 0.0480733591956 0)
(0.00240591378193 0.0427894383565 0)
(0.00238745031697 0.0375599431482 0)
(0.00237044686171 0.0323797988709 0)
(0.00235437990318 0.0272444135525 0)
(0.00233771840307 0.022150851056 0)
(0.00231609482372 0.0171013460407 0)
(0.00227034975749 0.0121322147045 0)
(0.00218451554552 0.00698581476525 0)
(0.00283299277406 0.00283291982627 0)
(-0.0335468696777 0.0110292778901 0)
(-0.0370833685986 0.0373701789514 0)
(-0.0369959196979 0.0636383810544 -4.10831590735e-27)
(-0.036493259986 0.0899386863903 0)
(-0.0357949642183 0.115767376005 0)
(-0.034927667483 0.141039563141 0)
(-0.0339063204134 0.165647465902 0)
(-0.0327451485526 0.189489719065 0)
(-0.0314590767454 0.212474159593 0)
(-0.030063421215 0.234518943458 0)
(-0.0285740061973 0.255552994651 0)
(-0.0270065235434 0.275516229181 0)
(-0.0253766438886 0.29435948251 0)
(-0.0236993433922 0.312044283046 0)
(-0.0219891345424 0.32854240725 0)
(-0.0202594196413 0.34383534625 0)
(-0.0185228634296 0.357913622208 0)
(-0.0167907823979 0.370776078687 0)
(-0.0150736521362 0.382429084683 0)
(-0.0133805228826 0.39288576702 0)
(-0.0117196407274 0.402165208756 0)
(-0.0100978693261 0.410291715117 0)
(-0.0085213961919 0.417294080155 0)
(-0.00699513696213 0.423204940656 0)
(-0.00552349826979 0.428060146297 0)
(-0.00410974487664 0.43189821885 0)
(-0.00275679782032 0.434759828426 0)
(-0.00146655557667 0.436687349123 0)
(-0.000240718087806 0.437724424964 0)
(0.000919934885308 0.437915597111 0)
(0.00201468652981 0.437305973852 0)
(0.00304370747969 0.43594069975 0)
(0.00400719529695 0.43386517371 0)
(0.00490606030803 0.431124527181 0)
(0.00574107834957 0.427763256271 0)
(0.00651375055311 0.423825123202 0)
(0.00722539166418 0.419352960643 0)
(0.00787797333555 0.414388523549 0)
(0.00847320702069 0.408972344462 0)
(0.00901340802973 0.403143618099 0)
(0.00950057053918 0.396940094979 0)
(0.00993724548509 0.390397999231 0)
(0.0103256107295 0.383551957915 0)
(0.0106683571578 0.376434948914 0)
(0.0109677574061 0.369078262949 0)
(0.0112265554054 0.361511479017 0)
(0.0114470379046 0.35376245692 0)
(0.0116319228028 0.345857338134 0)
(0.011783437757 0.337820566485 0)
(0.0119042035798 0.329674912035 0)
(0.0119963249332 0.321441517103 0)
(0.0120622651297 0.313139939875 0)
(0.0121039536563 0.304788221594 0)
(0.0121236493452 0.296402945294 0)
(0.0121230696435 0.287999318884 0)
(0.012104238734 0.279591243256 0)
(0.012068642632 0.271191404726 0)
(0.0120180589832 0.262811345952 0)
(0.0119537417005 0.254461561 0)
(0.0118772284909 0.246151562568 0)
(0.0117895576528 0.237889973108 0)
(0.0116920494346 0.229684582602 0)
(0.0115855572025 0.221542430559 0)
(0.0114712182738 0.213469850167 0)
(0.0113497408341 0.205472537539 0)
(0.011222120279 0.197555579917 0)
(0.0110889631932 0.189723510773 0)
(0.0109511652616 0.181980321869 0)
(0.0108092732479 0.174329504577 0)
(0.0106641213181 0.166774047332 0)
(0.0105162322127 0.159316465356 0)
(0.0103664092082 0.151958786502 0)
(0.0102151775798 0.144702572467 0)
(0.0100633303275 0.137548896749 0)
(0.00991141133459 0.130498361137 0)
(0.00976021339516 0.123551069804 0)
(0.00961030438072 0.116706644698 0)
(0.00946247680884 0.109964199465 0)
(0.00931731846332 0.103322357122 0)
(0.00917561292051 0.0967792270103 0)
(0.00903795581169 0.0903324273704 0)
(0.0089051059558 0.0839790677317 0)
(0.00877764816101 0.0777157785053 0)
(0.00865629396222 0.0715387007418 0)
(0.00854159042427 0.0654435243332 0)
(0.00843416689319 0.0594254867498 0)
(0.00833448329825 0.0534794211582 0)
(0.00824300606819 0.0475997634089 0)
(0.00815995807488 0.0417805988761 0)
(0.00808533342646 0.0360156300429 0)
(0.00801842701874 0.0302980440745 0)
(0.00795716704535 0.0246198582971 0)
(0.00789587935337 0.0189692657162 0)
(0.00781787388024 0.0133208145103 0)
(0.00762613436337 0.0076098099039 0)
(0.00698091328209 0.00217891154948 0)
(-0.0574321689953 0.0111764860793 0)
(-0.0635819401979 0.037986861895 0)
(-0.063363375363 0.0645870926504 -4.11206010277e-27)
(-0.0624918391249 0.0912706786645 0)
(-0.0613097481854 0.117471427668 0)
(-0.0598511275758 0.143099079339 0)
(-0.058136728836 0.168042010685 0)
(-0.0561889395969 0.192196552127 0)
(-0.0540320713722 0.215468849112 0)
(-0.0516916314201 0.237775861806 0)
(-0.0491938664694 0.259045804635 0)
(-0.0465650651899 0.279218332117 0)
(-0.0438312164746 0.298244446616 0)
(-0.0410174056512 0.316086205371 0)
(-0.0381476318243 0.332716234249 0)
(-0.0352443313131 0.348117117029 0)
(-0.032328369533 0.36228066587 0)
(-0.0294186939952 0.3752071375 0)
(-0.0265324882668 0.386904398135 0)
(-0.0236849332085 0.397387094214 0)
(-0.0208894901781 0.406675825716 0)
(-0.0181577321668 0.414796368321 0)
(-0.015499710586 0.421778932246 0)
(-0.0129238109368 0.427657490879 0)
(-0.0104371571525 0.432469157742 0)
(-0.00804545355036 0.436253633848 0)
(-0.00575339444419 0.439052698715 0)
(-0.003564472662 0.440909760574 0)
(-0.00148138182573 0.44186943905 0)
(0.000494211389476 0.441977193626 0)
(0.0023612790213 0.441278991472 0)
(0.00411967592362 0.43982097476 0)
(0.00576968331259 0.437649186513 0)
(0.00731237107596 0.434809347099 0)
(0.00874917524411 0.431346593829 0)
(0.0100821648223 0.427305281961 0)
(0.0113136441909 0.42272879905 0)
(0.0124464561627 0.417659408827 0)
(0.0134835782829 0.41213811105 0)
(0.0144284362017 0.406204523968 0)
(0.0152845000254 0.399896781848 0)
(0.0160556066758 0.39325145189 0)
(0.0167455571555 0.386303465875 0)
(0.0173584448773 0.379086068344 0)
(0.0178982544461 0.371630779365 0)
(0.0183691933637 0.363967371545 0)
(0.0187752936233 0.356123862165 0)
(0.0191207449069 0.348126517319 0)
(0.0194095010692 0.339999871272 0)
(0.0196456139093 0.331766755434 0)
(0.0198328474133 0.323448342523 0)
(0.0199750117434 0.315064197284 0)
(0.0200755884229 0.306632341248 0)
(0.0201380645218 0.298169320393 0)
(0.0201655719025 0.289690285252 0)
(0.0201612212304 0.281209069543 0)
(0.0201277577065 0.272738278703 0)
(0.0200678939474 0.264289372401 0)
(0.0199839837157 0.255872754544 0)
(0.0198783517345 0.247497852729 0)
(0.019752985782 0.239173202729 0)
(0.019609860745 0.230906518637 0)
(0.0194506485641 0.222704766528 0)
(0.0192770331469 0.214574220855 0)
(0.0190904369664 0.206520523506 0)
(0.0188923233229 0.198548723948 0)
(0.0186839382263 0.190663322467 0)
(0.0184665966052 0.182868293908 0)
(0.0182414381954 0.175167115629 0)
(0.0180096948975 0.167562776484 0)
(0.0177724598782 0.160057792085 0)
(0.0175309339493 0.152654202229 0)
(0.0172862076055 0.145353576874 0)
(0.0170394851772 0.138157005924 0)
(0.0167918801532 0.131065100104 0)
(0.0165446165386 0.124077977296 0)
(0.0162988382298 0.117195262178 0)
(0.016055787648 0.110416072909 0)
(0.0158166302688 0.103739023117 0)
(0.0155826108946 0.0971622121463 0)
(0.0153548944578 0.0906832319994 0)
(0.0151347003818 0.0842991634066 0)
(0.0149231605271 0.0780065895706 0)
(0.0147214315187 0.0718015992915 0)
(0.0145305695699 0.0656798078317 0)
(0.0143516187799 0.0596363662437 0)
(0.0141854991984 0.0536659860569 0)
(0.014033063594 0.0477629454353 0)
(0.0138949871349 0.0419210943673 0)
(0.0137717791503 0.0361338010889 0)
(0.0136636786342 0.03039381021 0)
(0.0135707366004 0.024692838762 0)
(0.0134930396193 0.0190205124689 0)
(0.0134298121832 0.0133585292105 0)
(0.0133233093562 0.00776025242327 0)
(0.0121018115811 0.0022553631491 0)
(-0.0818758145424 0.0113062568465 0)
(-0.0907137148116 0.0385670817103 0)
(-0.0903929489741 0.0655138363443 4.11015066566e-27)
(-0.0891342268288 0.0925647864887 0)
(-0.0874297586329 0.119116760507 0)
(-0.0853296081784 0.145074476992 0)
(-0.0828635606007 0.170321983454 0)
(-0.080063888536 0.194752616047 0)
(-0.0769656984964 0.218270460786 0)
(-0.0736059542372 0.240791230426 0)
(-0.0700226035729 0.262242627214 0)
(-0.0662536933091 0.282564450356 0)
(-0.0623366801152 0.301708429658 0)
(-0.0583077387426 0.319637839012 0)
(-0.0542012984094 0.336326922134 0)
(-0.0500495718961 0.351760181667 0)
(-0.0458823282368 0.365931562143 0)
(-0.0417266376804 0.378843573988 0)
(-0.0376068597126 0.390506384623 0)
(-0.0335445693679 0.400936916839 0)
(-0.0295587121869 0.410157972439 0)
(-0.0256656527656 0.418197409979 0)
(-0.0218794286747 0.425087382429 0)
(-0.0182118506882 0.430863649442 0)
(-0.0146727868093 0.4355649574 0)
(-0.0112702546358 0.439232489939 0)
(-0.00801068882941 0.441909374439 0)
(-0.00489899624592 0.443640242234 0)
(-0.00193879265836 0.444470828127 0)
(0.000867579824343 0.444447608529 0)
(0.00351884180233 0.443617469875 0)
(0.00601479022316 0.442027435398 0)
(0.00835602719102 0.439724273328 0)
(0.0105440737334 0.436754383416 0)
(0.0125811383392 0.433163513187 0)
(0.0144701422179 0.428996558806 0)
(0.0162145292764 0.424297388145 0)
(0.0178183102845 0.419108685034 0)
(0.0192858780686 0.413471813409 0)
(0.020622061484 0.407426701679 0)
(0.0218319466301 0.401011744082 0)
(0.0229209390631 0.394263719426 0)
(0.0238945898817 0.387217725281 0)
(0.0247586635699 0.379907127644 0)
(0.0255189677242 0.372363525394 0)
(0.0261814246853 0.36461672902 0)
(0.0267519047586 0.356694753854 0)
(0.0272363008493 0.348623826514 0)
(0.0276403662537 0.340428405511 0)
(0.0279697929784 0.332131213753 0)
(0.0282300564104 0.323753284285 0)
(0.0284264987941 0.315314015837 0)
(0.0285641836464 0.306831239841 0)
(0.028647986341 0.298321294324 0)
(0.0286824610934 0.289799106555 0)
(0.0286719399779 0.281278278786 0)
(0.0286204143688 0.272771179381 0)
(0.0285316427571 0.264289032878 0)
(0.0284090472232 0.255842011856 0)
(0.0282558288267 0.247439323619 0)
(0.0280748781001 0.23908929544 0)
(0.0278688955494 0.230799451185 0)
(0.0276403139322 0.222576584052 0)
(0.0273914202658 0.214426818243 0)
(0.0271242867936 0.20635566541 0)
(0.0268408905996 0.198368068876 0)
(0.0265430500252 0.190468442488 0)
(0.0262325380308 0.182660697279 0)
(0.0259110211356 0.174948263705 0)
(0.0255801634567 0.167334102764 0)
(0.0252415660718 0.159820714499 0)
(0.0248968595361 0.152410137106 0)
(0.0245476425049 0.145103945675 0)
(0.0241955617075 0.137903243663 0)
(0.0238422496782 0.130808656366 0)
(0.0234893920438 0.123820319221 0)
(0.0231386649775 0.11693787029 0)
(0.0227917904815 0.110160439446 0)
(0.0224504747403 0.103486643556 0)
(0.0221164524385 0.096914579805 0)
(0.0217914273869 0.0904418262841 0)
(0.0214771070822 0.0840654416269 0)
(0.0211751468777 0.0777819725694 0)
(0.020887175628 0.0715874607035 0)
(0.0206147441214 0.0654774567423 0)
(0.020359342006 0.0594470326631 0)
(0.020122350609 0.0534907985234 0)
(0.0199050518026 0.0476029113862 0)
(0.0197085896929 0.0417770777721 0)
(0.0195339890412 0.0360065287055 0)
(0.0193821794149 0.0302839712311 0)
(0.0192541612887 0.0246014645486 0)
(0.0191511795894 0.018950275416 0)
(0.0190711440004 0.013315915236 0)
(0.0189225721656 0.00777487257657 0)
(0.0170131164405 0.00228659368566 0)
(-0.106720141455 0.0114731478771 0)
(-0.118253794057 0.039328001475 0)
(-0.117824463952 0.0667541477931 0)
(-0.116163218855 0.0942977396303 0)
(-0.113914642456 0.121318050235 0)
(-0.111146027686 0.14771429048 0)
(-0.107897513483 0.173365247526 0)
(-0.104212372075 0.198160298464 0)
(-0.100137518016 0.222000767364 0)
(-0.0957222613822 0.244800732944 0)
(-0.0910170827783 0.266487294503 0)
(-0.0860724897189 0.287000569586 0)
(-0.0809380403342 0.306293408803 0)
(-0.0756614829214 0.324330877757 0)
(-0.070288088102 0.341089550107 0)
(-0.0648601010792 0.35655666049 0)
(-0.0594163891523 0.37072915886 0)
(-0.0539921941764 0.383612710921 0)
(-0.0486190645652 0.395220681188 0)
(-0.0433248594295 0.405573136215 0)
(-0.0381338986249 0.41469589512 0)
(-0.0330671360216 0.422619652271 0)
(-0.0281424322523 0.429379183989 0)
(-0.0233747960781 0.435012646694 0)
(-0.0187766816932 0.43956096142 0)
(-0.014358213235 0.443067277481 0)
(-0.0101274425704 0.445576500521 0)
(-0.00609051861847 0.447134873308 0)
(-0.00225189192806 0.447789595926 0)
(0.00138556487618 0.447588478685 0)
(0.00482038850599 0.446579619473 0)
(0.00805246019014 0.44481116034 0)
(0.0110827413816 0.442330834652 0)
(0.01391332379 0.439185957028 0)
(0.0165472290188 0.435423074401 0)
(0.0189883417267 0.431087791737 0)
(0.0212412743251 0.426224600484 0)
(0.0233113088957 0.42087672741 0)
(0.0252042735317 0.41508600408 0)
(0.0269264964204 0.408892755422 0)
(0.02848469227 0.40233570533 0)
(0.0298859258945 0.395451898544 0)
(0.0311375059081 0.388276637771 0)
(0.0322469546092 0.380843435612 0)
(0.0332219064934 0.373183980962 0)
(0.0340700822972 0.365328119643 0)
(0.0347991913771 0.357303849388 0)
(0.0354169095479 0.349137328698 0)
(0.0359307862795 0.340852899727 0)
(0.0363482278151 0.332473124305 0)
(0.0366764117659 0.324018833103 0)
(0.0369222783329 0.315509186273 0)
(0.0370924558328 0.306961745165 0)
(0.0371932633047 0.298392552745 0)
(0.0372306503495 0.28981622199 0)
(0.0372102137102 0.28124602915 0)
(0.0371371536298 0.272694010961 0)
(0.0370163054161 0.26417106235 0)
(0.036852112593 0.255687033899 0)
(0.0366486723851 0.247250825479 0)
(0.0364097238649 0.238870475732 0)
(0.03613870436 0.230553244151 0)
(0.0358387490394 0.222305686142 0)
(0.0355127538182 0.214133718248 0)
(0.0351633817908 0.206042674711 0)
(0.0347931276213 0.198037353194 0)
(0.0344043260138 0.190122051667 0)
(0.0339992127768 0.182300594789 0)
(0.0335799310985 0.174576352448 0)
(0.0331485854026 0.166952249268 0)
(0.032707242321 0.159430768259 0)
(0.0322579747613 0.152013947603 0)
(0.0318028558697 0.144703374003 0)
(0.031343992189 0.137500171655 0)
(0.030883510264 0.130404990366 0)
(0.0304235790289 0.123417991687 0)
(0.0299663898227 0.116538836481 0)
(0.0295141691201 0.109766672567 0)
(0.0290691534707 0.103100125691 0)
(0.0286335942373 0.0965372920992 0)
(0.0282097293361 0.0900757356807 0)
(0.0277997818643 0.0837124876215 0)
(0.0274059305568 0.0774440512062 0)
(0.027030304101 0.07126640924 0)
(0.0266749521386 0.0651750361762 0)
(0.0263418372304 0.0591649118643 0)
(0.0260328091267 0.053230538169 0)
(0.0257495991218 0.0473659540385 0)
(0.0254938074936 0.0415647503205 0)
(0.0252669213608 0.0358200796313 0)
(0.0250703579358 0.030124678256 0)
(0.0249055702386 0.0244708928085 0)
(0.0247739122383 0.0188508108349 0)
(0.0246706437065 0.0132510323298 0)
(0.0244720978833 0.00775072632009 0)
(0.0219581576788 0.0022886832412 0)
(-0.132105308971 0.0116814945816 0)
(-0.146377219175 0.0402973175439 0)
(-0.145826816324 0.068342874748 0)
(-0.143739479344 0.0965189380212 0)
(-0.140915604584 0.124138578956 0)
(-0.137440860988 0.151094426139 0)
(-0.133367089624 0.177258886497 0)
(-0.128749930666 0.202516435026 0)
(-0.123649437175 0.226764989202 0)
(-0.118128498016 0.249916678154 0)
(-0.112251255573 0.271897995089 0)
(-0.106081660894 0.292649650686 0)
(-0.0996822215274 0.312126124099 0)
(-0.093112938551 0.330294968657 0)
(-0.0864304608473 0.347135925301 0)
(-0.0796874336524 0.362639896465 0)
(-0.0729320600497 0.376807828735 0)
(-0.0662078397806 0.389649552073 0)
(-0.0595534964896 0.401182618843 0)
(-0.0530030440836 0.411431183704 0)
(-0.0465859935448 0.420424957683 0)
(-0.0403276370697 0.428198262851 0)
(-0.0342494048852 0.434789201584 0)
(-0.0283692271735 0.440238944068 0)
(-0.0227019040319 0.444591125052 0)
(-0.0172594271755 0.447891333824 0)
(-0.0120512771217 0.450186675849 0)
(-0.00708465813945 0.451525386189 0)
(-0.00236471400706 0.451956477808 0)
(0.00210530382278 0.451529413903 0)
(0.00632386340083 0.4502937994 0)
(0.0102910626198 0.448299171179 0)
(0.0140083210848 0.445594462956 0)
(0.0174784268677 0.442228131622 0)
(0.020705308874 0.438247717326 0)
(0.0236939290416 0.433699707312 0)
(0.0264501481105 0.428629367125 0)
(0.0289806211636 0.423080596523 0)
(0.0312926796109 0.41709580577 0)
(0.0333942423852 0.410715810128 0)
(0.0352937115453 0.403979740697 0)
(0.0369998950887 0.396924970457 0)
(0.0385219116372 0.389587054721 0)
(0.0398691202992 0.381999685669 0)
(0.0410510306693 0.374194660914 0)
(0.042077236938 0.366201866142 0)
(0.042957331722 0.358049272097 0)
(0.0437008440902 0.349762945887 0)
(0.0443171583072 0.341367076831 0)
(0.0448154580048 0.332884016396 0)
(0.0452046532145 0.324334332008 0)
(0.0454933347332 0.315736873566 0)
(0.0456897141022 0.307108851805 0)
(0.045801592885 0.298465926534 0)
(0.0458363201243 0.289822303222 0)
(0.045800780283 0.281190835285 0)
(0.0457013710597 0.272583130156 0)
(0.0455440116047 0.264009656179 0)
(0.0453341410045 0.255479848344 0)
(0.0450767455447 0.247002210002 0)
(0.0447763753517 0.23858440899 0)
(0.044437186897 0.230233365724 0)
(0.0440629729992 0.221955332392 0)
(0.0436572148602 0.213755961508 0)
(0.043223119266 0.205640363805 0)
(0.0427636737114 0.197613154518 0)
(0.0422816844374 0.189678488889 0)
(0.0417798284887 0.181840086652 0)
(0.0412606870205 0.17410124704 0)
(0.040726789403 0.166464854628 0)
(0.0401806377845 0.158933378021 0)
(0.0396247400816 0.151508861982 0)
(0.0390616236392 0.144192915243 0)
(0.0384938558622 0.136986694645 0)
(0.0379240466178 0.12989088782 0)
(0.0373548568792 0.122905694931 0)
(0.0367889909426 0.11603081148 0)
(0.0362291946883 0.10926541244 0)
(0.0356782396431 0.102608139436 0)
(0.0351389131487 0.0960570908804 0)
(0.0346139967724 0.0896098164465 0)
(0.0341062509841 0.0832633154316 0)
(0.0336183905536 0.0770140399962 0)
(0.0331530663729 0.0708579024743 0)
(0.0327128405813 0.0647902872795 0)
(0.0323001685695 0.0588060663278 0)
(0.0319173776564 0.0528996182358 0)
(0.0315666547558 0.047064850427 0)
(0.0312500372486 0.0412952251508 0)
(0.0309694204117 0.0355837915235 0)
(0.0307265800452 0.0299232455482 0)
(0.03052319787 0.0243059911212 0)
(0.0303604773052 0.018724275574 0)
(0.0302313160391 0.0131646922333 0)
(0.0299821299861 0.0077045653801 0)
(0.0268870360218 0.00228079475218 0)
(-0.158165514882 0.0119364923821 0)
(-0.175236975222 0.041492952084 0)
(-0.174547988041 0.0703046576783 4.13366989863e-27)
(-0.172002947705 0.0992616936139 0)
(-0.168562815586 0.127619620863 0)
(-0.164333125939 0.15526292062 0)
(-0.159379028943 0.182056245258 0)
(-0.153770231615 0.207878177484 0)
(-0.147581607391 0.232622631984 0)
(-0.140891203805 0.256199577232 0)
(-0.133778259464 0.2785350365 0)
(-0.126321420047 0.29957074886 0)
(-0.118597200837 0.319263502885 0)
(-0.110678705618 0.337584213035 0)
(-0.102634611491 0.354516801739 0)
(-0.0945284095582 0.370056945273 0)
(-0.0864179003279 0.384210737689 0)
(-0.0783549241396 0.396993325105 0)
(-0.0703853158691 0.408427560682 0)
(-0.062549049716 0.418542727704 0)
(-0.0548805469287 0.427373371767 0)
(-0.0474090938698 0.434958272986 0)
(-0.0401593299031 0.441339574545 0)
(-0.0331517465761 0.446562067451 0)
(-0.0264031651968 0.450672615115 0)
(-0.0199271536045 0.453719689724 0)
(-0.0137343789877 0.455752987025 0)
(-0.00783288868567 0.456823088564 0)
(-0.00222834271744 0.456981148571 0)
(0.00307579618942 0.456278587639 0)
(0.00807807058271 0.454766810769 0)
(0.0127789439048 0.452497004622 0)
(0.0171804370637 0.44951955433 0)
(0.0212861654108 0.445884269493 0)
(0.025101093139 0.441639874573 0)
(0.0286313872236 0.436833906035 0)
(0.0318842676641 0.431512547841 0)
(0.0348678740622 0.425720496764 0)
(0.0375911366515 0.419500847559 0)
(0.0400636630216 0.412894995172 0)
(0.0422956265652 0.405942551961 0)
(0.044297667234 0.398681278679 0)
(0.046080790489 0.391147028634 0)
(0.0476562755657 0.383373704955 0)
(0.0490355796141 0.375393231217 0)
(0.0502302496787 0.367235535932 0)
(0.0512518299697 0.358928551433 0)
(0.0521117772256 0.350498227662 0)
(0.0528213725384 0.341968561186 0)
(0.0533916431038 0.333361639529 0)
(0.0538332830532 0.324697700511 0)
(0.0541565871369 0.31599520585 0)
(0.0543713868332 0.307270927779 0)
(0.0544870023857 0.298540046942 0)
(0.054512200275 0.289816259435 0)
(0.0544551688058 0.28111189044 0)
(0.0543235008569 0.272438011679 0)
(0.0541241952624 0.263804559804 0)
(0.0538636652784 0.255220452875 0)
(0.0535477642916 0.246693702163 0)
(0.0531818167496 0.238231516844 0)
(0.0527706632942 0.229840399448 0)
(0.0523187079096 0.221526230432 0)
(0.0518299751895 0.213294340606 0)
(0.0513081657718 0.205149570769 0)
(0.0507567175051 0.197096318272 0)
(0.0501788610238 0.189138570825 0)
(0.0495776770693 0.181279928154 0)
(0.0489561451881 0.173523612583 0)
(0.0483171911155 0.165872469798 0)
(0.0476637236193 0.15832896139 0)
(0.0469986681592 0.150895150735 0)
(0.0463249893338 0.143572683988 0)
(0.0456457094541 0.136362767806 0)
(0.0449639163368 0.129266145479 0)
(0.0442827674991 0.122283072884 0)
(0.043605484831 0.115413295671 0)
(0.0429353465928 0.108656028764 0)
(0.0422756716461 0.102009939238 0)
(0.0416298022693 0.0954731332465 0)
(0.0410010811864 0.089043147672 0)
(0.0403928285482 0.0827169467754 0)
(0.0398083151438 0.0764909241397 0)
(0.0392507369331 0.0703609098247 0)
(0.0387231878732 0.0643221826746 0)
(0.0382286355941 0.0583694876205 0)
(0.0377698978337 0.0524970579613 0)
(0.0373496239778 0.0466986426327 0)
(0.03697028094 0.040967540865 0)
(0.0366341470644 0.0352966452475 0)
(0.0363433110237 0.0296785068748 0)
(0.0360996451799 0.0241053996665 0)
(0.0359042635099 0.0185694125878 0)
(0.0357481688965 0.0130567897049 0)
(0.0354491689841 0.00764202397265 0)
(0.0317837532237 0.00226727043138 0)
(-0.185047198603 0.0122423837383 0)
(-0.204995030315 0.0429348180079 0)
(-0.204145274822 0.0726698473816 -4.13146905565e-27)
(-0.201102327443 0.10256707565 0)
(-0.196994037119 0.131811655923 0)
(-0.191947900802 0.160278020606 0)
(-0.186044469529 0.187821495119 0)
(-0.179369682022 0.21431373472 0)
(-0.172015352376 0.239644122381 0)
(-0.164076664275 0.263720395378 0)
(-0.155649727545 0.286468430416 0)
(-0.14682941714 0.307831643843 0)
(-0.137707536268 0.327770040828 0)
(-0.128371309672 0.346258999968 0)
(-0.118902204669 0.363287865637 0)
(-0.109375068534 0.378858411472 0)
(-0.0998575736885 0.392983233061 0)
(-0.0904099548235 0.405684127313 0)
(-0.0810850211273 0.416990516402 0)
(-0.0719284109436 0.426937973841 0)
(-0.0629790477293 0.435566904559 0)
(-0.0542697362418 0.442921418782 0)
(-0.0458278336873 0.449048419732 0)
(-0.037675922995 0.453996901125 0)
(-0.029832431324 0.457817426172 0)
(-0.0223121506445 0.460561742249 0)
(-0.0151266496272 0.462282478495 0)
(-0.00828458359272 0.463032879551 0)
(-0.00179193225113 0.462866544431 0)
(0.00434780947685 0.461837135824 0)
(0.0101334530471 0.459998190815 0)
(0.0155659357247 0.457402675571 0)
(0.0206480881978 0.454102787002 0)
(0.0253845062682 0.450149854214 0)
(0.0297813429072 0.445593975188 0)
(0.0338461182478 0.440483892635 0)
(0.0375875465952 0.43486684395 0)
(0.0410153796187 0.428788438302 0)
(0.044140261636 0.422292553124 0)
(0.0469735991832 0.41542124605 0)
(0.0495274382277 0.408214679791 0)
(0.0518143503424 0.400711058699 0)
(0.0538473214148 0.392946576728 0)
(0.0556396451074 0.384955377169 0)
(0.0572048157891 0.376769524928 0)
(0.0585564243236 0.368418992307 0)
(0.0597080526023 0.359931659375 0)
(0.060673171295 0.351333329828 0)
(0.0614650378489 0.342647763228 0)
(0.0620966001856 0.333896723954 0)
(0.0625804040635 0.325100046935 0)
(0.0629285101205 0.316275719454 0)
(0.0631524189767 0.307439977848 0)
(0.0632630102799 0.298607417116 0)
(0.0632704937463 0.289791111032 0)
(0.0631843772233 0.281002739714 0)
(0.0630134489348 0.272252721474 0)
(0.0627657776459 0.263550345413 0)
(0.0624487267754 0.254903901478 0)
(0.0620689848365 0.246320804625 0)
(0.0616326072461 0.237807710357 0)
(0.0611450707826 0.229370619025 0)
(0.0606113351131 0.221014967149 0)
(0.0600359119924 0.212745704243 0)
(0.0594229364366 0.204567354605 0)
(0.0587762402795 0.196484063735 0)
(0.0580994227657 0.188499629991 0)
(0.0573959188048 0.180617522191 0)
(0.0566690602832 0.172840884686 0)
(0.0559221315589 0.165172531348 0)
(0.0551584154817 0.157614930538 0)
(0.0543812316582 0.150170182838 0)
(0.0535939642876 0.142839993778 0)
(0.0528000818144 0.135625643337 0)
(0.0520031465674 0.128527954241 0)
(0.0512068169675 0.121547260595 0)
(0.0504148411241 0.114683378495 0)
(0.0496310445233 0.10793557973 0)
(0.0488593110639 0.101302569778 0)
(0.048103560082 0.0947824707508 0)
(0.0473677189036 0.0883728100316 0)
(0.0466556933767 0.0820705148291 0)
(0.0459713361035 0.0758719129661 0)
(0.0453184145688 0.069772739809 0)
(0.0447005790486 0.0637681513164 0)
(0.0441213322515 0.0578527430732 0)
(0.0435840007745 0.052020575351 0)
(0.0430917100541 0.0462652046671 0)
(0.0426473627744 0.0405797222591 0)
(0.0422536213258 0.0349568008455 0)
(0.0419128898083 0.0293887639878 0)
(0.0416272582118 0.0238676316098 0)
(0.0413978594323 0.0183851674647 0)
(0.0412141036169 0.0129272234549 0)
(0.0408658808979 0.00756517141024 0)
(0.0366374760297 0.00224965126719 0)
(-0.212910769269 0.0126038191211 0)
(-0.235826852994 0.0446470377222 0)
(-0.234788541252 0.0754763372281 0)
(-0.231197517808 0.106486484601 0)
(-0.226356469861 0.136777644849 0)
(-0.220417689445 0.166212023122 0)
(-0.21347986626 0.194633880848 0)
(-0.20564793556 0.221906907868 0)
(-0.197033308152 0.2479155443 0)
(-0.187750741396 0.272565428937 0)
(-0.177915369227 0.295782869386 0)
(-0.167640131137 0.317513887866 0)
(-0.157033626544 0.337722902161 0)
(-0.146198384463 0.356391145639 0)
(-0.135229529521 0.373514906124 0)
(-0.124213826077 0.389103647832 0)
(-0.113229087673 0.403178075205 0)
(-0.102343940309 0.415768199392 0)
(-0.0916179235066 0.426911474693 0)
(-0.0811018979911 0.436651076853 0)
(-0.0708387080069 0.445034392749 0)
(-0.0608640213056 0.452111776613 0)
(-0.0512072519655 0.457935600914 0)
(-0.0418924648093 0.462559593393 0)
(-0.0329391746003 0.466038414159 0)
(-0.0243629838952 0.46842739863 0)
(-0.0161760465343 0.469782382975 0)
(-0.00838738173094 0.470159540493 0)
(-0.00100308885233 0.469615186344 0)
(0.00597348672411 0.468205506611 0)
(0.0125416175038 0.465986432904 0)
(0.0187029016925 0.463013012394 0)
(0.0244611478059 0.459339441595 0)
(0.0298221391026 0.45501879586 0)
(0.0347933994775 0.450102720209 0)
(0.0393839738756 0.444641311449 0)
(0.0436042283862 0.438682984167 0)
(0.0474656711196 0.432274364221 0)
(0.0509807921301 0.425460200307 0)
(0.0541629195429 0.418283288125 0)
(0.0570260869185 0.410784404215 0)
(0.0595849084188 0.403002248449 0)
(0.0618544578293 0.394973395485 0)
(0.0638501497202 0.386732256261 0)
(0.0655876205604 0.378311050954 0)
(0.0670826096728 0.369739795075 0)
(0.0683508392828 0.361046300327 0)
(0.0694078949422 0.352256191857 0)
(0.0702691069552 0.343392943229 0)
(0.0709494354378 0.334477930117 0)