/*--------------------------------*- C++ -*----------------------------------*\
| =========                 |                                                 |
| \\      /  F ield         | OpenFOAM: The Open Source CFD Toolbox           |
|  \\    /   O peration     | Version:  v1906                                 |
|   \\  /    A nd           | Web:      www.OpenFOAM.com                      |
|    \\/     M anipulation  |                                                 |
\*---------------------------------------------------------------------------*/
FoamFile
{
    version     2.0;
    format      ascii;
    class       surfaceScalarField;
    location    "538";
    object      phia;
}
// * * * * * * * * * * * * * * * * * * * * * * * * * * * * * * * * * * * * * //

dimensions      [0 3 -1 0 0 0 0];
oriented        oriented;


internalField   nonuniform List<scalar> 
18240
(
0.000846010849698
-0.000846094753359
0.0017338845203
-0.000887981985394
0.00261969425662
-0.000885889054933
0.00349825742152
-0.000878677097805
0.00436678874924
-0.000868602681468
0.00522265276817
-0.000855982602835
0.00606356951344
-0.000840980514082
0.00688722141735
-0.000823774251522
0.00769164902259
-0.000804483729656
0.0084748171461
-0.000783293268341
0.00923509454311
-0.000760325676247
0.0099707443283
-0.000735776833611
0.0106804700346
-0.000709766218848
0.0113628318812
-0.000682489970243
0.0120168518335
-0.000654052724729
0.0126413620503
-0.000624638658672
0.0132356637221
-0.000594326985297
0.0137988154533
-0.000563279788336
0.0143303408864
-0.000531543453966
0.014829465527
-0.000499251691832
0.0152958691646
-0.000466414773206
0.0157288798782
-0.000433136209709
0.0161282670222
-0.000399391657088
0.0164934008687
-0.000365257340251
0.0168240824262
-0.000330679948947
0.0171196763846
-0.000295715086856
0.017379973312
-0.00026028953236
0.0176043026761
-0.000224447867109
0.0177924234795
-0.000188108182238
0.0179436235578
-0.000151315762787
0.0180576336039
-0.000113992559153
0.0181337155029
-7.6194636011e-05
0.018171598339
-3.78610374443e-05
0.0181705641141
9.24542082358e-07
0.0181303972804
4.01926206664e-05
0.0180504684125
7.98223156056e-05
0.0179306946065
0.000119803083029
0.0177706232901
0.000159967982827
0.0175703971552
0.000200258646035
0.0173298386795
0.000240458462721
0.0170494138839
0.00028046014484
0.0167293183154
0.00031999909293
0.0163704345377
0.000358921891628
0.0159734224923
0.000396919542527
0.0155396687082
0.000433794612113
0.015070387541
0.00046919357419
0.0145675615255
0.000502870067954
0.0140330630333
0.000534417581231
0.0134695829805
0.000563528177391
0.0128797804556
0.000589731167352
0.0122671840326
0.000612649904686
0.0116353668442
0.000631758849296
0.0109887829977
0.000646643293655
0.0103319510499
0.000656789721212
0.00967016922127
0.000661846779289
0.0090086909794
0.000661454168299
0.00835327509276
0.000655484825481
0.00770936924225
0.000643899997654
0.00708249580795
0.000626943576232
0.00647749127268
0.000605012847734
0.00589877463223
0.000578782506965
0.00534972858244
0.000549060360329
0.00483298830375
0.000516795794873
0.0043501135317
0.000482885854523
0.00390201599625
0.000448139331631
0.00348883180007
0.000413184465628
0.00311031911529
0.000378540040957
0.00276567562024
0.000344629046411
0.00245383133429
0.000311859536728
0.00217321918738
0.000280584441255
0.00192209445371
0.000251133170001
0.00169832808022
0.000223731057047
0.0014997935797
0.000198541980707
0.00132416188067
0.000175595724119
0.00116929773155
0.000154875448034
0.00103300411729
0.000136262390323
0.000913379063071
0.00011964243787
0.000808517061103
0.000104837945083
0.000716835632566
9.17045701906e-05
0.000636770013723
8.00485757543e-05
0.000567087212629
6.97099822609e-05
0.000506622828566
6.04534865134e-05
0.000454679901286
5.19725916698e-05
0.000411258118395
4.34151975765e-05
0.000376196892878
3.50914080956e-05
0.000344228280379
3.19685275694e-05
0.000314163715865
3.00966097871e-05
0.000287679236749
2.64928289821e-05
0.000261116839814
2.65985061572e-05
0.000231912948609
2.92246199071e-05
0.000201797332819
3.0160234449e-05
0.000170749208295
3.10860166339e-05
0.000135471761019
3.53283390309e-05
9.35064449447e-05
4.20259132918e-05
4.53842426911e-05
4.81958401082e-05
4.54204375056e-05
0.000893244043979
-0.00173943139043
0.00184167753302
-0.00183652026075
0.00278488664489
-0.00182919273514
0.00371949838576
-0.00181339275926
0.00464304170886
-0.00179223800273
0.00555296226232
-0.00176600676639
0.00644683060346
-0.0017349378286
0.00732226648136
-0.00169931305886
0.00817711504686
-0.00165941762628
0.00900929608292
-0.00161557589257
0.00981699025154
-0.00156810109075
0.0105984507709
-0.00151733700403
0.0113522075811
-0.00146359981288
0.0120768465253
-0.00140722611725
0.0127712304596
-0.00134850877182
0.013434249263
-0.00128775179263
0.0140650567872
-0.00122520175342
0.0146627956352
-0.00116110973345
0.0152268494482
-0.00109565958206
0.0157565470986
-0.00102903692558
0.0162514303958
-0.000961355395733
0.0167109426337
-0.000892732304805
0.0171347119612
-0.000823213395697
0.0175222290529
-0.000752854438767
0.0178731461801
-0.000681644646922
0.0181869480691
-0.000609593079367
0.0184632661477
-0.000536650545414
0.0187015458645
-0.000462799812059
0.0189013751387
-0.000387975940911
0.0190621503099
-0.000312159362843
0.0191834193
-0.000235295864645
0.0192645498583
-0.000157389938421
0.0193050819766
-7.84235257871e-05
0.0193043987016
1.54663746155e-06
0.0192620905681
8.24740475038e-05
0.0191776302885
0.00016422485192
0.0190507444468
0.00024666567881
0.0188810909655
0.000329567050057
0.0186686343969
0.000412695191957
0.0184133242867
0.000495717410525
0.0181154696564
0.000578297862166
0.0177754164308
0.000660004448591
0.017393917768
0.000740406734401
0.0169718110934
0.000818981905611
0.0165103842074
0.000895211100841
0.0160110566692
0.000968481093134
0.0154757451604
0.00103817544329
0.014906557421
0.00110357111394
0.0143061600162
0.00116392537114
0.0136774901963
0.00121837502464
0.0130241182444
0.00126602975101
0.0123499680075
0.00130589406538
0.0116596423009
0.0013369868288
0.0109581192124
0.00135831077222
0.0102509857067
0.00136900883902
0.00954407006454
0.00136838179072
0.00884354310661
0.00135605077006
0.0081554890732
0.00133197955759
0.00748589016058
0.00129658915269
0.00684017523163
0.0012507621841
0.00622313016296
0.00119587549863
0.00563850466723
0.00113372022753
0.00508901455179
0.00106632724562
0.00457625838184
0.000995668975977
0.0041010028009
0.000923424269156
0.00366331061824
0.000850890382645
0.0032627997556
0.000779065053724
0.00289862082464
0.000708805991128
0.0025695557098
0.000640924662687
0.00227393787984
0.00057618761028
0.0020097933428
0.000515269111569
0.00177482327914
0.000458680128451
0.00156662400323
0.00040673079139
0.0013826960093
0.0003595034395
0.00122065883757
0.000316906040124
0.00107819976697
0.000278707047096
0.000953225678516
0.00024461678818
0.000843759855105
0.000214296737712
0.000748063026265
0.000187408315961
0.000664513798016
0.000163597243699
0.000591704025035
0.000142531856563
0.000528287992798
0.000123874460726
0.000472967849413
0.00010730847842
0.000423895626482
9.24961699143e-05
0.000379113964105
7.98903837597e-05
0.000339363107705
7.17326581331e-05
0.000306984430558
6.24966340504e-05
0.000279736138887
5.37598227062e-05
0.000254353905028
5.20069444601e-05
0.000228341730872
5.52659385972e-05
0.000199366672569
5.91728318087e-05
0.000168276234306
6.22167833965e-05
0.000134753665117
6.89013456342e-05
9.53326969179e-05
8.15078222644e-05
4.68599086541e-05
9.67352740239e-05
9.23136053163e-05
0.000901461238327
-0.00264098782684
0.00185558187948
-0.00279074067588
0.00280551052047
-0.00277922150059
0.0037469191878
-0.00275490219177
0.00467707835627
-0.00272249514465
0.00559337098062
-0.00268239916724
0.00649330244173
-0.00263496502051
0.00737449165943
-0.00258060030773
0.00823473220273
-0.00251975121185
0.0090719608511
-0.00245290016709
0.00988431455493
-0.00238054460093
0.0106700818795
-0.0023031970189
0.0114277582466
-0.00222136235508
0.0121559827405
-0.00213553993267
0.0128535921487
-0.00204620035564
0.0135195449179
-0.00195379017771
0.0141529747716
-0.00185870956242
0.0147531041062
-0.00176132070565
0.0153192985239
-0.00166192751627
0.0158509726988
-0.00156078857475
0.0163476479334
-0.00145809963906
0.0168088539126
-0.00135401147498
0.0172341914397
-0.00124861535615
0.0176232333569
-0.00114196523829
0.0179755943428
-0.00103406557946
0.0182908335119
-0.000924896861669
0.0185685322334
-0.000814404808382
0.0188082001223
-0.000702528169863
0.0190093614016
-0.000589188577628
0.0191714655628
-0.000474320009238
0.0192939824259
-0.000357860074247
0.0193763181039
-0.000239778317022
0.0194179192601
-0.000120068285651
0.0194181956545
1.22113470496e-06
0.0193766326565
0.000123997000089
0.0192927199238
0.000248091865364
0.0191660708622
0.000373277997792
0.0189963554535
0.000499239956583
0.0187834231849
0.000625593870692
0.0185272365911
0.000751864573683
0.0182279933438
0.000877510518253
0.0178860568293
0.00100190459714
0.0175020739216
0.00112436214607
0.0170769015189
0.00124412123544
0.0166117206891
0.00136036789671
0.0161079635175
0.00147220922997
0.0155674300202
0.00157868946281
0.0149922253682
0.0016787523223
0.0143848890019
0.00177124874329
0.0137483510761
0.00185489752686
0.0130860739848
0.00192830282194
0.0124020193755
0.00198994380737
0.0117007731056
0.00203823998845
0.0109874778124
0.00207161357686
0.0102678741781
0.00208863145328
0.00954813281346
0.00208814426534
0.00883475791321
0.00206945744444
0.00813431334258
0.00203245799336
0.0074532267357
0.00197771795448
0.0067974373372
0.00190659240223
0.00617211299357
0.0018212439483
0.00558125248843
0.00172461984094
0.00502750399948
0.00162011324242
0.00451222073085
0.00151098343577
0.0040357984186
0.00139987264981
0.00359803628066
0.00128866941523
0.00319838574133
0.00117872572842
0.00283595213529
0.00107123957665
0.00250944185406
0.000967429847971
0.00221710550081
0.000868511147178
0.0019567905832
0.000775569773714
0.00172601425231
0.000689437799913
0.00152213721322
0.000610591647815
0.00134249629299
0.000539127473511
0.00118455763316
0.000474833283371
0.00104595188414
0.000417302719193
0.000924523255429
0.000366041751396
0.00081829719344
0.000320520223946
0.000725508738096
0.000280199982353
0.000644560999775
0.000244548568897
0.000574033860736
0.0002130673834
0.000512613615614
0.000185303381859
0.000459049790261
0.000160885030926
0.000411941248376
0.000139616322278
0.000370246174073
0.000121600740642
0.00033327582862
0.000108719238124
0.000298321041794
9.74719107465e-05
0.000265126446374
8.69759344953e-05
0.000238064864336
7.90943109384e-05
0.000215826687826
7.75348363344e-05
0.000187183241815
8.78539413619e-05
0.00015283198682
9.66098734677e-05
0.00011709974701
0.00010468135078
7.80285678552e-05
0.000120634810286
3.97792106986e-05
0.000135043623486
0.000132121907354
0.000909909567348
-0.0035509938732
0.00187204454548
-0.00375298028834
0.00283007778975
-0.00373735598952
0.00377945937954
-0.00370438593297
0.00471733089157
-0.0036604668409
0.00564099549288
-0.00360616402815
0.00654789247783
-0.00354196037392
0.0074356046298
-0.00346841057551
0.00830188540991
-0.00338612782024
0.00914466026201
-0.00329577042001
0.00996204673652
-0.00319802379415
0.0107523451772
-0.0030935876298
0.0115140516591
-0.00298315796739
0.0122458386419
-0.00286741543373
0.012946561411
-0.00274700832664
0.0136152298664
-0.0026225431716
0.0142510096223
-0.00249457029744
0.0148531868071
-0.0023635781962
0.0154211658467
-0.00222998313645
0.0159544300603
-0.00209412869569
0.0164525389337
-0.0019562805623
0.0169150878497
-0.00181663181334
0.017341707934
-0.00167530295283
0.0177320280871
-0.00153235233627
0.0180856798542
-0.00138778036153
0.0184022639412
-0.00124154350313
0.0186813614953
-0.00109356103944
0.0189225062467
-0.000943731251837
0.0191252027866
-0.000791939640618
0.0192889050535
-0.000638076595801
0.01941304217
-0.000482047815291
0.0194970037634
-0.000323790458733
0.0195401743381
-0.000163285818265
0.0195419268494
-5.78395468545e-07
0.0195016654317
0.000164214857659
0.0194188267597
0.000330886803432
0.0192929301426
0.000499134229057
0.019123584345
0.000668545084184
0.0189105413997
0.000838599375124
0.0186537042786
0.00100866391756
0.0183531789087
0.00117800128936
0.0180092771744
0.00134577142692
0.017622562241
0.00151104539185
0.0171938440984
0.00167280760703
0.0167242183213
0.00182996540341
0.0162150588107
0.00198134094188
0.0156680593309
0.00212566531775
0.0150852379891
0.00226155158109
0.0144689989373
0.00238747100573
0.0138221665811
0.00250171596882
0.0131480792521
0.00260238276227
0.0124506514643
0.0026873678724
0.0117344743111
0.0027544213677
0.0110048459538
0.00280124985594
0.0102677862215
0.00282570871319
0.00952992232609
0.00282602990052
0.0087983270797
0.00280108411314
0.00808025420925
0.00275056687506
0.00738289369775
0.00267511982557
0.00671298833147
0.00257654058407
0.00607643563639
0.00245783923247
0.00547764727363
0.00232344732278
0.00491914217969
0.00217865493825
0.00440171796165
0.00202843941518
0.00392507131479
0.00187654493048
0.00348850519217
0.00172525276207
0.00309128612033
0.00157595305782
0.00273251027798
0.00143001451683
0.00241085111591
0.00128908109989
0.00212443231878
0.00115491579937
0.00187084696672
0.00102913802225
0.00164727713016
0.000912987539431
0.00145071486755
0.000807135290705
0.00127820052679
0.000711624627909
0.00112699907854
0.000626022049685
0.000994649311407
0.000549643762804
0.000878950499071
0.000481736456468
0.00077792235447
0.000421547440467
0.000689802721978
0.00036832222505
0.000613030763131
0.000321325218249
0.000546231590393
0.000279874094536
0.000488179464107
0.000243364959195
0.000437755436152
0.000211320554049
0.000393571064181
0.000183813524448
0.000355019552638
0.000160166717707
0.000317834332361
0.000145922447426
0.000282746593972
0.000132581072437
0.000251452023203
0.000118293995614
0.000219988672816
0.000110584997921
0.00018777129897
0.000109783444625
0.000163477968667
0.000112183068381
0.000130797582589
0.000129331745142
9.29605323205e-05
0.000142565121571
6.10478152858e-05
0.000152596031317
3.15284853455e-05
0.000164614039389
0.000163677417973
0.000920836573798
-0.00447192959969
0.00189413615583
-0.00472638191538
0.00286317926408
-0.00470650406526
0.00382329859863
-0.00466460842558
0.00477152680451
-0.0046087978882
0.00570507566489
-0.00453981465453
0.0066213057404
-0.0044582911322
0.0075177421071
-0.00436494648341
0.00839209187798
-0.00426057564622
0.00924225450247
-0.00414602969186
0.0100663318197
-0.00402219596875
0.0108626290156
-0.00388997803845
0.0116296558423
-0.00375027599219
0.0123661183185
-0.00360396726364
0.0130709114777
-0.00345188863674
0.0137431026699
-0.00329481952932
0.0143819170649
-0.00313346752245
0.0149867143042
-0.00296845617167
0.0155569690438
-0.00280031617249
0.0160922438859
-0.00262947969212
0.0165921684067
-0.00245627875243
0.0170564121479
-0.00228094706859
0.0174846659166
-0.00210362573847
0.017876618392
-0.00192437172399
0.0182319426652
-0.00174316909951
0.0185502786389
-0.00155994191919
0.0188312261231
-0.00137456859521
0.0190743337137
-0.00118689702631
0.0192790987563
-0.000996760618733
0.0194449629826
-0.000803995011947
0.0195713199261
-0.000608456819072
0.0196575179556
-0.000410038968068
0.0197028765356
-0.000208692890129
0.0197066986188
-4.44754297755e-06
0.019668296411
0.00020257186209
0.0195870132178
0.000412126056059
0.0194622581026
0.000623847130735
0.0192935347148
0.000837227389068
0.0190804805975
0.00105161404506
0.0188228970488
0.00126620905334
0.0185207856971
0.00148007583155
0.0181743712969
0.00169215007838
0.0177841278641
0.00190125479744
0.0173507888769
0.00210611385365
0.0168753613802
0.00230536226283
0.0163591281546
0.00249754544819
0.0158036619414
0.00268110577748
0.0152108404851
0.00285435033297
0.0145828893582
0.00301540348658
0.0139224433589
0.00316214775971
0.0132326479653
0.00329216846067
0.0125172847697
0.00340272781694
0.0117809125795
0.00349079362388
0.0110289901534
0.00355318193457
0.0102679132881
0.00358679800169
0.00950494101836
0.00358902662234
0.00874795511418
0.0035580986893
0.00800516671484
0.00349339262877
0.00728489696233
0.0033954305206
0.00659511157156
0.00326636702125
0.00594301974654
0.00310997147005
0.00533379088831
0.0029327132964
0.00476965733457
0.00274282299828
0.00425029510892
0.0025478336776
0.00377406949949
0.0023527957774
0.00333946011429
0.00215987888921
0.00294563876212
0.00196978129812
0.00259189415401
0.00178375664282
0.00227698232695
0.00160398256344
0.00199888256097
0.00143299984993
0.00175481842957
0.0012731819417
0.00154143433035
0.00112634980352
0.00135512834678
0.00099341997298
0.00119247723372
0.000874258099923
0.00105048508166
0.000768001207482
0.000926604283707
0.000673516809542
0.000818622612287
0.000589714992906
0.000724562237207
0.000515607813455
0.000642680328731
0.000450207141897
0.00057147048786
0.000392540071177
0.000509642156846
0.000341709677991
0.000456123843903
0.000296892620216
0.000410115880507
0.000257340299406
0.00037117757016
0.000222764623636
0.000336322835275
0.000195036854588
0.000302477114016
0.00017978714816
0.000268322873017
0.000166757547607
0.000229704994534
0.000156937243985
0.00019386685732
0.000146451137623
0.00016064073248
0.000143041516605
0.00013329431417
0.000139564659444
0.000109443428041
0.000153222186789
7.69896177137e-05
0.000175061098714
4.72950370894e-05
0.000182335574186
2.38491140552e-05
0.000188105825089
0.000187548435796
0.000934552864127
-0.00540658325891
0.00192214159938
-0.0057140803432
0.00290522654247
-0.00568969495143
0.00387899479897
-0.00563848325717
0.00484036171056
-0.00557026972944
0.00578642847407
-0.00548598575293
0.00671446182636
-0.00538642748114
0.0076219113906
-0.00527249792861
0.00850642786399
-0.00514519239347
0.00936587467265
-0.0050055753316
0.0101983369211
-0.0048547551361
0.0110021233933
-0.00469385974265
0.0117757657679
-0.00452401142377
0.0125180107218
-0.00434630340797
0.0132278097149
-0.00416177644642
0.0139043018108
-0.0039713984341
0.0145467950641
-0.00377604505668
0.0151547417498
-0.00357648503924
0.0157277137883
-0.00337336777276
0.0162653737078
-0.00316721702165
0.0167674481611
-0.00295842795139
0.0172336992555
-0.00274727076006
0.0176639008899
-0.00253389732849
0.0180578148362
-0.00231835352449
0.0184151733736
-0.0021005929202
0.018735662444
-0.00188049427305
0.0190189116348
-0.001657878627
0.0192644844771
-0.00143252884177
0.0194718753115
-0.00120420814012
0.0196405064098
-0.000972681089508
0.019769732153
-0.000737735432469
0.0198588438208
-0.000499201959707
0.0199070830829
-0.000256981548106
0.0199136575223
-1.10700041942e-05
0.0198777652532
0.000238417847887
0.019798622279
0.000491223961354
0.0196754983052
0.000746927606418
0.0195077535531
0.00100492972158
0.0192948808975
0.00126444572147
0.0190365445695
0.00152450542372
0.018732618529
0.00178396332558
0.0183832152679
0.0020415158898
0.0179887083063
0.00229572586661
0.0175497409556
0.00254504673534
0.0170672276015
0.00278784320742
0.0165423453
0.00302239754389
0.01597652816
0.00324689578887
0.0153714699462
0.00345938455854
0.0147291550709
0.00365769880675
0.0140519270978
0.0038393594052
0.0133426199169
0.00400146608889
0.0126047394374
0.00414059915548
0.0118427150154
0.00425282083231
0.0110621141038
0.0043337828878
0.0102698148491
0.00437911454755
0.0094739027608
0.00438495538159
0.00868337050127
0.00434866247427
0.00790762582258
0.00426917152507
0.00715656518793
0.00414652966064
0.00643988851002
0.00398308104567
0.00576724120914
0.00378265441598
0.00514529403765
0.00355469272156
0.00457565728347
0.00331249229444
0.00405574463728
0.00306777711385
0.00358133191384
0.00282723313842
0.00314956974236
0.00259165696385
0.00275997262206
0.00235938350728
0.00241256667304
0.00213115809031
0.00210643315624
0.00191010415741
0.0018393962985
0.00170001790592
0.0016081461524
0.00150441036288
0.00140847665359
0.00132599352871
0.00123581230175
0.00116606188268
0.00108601842577
0.00102403305964
0.000955802420276
0.000898204850421
0.000842617544392
0.000786695509771
0.000744330542331
0.000688000173154
0.000658981170333
0.000600958266301
0.000584845196339
0.000524346649693
0.000520484528735
0.000456905802767
0.000464680759223
0.000397520704918
0.000416433506427
0.000345149337928
0.000374973650448
0.000298812075167
0.000339632425386
0.000258119375562
0.000304596912786
0.000230088465784
0.000270189730938
0.000214213428711
0.000238591089803
0.000198378974009
0.000209244470351
0.000186309944115
0.000175437232065
0.000180288715707
0.00014081924012
0.000177692552852
0.000105723390964
0.000174694055575
8.24551974261e-05
0.000176526404687
6.30288984475e-05
0.00019452822172
3.84681284388e-05
0.000206936024543
1.91346449172e-05
0.000207478234029
0.000206703853046
0.000951264598809
-0.00635795265384
0.00195635153671
-0.00671927446974
0.00295661511207
-0.00669006949651
0.00394706238222
-0.00662903918233
0.00492445828617
-0.00654777416154
0.00588577184756
-0.00644740643274
0.00682815463814
-0.00632891637873
0.00774896420269
-0.0061934121065
0.00864578207664
-0.00604211344538
0.00951642775329
-0.00587632237497
0.0103589665025
-0.00569739351917
0.0111717125592
-0.00550670332738
0.0119532261461
-0.00530562058633
0.0127023060202
-0.00509547651305
0.0134179757797
-0.00487753731457
0.0140994660864
-0.00465297732816
0.0147461909999
-0.00442285631699
0.0153577213204
-0.004188099064
0.015933753487
-0.00394948132885
0.0164740777798
-0.00370762000528
0.0169785447835
-0.00346297131515
0.0174470342872
-0.00321583393005
0.0178794254719
-0.00296635988443
0.0182755721327
-0.0027145689362
0.0186352809673
-0.00246036830812
0.0189582956127
-0.00220357297954
0.0192442835676
-0.00194392858582
0.0194928279849
-0.00168113294928
0.019703421482
-0.00141485945113
0.0198754642665
-0.0011447795762
0.0200082648262
-0.000870590004311
0.0201010454731
-0.000592034727044
0.0201529530035
-0.000308939714056
0.0201630764319
-2.12424000539e-05
0.0201304711635
0.000270975438376
0.0200541916606
0.000567457237601
0.0199333305135
0.000867743645604
0.0197670641502
0.00117115226226
0.0195547014144
0.00147676565888
0.0192957328753
0.00178343237731
0.0189898753917
0.00208978028154
0.0186371080655
0.0023942440117
0.0182376940321
0.00269510200658
0.0177921854925
0.00299051915118
0.017301410317
0.00327858424362
0.0167664443044
0.00355733214611
0.0161885764446
0.00382473493932
0.0155692843237
0.00407865203564
0.0149102367327
0.00431672412852
0.0142133610276
0.00453621926531
0.0134809865974
0.00473382334338
0.0127161292955
0.004905451778
0.0119228475242
0.00504609049369
0.0111067249544
0.00514991433157
0.010275161521
0.00521067906668
0.00943741272587
0.00522272776572
0.00860393531354
0.00518216165424
0.00778544864687
0.00508769282119
0.00699392681953
0.00493808381016
0.00624113463842
0.00473590320716
0.00554161581347
0.00448220070224
0.00490524346818
0.00419109111186
0.00433228257925
0.00388548095416
0.00381553659002
0.00358455227414
0.00334554720292
0.00329724649109
0.0029173459649
0.003019873123
0.00253222052181
0.00274451313478
0.00219218159107
0.00247119182964
0.00189700517532
0.00220526583752
0.00164429098277
0.0019527126635
0.00142994583496
0.00171872811424
0.00124843131845
0.00150748053033
0.00109348221279
0.00132098443962
0.00095985977857
0.001157636909
0.000844020831089
0.001014032211
0.000743699325731
0.000887012749203
0.000657057164852
0.000774642088418
0.00058213845061
0.000675879662555
0.000517194321506
0.00058929448656
0.000460901906612
0.000513203618124
0.000412123734114
0.000446305979548
0.000369923940502
0.000387359095546
0.000333608908618
0.000335139537539
0.000302729006042
0.000289014310057
0.000270181955235
0.000262652381768
0.000240011847231
0.000244404140915
0.000207985688346
0.00023042867021
0.000176965581071
0.000217357344072
0.000145375876009
0.000211909066984
0.000117864190387
0.000205236846885
8.80116251199e-05
0.00020458149655
6.09024761813e-05
0.000203670039844
4.74767411306e-05
0.00020798760621
3.02157177976e-05
0.000224234733429
1.49404797478e-05
0.000222790382725
0.000221661472627
0.000971167725539
-0.00732922761101
0.00199710945974
-0.00774533350743
0.00301784628483
-0.00771091905751
0.00402814630907
-0.00763945277168
0.00502459478734
-0.00754433431374
0.00600399739662
-0.0074269200314
0.00696336817035
-0.00728839664652
0.0078999530636
-0.00713010519419
0.00881125150597
-0.00695351830041
0.00969503024715
-0.0067602058522
0.0105493324512
-0.00655179833835
0.0113724796689
-0.00632995121038
0.0121630692011
-0.00609630837904
0.0129199642593
-0.00585246767913
0.0136422795711
-0.00559994611429
0.0143293595258
-0.00534014846811
0.0149807520987
-0.0050743373018
0.0155961759607
-0.00480360894071
0.0161754851178
-0.00452887364312
0.0167186292778
-0.00425084488673
0.0172256153693
-0.00397003525425
0.0176964688727
-0.00368676287153
0.018131200502
-0.00340116413725
0.0185297761869
-0.00311321492421
0.0188920946359
-0.00282275437148
0.0192179687933
-0.00252951258199
0.0195071138812
-0.00223313661768
0.01975913738
-0.00193321741761
0.0199735334634
-0.00162931423327
0.0201496781708
-0.00132098123344
0.0202868293391
-0.00100779610111
0.0203841284313
-0.000689387237038
0.0204406107251
-0.000365473670647
0.0204552211843
-3.59032564672e-05
0.0204268411314
0.000299306589365
0.0203543235342
0.000639926982804
0.0202365397065
0.000985480906514
0.0200724333238
0.0013352129847
0.01986108168
0.00168807281638
0.0196017571314
0.00204271334575
0.0192939851932
0.00239750987909
0.018937589606
0.00275059837293
0.0185327190338
0.00309993298003
0.0180798465128
0.00344335380811
0.0175797403334
0.00377865503998
0.0170334055631
0.00410363385714
0.0164420088071
0.00441610224567
0.0158067992246
0.00471383404618
0.0151290658035
0.00499443546692
0.0144101545783
0.00525510661075
0.0136516400532
0.00549232488251
0.0128556488586
0.00570142052776
0.012025496914
0.00587624115135
0.0111664331005
0.00600896309739
0.0102864854076
0.00609063907846
0.00939656975025
0.0061126501108
0.00850934681833
0.0060694102146
0.00763631899209
0.00596074486322
0.00679227464799
0.00578215254865
0.00598982504804
0.00553837124477
0.00525441804988
0.00521762388349
0.00460311701845
0.00484240962859
0.00403320747115
0.00445541399017
0.00352799589733
0.00408979388878
0.00306692302133
0.00375834484445
0.00264171565192
0.0034450984691
0.00225965298983
0.00312658275086
0.0019273317322
0.00280350874143
0.00164547459663
0.0024871098493
0.00141109246591
0.00218706916586
0.00121900718857
0.00191078400738
0.0010616190402
0.00166483354822
0.000929541529878
0.00145303359682
0.000815711527491
0.00127144706026
0.000716654677903
0.00111307886976
0.000631109574129
0.000972556025501
0.000558017091415
0.000847737475933
0.000495254985395
0.00073864461686
0.00044085497914
0.000643699551652
0.000393764184909
0.000560299296403
0.000352940417722
0.000487137472192
0.000317448139829
0.000422861895042
0.000286550237084
0.000366051699409
0.000259424505709
0.000316156353446
0.000231100764851
0.00029099551025
0.000204532525754
0.000270994460301
0.000177028042487
0.000257958595057
0.000146516329453
0.00024789775597
0.00011835351138
0.000240103189601
8.98682542362e-05
0.000233755146067
6.96396906543e-05
0.000224843292788
4.84661223221e-05
0.000224876768685
3.29022934441e-05
0.00022358596365
2.31322382324e-05
0.000234037905106
1.1058489679e-05
0.00023489594755
0.000232737115569
0.000994472698768
-0.00832381325481
0.00204484067476
-0.00879581649045
0.00308953434577
-0.00875573231447
0.00412304320412
-0.00867307847021
0.0051417275588
-0.00856313542436
0.00614219947262
-0.00842750705258
0.00712130722937
-0.00826761836775
0.00807616525742
-0.00808507544797
0.00900417571007
-0.00788163934703
0.00990304453456
-0.00765918316846
0.0107707895826
-0.00741964991439
0.0116057435123
-0.00716500922673
0.0124065491708
-0.00689721591611
0.0131721499665
-0.0066181676435
0.0139017720378
-0.00632966496428
0.0145949009832
-0.00603337128744
0.0152512497465
-0.00573077742652
0.0158707215829
-0.0054231691126
0.0164533656289
-0.00511160344867
0.0169993308203
-0.00479689276926
0.0175088169941
-0.00447960154895
0.0179820301145
-0.0041600530824
0.0184191405721
-0.00383834919118
0.0188202506304
-0.00351439666808
0.0191853679772
-0.00318794105855
0.0195143887403
-0.00285859996648
0.019807084369
-0.00252589673043
0.0200630939503
-0.00218928901528
0.0202819163339
-0.00184819675407
0.0204629050206
-0.00150202787774
0.020605263014
-0.00115021044707
0.0207080423034
-0.000792221009527
0.0207701489495
-0.000427633488944
0.0207903584663
-5.61643874989e-05
0.0207673414634
0.000322273021679
0.0206997043045
0.000707514860425
0.0205860422765
0.0010990945042
0.020425007129
0.00149620083047
0.0202153831409
0.00189765031074
0.0199561688314
0.00230188230805
0.0196466536767
0.00270698066188
0.0192864816198
0.00311072754505
0.0188756869883
0.00351068627331
0.018414693396
0.00390430829164
0.0179042647061
0.00428904666676
0.0173454092038
0.00466245536206
0.0167392399941
0.00502223903183
0.016086820613
0.00536622523991
0.0153890164286
0.00569220985146
0.0146464398061
0.00599766138326
0.013859527174
0.00627920739674
0.0130289723108
0.00653196156507
0.0121565359821
0.0067486499343
0.0112465262445
0.00691897032705
0.0103074587366
0.0070296965942
0.00935312667935
0.00706699260927
0.00840013949944
0.00702240972251
0.00745838307908
0.0069025217127
0.00654747343846
0.0066930776093
0.00567258628946
0.00641326326272
0.00488627628576
0.00600394339294
0.00422208907501
0.00550660645663
0.00367029418708
0.00500723537267
0.0031946721883
0.00456544800232
0.00274971263477
0.00420334056239
0.00232245678775
0.00387237609197
0.00193815085406
0.00351090912898
0.00161281223946
0.00312884453686
0.00134706862086
0.00275284278313
0.00113613781838
0.00239796980416
0.000973617893962
0.00207326898511
0.000849054087253
0.00178935546835
0.000746775886197
0.00155527965409
0.000656445022015
0.00136175667443
0.000575756046411
0.00119376001521
0.000506211598673
0.0010421012125
0.000448593999085
0.000905357166739
0.00039988732156
0.000787356483911
0.000357190807487
0.000686398635616
0.000320331348611
0.000597163019019
0.000288390771518
0.000519085246493
0.000260317165915
0.000450946279556
0.00023543862957
0.000390945647281
0.000210553527301
0.000341060212078