/*--------------------------------*- C++ -*----------------------------------*\
| =========                 |                                                 |
| \\      /  F ield         | OpenFOAM: The Open Source CFD Toolbox           |
|  \\    /   O peration     | Version:  v1906                                 |
|   \\  /    A nd           | Web:      www.OpenFOAM.com                      |
|    \\/     M anipulation  |                                                 |
\*---------------------------------------------------------------------------*/
FoamFile
{
    version     2.0;
    format      ascii;
    class       volScalarField;
    location    "227";
    object      p;
}
// * * * * * * * * * * * * * * * * * * * * * * * * * * * * * * * * * * * * * //

dimensions      [0 2 -2 0 0 0 0];


internalField   nonuniform List<scalar> 
9216
(
269.455281742
269.539228199
269.715899545
269.980663816
270.332930032
270.770961911
271.292582436
271.895186287
272.575875313
273.33143426
274.15846332
275.05333698
276.012339609
277.03160965
278.107273825
279.235377263
280.412012708
281.633238404
282.895200291
284.194040659
285.526012604
286.887382864
288.274538377
289.683886758
291.111955106
292.555291145
294.010554427
295.4744208
296.943666257
298.415076865
299.885525485
301.35188925
302.811119939
304.26017023
305.696058494
307.115805513
308.516494965
309.895221476
311.249148264
312.575467057
313.871454456
315.134443512
316.361880187
317.551305638
318.70041396
319.807043286
320.86923556
321.885233612
322.853542768
323.772929471
324.642482368
325.461605695
326.230074166
326.948011939
327.615933158
328.234698135
328.805533789
329.329964995
329.809816918
330.247128459
330.644146208
331.003231728
331.326857865
331.617519286
331.877737349
332.109978486
332.316669488
332.500125626
332.662576137
332.806103075
332.93267584
333.044101016
333.142063665
333.228086783
333.303575934
333.369786029
333.427866073
333.478831267
333.523605779
333.56299914
333.597747253
333.628495033
333.655884461
333.680182985
333.70088772
333.717982412
333.732076229
333.743388069
333.752040263
333.758387944
333.762834704
333.765856003
333.767876165
333.769102357
333.769716305
333.769925748
269.371426108
269.455826249
269.631482393
269.897119877
270.250968774
270.69107996
271.215159522
271.8205473
272.50427991
273.263107305
274.093571122
274.992018833
275.954681638
276.977679605
278.057093691
279.188960081
280.369333953
281.59427345
282.859894725
284.162347327
285.497861181
286.862715756
288.253280082
289.665978134
291.097323045
292.54388086
294.002299964
295.469275062
296.941572704
298.415997049
299.889412432
301.358712199
302.820839159
304.272758998
305.711479772
307.13403098
308.537483422
309.918935104
311.275532777
312.604465508
313.902989093
315.168427615
316.398201599
317.589837247
318.740998779
319.849504389
320.913362692
321.930793677
322.900268306
323.820531304
324.690640854
325.509987359
326.27832653
326.995784817
327.662876227
328.280484818
328.849858197
329.37256426
329.850463563
330.285648068
330.68040384
331.03714522
331.358380117
331.646649368
331.904500928
332.134438287
332.338905207
332.520244235
332.68069195
332.822347979
332.947180281
333.057004516
333.153497638
333.23818562
333.312462061
333.377581263
333.434678702
333.484767039
333.528756279
333.567450891
333.60156758
333.631729522
333.658476778
333.682224589
333.702716489
333.719603759
333.733345964
333.744290068
333.752783534
333.759052407
333.763348678
333.766258261
333.768239762
333.769390971
333.769934588
333.770152966
269.19399481
269.2812303
269.458729078
269.727047985
270.08443083
270.52888473
271.058025178
271.669103052
272.359054741
273.124542007
273.962010658
274.86772971
275.837846649
276.868418848
277.955460304
279.094962756
280.282932256
281.515400062
282.788449458
284.098218004
285.440916083
286.812822639
288.210297209
289.629771302
291.06775556
292.520828612
293.985640717
295.458901613
296.937381784
298.41790054
299.897325948
301.372564316
302.840559868
304.298286777
305.74274975
307.170979889
308.580037566
309.967013322
311.329034382
312.663271638
313.966950921
315.237366667
316.471898609
317.668032132
318.823380552
319.935711628
321.002975157
322.023334656
322.9951994
323.917259176
324.788517925
325.608326292
326.376409502
327.092887128
327.758282802
328.373518611
328.939896492
329.459062832
329.932963873
330.363790214
330.753921746
331.105869432
331.422225239
331.705611961
331.958643966
332.183887643
332.383833433
332.560866819
332.717251173
332.855109448
332.976417852
333.08299834
333.176521873
333.258509004
333.330338935
333.393254297
333.448372512
333.496692143
333.539104378
333.576399132
333.609274473
333.638338686
333.664114431
333.687046502
333.706785992
333.722959243
333.735825982
333.746078796
333.754277913
333.760295106
333.764300938
333.767082284
333.768911915
333.769951573
333.770499434
333.77077456
268.925708457
269.01483611
269.195247223
269.467805732
269.830713079
270.281893431
270.818840895
271.438671565
272.138177452
272.913878922
273.762081723
274.678926707
275.660440742
276.702577306
277.8012567
278.952395068
280.151932905
281.395852931
282.680198078
284.001080177
285.354689545
286.737296879
288.145256668
289.575004504
291.02305621
292.486002338
293.960504493
295.443288377
296.931138454
298.42089061
299.909426169
301.393665268
302.870561293
304.337095988
305.790275463
307.227128446
308.64470532
310.040080866
311.41035778
312.752675172
314.064217745
315.34223084
316.584035907
317.787052249
318.948818796
320.067022248
321.139524954
322.16439909
323.139960471
324.064807984
324.937861608
325.758402824
326.526108992
327.241082023
327.903862355
328.515427392
329.077169524
329.590856538
330.058575904
330.482670695
330.86567269
331.210239315
331.519096537
331.79498881
332.040635972
332.258696056
332.451734396
332.622197471
332.772392905
332.904474253
333.020432829
333.122094686
333.211123545
333.289026534
333.357162912
333.416753227
333.468889744
333.51454629
333.554588568
333.589783447
333.620808165
333.648257497
333.672676136
333.694351695
333.712787767
333.727718096
333.739544087
333.749059748
333.756497024
333.761988844
333.765826876
333.768399143
333.770041605
333.771016094
333.771557355
333.771825472
268.564282015
268.655532165
268.839907192
269.118298285
269.488801858
269.949205905
270.496834961
271.128617214
271.841147073
272.630748191
273.493535476
274.425472256
275.422422951
276.480198285
277.594594541
278.761424919
279.976545235
281.235872658
282.535399991
283.871204516
285.239453734
286.636407233
288.058416563
289.501922566
290.963451466
292.43960945
293.927076442
295.422599186
296.92298376
298.425088057
299.925813924
301.422100066
302.910914785
304.389250208
305.854116793
307.3025404
308.731560141
310.138229836
311.519620862
312.872829514
314.194986221
315.483269811
316.734923738
317.947277422
319.117769378
320.243975326
321.323638079
322.35470277
323.335354421
324.264061563
325.139622154
325.961213313
326.728438277
327.441366701
328.10055894
328.707068536
329.262418152
329.768550812
330.227758811
330.642602784
331.015829578
331.350299304
331.648922547
331.914608161
332.150219104
332.358535666
332.542224455
332.703812684
332.845667473
332.969981164
333.07876349
333.173841885
333.256867499
333.329325364
333.392545912
333.447717106
333.495896411
333.538022485
333.574926432
333.60734272
333.635919842
333.661230514
333.683829262
333.703762954
333.720423043
333.73379881
333.744382569
333.752896239
333.75965078
333.764594981
333.767982575
333.770270517
333.771774558
333.772670932
333.773177058
333.773431953
268.10756331
268.201397002
268.39085018
268.676763352
269.057070271
269.52936226
270.090733862
270.737862296
271.467081808
272.274457717
273.155857164
274.107013486
275.123583496
276.201195911
277.335491569
278.522154921
279.756938238
281.035678703
282.354310042
283.708869067
285.095498568
286.510446935
287.950065526
289.410804084
290.889204836
292.381895506
293.885581537
295.397037808
296.91309985
298.43065495
299.946633065
301.457998179
302.961739745
304.454865083
305.934392504
307.397346397
308.84075378
310.261643883
311.657050088
313.024015894
314.359603929
315.66090955
316.92507763
318.149323886
319.330959017
320.467417136
321.556286985
322.595348273
323.582612515
324.516371575
325.395253041
326.218283427
326.984953242
327.695276601
328.34983213
328.949772958
329.496800697
329.993102113
330.441254181
330.844114979
331.204719154
331.526191978
331.811681467
332.064305033
332.287106
332.483017854
332.654834242
332.805183406
332.936506776
333.051042863
333.150820374
333.237662175
333.313197397
333.378877453
333.43599207
333.485684559
333.528966006
333.566728531
333.599757761
333.628744923
333.654298392
333.676957876
333.697236469
333.714890808
333.729419736
333.741051377
333.750433654
333.757993796
333.763804661
333.767876382
333.770845655
333.772846989
333.77412712
333.775009471
333.775495067
333.775743606
267.552877333
267.649881232
267.845644698
268.140926406
268.533439311
269.020511463
269.598935282
270.26506271
271.014894167
271.844166533
272.748434848
273.723145564
274.763699264
275.865502591
277.024009125
278.234750361
279.493357592
280.79557634
282.137274427
283.514445236
284.923207042
286.359799607
287.820578569
289.302008433
290.800654368
292.31317336
293.836304664
295.36685999
296.901713225
298.437790021
299.972057213
301.50151248
303.023174054
304.534071071
306.031234718
307.511691056
308.972455575
310.41053064
311.822905886
313.206562682
314.55848256
315.875660307
317.155121291
318.393943029
319.589280372
320.738394076
321.838682706
322.887719064
323.883292886
324.823463851
325.706627334
326.531595454
327.297688825
328.004827193
328.653598165
329.245280751
329.781817568
330.265731301
330.699989681
331.087849839
331.43272005
331.738058926
332.007306215
332.243831893
332.450895903
332.631615034
332.788935379
332.925607327
333.044161867
333.146890695
333.235838129
333.312811193
333.379401692
333.437011464
333.486874322
333.530074676
333.567563947
333.600175148
333.628636393
333.653584108
333.675576304
333.695126238
333.712588281
333.727519687
333.739762585
333.749623897
333.757620845
333.763917968
333.768622588
333.772031223
333.774556977
333.776271395
333.777309281
333.778092303
333.778531906
333.778751294
266.896930289
266.997789351
267.20124947
267.507957693
267.915340794
268.420384557
269.019492944
269.708603393
270.483295579
271.338896488
272.270576337
273.273431851
274.342555655
275.473091068
276.660273415
277.899458923
279.18614338
280.515972179
281.884743909
283.288408885
284.723064248
286.184946529
287.670422683
289.17598002
290.698215575
292.233825006
293.779591295
295.332373147
296.889093231
298.446726054
300.0022858
301.552814023
303.095367349
304.627005377
306.14477937
307.645722262
309.126840584
310.585109215
312.0174696
313.420832427
314.792085087
316.128104526
317.425775073
318.68201101
319.893782673
321.058145425
322.172270819
323.23348135
324.239291689
325.187463265
326.076079248
326.903647978
327.669233308
328.372595431
329.01430877
329.595806139
330.119353939
330.587941029
331.005075257
331.374547317
331.700239476
331.986015328
332.23565868
332.452833565
332.641050057
332.803636361
332.943715599
333.064183094
333.167678165
333.256552869
333.332858914
333.398366848
333.454606844
333.502909258
333.544433112
333.580187371
333.611049058
333.63777841
333.661032602
333.681378907
333.699307056
333.715264531
333.729465094
333.741480231
333.751273978
333.759218257
333.765619349
333.770616204
333.774330041
333.77713578
333.77906537
333.780471938
333.78136133
333.781895635
333.782283043
333.782457394
266.135712754
266.241218878
266.453956284
266.774424004
267.199680356
267.726272101
268.350108205
269.066603399
269.870812313
270.757556926
271.721539426
272.757437682
273.85998122
275.024008647
276.244507609
277.516640199
278.835756159
280.197396984
281.597293117
283.031356603
284.495670641
285.986477472
287.50016529
289.033254876
290.582386135
292.144304778
293.715849042
295.293936462
296.875550477
298.457726705
300.03753898
301.612085062
303.178471886
304.733800745
306.275152829
307.799575876
309.304072565
310.785591893
312.241024377
313.667202429
315.060906553
316.41887802
317.737837845
319.01451101
320.245654555
321.428086877
322.558717315
323.634575463
324.652845318
325.610913816
326.506449353
327.337529776
328.102826309
328.801830793
329.43505951
330.004125753
330.511732034
330.961526606
331.357783586
331.705009123
332.007673738
332.270111179
332.496493396
332.690813088
332.856859786
332.998196425
333.118145872
333.219775388
333.305859772
333.378823815
333.440710219
333.493215722
333.537769991
333.575602405
333.60777525
333.635203813
333.658675276
333.678863276
333.696340892
333.711593314
333.725030032
333.737023225
333.747685677
333.756563411
333.763775162
333.769702253
333.774428584
333.778088163
333.780847296
333.782907589
333.784386005
333.785376019
333.786060107
333.786370784
333.7866972
333.786816972
265.264392096
265.375466272
265.599311106
265.936224419
266.382791873
266.934997734
267.588122855
268.336925386
269.175809029
270.098978246
271.100572281
272.174773824
273.315891825
274.518419532
275.777071182
277.086800844
278.442807787
279.840531885
281.275642579
282.74402376
284.241756726
285.765102337
287.310483407
288.87446757
290.453750987
292.045142665
293.645549412
295.251960973
296.86143525
298.471082966
300.078052039
301.679511085
303.272632087
304.8545723
306.422456109
307.973357389
309.504283467
311.012161965
312.493831993
313.946041362
315.36545102
316.748647854
318.092165499
319.39251216
320.646202223
321.849787776
322.999885221
324.093195713
325.12652115
326.096792479
327.001135423
327.837015081
328.602497066
329.29661456
329.919749524
330.47370957
330.961780047
331.388576752
331.759503468
332.080038288
332.355349983
332.590281018
332.789412551
332.957091859
333.097410385
333.214181006
333.310943186
333.390969625
333.457220983
333.512222337
333.557977941
333.596040666
333.627674304
333.653971052
333.675874646
333.694187892
333.709593202
333.722664527
333.733878062
333.74362383
333.75221652
333.75993037
333.766783392
333.772437669
333.777121997
333.780995011
333.783993959
333.786248522
333.787955193
333.789247521
333.79029501
333.790992249
333.791349476
333.791499785
333.791706483
333.791786992
264.277179459
264.394908593
264.632010351
264.98850989
265.460382107
266.042889709
266.730515394
267.51719381
268.396523767
269.361959148
270.406967518
271.525153523
272.710346711
273.956657753
275.258507703
276.610636665
278.008097282
279.446238472
280.920683321
282.427304453
283.962198859
285.521663639
287.102173247
288.700358558
290.312987629
291.93694795
293.569229741
295.206909889
296.847135952
298.487109601
300.124069361
301.755272084
303.377972668
304.989402398
306.586746243
308.16712005
309.72754863
311.264946745
312.776104642
314.257680875
315.706204157
317.118086307
318.489646495
319.817145092
321.096823303
322.324939885
323.497798154
324.611750533
325.663185104
326.648503787
327.564138629
328.406687213
329.173258077
329.862088574
330.473322531
331.008918675
331.472927763
331.871440524
332.211640008
332.500334513
332.743444749
332.946280758
333.113813977
333.250763577
333.361543047
333.450214599
333.520530756
333.57601493
333.619915063
333.654931077
333.682975438
333.705313941
333.722931389
333.736747283
333.747575901
333.756089404
333.762852653
333.768329077
333.772886487
333.776807928
333.780299569
333.783514644
333.786428033
333.788860236
333.790977311
333.792693973
333.793969786
333.794940167
333.795699243
333.796270001
333.796723631
333.797071799
333.797233413
333.797222719
333.797257689
333.797305223
263.167159687
263.292844447
263.545768696
263.925581739
264.427465427
265.045751129
265.773904505
266.604825646
267.531119723
268.545331806
269.640134628
270.808466068
272.043619331
273.339291927
274.689602149
276.089081535
277.532651701
279.015592019
280.533503529
282.082272436
283.658035615
285.257149064
286.876159874
288.511781416
290.160871519
291.820412908
293.487495434
295.159299187
296.833077943
298.506141724
300.175838423
301.83953328
303.494585707
305.138323479
306.76801482
308.380839004
309.973857099
311.543984871
313.087970625
314.602381387
316.083600694
317.527841505
318.931175282
320.289576784
321.598977861
322.855320145
324.05458613
325.192793123
326.265926815
327.269829418
328.20009171
329.052088021
329.821387984
330.504782894
331.102134305
331.615332515
332.049339182
332.412613308
332.715403129
332.966322556
333.171878566
333.337622802
333.468836474
333.570643968
333.647820621
333.704638675
333.745009288
333.772749813
333.791620599
333.804701938
333.813709035
333.819310239
333.821999027
333.822524008
333.821601435
333.81974925
333.81740549
333.814917631
333.812534498
333.810423746
333.80867386
333.807323199
333.806291453
333.805509685
333.805006285
333.804575472
333.804262551
333.804050091
333.803914622
333.803771472
333.803669125
333.803557402
333.803497611
333.803387479
333.80323213
333.803219449
261.926070689
262.061294176
262.333149377
262.740766829
263.278287299
263.938832279
264.714564272
265.597080743
266.577760226
267.648052021
268.799695845
270.024871637
271.316285536
272.667203931
274.071448214
275.523363385
277.017771262
278.549917182
280.115416123
281.710202236
283.330483676
284.972703471
286.633506174
288.309709657
289.998281148
291.696316602
293.401022457
295.109698818
296.819723007
298.52853215
300.233604189
301.932435937
303.622516926
305.301299266
306.96616345
308.614381104
310.243076044
311.849186611
313.429432339
314.980290333
316.49798599
317.978504418
319.417626133
320.810987973
322.15416422
323.442748924
324.672416555
325.838908573
326.937911734
327.964790985
328.914217361
329.779899023
330.554869257
331.233055034
331.814550495
332.300326911
332.696134393
333.01441657
333.271354503
333.477854316
333.640171946
333.763497495
333.853275794
333.915187802
333.954474065
333.975514312
333.982154936
333.978506164
333.969338575
333.958684891
333.947851636
333.936172196
333.923229315
333.909767251
333.896561595
333.883906608
333.872108163
333.861405218
333.85191294
333.843677461
333.836650537
333.830732541
333.825838957
333.82197929
333.81893568
333.816591793
333.814786016
333.813402431
333.812325685
333.811482392
333.810864519
333.810381739
333.810019533
333.809796705
333.80947141
333.809401907
260.544014053
260.69073324
260.985348003
261.426262496
262.00623789
262.71680935
263.548459898
264.491140909
265.534717265
266.669322672
267.885613093
269.1749222
270.52933278
271.941682783
273.405526151
274.915066382
276.465077726
278.050824552
279.667985919
281.312588916
282.980952188
284.669639241
286.3754205
288.095242462
289.826202602
291.56552852
293.310560303
295.058734717
296.807570107
298.554650033
300.297604836
302.034088902
303.761752037
305.478204608
307.180976435
308.867469753
310.53490831
312.180285196
313.800314094
315.391390259
316.949569082
318.470572171
319.94982908
321.382561813
322.763907437
324.089064135
325.353412953
326.552550055
327.682118365
328.73733101
329.712129132
330.598135057
331.384146348
332.057572422
332.621853053
333.074094054
333.419721754
333.678081669
333.878572106
334.033979398
334.147607683
334.222995539
334.265693986
334.282485444
334.279427776
334.260743409
334.22956036
334.19003006
334.148995097
334.113097184
334.082753258
334.054119912
334.024976284
333.996806579
333.970964849
333.947211049
333.925722004
333.906684144
333.890039297
333.875722815
333.863539357
333.853256113
333.844667393
333.837916905
333.832586662
333.828447502
333.825262531
333.822729638
333.820761021
333.819265711
333.818148454
333.817312863
333.816713093
333.816309974
333.815892983
333.81576377
259.009070688
259.169748092
259.491913669
259.972947114
260.603756799
261.373778682
262.271315719
263.284232407
264.400526683
265.608762723
266.898354611
268.259714978
269.684293365
271.164535156
272.693790408
274.266197971
275.876563776
277.520245999
279.193054133
280.891164779
282.611053932
284.349443872
286.103261979
287.869608803
289.645733101
291.429012079
293.21693547
295.007092187
296.797157976
298.584881871
300.368069739
302.144562185
303.912204029
305.668805007
307.412090783
309.139644687
310.848841533
312.536776836
314.200195944
315.835432022
317.438363087
319.004404311
320.528551303
322.00549078
323.429787373
324.796130793
326.099600353
327.335830614
328.500896523
329.59066219
330.599220275
331.51624181
332.323663731
332.991405187
333.5402995
333.952576341
334.229346556
334.40155098
334.532866764
334.631872126
334.69228671
334.713974911
334.703137478
334.669075633
334.619629539
334.558054609
334.485020176
334.403400834
334.324434742
334.262338152
334.215508172
334.172028231
334.125812203
334.081720721
334.043230213
334.008249138
333.976900784
333.949565802
333.92584543
333.905631438
333.888528509
333.874260647
333.862405037
333.852970966
333.845597528
333.83981845
333.835328096
333.831781964
333.829055101
333.827004082
333.825427627
333.824259714
333.823410005
333.822838049
333.822424448
333.822214438
257.306784448
257.484572619
257.840389469
258.370147698
259.062235287
259.903279972
260.878735456
261.973811928
263.174209635
264.466636907
265.839112861
267.281084912
268.783405012
270.338212326
271.938765368
273.57925761
275.254640168
276.960465384
278.692757441
280.447910503
282.222611552
284.013783326
285.818542554
287.634169148
289.458083212
291.287827723
293.121055761
294.955521082
296.78907063
298.619635998
300.445221404
302.263884077
304.073703302
305.872737023
307.65896479
309.43021641
311.18408782
312.917845963
314.628328231
316.311845575
317.96410381
319.58016561
321.154480375
322.681017156
324.153528094
325.565955735
326.912944182
328.190326488
329.395326535
330.526010445
331.579133044
332.544898817
333.396400027
334.046865803
334.592858349
334.959272837
335.136585028
335.172581174
335.246679909
335.30908764
335.321628075
335.282714499
335.204469264
335.105393224
334.999065107
334.886187742
334.760089906
334.619263178
334.486425783
334.397547644
334.343967564
334.291306493
334.224827418
334.161591845
334.111652897
334.065637712
334.024138069
333.988802069
333.958171365
333.932411573
333.910767476
333.89290582
333.878341006
333.866678601
333.857511132
333.850391408
333.844778376
333.840412561
333.837080957
333.834515946
333.832538202
333.831089695
333.830036421
333.829335338
333.828905007
333.828638919
255.41945665
255.618470812
256.015843775
256.605360085
257.371926134
258.29837272
259.366403588
260.557846568
261.855586147
263.244166707
264.710086765
266.241843425
267.82980031
269.465951841
271.143644888
272.857302229
274.602175374
276.374140114
278.169537691
279.985057877
281.817656599
283.664499672
285.522924592
287.390414073
289.264577123
291.143135565
293.023915505
294.90484362
296.783946859
298.659352387
300.529283259
302.392044317
304.245992828
306.089492186
307.920846709
309.738216561
311.539512677
313.322272426
315.083519363
316.819616918
318.526131738
320.19773762
321.828200601
323.410506317
324.937197748
326.400984367
327.79564054
329.117093092
330.364404563
331.540193461
332.649070697
333.69215209
334.649118493
335.236852512
335.917278436
336.278350115
336.297538773
335.960982871
335.577696976
335.414372639
335.358459405
335.325492681
335.281961167
335.222031065
335.148967039
335.055996164
334.931832324
334.769777975
334.594904482
334.497206631
334.472707155
334.424087356
334.323032594
334.230753949
334.175084365
334.118453325
334.065425409
334.023154202
333.985733181
333.955034187
333.929376026
333.908572903
333.89177857
333.878451653
333.867953588
333.859797605
333.853377725
333.848388372
333.844531197
333.841571958
333.839309307
333.837650395
333.836483613
333.835675755
333.83521437
333.834924393
253.325167984
253.550889262
254.000258292
254.663915932
255.521884546
256.551803991
257.730413686
259.035230734
260.445717109
261.943948147
263.514843779
265.146069301
266.827724297
268.551928406
270.312388137
272.104000167
273.922520272
275.764307187
277.626137518
279.505080612
281.398419171
283.303601488
285.218213116
287.139958946
289.06665053
290.996197139
292.926601977
294.855965451
296.782495307
298.704519788
300.620496188
302.529006319
304.428732089
306.318407688
308.196747306
310.062346226
311.913554179
313.74831719
315.563988559
317.357114718
319.123211923
320.85656832
322.550126747
324.195541806
325.783537009
327.304714592
328.750959241
330.117432996
331.404989321
332.623178544
333.795239505
334.983019221
336.369940955
336.450843506
336.126201579
336.113955968
336.114750018
335.961116565
335.738952744
335.563736931
335.44640336
335.355129049
335.267412626
335.178322918
335.086385218
334.988588424
334.88970926
334.802528568
334.744625275
334.723454743
334.703837621
334.614534709
334.415426173
334.258139567
334.230688124
334.167153335
334.097233137
334.051896789
334.006937794
333.972427937
333.943208923
333.920507762
333.902234655
333.887896077
333.876562805
333.867754441
333.860821442
333.855416584
333.851219395
333.848031637
333.845635829
333.843869006
333.842629429
333.841784359
333.841296132
333.841001963
250.996391921
251.25628962
251.771723503
252.528602138
253.499981455
254.656331816
255.967792286
257.406402733
258.947522961
260.570508347
262.258777532
263.999454797
265.782774148
267.60140308
269.449798869
271.323661323
273.219507291
275.134365598
277.065576051
279.010669671
280.967306007
282.933245893
284.906341875
286.884534047
288.865845264
290.848375822
292.830302787
294.809890884
296.785516861
298.755703195
300.719147234
302.674732765
304.62151423
306.558669442
308.485421346
310.400927804
312.304135194
314.193586169
316.067174813
317.921847138
319.753256042
321.555403011
323.320327091
325.037966274
326.696391919
328.282696156
329.784900932
331.194913199
332.511795681
333.745989682
334.929305778
336.175623865
336.328718276
336.413497439
336.305010039
336.180293028
336.07632525
335.909330237
335.707834986
335.534254566
335.403720271
335.29808582
335.203825127
335.114642931
335.024545931
334.933217651
334.844662323
334.76623521
334.705543741
334.662091356
334.61990752
334.566301476
334.519912323
334.491208809
334.420272872
334.234988173
334.098839353
334.073673739
334.019083939
333.983761041
333.951044408
333.92812911
333.909267671
333.894781789
333.883147331
333.874121402
333.86702397
333.861440436
333.85715962
333.853914353
333.85148796
333.849709518
333.848439481
333.847619999
333.847114819
333.846847446
248.397991933
248.702503629
249.303383861
250.179253914
251.293068342
252.605307693
254.077323295
255.67424945
257.366643025
259.131038132
260.94967489
262.809703128
264.702146191
266.620851037
268.561567993
270.521225588
272.497409821
274.488024948
276.491098398
278.504689643
280.526865725
282.555711945
284.589353171
286.625969556
288.663799717
290.701134544
292.736313867
294.767742956
296.793936648
298.813584788
300.825615004
302.829229571
304.82390267
306.809334217
308.785366893
310.751869276
312.708577813
314.654877031
316.589499263
318.510128275
320.412899954
322.291814626
324.138106979
325.939712857
327.681101107
329.343946389
330.909533382
332.362920554
333.697828701
334.928435543
336.122312764
336.270168206
336.361556878
336.354254633
336.245578567
336.104693757
335.960843815
335.787373141
335.599198244
335.431119392
335.29544068
335.184259475
335.089466248
335.004110101
334.922005599
334.842983716
334.769367637
334.704589077
334.651329221
334.607517333
334.56402511
334.51418667
334.465139488
334.423221607
334.3827561
334.347281711
334.299345419
334.173191151
334.010687583
333.985110126
333.950515732
333.931415076
333.912586342
333.899126138
333.887609657
333.878837809
333.871901991
333.866454138
333.862314037
333.859182713
333.856856356
333.855160044
333.853949522
333.853178385
333.852704056
333.852482861
245.484240651
245.848387485
246.562063867
247.592388297
248.887435989
250.393687198
252.060829974
253.845423046
255.712617306
257.636340929
259.598398731
261.586960176
263.594860938
265.618035042
267.654248902
269.702184634
271.760843692
273.829208548
275.906092491
277.990113996
280.079741609
282.173366855
284.269372539
286.366175135
288.462233114
290.556028498
292.646046051
294.730788676
296.808848189
298.879023281
300.940437326
302.992614585
305.035493921
307.069380231
309.094853859
311.11265606
313.123536594
315.128024652
317.126088889
319.116645681
321.096891237
323.061424665
325.001158363
326.902098107
328.744306287
330.501620728
332.144364046
333.646724865
335.001970069
336.267250223
336.343865185
336.344456728
336.331147204
336.257555964
336.118083194
335.950883206
335.77641481
335.592548887
335.409605481
335.246258789
335.111222817
335.002157175
334.912705491
334.835404769
334.765290111
334.701706869
334.645425995
334.597481555
334.5579465
334.524168355
334.490398461
334.45216278
334.411275374
334.371301465
334.330069916
334.288337955
334.24886623
334.215149861
334.175799081
334.078030314
333.936805237
333.928187878
333.911354367
333.901279148
333.889687721
333.881892357
333.875492328
333.870373589
333.866601782
333.863790898
333.861720813
333.860231962
333.859178498
333.858491013
333.858106332
333.857934338
242.194267565
242.640423142
243.506526798
244.74103645
246.269824999
248.019738826
249.925146607
251.932238727
254.000490015
256.1020345
258.219674823
260.344239943
262.47191338
264.601972561
266.735121568
268.872404064
271.014588602
273.161898257
275.313968352
277.469939655
279.628615583
281.788629591
283.948581463
286.107114378
288.262920504
290.414687511
292.561026522
294.700468735
296.831573539
298.953137955
301.064408495
303.165217642
305.256014057
307.337795583
309.411997113
311.480392327
313.544978801
315.607779922
317.670494321
319.733945569
321.797264068
323.856717196
325.904045327
327.924234299
329.892848257
331.772625452
333.516834284
335.092866402
336.543264549
336.570808121
336.456440775
336.35273333
336.242135138
336.094667477
335.910110469
335.710328863
335.511354326
335.31858946
335.13931136
334.983237763
334.855596539
334.755983427
334.677768376
334.612941065
334.558012904
334.511919538
334.474116392
334.444056754
334.420529605
334.400950192
334.381599483
334.359685851
334.335142167
334.308490346
334.277585744
334.241864901
334.204480001
334.16707369
334.132146923
334.103982926
334.079331444