/*--------------------------------*- C++ -*----------------------------------*\
| =========                 |                                                 |
| \\      /  F ield         | OpenFOAM: The Open Source CFD Toolbox           |
|  \\    /   O peration     | Version:  v1906                                 |
|   \\  /    A nd           | Web:      www.OpenFOAM.com                      |
|    \\/     M anipulation  |                                                 |
\*---------------------------------------------------------------------------*/
FoamFile
{
    version     2.0;
    format      ascii;
    class       volScalarField;
    location    "227";
    object      pa;
}
// * * * * * * * * * * * * * * * * * * * * * * * * * * * * * * * * * * * * * //

dimensions      [0 2 -2 0 0 0 0];


internalField   nonuniform List<scalar> 
9216
(
1033.26669979
1032.89198147
1032.10233361
1030.91612445
1029.3326607
1027.35535068
1024.98874716
1022.23860666
1019.11145389
1015.61488462
1011.75706544
1007.54720414
1002.99489238
998.110759349
992.905620465
987.391347535
981.579794146
975.483916623
969.116451441
962.491316098
955.622016601
948.523351063
941.20953149
933.6962022
925.998264997
918.132214869
910.113666812
901.959997912
893.687581242
885.314713419
876.858572549
868.33839477
859.772180436
851.180078495
842.580875007
833.995528323
825.443481157
816.946288027
808.523799496
800.197818566
791.988208665
783.916520293
776.002078514
768.265526032
760.72494443
753.399273623
746.304521264
739.457033299
732.869844573
726.555798631
720.524097043
714.783287543
709.338071325
704.192193483
699.345560381
694.797054415
690.541982613
686.574804572
682.886892004
679.469122911
676.309905403
673.397586129
670.718696787
668.260140303
666.007625852
663.947611721
662.065896343
660.349310621
658.784436046
657.359057431
656.06098815
654.879308464
653.803286839
652.823437377
651.930532495
651.116512437
650.373585783
649.695019084
649.07431946
648.505919579
647.984413204
647.505099128
647.06244118
646.656426468
646.299867603
645.996993658
645.740457431
645.529311623
645.36402424
645.240236692
645.151846766
645.090673038
645.049121862
645.023550105
645.01053967
645.005988878
1033.64040465
1033.26462439
1032.48153564
1031.29442775
1029.707765
1027.72579379
1025.35344575
1022.59657486
1019.46184834
1015.95685567
1012.08990104
1007.8701512
1003.3073599
998.412081787
993.195323461
987.668840806
981.844709175
975.735719986
969.354862891
962.715835057
955.832429063
948.719164326
941.390574921
933.861967687
926.148605357
918.26659036
910.23194019
902.061590281
893.772361129
885.382068335
876.90838318
868.370032507
859.785559213
851.174589641
842.556500434
833.951728444
825.380354768
816.86342903
808.42148424
800.075847793
791.847103847
783.756366559
775.823709912
768.0693836
760.512232943
753.170845635
746.061987661
739.201679775
732.603680997
726.280509954
720.242018008
714.496389405
709.048857121
703.902727977
699.058292275
694.513907351
690.265121251
686.305806786
682.627471369
679.220390885
676.073049275
673.173216995
670.507476184
668.06220848
665.82317516
663.776389121
661.907722169
660.203645696
658.650845208
657.236829571
655.949545111
654.777867264
653.711217434
652.739959393
651.855027391
651.048250097
650.311998399
649.639456721
649.024298641
648.460925885
647.944190562
647.469662386
647.033472891
646.633109845
646.277101067
645.975258248
645.722834425
645.516429528
645.352439945
645.228916512
645.142602568
645.083016868
645.041814396
645.017503708
645.005808578
645.001024959
1034.43005164
1034.04373296
1033.25687106
1032.06436202
1030.47039991
1028.47917646
1026.09573019
1023.32599533
1020.17676037
1016.65568146
1012.77119074
1008.5325105
1003.94953286
999.032852006
993.793619969
988.243607245
982.395036202
976.260678906
969.85366922
963.187644707
956.27653737
949.134764207
941.776995582
934.218395381
926.474364293
918.560827615
910.493950248
902.290466636
893.96736361
885.542245181
877.032979826
868.458088497
859.836353683
851.18721948
842.530358061
833.886066773
825.274789577
816.717496412
808.235158651
799.84909664
791.580410423
783.450285383
775.479383396
767.688100163
760.095925108
752.721650277
745.582711817
738.695357554
732.07399037
725.731316172
719.677725169
713.921462299
708.468102021
703.320801784
698.479932307
693.943461442
689.706767495
685.763146651
682.103771222
678.718254355
675.594678344
672.720149715
670.080852749
667.662564173
665.450704864
663.430788043
661.588440957
659.909765885
658.381314213
656.990355996
655.724804649
654.573405744
653.525624312
652.571772497
651.702876657
650.910763117
650.187919401
649.527554848
648.923469245
648.370108416
647.862467176
647.396201097
646.967613551
646.57367989
646.224217234
645.929448498
645.68829156
645.490839938
645.329217742
645.207916095
645.125478757
645.067259783
645.028279606
645.005723333
644.99362974
644.987527554
1035.6211946
1035.22969736
1034.4367528
1033.23551441
1031.63004551
1029.62450299
1027.22400361
1024.43458294
1021.26316328
1017.71752602
1013.80625558
1009.53870457
1004.92492431
999.975632134
994.702134568
989.116304729
983.230503094
977.057571825
970.610756951
963.903725199
956.950490133
949.765454641
942.363341169
934.759260157
926.968642336
919.007330429
910.891509419
902.637816734
894.263265536
885.785367398
877.222042756
868.591746551
859.913360636
851.206314679
842.490451268
833.786130339
825.114059885
816.49537227
807.951413611
799.503781961
791.174071351
782.983865254
774.954435069
767.106686279
759.460815146
752.036208725
744.851066918
737.922262953
731.264945137
724.89237797
718.815556531
713.043075846
707.580823261
702.431955047
697.59675141
693.072773383
688.85492279
684.935773778
681.305783875
677.953702602
674.866821188
672.031372674
669.432777237
667.056015635
664.885852763
662.90715644
661.105065881
659.465229253
657.973898795
656.618081321
655.385561799
654.264979285
653.245797731
652.318331592
651.473686717
650.703756196
650.001147776
649.359164949
648.771733237
648.233380563
647.73917642
647.284740102
646.865767988
646.481920286
646.14532191
645.864469933
645.635410901
645.446106586
645.294400053
645.179759431
645.097663615
645.041764348
645.005357767
644.983251629
644.970771443
644.964588642
1037.22042456
1036.82399898
1036.02296101
1034.80983616
1033.18869415
1031.16372653
1028.7401486
1025.92413157
1022.72276109
1019.14399549
1015.19661097
1010.890153
1006.23487277
1001.24167695
995.922061401
990.288066156
984.352212715
978.127470772
971.627204976
964.865158805
957.855414707
950.612398124
943.150852209
935.485861614
927.632839705
919.607568796
911.42619557
903.105282407
894.661805391
886.113211185
877.477411343
868.772835082
860.018414143
851.233624928
842.438452656
833.653410998
824.899475939
816.198071263
807.570962346
799.040197515
790.627954792
782.356433361
774.247650906
766.323283581
758.604414782
751.111324745
743.863192845
736.877839515
730.171388303
723.757974189
717.649393186
711.854828094
706.380562701
701.229833859
696.402733997
691.896303218
687.704693549
683.819501145
680.230111947
676.92411799
673.887663853
671.105822155
668.562915438
666.242869609
664.129509862
662.206859364
660.459361815
658.872088557
657.430867605
656.122394404
654.934270776
653.855037024
652.874149048
651.981964024
651.169687827
650.429336524
649.753671366
649.136149129
648.570853471
648.052442601
647.576079734
647.13738216
646.731509321
646.362186558
646.043656481
645.779935813
645.564938624
645.387677059
645.243349311
645.134876887
645.058100584
645.004990956
644.969663976
644.948017224
644.935476827
644.929192079
1039.23233814
1038.83035603
1038.01926204
1036.79111771
1035.15010331
1033.10050848
1030.64769322
1027.79800629
1024.55874198
1020.93808584
1016.94505926
1012.58945784
1007.8817893
1002.83320813
997.455452648
991.760783134
985.761925098
979.472018402
972.904573681
966.073439059
958.992774697
951.677040804
944.140991651
936.399684563
928.468490807
920.36312157
912.099650301
903.694549941
895.16472049
886.527532221
877.800851615
869.003081026
860.153177668
851.270683577
842.375724375
833.489016965
824.631836588
815.825988779
807.093732345
798.457704034
789.940788726
781.565990123
773.356245181
765.334239087
757.522164834
749.941481263
742.612616234
735.554662667
728.785020296
722.319030273
716.169571136
710.346679761
704.857194775
699.704510977
694.888457699
690.405376763
686.248363241
682.407680162
678.871249905
675.625145257
672.654001228
669.941394585
667.470209031
665.223010445
663.182397862
661.331318368
659.65332278
658.132767767
656.754955212
655.506218863
654.37395487
653.346615775
652.413673084
651.565569583
650.793657349
650.09013293
649.447966741
648.860831582
648.323028124
647.829410399
647.375317295
646.956447962
646.568394203
646.219632938
645.922860918
645.677704267
645.474202691
645.306022598
645.173430797
645.077030314
645.004622803
644.953687455
644.920370039
644.897412497
644.884292917
644.877620342
1041.66230024
1041.25379552
1040.43057647
1039.18420154
1037.51900953
1035.43944388
1032.95105455
1030.0604189
1026.77509006
1023.10353949
1019.05509151
1014.63985757
1009.86866279
1004.75297629
999.304836265
993.536783854
987.461795237
981.093227687
974.444767554
967.53039635
960.364361297
952.961165875
945.335565054
937.502579488
929.477512188
921.275980974
912.913950126
904.40777406
895.774237167
887.03060358
878.194658634
869.284755024
860.319851941
851.319551434
842.304120503
833.294503436
824.312313148
815.379803225
806.519812986
797.755685158
789.111153454
780.610198486
772.276874483
764.135103392
756.208441817
748.519812746
741.091206978
733.943337469
727.095253397
720.563892618
714.363597999
708.505599994
702.997535148
697.843065037
693.041685586
688.58879923
684.476043036
680.691872044
677.222264706
674.051360126
671.161898975
668.535592856
666.153511976
663.996516167
662.045663816
660.282573217
658.689700427
657.250548335
655.949804673
654.77341016
653.708558137
652.743649876
651.868219142
651.072856747
650.349123881
649.689469592
649.087143115
648.53610893
648.030956193
647.566803702
647.139201013
646.743591937
646.37821346
646.055152192
645.781220501
645.553203186
645.363571574
645.209463085
645.090426535
645.00082922
644.932683967
644.884112866
644.852535378
644.829443267
644.816041812
644.809350368
1044.5166395
1044.10048136
1043.26296449
1041.99501888
1040.30119203
1038.18611992
1035.65559394
1032.71647138
1029.37662439
1025.6448719
1021.53091076
1017.04523671
1012.19906669
1007.00425359
1001.47320696
995.618810462
989.454350697
982.993448096
976.25000467
969.238158779
961.972260257
954.466855213
946.736691
938.796730086
930.662180124
922.348529739
913.871594852
905.247567889
896.493072527
887.625221875
878.661675272
869.620696824
860.521212313
851.382862339
842.22604255
833.071935604
823.94251782
814.860549668
805.84952911
796.933622449
788.137550341
779.486449999
771.005691721
762.720674547
754.656579764
746.838101783
739.289132129
732.032400081
725.089040663
718.478078428
712.215817958
706.315158027
700.784895876
695.629142196
690.846986105
686.43256557
682.375500542
678.661757524
675.27476411
672.196266542
669.406727286
666.885594039
664.611701491
662.563793987
660.721039902
659.063447217
657.572170737
656.229722535
655.020107286
653.928867097
652.943037576
652.051037232
651.242542443
650.508373735
649.84038788
649.231370668
648.674937755
648.165434992
647.697839345
647.267654625
646.870829177
646.50310886
646.165208236
645.868980288
645.618946851
645.409494777
645.236206823
645.096832222
644.988720997
644.904347362
644.842419618
644.795975683
644.764185232
644.743824816
644.729927635
644.72344648
1047.80278247
1047.37774973
1046.52363024
1045.23062049
1043.50350227
1041.34715032
1038.76764406
1035.77218071
1032.36901399
1028.56738342
1024.37743219
1019.81012298
1014.87714367
1009.59081574
1003.96399612
998.009988042
991.742450928
985.175326703
978.322771908
971.199112768
963.818811286
956.196457154
948.346771531
940.284633952
932.025117125
923.583538296
914.975513015
906.217019518
897.324462498
888.314746837
879.205346641
870.014381487
860.760692796
851.463917164
842.144551824
832.824006664
823.524637888
814.269752739
805.083585474
795.991230989
787.018544186
778.191991988
769.538474618
761.085105414
752.858968424
744.886839361
737.194879592
729.808264588
722.750736361
716.044007659
709.707022257
703.75501713
698.198514521
693.042384262
688.285241326
683.919534458
679.932009004
676.3051177
673.018922543
670.052333514
667.383226645
664.988367247
662.843843308
660.925791155
659.211072901
657.677784933
656.305569023
655.075813051
653.971791741
652.978687095
652.083480285
651.274728972
650.542367125
649.877555812
649.272549911
648.720574199
648.215708813
647.752781412
647.32725744
646.93512649
646.572811962
646.23633256
645.92866526
645.662367272
645.437420405
645.247458859
645.091046239
644.965848432
644.867384364
644.791042637
644.732689793
644.689741699
644.658665757
644.640470034
644.62593658
644.619832481
1051.52933531
1051.09410798
1050.22096501
1048.89920958
1047.13390969
1044.93021439
1042.29454801
1039.23450786
1035.7588033
1031.87717164
1027.60029121
1022.93967993
1017.90759378
1012.51691413
1006.78104062
1000.71377869
994.329240829
987.641750944
980.665771817
973.415844599
965.906558478
958.152537052
950.168455113
941.969069433
933.569272389
924.98415167
916.229062797
907.319702031
898.272186665
889.103139458
879.829774595
870.469991615
861.042474807
851.566793065
842.063492238
832.554180061
823.061584481
813.60958993
804.223227102
794.928627838
785.752920414
776.724088211
767.870771881
759.222049265
750.80717766
742.655333014
734.79531312
727.255207367
720.061950904
713.240702275
706.81394661
700.800245101
695.21274547
690.057607478
685.332957106
681.028991102
677.128242137
673.607915385
670.443558975
667.611034147
665.08556488
662.84080251
660.849414315
659.084262389
657.519423337
656.130758157
654.896184743
653.795851318
652.812260273
651.930347739
651.137235417
650.421822199
649.774457032
649.18676947
648.651542398
648.162550121
647.714447118
647.302652323
646.923232127
646.572777994
646.24830977
645.946286908
645.672130055
645.436571604
645.235445229
645.065389421
644.927231368
644.817341574
644.73002101
644.660979559
644.605391599
644.563884508
644.535971285
644.518317246
644.504387825
644.498242653
1055.70616063
1055.25934171
1054.36459415
1053.01020303
1051.20154935
1048.94410779
1046.2447004
1043.11139638
1039.55343785
1035.58115212
1031.2058476
1026.43970504
1021.29565384
1015.78724894
1009.92853708
1003.73393159
997.218085356
990.395783854
983.281848704
975.891073727
968.238182031
960.337821923
952.204585399
943.853059955
935.297893177
926.55387631
917.636027739
908.559684898
899.340592493
889.99500395
880.539778574
870.992498501
861.371592832
851.69646891
841.987641893
832.266855012
822.557180071
812.883081908
803.27044294
793.746526063
784.339884976
775.080203903
765.998093125
757.124838377
748.492143405
740.131873667
732.075815455
724.355422974
717.001467425
710.043462286
703.508642719
697.420392976
691.795891185
686.643639099
681.961191176
677.736099057
673.944320157
670.554622454
667.536327524
664.862819466
662.507329454
660.439859345
658.628574015
657.042135492
655.651247623
654.429235863
653.352146062
652.398724059
651.550690663
650.792908266
650.113042953
649.500648755
648.946671961
648.443357819
647.9841579
647.563518816
647.176782448
646.820078389
646.490193348
646.184451449
645.900622929
645.63604824
645.397215153
645.191807954
645.014921286
644.867415099
644.748194343
644.651682878
644.573271074
644.510579489
644.46056411
644.421685639
644.394405048
644.377234012
644.365147984
644.358777986
1060.34445468
1059.88453055
1058.96545312
1057.57428697
1055.7167889
1053.39879856
1050.6276026
1047.41181468
1043.76130162
1039.68707863
1035.20119871
1030.31662188
1025.04708083
1019.40692948
1013.41099398
1007.07441365
1000.41249586
993.440575129
986.173903374
978.627561903
970.816419972
962.755125571
954.458144566
945.939825273
937.214494523
928.296558413
919.200611963
909.941539722
900.534619339
890.995628943
881.340959811
871.587752356
861.754051115
851.858974053
841.922885749
831.967569984
822.016374983
812.094330141
802.22819929
792.446476137
782.779288228
773.258231715
763.916121782
754.786713597
745.904404782
737.304001362
729.020543659
721.089227531
713.545279011
706.423572896
699.75776975
693.578180007
687.908587083
682.761511992
678.133910713
674.011088756
670.358278086
667.12920504
664.284012397
661.796882376
659.641333881
657.782677059
656.18256845
654.803991983
653.613665478
652.582265111
651.683847498
650.895656112
650.198396649
649.577231824
649.021137325
648.520832151
648.068029219
647.655666076
647.278071179
646.930467934
646.608992605
646.310616154
646.032960714
645.774191295
645.532890476
645.307211481
645.104566626
644.929847305
644.779346552
644.655095849
644.552326243
644.467194806
644.397335398
644.341723225
644.297106389
644.263093691
644.236910537
644.219249816
644.20976167
644.20381536
1065.45683305
1064.98219373
1064.03585804
1062.60350588
1060.69129865
1058.30550011
1055.45392306
1052.14581288
1048.39175716
1044.20357602
1039.59419022
1034.57748059
1029.16812593
1023.38143593
1017.23316553
1010.73933266
1003.91602987
996.779258046
989.344777598
981.628007117
973.643963182
965.407263911
956.932178539
948.232729869
939.322818132
930.216362081
920.927426799
911.470344142
901.859815326
892.111026966
882.239765436
872.262577449
862.196955307
852.061554187
841.876422608
831.663236594
821.445514967
811.248791708
801.100729791
791.031138058
781.071893252
771.256732642
761.620961221
752.201075602
743.034410849
734.1588729
725.61287428
717.435515689
709.666871086
702.34827557
695.521688801
689.227872738
683.501206076
678.362031725
673.80483432
669.818005198
666.347626486
663.317600837
660.673086435
658.400419167
656.479260307
654.867043485
653.514615247
652.377006071
651.416580374
650.601664689
649.904639554
649.300829094
648.769396878
648.29617951
647.873240996
647.493310782
647.148727998
646.833061151
646.541856537
646.271171592
646.018016737
645.780369342
645.556801233
645.346455983
645.148787736
644.963650981
644.797961504
644.653315735
644.529473931
644.425132071
644.3376682
644.265045144
644.205836902
644.157839079
644.118503292
644.088166913
644.065287514
644.047560193
644.040751132
644.035204872
1071.057427
1070.56631175
1069.5896095
1068.11134158
1066.13814587
1063.67675191
1060.73557691
1057.32458601
1053.45520211
1049.1401748
1044.39344005
1039.22995351
1033.6655151
1027.71656648
1021.39998135
1014.73283401
1007.73217535
1000.41481053
992.797116971
984.894901262
976.723332819
968.296943869
959.629715709
950.735217647
941.626792575
932.317738583
922.821476615
913.151674164
903.322347986
893.347963309
883.243548619
873.024869183
862.708652583
852.312862074
841.856999281
831.362424118
820.852652523
810.353622204
799.893870844
789.504614058
779.219665792
769.075205633
759.109371767
749.361752538
739.872857979
730.683763372
721.836099811
713.372589551
705.338125069
697.780987052
690.753906535
684.312716852
678.510312728
673.382312259
668.911668172
665.112688222
661.894080428
659.114395909
656.689357573
654.65496369
653.009229513
651.690613328
650.630078093
649.771046186
649.072571986
648.502035911
648.031065003
647.632306817
647.281359574
646.964801453
646.682436198
646.430257152
646.200247486
645.98589108
645.784971649
645.594216329
645.411451783
645.235982174
645.067398754
644.905998897
644.752350542
644.607316996
644.477890642
644.362810782
644.262971859
644.178207941
644.106612018
644.048304484
644.000387629
643.960005066
643.926626284
643.900441486
643.879992615
643.864705036
643.858920963
643.853977822
1077.16198659
1076.6525111
1075.64208563
1074.11283341
1072.07189312
1069.52652272
1066.48581382
1062.96055733
1058.96313172
1054.50736385
1049.60836306
1044.28234409
1038.54642132
1032.41838692
1025.91645376
1019.05898395
1011.86419622
1004.34988878
996.533186442
988.430358463
980.056717762
971.426636712
962.553665246
953.450748414
944.130486753
934.60540058
924.888134111
914.991589971
904.9289955
894.713971422
884.360614324
873.883686816
863.29888047
852.623165858
841.875187126
831.075688901
820.247934065
809.418081678
798.61548333
787.872829279
777.226115875
766.714343304
756.378985539
746.263203618
736.411019798
726.866647088
717.674409564
708.879689173
700.530935889
692.682965782
685.400677654
678.761970916
672.85276233
667.743157029
663.35993504
659.834604982
656.992827357
654.538544687
652.31368318
650.53165913
649.220868451
648.263207172
647.549202661
647.009576281
646.604147941
646.304954221
646.084719278
645.913178542
645.756893445
645.599292174
645.461574262
645.344547849
645.235527594
645.125391292
645.01777053
644.909082495
644.797527635
644.684633268
644.570789835
644.457710737
644.346867667
644.240528974
644.144928648
644.057972912
643.981832816
643.917494663
643.863602958
643.819955195
643.781814912
643.748456576
643.72195542
643.700768991
643.684306077
643.671810899
643.664769059
643.661453471
1083.78799798
1083.25808847
1082.21037482
1080.62468496
1078.5087279
1075.87032529
1072.71933167
1069.06747184
1064.92822381
1060.31664909
1055.2492158
1049.74359578
1043.8184493
1037.49316674
1030.78757925
1023.72161712
1016.31494882
1008.58660442
1000.55464264
992.235884182
983.645778587
974.798415176
965.706711255
956.382728848
946.838078701
937.084295781
927.133117999
916.996600375
906.687117341
896.217335452
885.60024272
874.849330524
863.978915056
853.004580053
841.943693609
830.81597524
819.64406084
808.454052014
797.275963227
786.144018104
775.096670929
764.176291552
753.428415249
742.90058067
732.640901994
722.696745535
713.114192202
703.9392107
695.220779059
687.016710218
679.402659403
672.485758098
666.414677602
661.359219313
656.991675395
653.911079568
651.700070012
649.67060818
647.328491892
645.639241037
644.720851395
644.239239899
643.976025924
643.837811915
643.80090296
643.853250538
643.97469438
644.125264066
644.223731092
644.220151544
644.22462031
644.251178642
644.270422965
644.263055749
644.251209446
644.226393651
644.185030741
644.134094115
644.073470067
644.0071479
643.937403423
643.868297057
643.80204775
643.742251563
643.690509493
643.646009371
643.61077068
643.5792273
643.549618278
643.525649818
643.507242715
643.49151797
643.47907359
643.469099385
643.461964124
643.460101612
1090.95479793
1090.40223192
1089.31339185
1087.66542231
1085.46660014
1082.72536214
1079.45240337
1075.66051638
1071.36443404
1066.58063782
1061.32714922
1055.62332428
1049.48961958
1042.94732373
1036.01821617
1028.72416233
1021.08664039
1013.12624769
1004.86222538
996.31208361
987.491385396
978.413764728
969.091190824
959.534466017
949.753841844
939.759607004
929.562464149
919.173610959
908.604578093
897.867030243
886.972665728
875.933391294
864.761710822
853.471309416
842.077724211
830.599084438
819.056869778
807.476678242
795.888920246
784.329327167
772.83915559
761.464871175
750.257212037
739.26944887
728.5549782
718.164726286
708.145312188
698.539998242
689.39249395
680.754862581
672.703322391
665.372030401
659.021632407
654.119456622
648.897666434
646.464408965
645.632461074
644.782657657
644.146576464
643.818287104
643.674379254
643.61376454
643.571113457
643.526325585
643.479524409
643.411826775
643.284438683
643.052670047
642.763169639
642.67564906
642.834581927
643.085415635
643.309089703
643.408670183
643.497308826
643.559340599
643.582688479
643.592732087
643.582087441
643.559853886
643.527949159
643.49176436
643.454534716
643.421652819
643.392932514
643.368617515
643.349100128
643.328433453
643.310984952
643.29746702
643.286181009
643.275851528
643.266505457
643.259745498
643.253654071
643.252763311
1098.68369754
1098.10603628
1096.97203986
1095.25553902
1092.96540444
1090.11069193
1086.70303889
1082.75645429
1078.2871201
1073.31313607
1067.85429409
1061.93186411
1055.56838137
1048.7873672
1041.6129614
1034.06942417
1026.18053593
1017.9689165
1009.45535937
1000.65826114
991.593284643
982.273341008
972.708981382
962.909152941
952.88219757
942.636790273
932.18251348
921.529830339
910.689612198
899.672576212
888.488977827
877.148747825
865.662017458
854.039902706
842.295383111
830.444240084
818.50604286
806.505213913
794.472061494
782.443671705
770.464414787
758.585835164
746.865573571
735.364937618
724.145046917
713.261908102
702.761595975
692.680592053
683.048764822
673.894720149
665.255555672
657.165460563
649.600294496
646.285344265
645.100957196
644.950673657
645.056639552
644.994666553
644.842601805
644.675051717
644.525630377
644.39235225
644.263395874
644.13642394
644.003866057
643.849835661
643.662916959
643.446333532
643.247420087
643.13633757
643.084455426
642.949330902
642.628536128
642.480882407
642.704518862
642.914715784
642.995947978
643.070251193
643.103218257
643.121808147
643.123058116
643.117136928
643.108971188
643.101444133
643.094425937
643.08904753
643.083649723
643.075677558
643.070750843
643.065640234
643.060243162
643.05507849
643.049877473
643.045803607
643.041618642
643.041611832
1106.99808041
1106.3927449
1105.20935015
1103.41771243
1101.02718652
1098.04744545
1094.49116902
1090.37379247
1085.7131787
1080.52928033
1074.84386942
1068.68036258
1062.06365167
1055.01987338
1047.57601613
1039.75933783
1031.59657923
1023.11303933
1014.33160365
1005.27188303
995.949635791
986.376675161
976.561394171
966.509947692
956.227876673
945.721713305
934.999915142
924.072631419
912.950569857
901.643775339
890.160929781
878.509488666
866.696453246
854.729499636
842.618116266
830.374745182
818.016000166
805.564108216
793.048432748
780.506936857
767.987292206
755.547260264
743.253795197
731.180072371
719.399567987
707.977462148
696.959216807
686.371819236
676.2255312
666.510502125
657.126057912
647.422321039
646.274139089
646.122554563
646.12566986
646.202794919
646.326123323
646.371492571
646.337732055
646.228669337
646.072409836
645.893860542
645.711102446
645.52198668
645.308703333
645.055329637
644.747903592
644.393807664
644.038222482
643.735254269
643.484258931
643.251662483
643.057539609
642.943055417
642.798587828
642.47268064
642.362775029
642.558039466
642.639857553
642.699273345
642.72742722
642.752496438
642.769817645
642.784992943
642.797344449
642.809140569
642.815644207
642.820388953
642.825284263
642.828251011
642.829785968
642.830382505
642.830650391
642.828903839
642.82760228
642.827882829
1115.92348087
1115.28772701
1114.05067788
1112.17702703
1109.67643466
1106.55909022
1102.83888025
1098.53296242
1093.66121073
1088.24568837
1082.31034636
1075.88092427
1068.98492744
1061.65150275
1053.91107929
1045.79468347
1037.33292875
1028.55473212
1019.48590461
1010.1478075
1000.55637007
990.721771162
980.649112714
970.340211353
959.796319586
949.020970109
938.021687593
926.809304857
915.39548706
903.790232546
892.000561531
880.030721762
867.883518521
855.56204941
843.071171067
830.418731919
817.616980966
804.684438569
791.648118917
778.54582612
765.428246758
752.36039572
739.421686262
726.703002577
714.298566498
702.292088247
690.729132634
679.626908677
668.978389279
658.690386272
648.00379383
646.736163736
647.222790212
647.554186146
647.771562304
647.922937503
648.06347073
648.160189253
648.186639081
648.126333626
647.989600108
647.796157081
647.569466425
647.312913322
647.016722459
646.673367227
646.275575968
645.832068756
645.375208836
644.938359264
644.51982655
644.100772506
643.700363994
643.361285843
643.090070444
642.891526861
642.732093316
642.449979315
642.166722076
642.275672303
642.342202983
642.401207289
642.439504652
642.474781939
642.502051122
642.527484153
642.545400874
642.561640312
642.575361762
642.586614994
642.595734609
642.602823118
642.608297527
642.610194098
642.611433795
642.611845333
1125.48755537
1124.81869552
1123.5238691
1121.56132416
1118.94046081
1115.67179751
1111.77068294
1107.2565207
1102.15167965
1096.4806443
1090.26966143
1083.54685655
1076.34249662
1068.68912245
1060.62128717
1052.17479133
1043.38537478
1034.28694903
1024.90953525
1015.27717631
1005.4062272
995.304547213
984.972188496
974.40406496
963.594510424
952.542550566
941.255356522
929.746646495
918.031307859
906.120548862
894.01958557
881.728248213
869.243529492
856.56248031
843.68402677
830.609970657
817.346329115
803.905749029
790.310629733
776.596627234
762.816140986
749.041711595
735.36845035
721.91328977
708.805423355
696.168518127
684.044594306
672.435948423
661.266234653
649.829831222
648.389957848
648.764500592
649.213506375
649.450278079
649.674139438
649.881834073
650.072969914
650.213860192
650.275703736
650.239805574
650.107114385
649.89142267
649.614833161
649.286314135
648.905722929
648.474788229
647.994752561
647.475894124
646.93991459
646.406802465
645.878004547
645.345037493
644.814552244
644.304963853
643.823646653
643.389590755
643.034453823
642.771027431
642.56866532
642.279756684
641.95444873
642.048215964
642.117701388
642.174897827
642.211069797
642.247654
642.276991641
642.303148306
642.323906752
642.343238492
642.360074614
642.373348861
642.383700823
642.39033014
642.393255547
642.394279399
1135.71991842
1135.01557883
1133.65947895
1131.60164554
1128.84999989
1125.41493352
1121.31383152
1116.56930832
1111.20703852
1105.25427398
1098.73950947
1091.69304223
1084.14782905
1076.14008666
1067.70927291
1058.89725474
1049.74663667
1040.29833471
1030.58859186
1020.64574254
1010.48727028
1000.11793923
989.530125491
978.707504228
967.632666418
956.297174938
944.709235752
932.890153948
920.862512637
908.640942504
896.228427587
883.618112085
870.798508515
857.758764069
844.490716467
830.988620711
817.249924478
803.278278734
789.088083469
774.709377849
760.193086089
745.617271584
731.094480671
716.777626657
702.853869947
689.540852136
676.849427321
664.685836236
652.359213526
650.870270773
651.24072503
651.472895404
651.565127672
651.704009726
651.913933269
652.13239951
652.32652822
652.458960445
652.502671891
652.440976398
652.272452315
652.008694819
651.668344204
651.263106878
650.800699598
650.288978836
649.734580579
649.147723705
648.542786503
647.931970432
647.319016705
646.703462198
646.089812335
645.485128565
644.890379219
644.310303792
643.761318478
643.263651801
642.849745378
642.544144556
642.335866045