/*--------------------------------*- C++ -*----------------------------------*\
| =========                 |                                                 |
| \\      /  F ield         | OpenFOAM: The Open Source CFD Toolbox           |
|  \\    /   O peration     | Version:  v1906                                 |
|   \\  /    A nd           | Web:      www.OpenFOAM.com                      |
|    \\/     M anipulation  |                                                 |
\*---------------------------------------------------------------------------*/
FoamFile
{
    version     2.0;
    format      ascii;
    class       volVectorField;
    location    "138";
    object      U;
}
// * * * * * * * * * * * * * * * * * * * * * * * * * * * * * * * * * * * * * //

dimensions      [0 1 -1 0 0 0 0];


internalField   nonuniform List<vector> 
9216
(
(0.00271645768059 -0.00271558234065 0)
(0.00286435860171 -0.00876354510378 1.1919496684e-27)
(0.00285627024242 -0.0149057620683 1.8412085976e-31)
(0.00281918788461 -0.021048635367 0)
(0.00276753806906 -0.0270891340455 0)
(0.00270308207655 -0.0330029291566 0)
(0.00262715693618 -0.0387644419202 0)
(0.00254150679447 -0.0443506351513 0)
(0.00244698282553 -0.0497415808406 0)
(0.00234535650996 -0.0549198127062 0)
(0.0022373436533 -0.0598709375849 0)
(0.00212475011796 -0.0645829140187 0)
(0.00200807855371 -0.0690465983232 0)
(0.00188909331878 -0.0732549041903 0)
(0.00176802259379 -0.0772033184336 0)
(0.0016465462654 -0.0808889731686 0)
(0.00152457453801 -0.0843111392344 0)
(0.00140369540284 -0.0874702901212 0)
(0.00128351807459 -0.0903686195667 0)
(0.00116557128303 -0.0930091177375 0)
(0.00104918553932 -0.0953961328426 0)
(0.000935857982569 -0.0975344723729 0)
(0.000824677329996 -0.0994300111878 0)
(0.000717146051785 -0.101088820858 0)
(0.000612139898206 -0.102517820425 0)
(0.000511200496979 -0.103723934718 0)
(0.000413014895799 -0.104714798339 0)
(0.000319187319487 -0.105497883728 0)
(0.000228245327714 -0.106081264993 0)
(0.000141861163935 -0.106472795146 0)
(5.84150071696e-05 -0.106680780198 0)
(-2.03558113368e-05 -0.106713310584 0)
(-9.62498571592e-05 -0.106578759682 0)
(-0.000167426155374 -0.106285131474 0)
(-0.000235788227788 -0.105840826322 0)
(-0.000299431933098 -0.10525379987 0)
(-0.000360402299136 -0.104532243404 0)
(-0.000416717678388 -0.103683935185 0)
(-0.000470540590118 -0.102716785041 0)
(-0.000519815411763 -0.10163826523 0)
(-0.000566811528666 -0.100455916096 0)
(-0.000609419504516 -0.0991768352516 0)
(-0.000650006233261 -0.0978080805028 0)
(-0.000686389006782 -0.0963562868346 0)
(-0.000721017508699 -0.0948280169035 0)
(-0.000751656647749 -0.0932293867602 0)
(-0.000780818130353 -0.0915664114525 0)
(-0.000806223140247 -0.0898446711291 0)
(-0.000830426258661 -0.0880696049449 0)
(-0.000851106535999 -0.0862462666108 0)
(-0.000870848888311 -0.0843795330924 0)
(-0.000887292950238 -0.0824739460927 0)
(-0.000903036879981 -0.080533854579 0)
(-0.000915697362239 -0.0785633345781 0)
(-0.000927865202512 -0.0765662560095 0)
(-0.000937138768626 -0.0745462836386 0)
(-0.000946093479745 -0.0725068724499 0)
(-0.000952319079303 -0.070451333869 0)
(-0.000958354870822 -0.0683827929945 0)
(-0.000961801121783 -0.0663042895742 0)
(-0.000965164128573 -0.0642186494987 0)
(-0.000966059469555 -0.0621287005375 0)
(-0.000966941402684 -0.060037042038 0)
(-0.000965459270363 -0.057946328931 0)
(-0.000964021794561 -0.0558589662662 0)
(-0.000960328880627 -0.0537774661959 0)
(-0.000956713698097 -0.0517040513429 0)
(-0.000950947206053 -0.0496410994092 0)
(-0.000945303239146 -0.0475906668827 0)
(-0.000937640648898 -0.0455549555931 0)
(-0.000930159126725 -0.0435357916586 0)
(-0.000920811180469 -0.0415351795464 0)
(-0.000911708092495 -0.0395546801389 0)
(-0.000900926840999 -0.0375960560532 0)
(-0.0008904811661 -0.0356605381143 0)
(-0.000878573653319 -0.0337495813034 0)
(-0.00086710337278 -0.0318640401719 0)
(-0.000854421118132 -0.0300050187095 0)
(-0.000842291575113 -0.0281729429107 0)
(-0.000829224306918 -0.026368518248 0)
(-0.000816819461281 -0.0245917155749 0)
(-0.000803746330624 -0.022842853526 0)
(-0.000791416114562 -0.021121492272 0)
(-0.000778635493381 -0.0194276419783 0)
(-0.00076655763446 -0.0177606269185 0)
(-0.000754056157495 -0.0161204706307 0)
(-0.000741809026044 -0.0145068085857 0)
(-0.000728340517327 -0.0129207784289 0)
(-0.000713123643014 -0.0113639475626 0)
(-0.000693339333623 -0.0098432849587 0)
(-0.000663177261052 -0.0083715006781 0)
(-0.00060390367696 -0.00697542047093 0)
(-0.000518743365502 -0.00549142244954 0)
(-0.00060325018679 -0.00450110155297 0)
(-0.000911635082141 -0.00322847368298 0)
(-0.00131273482687 -0.00130777716307 0)
(0.00879334988317 -0.00289062372527 0)
(0.00972310603038 -0.00978226201795 0)
(0.00970100956878 -0.0166610297878 -1.25167985492e-27)
(0.00957211643224 -0.0235455357128 0)
(0.00939347842489 -0.0303059424619 0)
(0.00917290525682 -0.0369205413398 0)
(0.00891427636398 -0.043362083404 0)
(0.00862239715367 -0.0496053642013 0)
(0.00830090906473 -0.0556281524918 0)
(0.00795487271316 -0.0614111454757 0)
(0.00758776536155 -0.066938273773 0)
(0.00720459941019 -0.0721963621853 0)
(0.00680833116015 -0.077175283164 0)
(0.00640362551529 -0.0818674658666 0)
(0.00599268308426 -0.0862680005346 0)
(0.00557965786663 -0.0903740036247 0)
(0.00516589780742 -0.0941847954032 0)
(0.00475504010001 -0.097701218641 0)
(0.00434761462735 -0.100925845289 0)
(0.0039468119393 -0.103862294793 0)
(0.00355243699081 -0.10651546359 0)
(0.00316736248997 -0.108890974371 0)
(0.00279079129801 -0.110995363858 0)
(0.00242539987546 -0.11283562624 0)
(0.00206990031359 -0.114419443547 0)
(0.00172687162509 -0.115754736974 0)
(0.00139462287269 -0.116849933292 0)
(0.00107571583785 -0.117713592596 0)
(0.000768117163429 -0.118354590574 0)
(0.000474414209391 -0.118781839617 0)
(0.000192281125691 -0.119004529537 0)
(-7.56718491169e-05 -0.119031695665 0)
(-0.000332078360162 -0.118872637665 0)
(-0.000574235486968 -0.118536510391 0)
(-0.000804994386601 -0.118032562901 0)
(-0.00102161624508 -0.117369813757 0)
(-0.00122722034222 -0.116557323294 0)
(-0.00141899602972 -0.115603878573 0)
(-0.00160027603679 -0.11451823012 0)
(-0.00176819196885 -0.11330882677 0)
(-0.00192627786642 -0.111983987093 0)
(-0.00207161143526 -0.110551687401 0)
(-0.00220789573883 -0.109019771751 0)
(-0.00233213230167 -0.10739569867 0)
(-0.00244816851462 -0.105686722766 0)
(-0.00255295054567 -0.103899743828 0)
(-0.00265043577098 -0.102041364355 0)
(-0.00273749621174 -0.100117871627 0)
(-0.00281814432343 -0.0981352760081 0)
(-0.002889202849 -0.096099236446 0)
(-0.0029547234341 -0.0940151445937 0)
(-0.00301144152174 -0.0918880703334 0)
(-0.00306341225937 -0.0897228286078 0)
(-0.00310732388563 -0.0875239514788 0)
(-0.00314718716139 -0.0852957280176 0)
(-0.00317963389397 -0.0830422212989 0)
(-0.00320862428634 -0.0807672695936 0)
(-0.00323074658886 -0.0784745402199 0)
(-0.0032498825705 -0.0761675045734 0)
(-0.00326260399973 -0.0738494828169 0)
(-0.00327270812403 -0.0715236617374 0)
(-0.00327677017854 -0.0691931342171 0)
(-0.00327849528335 -0.0668608310786 0)
(-0.00327449461468 -0.0645296547216 0)
(-0.00326837991096 -0.0622023039109 0)
(-0.00325683272422 -0.059881587612 0)
(-0.00324336685831 -0.0575700011762 0)
(-0.00322476545577 -0.055270140819 0)
(-0.0032044633465 -0.0529843705107 0)
(-0.00317938352821 -0.0507150539139 0)
(-0.00315287458677 -0.0484643569309 0)
(-0.0031220249785 -0.0462344110069 0)
(-0.00309005732531 -0.0440270822974 0)
(-0.00305428153312 -0.0418442276478 0)
(-0.00301781002864 -0.0396873616544 0)
(-0.0029781414439 -0.0375579801776 0)
(-0.00293824637521 -0.0354571931608 0)
(-0.00289587662092 -0.0333860918424 0)
(-0.00285380938043 -0.0313452973935 0)
(-0.00281005780402 -0.0293354585106 0)
(-0.00276716988517 -0.0273567009506 0)
(-0.00272334329765 -0.0254091313619 0)
(-0.00268082874764 -0.0234924753566 0)
(-0.00263798663573 -0.0216064098693 0)
(-0.00259658195604 -0.0197502829214 0)
(-0.0025549236273 -0.0179235739568 0)
(-0.00251375038712 -0.0161255188709 0)
(-0.00247033007683 -0.0143558885691 0)
(-0.00242271111442 -0.0126141441669 0)
(-0.00236473519708 -0.0109009558876 0)
(-0.00228454638486 -0.00921831916765 0)
(-0.00215301322735 -0.00756655140265 0)
(-0.0019446418933 -0.00580184328075 0)
(-0.00205590097695 -0.00422371355547 0)
(-0.00279711238829 -0.00277667822386 0)
(-0.00323359174043 -0.00090303199941 0)
(0.0150528466275 -0.00293639429456 0)
(0.0166672668694 -0.00994281546289 0)
(0.016607183899 -0.0169116514526 -1.24962570162e-27)
(0.0163770175805 -0.0238966374501 0)
(0.0160662937488 -0.0307538440695 0)
(0.0156849865957 -0.0374600922976 0)
(0.0152393752484 -0.0439870490168 0)
(0.0147366526632 -0.0503090092725 0)
(0.0141838558227 -0.0564033674795 0)
(0.0135887626964 -0.0622507323353 0)
(0.0129584204082 -0.0678350201045 0)
(0.0123003405325 -0.0731432656418 0)
(0.0116208560175 -0.0781655790529 0)
(0.0109266474945 -0.0828948110222 0)
(0.0102229048335 -0.0873264038238 0)
(0.00951519841115 -0.0914580250774 0)
(0.00880744524414 -0.0952893647279 0)
(0.00810410162266 -0.0988218139979 0)
(0.00740787704206 -0.102058252329 0)
(0.00672223540414 -0.105002785141 0)
(0.00604886755712 -0.10766060407 0)
(0.00539047019052 -0.110037715725 0)
(0.00474793164654 -0.112140898218 0)
(0.00412340135736 -0.113977461064 0)
(0.00351716086564 -0.115555253025 0)
(0.00293098117349 -0.116882450856 0)
(0.00236468226253 -0.117967640624 0)
(0.00181977233952 -0.118819537879 0)
(0.00129572183548 -0.11944713991 0)
(0.000793874329357 -0.11985957844 0)
(0.00031340567791 -0.12006606983 0)
(-0.000144480118464 -0.1200759347 0)
(-0.000580867877573 -0.119898500993 0)
(-0.000994644323229 -0.119543083876 0)
(-0.00138712412312 -0.119019009368 0)
(-0.00175730950575 -0.118335411852 0)
(-0.0021067392761 -0.117501438009 0)
(-0.00243448865672 -0.116526020083 0)
(-0.0027422899419 -0.115417971384 0)
(-0.00302930737745 -0.114185864763 0)
(-0.00329745314161 -0.1128380875 0)
(-0.0035459370832 -0.111382743636 0)
(-0.00377679977266 -0.109827710205 0)
(-0.00398927395372 -0.108180541883 0)
(-0.00418554287497 -0.106448557178 0)
(-0.00436485632048 -0.104638665964 0)
(-0.00452944569103 -0.102757555661 0)
(-0.00467855019729 -0.100811575868 0)
(-0.0048144301237 -0.0988067214065 0)
(-0.00493628432784 -0.0967486634407 0)
(-0.00504636948401 -0.0946428413307 0)
(-0.00514382271784 -0.0924943251594 0)
(-0.00523085424958 -0.0903078865133 0)
(-0.00530651503737 -0.0880880873723 0)
(-0.00537293764832 -0.0858392039827 0)
(-0.00542909783 -0.0835652901493 0)
(-0.00547704026023 -0.0812701737867 0)
(-0.00551564421742 -0.0789574948005 0)
(-0.00554685459168 -0.0766307164227 0)
(-0.00556947385901 -0.0742931608337 0)
(-0.00558534313796 -0.071948001921 0)
(-0.0055932130019 -0.0695983108948 0)
(-0.00559484395597 -0.067247039201 0)
(-0.00558896531454 -0.0648970619887 0)
(-0.00557726033009 -0.0625511530125 0)
(-0.00555847198397 -0.0602120415438 0)
(-0.00553425421086 -0.0578823221667 0)
(-0.00550340203307 -0.0555645492448 0)
(-0.00546755284717 -0.0532611595351 0)
(-0.0054255928381 -0.050974527342 0)
(-0.00537915184628 -0.0487068295413 0)
(-0.00532724005365 -0.0464602811075 0)
(-0.00527150417749 -0.044236807718 0)
(-0.00521108917782 -0.0420382079941 0)
(-0.00514765228402 -0.0398661879897 0)
(-0.00508049386151 -0.0377221779256 0)
(-0.00501125964745 -0.0356073789354 0)
(-0.004939408187 -0.033522830676 0)
(-0.00486654576491 -0.0314692743339 0)
(-0.00479224161497 -0.0294471597575 0)
(-0.00471804691702 -0.027456869607 0)
(-0.00464360734838 -0.0254983081174 0)
(-0.00457027975318 -0.0235712216154 0)
(-0.00449769409386 -0.0216750933594 0)
(-0.00442683673089 -0.0198091016112 0)
(-0.00435704857363 -0.0179722239906 0)
(-0.00428839739767 -0.0161631427429 0)
(-0.00421914157454 -0.0143801538432 0)
(-0.00414711470939 -0.0126204819838 0)
(-0.00406753112344 -0.0108788197803 0)
(-0.00397391662348 -0.00914911532612 0)
(-0.00385146442536 -0.00740880846631 0)
(-0.00369000012355 -0.0055712550492 0)
(-0.00371865868039 -0.00367826553711 0)
(-0.00422642174404 -0.00202257824067 0)
(-0.00447995546326 -0.000592485566888 0)
(0.0214600787796 -0.00298159697907 0)
(0.0237798813231 -0.0100927897908 0)
(0.0236910874333 -0.0171568435936 1.24904413823e-27)
(0.0233576276361 -0.0242377721489 0)
(0.0229084337766 -0.0311855612793 0)
(0.0223580340448 -0.0379755586851 0)
(0.0217157969105 -0.0445782383203 0)
(0.020991896454 -0.0509671961264 0)
(0.0201969002352 -0.0571194704935 0)
(0.0193417701374 -0.0630156214422 0)
(0.0184371211695 -0.068639745396 0)
(0.0174934072434 -0.0739793022069 0)
(0.0165202076301 -0.0790249355207 0)
(0.015526622181 -0.0837701796393 0)
(0.0145205823078 -0.0882111771703 0)
(0.0135094514271 -0.0923463343509 0)
(0.0124993592332 -0.0961760733325 0)
(0.0114959507495 -0.0997024792368 0)
(0.0105036765703 -0.102929076311 0)
(0.00952668688161 -0.105860556945 0)
(0.00856804957901 -0.108502607237 0)
(0.00763074408742 -0.110861693586 0)
(0.0067167776725 -0.112944969103 0)
(0.00582828360408 -0.114760057196 0)
(0.00496651324669 -0.116315094011 0)
(0.0041329928197 -0.11761849517 0)
(0.00332840189794 -0.118678985565 0)
(0.00255383882744 -0.119505514806 0)
(0.00180960058268 -0.120107207011 0)
(0.00109647397079 -0.120493325015 0)
(0.000414413023419 -0.120673255513 0)
(-0.000236049076381 -0.120656374589 0)
(-0.000855245671136 -0.120452159809 0)
(-0.00144285191279 -0.120070022333 0)
(-0.0019994657181 -0.11951935231 0)
(-0.00252499432927 -0.118809448126 0)
(-0.00302026238172 -0.117949501512 0)
(-0.00348536402749 -0.116948577589 0)
(-0.00392134341425 -0.115815505333 0)
(-0.0043284624997 -0.114558973535 0)
(-0.00470796020514 -0.11318742818 0)
(-0.00506022539368 -0.111709033006 0)
(-0.00538666427938 -0.110131769851 0)
(-0.00568775361625 -0.10846315682 0)
(-0.00596500983908 -0.106710514386 0)
(-0.00621898109113 -0.104880890018 0)
(-0.00645122402222 -0.102980878118 0)
(-0.0066622970262 -0.101016855341 0)
(-0.00685378698353 -0.0989948294099 0)
(-0.00702622175808 -0.0969204861781 0)
(-0.00718113872801 -0.0947991893874 0)
(-0.00731901036332 -0.0926359986016 0)
(-0.00744129344832 -0.0904356726785 0)
(-0.00754834314653 -0.0882027296136 0)
(-0.00764149187658 -0.0859413295256 0)
(-0.0077209680731 -0.0836555069405 0)
(-0.00778800105217 -0.0813490329086 0)
(-0.00784267975153 -0.079025487914 0)
(-0.00788607914408 -0.076688284975 0)
(-0.00791816195564 -0.0743406952985 0)
(-0.0079398846185 -0.0719858534619 0)
(-0.00795110628255 -0.0696267879022 0)
(-0.00795268710276 -0.0672664277779 0)
(-0.00794442625801 -0.0649076158777 0)
(-0.00792709428522 -0.0625531238091 0)
(-0.007900484513 -0.0602056975914 0)
(-0.0078653898544 -0.0578679284817 0)
(-0.00782162789878 -0.0555423683694 0)
(-0.00776998785777 -0.0532314994833 0)
(-0.00771037842315 -0.050937708487 0)
(-0.00764364830669 -0.0486632597023 0)
(-0.00756978730148 -0.0464103324614 0)
(-0.00748974821589 -0.0441809272311 0)
(-0.00740367830298 -0.0419769847805 0)
(-0.00731261111849 -0.0398001423335 0)
(-0.00721684215891 -0.037651907581 0)
(-0.00711748765237 -0.0355335530602 0)
(-0.00701496007185 -0.033446135012 0)
(-0.00691044627141 -0.0313904318673 0)
(-0.00680442508743 -0.029366969927 0)
(-0.00669807219691 -0.0273759705089 0)
(-0.00659194940172 -0.0254173942111 0)
(-0.00648709240171 -0.0234908184671 0)
(-0.00638396871007 -0.021595718793 0)
(-0.00628335560346 -0.0197309266771 0)
(-0.00618543821454 -0.0178952759183 0)
(-0.00609040368549 -0.0160868388648 0)
(-0.00599754617231 -0.0143027997088 0)
(-0.00590619065625 -0.0125396333222 0)
(-0.0058142776383 -0.0107899205775 0)
(-0.00572278452736 -0.00904535820137 0)
(-0.00563369416342 -0.00728536007541 0)
(-0.00556422593109 -0.00547409573896 0)
(-0.00560697176323 -0.00361540965757 0)
(-0.00580249709044 -0.00190212101303 0)
(-0.00547973286097 -0.00050731855164 0)
(0.0279738297945 -0.00304094691457 0)
(0.0310008664264 -0.010289960424 0)
(0.0308807411384 -0.0174861284147 0)
(0.0304386710636 -0.0246959974703 0)
(0.0298437084326 -0.0317647160652 0)
(0.0291154654984 -0.0386659179544 0)
(0.0282667937138 -0.0453686382068 0)
(0.0273114002621 -0.0518455728551 0)
(0.0262636271646 -0.0580732911958 0)
(0.0251380934047 -0.0640323478817 0)
(0.0239491023921 -0.0697071592915 0)
(0.022710419307 -0.0750858015708 0)
(0.0214348417367 -0.0801597398301 0)
(0.0201341639597 -0.0849234641193 0)
(0.0188188884254 -0.0893741305613 0)
(0.0174984007006 -0.0935112171141 0)
(0.0161807671575 -0.0973361494581 0)
(0.0148730158439 -0.100851978395 0)
(0.013580999264 -0.104063102766 0)
(0.0123097475045 -0.106975001392 0)
(0.0110633233716 -0.109594053388 0)
(0.00984521707835 -0.111927297516 0)
(0.00865816280299 -0.113982376258 0)
(0.00750455934274 -0.115767386913 0)
(0.00638620829083 -0.117290764627 0)
(0.00530470384545 -0.11856126277 0)
(0.0042611809375 -0.119587806908 0)
(0.00325671629432 -0.12037962294 0)
(0.00229196749609 -0.120945981423 0)
(0.00136760369067 -0.121296340207 0)
(0.00048388774202 -0.12144021249 0)
(-0.000358857466888 -0.121387182206 0)
(-0.00116069561556 -0.12114682786 0)
(-0.00192162195387 -0.120728737793 0)
(-0.00264201695169 -0.120142372679 0)
(-0.00332216329235 -0.119397190151 0)
(-0.00396272311347 -0.118502500701 0)
(-0.00456425999069 -0.11746745814 0)
(-0.00512770823063 -0.116301086988 0)
(-0.00565385064022 -0.115012077241 0)
(-0.00614387347416 -0.113609068298 0)
(-0.00659874388858 -0.112100162306 0)
(-0.00701984282908 -0.110493459828 0)
(-0.00740830017453 -0.10879653884 0)
(-0.00776557386368 -0.10701680234 0)
(-0.00809288981018 -0.105161264213 0)
(-0.00839180784128 -0.103236603198 0)
(-0.00866357072639 -0.101249200218 0)
(-0.00890973802179 -0.0992049735133 0)
(-0.00913151713347 -0.097109625249 0)
(-0.00933040774305 -0.0949684733308 0)
(-0.00950754906511 -0.0927865323358 0)
(-0.00966432065266 -0.0905685071749 0)
(-0.00980172681842 -0.0883188060582 0)
(-0.00992099050101 -0.0860416245985 0)
(-0.0100229133294 -0.0837408080811 0)
(-0.0101085679789 -0.0814200970807 0)
(-0.0101785911765 -0.0790829805301 0)
(-0.0102338426736 -0.0767327999066 0)
(-0.0102747829043 -0.0743727560177 0)
(-0.0103021339642 -0.0720059249453 0)
(-0.0103162024252 -0.0696352781214 0)
(-0.0103175897042 -0.0672637108091 0)
(-0.0103064788244 -0.0648940278714 0)
(-0.0102833552829 -0.0625290311477 0)
(-0.0102484942805 -0.0601714586236 0)
(-0.0102024145016 -0.0578238072287 0)
(-0.0101452993265 -0.0554887147366 0)
(-0.0100776766662 -0.0531686826273 0)
(-0.00999989345875 -0.0508661407801 0)
(-0.00991258556231 -0.0485834252195 0)
(-0.00981615368776 -0.0463227704236 0)
(-0.00971139987299 -0.0440862909537 0)
(-0.00959895441117 -0.0418759228112 0)
(-0.00947975595051 -0.0396934143344 0)
(-0.009354553579 -0.0375403028051 0)
(-0.00922443433432 -0.0354179705448 0)
(-0.00909033453186 -0.0333275102383 0)
(-0.00895345347586 -0.0312697297844 0)
(-0.00881478674233 -0.029245172954 0)
(-0.00867559074795 -0.0272540691176 0)
(-0.00853692773162 -0.0252963339547 0)
(-0.00839999357547 -0.0233716280661 0)
(-0.00826575103983 -0.0214791319792 0)
(-0.00813523077432 -0.0196177175898 0)
(-0.00800916972143 -0.0177857826668 0)
(-0.00788834505256 -0.0159812427906 0)
(-0.00777307018345 -0.0142012082182 0)
(-0.0076639399211 -0.0124412789313 0)
(-0.00756262610393 -0.0106966088286 0)
(-0.00747165734469 -0.00895762809042 0)
(-0.0074006004092 -0.00721730424445 0)
(-0.00736802077573 -0.00546658636795 0)
(-0.00741684884107 -0.00372117969558 0)
(-0.00752340487681 -0.00207239975081 0)
(-0.00691554705652 -0.00057994945341 0)
(0.0346319032503 -0.00311616496901 0)
(0.0383771008143 -0.0105423728811 0)
(0.0382210257882 -0.0179100448272 0)
(0.0376623347828 -0.0252861032536 0)
(0.0369112260478 -0.0325099892997 0)
(0.0359929255637 -0.0395532513935 0)
(0.0349242973399 -0.0463831837115 0)
(0.0337231620812 -0.0529713665977 0)
(0.0324081296558 -0.0592938984759 0)
(0.0309979589943 -0.0653313828589 0)
(0.0295109561427 -0.0710687665859 0)
(0.027964540493 -0.0764950192586 0)
(0.0263748508759 -0.0816027678784 0)
(0.0247565496234 -0.0863877936266 0)
(0.023122696148 -0.0908486718143 0)
(0.0214847515856 -0.094986266048 0)
(0.0198525719961 -0.0988033429717 0)
(0.0182345756053 -0.102304201627 0)
(0.0166378091067 -0.105494378472 0)
(0.0150681658243 -0.108380326241 0)
(0.0135304840622 -0.11096928217 0)
(0.0120287742402 -0.113269042052 0)
(0.0105662895035 -0.115287844455 0)
(0.0091457243484 -0.117034324358 0)
(0.00776921263719 -0.118517314587 0)
(0.00643852107969 -0.11974588404 0)
(0.00515504950288 -0.120729357667 0)
(0.00391995746405 -0.121477105971 0)
(0.00273409779956 -0.12199870658 0)
(0.00159815524881 -0.12230379631 0)
(0.000512539197499 -0.122402080011 0)
(-0.00052248564716 -0.122303354781 0)
(-0.00150691110916 -0.122017314608 0)
(-0.00244084986612 -0.121553724767 0)
(-0.00332466985941 -0.120922261546 0)
(-0.00415883414098 -0.120132511441 0)
(-0.00494405972739 -0.119193977794 0)
(-0.00568116168865 -0.118115894691 0)
(-0.00637120057564 -0.116907496537 0)
(-0.00701528893444 -0.115577516637 0)
(-0.00761477691868 -0.114134720997 0)
(-0.00817102369532 -0.112587368028 0)
(-0.00868557467373 -0.110943575453 0)
(-0.00915998928753 -0.10921106303 0)
(-0.00959597487272 -0.107397290437 0)
(-0.00999519781865 -0.105509226126 0)
(-0.0103594411334 -0.103553617748 0)
(-0.010690422894 -0.101536801069 0)
(-0.0109899495311 -0.0994647544916 0)
(-0.0112596841106 -0.0973431466142 0)
(-0.0115013400569 -0.095177168726 0)
(-0.0117164726945 -0.0929718139501 0)
(-0.011906654633 -0.0907317034893 0)
(-0.0120732846363 -0.0884611581967 0)
(-0.012217736079 -0.0861642835954 0)
(-0.0123411615236 -0.0838448132443 0)
(-0.012444699729 -0.0815063949744 0)
(-0.0125292869587 -0.0791524011106 0)
(-0.0125958325807 -0.0767861237239 0)
(-0.0126450172251 -0.0744105903351 0)
(-0.0126775999561 -0.0720288862811 0)
(-0.0126939994337 -0.0696438400413 0)
(-0.0126947551868 -0.0672582821176 0)
(-0.0126803752249 -0.0648752889571 0)
(-0.0126512237069 -0.0624971724813 0)
(-0.0126077451844 -0.0601267767243 0)
(-0.0125503747511 -0.0577666642202 0)
(-0.0124794487424 -0.0554195972787 0)
(-0.0123954632925 -0.0530880121985 0)
(-0.0122989566174 -0.0507744366893 0)
(-0.0121905564151 -0.0484813009742 0)
(-0.0120708712951 -0.0462109183947 0)
(-0.0119407368926 -0.0439653950641 0)
(-0.0118010333548 -0.0417468157314 0)
(-0.0116528569414 -0.0395571210779 0)
(-0.0114972467105 -0.0373978752958 0)
(-0.0113353983555 -0.0352704900734 0)
(-0.0111685702583 -0.0331761007938 0)
(-0.0109982362178 -0.0311156980473 0)
(-0.0108257620238 -0.0290898271667 0)
(-0.0106526065418 -0.0270986712358 0)
(-0.0104802767142 -0.0251422578491 0)
(-0.0103102206419 -0.0232200637772 0)
(-0.0101438526757 -0.021331265049 0)
(-0.00998259832833 -0.0194746885899 0)
(-0.00982776435594 -0.0176486632424 0)
(-0.00968056237228 -0.0158509010599 0)
(-0.0095422370937 -0.0140787690386 0)
(-0.00941432243002 -0.0123280678639 0)
(-0.00930079452503 -0.0105957754681 0)
(-0.00920420901266 -0.00887484773277 0)
(-0.00913091924428 -0.00716150810332 0)
(-0.00909413403859 -0.00545758174802 0)
(-0.00910692071236 -0.00377469476969 0)
(-0.00911520655339 -0.00216231572377 0)
(-0.00825423005949 -0.000626248843842 0)
(0.0414712705475 -0.00320932946276 0)
(0.0459504600071 -0.0108557384514 0)
(0.0457519971121 -0.0184369274177 1.23941878147e-27)
(0.0450658333738 -0.026019205748 0)
(0.0441447827807 -0.0334348975277 0)
(0.0430203647425 -0.0406529137143 0)
(0.0417141497693 -0.0476384338605 0)
(0.0402488257957 -0.0543617673919 0)
(0.0386479090514 -0.0607985310091 0)
(0.0369349002426 -0.0669295600322 0)
(0.0351325608211 -0.0727406239068 0)
(0.0332623308791 -0.0782219831412 0)
(0.0313438766996 -0.083367805352 0)
(0.0293949056661 -0.0881756793838 0)
(0.0274310191566 -0.0926459921133 0)
(0.0254657352527 -0.0967814095848 0)
(0.0235105794184 -0.100586400615 0)
(0.0215752558304 -0.10406684035 0)
(0.0196678097797 -0.10722961695 0)
(0.017794890052 -0.110082431833 0)
(0.0159619236252 -0.112633537571 0)
(0.0141733367897 -0.114891590742 0)
(0.0124327376887 -0.116865566534 0)
(0.0107430337805 -0.118564660536 0)
(0.00910655742632 -0.119998167527 0)
(0.00752525768386 -0.121175581421 0)
(0.00600068471647 -0.122106523054 0)
(0.00453409373995 -0.122800695155 0)
(0.0031264641792 -0.123267907329 0)
(0.00177852761698 -0.123518027218 0)
(0.000490757969928 -0.123561013846 0)
(-0.000736590797942 -0.123406795778 0)
(-0.0019034858658 -0.123065348687 0)
(-0.00301009059966 -0.122546617217 0)
(-0.00405682458919 -0.121860476726 0)
(-0.00504429751795 -0.121016741857 0)
(-0.00597334972648 -0.120025039528 0)
(-0.00684500086302 -0.118894856682 0)
(-0.00766050987844 -0.117635484641 0)
(-0.00842126959681 -0.116255916169 0)
(-0.00912883614137 -0.114764974848 0)
(-0.00978491028806 -0.113171126162 0)
(-0.0103913410181 -0.111482588522 0)
(-0.0109500425456 -0.109707091601 0)
(-0.0114630407359 -0.107852161793 0)
(-0.0119324030611 -0.105924882322 0)
(-0.0123602616675 -0.10393203103 0)
(-0.0127487207203 -0.101879857385 0)
(-0.0130999109483 -0.0997743704064 0)
(-0.0134159029179 -0.0976211500837 0)
(-0.0136987324502 -0.0954254016411 0)
(-0.0139503236904 -0.0931920442752 0)
(-0.0141725201011 -0.0909255140746 0)
(-0.0143670322109 -0.0886300699905 0)
(-0.0145354847977 -0.0863096901526 0)
(-0.0146792894043 -0.0839679699691 0)
(-0.0147997618119 -0.0816084782959 0)
(-0.0148980424717 -0.0792343602067 0)
(-0.014975157559 -0.076848843455 0)
(-0.0150318776713 -0.074454854568 0)
(-0.0150689711413 -0.0720552837501 0)
(-0.0150871900944 -0.0696533793581 0)
(-0.0150869743947 -0.0672512256959 0)
(-0.0150689147412 -0.0648518871962 0)
(-0.0150334417479 -0.0624578859877 0)
(-0.0149809043159 -0.060071913644 0)
(-0.0149118399237 -0.0576968390113 0)
(-0.0148266312673 -0.0553351995165 0)
(-0.0147257645481 -0.0529895198696 0)
(-0.014609902757 -0.0506625010268 0)
(-0.0144797056951 -0.0483566199976 0)
(-0.0143359549209 -0.0460743077631 0)
(-0.014179611556 -0.0438178033079 0)
(-0.0140117022625 -0.0415893182087 0)
(-0.0138334051943 -0.0393906750711 0)
(-0.0136461354976 -0.0372238706408 0)
(-0.0134513006339 -0.035090305723 0)
(-0.013250461935 -0.0329912769125 0)
(-0.0130452602348 -0.0309276309183 0)
(-0.0128374901947 -0.0289001722734 0)
(-0.0126289302372 -0.0269090659676 0)
(-0.0124214402999 -0.0249543181707 0)
(-0.0122168978742 -0.0230354841719 0)
(-0.0120170608426 -0.0211516254255 0)
(-0.0118237702296 -0.0193015443093 0)
(-0.0116388030944 -0.0174834850055 0)
(-0.0114639634952 -0.0156953463689 0)
(-0.0113010329771 -0.0139343956085 0)
(-0.0111521555432 -0.0121972657321 0)
(-0.0110210479976 -0.0104808637309 0)
(-0.0109121509653 -0.00878268846974 0)
(-0.0108278819708 -0.00709876745066 0)
(-0.0107737164426 -0.00542987786059 0)
(-0.0107552187261 -0.00378448858439 0)
(-0.0107064461729 -0.00219437947977 0)
(-0.00963762933187 -0.000642369794654 0)
(0.0485329501572 -0.00332257778237 0)
(0.0537660383001 -0.0112366861965 0)
(0.0535168284392 -0.0190772581476 -1.2387577727e-27)
(0.0526891193461 -0.0269093400129 0)
(0.0515803210992 -0.0345563462236 0)
(0.0502291904858 -0.0419839152921 0)
(0.0486629642248 -0.0491546961676 0)
(0.046910138677 -0.0560375799221 0)
(0.045000000418 -0.0626077955363 0)
(0.0429615335903 -0.0688466983501 0)
(0.0408225293232 -0.0747413220847 0)
(0.0386088455988 -0.0802836968991 0)
(0.0363439598686 -0.0854701597967 0)
(0.034048724171 -0.0903006163048 0)
(0.0317412725439 -0.094777807737 0)
(0.0294370976931 -0.0989066734229 0)
(0.0271492309413 -0.102693810768 0)
(0.0248884653812 -0.106146960828 0)
(0.0226636549821 -0.109274715126 0)
(0.0204819928987 -0.11208618363 0)
(0.0183492807717 -0.114590808713 0)
(0.0162702101228 -0.116798217263 0)
(0.0142485501512 -0.118718243203 0)
(0.0122872945393 -0.120360552724 0)
(0.0103889158063 -0.12173511704 0)
(0.00855543629734 -0.122851776958 0)
(0.00678850378219 -0.123720511758 0)
(0.00508945049493 -0.12435132013 0)
(0.00345932093386 -0.124754306472 0)
(0.00189889430237 -0.12493954058 0)
(0.000408695418099 -0.124917227035 0)
(-0.00101101134846 -0.124697592557 0)
(-0.00236017895623 -0.124290806595 0)
(-0.00363903827619 -0.123707094283 0)
(-0.00484807367623 -0.122956503637 0)
(-0.00598801953503 -0.122049116724 0)
(-0.00705987378874 -0.120994775751 0)
(-0.00806486590098 -0.119803195015 0)
(-0.00900446643686 -0.118483814345 0)
(-0.00988031696077 -0.117045890892 0)
(-0.0106942681433 -0.115498409075 0)
(-0.0114483422805 -0.113849912788 0)
(-0.0121447266099 -0.112108742318 0)
(-0.0127857030847 -0.110282802709 0)
(-0.0133736614289 -0.108379695335 0)
(-0.0139110560685 -0.106406483016 0)
(-0.0144004103019 -0.104369968763 0)
(-0.0148442331794 -0.102276488721 0)
(-0.0152450213679 -0.100131972857 0)
(-0.015605265396 -0.0979420084938 0)
(-0.015927331757 -0.0957116270047 0)
(-0.016213538405 -0.0934457026694 0)
(-0.0164660437449 -0.0911485283051 0)
(-0.0166868691881 -0.0888242912447 0)
(-0.0168778797692 -0.08647665777 0)
(-0.0170407690274 -0.0841092721027 0)
(-0.0171770294762 -0.081725332996 0)
(-0.0172879990425 -0.0793279829454 0)
(-0.0173746861631 -0.0769202276658 0)
(-0.0174381061691 -0.0745050763111 0)
(-0.0174791825661 -0.07208519857 0)
(-0.0174986196697 -0.0696630543028 0)
(-0.017497031267 -0.0672414162004 0)
(-0.0174748887795 -0.0648229776223 0)
(-0.0174326363416 -0.0624104184123 0)
(-0.0173706750247 -0.0600064653617 0)
(-0.0172894116516 -0.0576135616822 0)
(-0.0171893861068 -0.0552347708327 0)
(-0.0170710569385 -0.0528724750234 0)
(-0.0169351173723 -0.050529498439 0)
(-0.016782364296 -0.0482085727162 0)
(-0.0166135833536 -0.0459119481838 0)
(-0.0164299354992 -0.0436423052042 0)
(-0.016232610873 -0.0414018729541 0)
(-0.0160229760789 -0.0391927579408 0)
(-0.01580259703 -0.0370168623834 0)
(-0.0155732144712 -0.0348758789997 0)
(-0.0153366139905 -0.032771060311 0)
(-0.0150948657879 -0.0307036764866 0)
(-0.0148500392133 -0.0286743392829 0)
(-0.0146042437948 -0.0266833267242 0)
(-0.0143597909747 -0.0247307426737 0)
(-0.0141188783995 -0.0228160444563 0)
(-0.0138837891887 -0.0209384469607 0)
(-0.0136567326643 -0.0190966424921 0)
(-0.01343993326 -0.0172888630278 0)
(-0.0132356931632 -0.0155130686189 0)
(-0.0130460673492 -0.013766448637 0)
(-0.012873657 -0.012046265168 0)
(-0.0127216542167 -0.0103496044724 0)
(-0.0125939212286 -0.00867456481617 0)
(-0.0124935336205 -0.00701932722789 0)