/*--------------------------------*- C++ -*----------------------------------*\
| =========                 |                                                 |
| \\      /  F ield         | OpenFOAM: The Open Source CFD Toolbox           |
|  \\    /   O peration     | Version:  v1906                                 |
|   \\  /    A nd           | Web:      www.OpenFOAM.com                      |
|    \\/     M anipulation  |                                                 |
\*---------------------------------------------------------------------------*/
FoamFile
{
    version     2.0;
    format      ascii;
    class       volVectorField;
    location    "580";
    object      U;
}
// * * * * * * * * * * * * * * * * * * * * * * * * * * * * * * * * * * * * * //

dimensions      [0 1 -1 0 0 0 0];


internalField   nonuniform List<vector> 
9216
(
(0.00270991812258 -0.0027121773591 0)
(0.00285722494712 -0.00875261619803 1.17212840705e-27)
(0.0028490688075 -0.0148871025997 1.84080218407e-31)
(0.00281179066749 -0.0210219765615 0)
(0.00276003748034 -0.0270540531781 0)
(0.00269527183664 -0.0329590665895 0)
(0.00261917698065 -0.0387111798794 0)
(0.0025330991223 -0.0442874128628 0)
(0.00243833608225 -0.0496675774711 0)
(0.00233616314058 -0.0548342649287 0)
(0.0022278412706 -0.0597728132867 0)
(0.0021145791906 -0.0644712411627 0)
(0.00199752938308 -0.0689201292886 0)
(0.00187775391012 -0.0731124599279 0)
(0.00175622983148 -0.0770434260162 0)
(0.0016338265366 -0.0807102187119 0)
(0.00151132024818 -0.0841118111627 0)
(0.00138938170759 -0.087248738542 0)
(0.00126859549555 -0.0901228941789 0)
(0.00114945518196 -0.0927373320387 0)
(0.00103238288659 -0.0950960965715 0)
(0.000917729294899 -0.0972040615451 0)
(0.00080578987084 -0.0990668003202 0)
(0.000696808097351 -0.100690462527 0)
(0.00059098602998 -0.102081681502 0)
(0.000488490168487 -0.103247482969 0)
(0.000389455309577 -0.104195221431 0)
(0.000293993260677 -0.104932512314 0)
(0.000202190049588 -0.105467188524 0)
(0.000114119292582 -0.105807249787 0)
(2.98355647601e-05 -0.105960818984 0)
(-5.06307654525e-05 -0.105936168703 0)
(-0.000127284010714 -0.105741539897 0)
(-0.000200112028146 -0.105385194872 0)
(-0.000269122804249 -0.104875424823 0)
(-0.000334329138641 -0.104220481925 0)
(-0.00039577160422 -0.103428563679 0)
(-0.00045348804868 -0.102507778163 0)
(-0.000507543482276 -0.101466125225 0)
(-0.000557996334434 -0.100311467146 0)
(-0.00060493233848 -0.0990515128263 0)
(-0.000648427096744 -0.0976937931088 0)
(-0.000688583188376 -0.0962456480742 0)
(-0.000725489609773 -0.094714207507 0)
(-0.000759261578636 -0.093106381691 0)
(-0.000789997479065 -0.0914288474129 0)
(-0.000817820773283 -0.0896880423135 0)
(-0.000842835200929 -0.0878901564179 0)
(-0.000865168256811 -0.0860411299226 0)
(-0.000884925327606 -0.0841466499754 0)
(-0.000902234122365 -0.0822121513809 0)
(-0.00091719849288 -0.080242817965 0)
(-0.000929943261649 -0.0782435855477 0)
(-0.000940568366568 -0.0762191470416 0)
(-0.000949193481377 -0.0741739567432 0)
(-0.000955913145477 -0.0721122380581 0)
(-0.000960840638213 -0.0700379881758 0)
(-0.000964064616629 -0.0679549873018 0)
(-0.000965691673632 -0.0658668026931 0)
(-0.000965804987575 -0.0637767982646 0)
(-0.000964505068497 -0.061688137207 0)
(-0.000961870771082 -0.0596037910782 0)
(-0.000957997732131 -0.0575265404003 0)
(-0.000952962064918 -0.0554589825875 0)
(-0.000946856089758 -0.0534035303539 0)
(-0.000939754893412 -0.051362418234 0)
(-0.000931749000283 -0.0493376989292 0)
(-0.000922913957793 -0.0473312484829 0)
(-0.000913339723978 -0.0453447610911 0)
(-0.000903103338252 -0.0433797533149 0)
(-0.00089229488226 -0.041437558044 0)
(-0.000880993282131 -0.039519328269 0)
(-0.000869288830876 -0.0376260310379 0)
(-0.000857262086269 -0.0357584513844 0)
(-0.000845003023164 -0.033917187043 0)
(-0.000832592969657 -0.03210265305 0)
(-0.000820120557368 -0.0303150779006 0)
(-0.000807666560624 -0.0285545092311 0)
(-0.000795316862069 -0.0268208119026 0)
(-0.000783150022136 -0.025113675026 0)
(-0.000771247522 -0.0234326123269 0)
(-0.000759683802498 -0.0217769707115 0)
(-0.000748534017564 -0.0201459332191 0)
(-0.000737866151362 -0.0185385294931 0)
(-0.00072774630024 -0.0169536420865 0)
(-0.000718231914158 -0.0153900204032 0)
(-0.000709373339484 -0.0138462938338 0)
(-0.00070120404907 -0.0123209972824 0)
(-0.000693728812479 -0.0108126105108 0)
(-0.000686883864646 -0.00931964418814 0)
(-0.000680438650709 -0.00784082109868 0)
(-0.000673732160748 -0.00637558563211 0)
(-0.000664949841727 -0.00492557082819 0)
(-0.000645915579828 -0.00350743088959 0)
(-0.00061132868868 -0.0020030229732 0)
(-0.000908302423238 -0.000908102502638 0)
(0.00877302478072 -0.00288719327453 0)
(0.00970062533974 -0.00977044713824 0)
(0.00967822424563 -0.0166408785918 -1.23087078609e-27)
(0.00954878511883 -0.0235166943274 0)
(0.00936965893144 -0.0302680036078 0)
(0.00914820164924 -0.0368730502795 0)
(0.00888880976193 -0.0433044070431 0)
(0.00859569801261 -0.049536827274 0)
(0.00827316897354 -0.0555479001997 0)
(0.00792554648637 -0.0613182771334 0)
(0.0075571140798 -0.0668317036842 0)
(0.00717199775547 -0.0720749584528 0)
(0.00677411409304 -0.0770377182548 0)
(0.00636708363555 -0.0817123673028 0)
(0.00595421799985 -0.0860937726941 0)
(0.00553847355072 -0.0901790361236 0)
(0.00512247284893 -0.0939672424401 0)
(0.00470849063994 -0.0974592078607 0)
(0.00429849587241 -0.100657245586 0)
(0.00389415791742 -0.103564944228 0)
(0.00349689493827 -0.106186973949 0)
(0.00310788985853 -0.108528909514 0)
(0.0027281341428 -0.110597083297 0)
(0.00235844669961 -0.112398453139 0)
(0.0019995064535 -0.113940497413 0)
(0.00165187117248 -0.115231119777 0)
(0.00131599609605 -0.1162785762 0)
(0.000992252641663 -0.117091405798 0)
(0.000680933298613 -0.117678378563 0)
(0.000382272466654 -0.118048440606 0)
(9.64413743924e-05 -0.11821068072 0)
(-0.000176447177697 -0.118174230136 0)
(-0.000436352695177 -0.117948363918 0)
(-0.000683250747422 -0.117542386065 0)
(-0.000917174296361 -0.116965566904 0)
(-0.00113818682929 -0.116227136215 0)
(-0.00134641409933 -0.115336253712 0)
(-0.00154200173195 -0.114301978489 0)
(-0.001725155128 -0.113133244553 0)
(-0.0018960912552 -0.111838832446 0)
(-0.00205508396495 -0.110427347694 0)
(-0.00220241006693 -0.10890719687 0)
(-0.00233839912167 -0.107286570009 0)
(-0.00246337470233 -0.105573421886 0)
(-0.00257770799485 -0.10377545896 0)
(-0.00268175532927 -0.101900126278 0)
(-0.00277591490325 -0.0999545990907 0)
(-0.00286056178589 -0.0979457753881 0)
(-0.00293610709694 -0.0958802720241 0)
(-0.00300293164696 -0.0937644225277 0)
(-0.00306144683698 -0.0916042771924 0)
(-0.0031120281098 -0.0894056054416 0)
(-0.00315507684807 -0.0871738990914 0)
(-0.00319095469217 -0.0849143782975 0)
(-0.00322004565472 -0.0826319969171 0)
(-0.00324269229024 -0.0803314508397 0)
(-0.00325925725136 -0.0780171843 0)
(-0.00327006209872 -0.0756933993402 0)
(-0.00327544746099 -0.0733640618753 0)
(-0.00327571513087 -0.0710329110725 0)
(-0.00327118600188 -0.0687034641787 0)
(-0.00326214586795 -0.0663790248494 0)
(-0.00324890029231 -0.0640626859961 0)
(-0.00323172439137 -0.0617573364194 0)
(-0.00321091387806 -0.0594656613831 0)
(-0.00318673894634 -0.0571901473499 0)
(-0.00315949082961 -0.0549330803712 0)
(-0.00312943984799 -0.0526965491091 0)
(-0.00309687701934 -0.0504824415521 0)
(-0.00306207626428 -0.0482924468563 0)
(-0.00302533080092 -0.0461280511161 0)
(-0.00298691950811 -0.0439905387273 0)
(-0.0029471380678 -0.0418809880915 0)
(-0.00290626945165 -0.0398002732653 0)
(-0.00286460995803 -0.03774906041 0)
(-0.00282244377191 -0.0357278103915 0)
(-0.00278006420744 -0.0337367766773 0)
(-0.00273775221873 -0.0317760094056 0)
(-0.00269579325064 -0.0298453552137 0)
(-0.00265445949996 -0.0279444630994 0)
(-0.0026140228135 -0.0260727864993 0)
(-0.00257474034703 -0.0242295911355 0)
(-0.0025368638458 -0.022413959525 0)
(-0.00250062802762 -0.020624800962 0)
(-0.00246625605757 -0.0188608586775 0)
(-0.00243394881119 -0.0171207222234 0)
(-0.00240388388002 -0.0154028374712 0)
(-0.00237619834308 -0.0137055207691 0)
(-0.00235096571813 -0.0120269671036 0)
(-0.00232813404501 -0.0103652460848 0)
(-0.0023073890015 -0.00871823286116 0)
(-0.00228783050631 -0.00708334794251 0)
(-0.00226709596351 -0.00545645815129 0)
(-0.00223846926032 -0.0038284836129 0)
(-0.00216651940277 -0.00216176585888 0)
(-0.00200155747138 -0.000609265236074 0)
(0.0150186968778 -0.00293306764815 0)
(0.016629547003 -0.00993123792711 0)
(0.0165688565797 -0.0168919246474 -1.22883158372e-27)
(0.0163378833129 -0.0238683885867 0)
(0.0160261855523 -0.0307166812458 0)
(0.0156435372169 -0.0374135373233 0)
(0.0151964390245 -0.0439304909657 0)
(0.0146918289943 -0.0502417441916 0)
(0.01413702737 -0.0563245619698 0)
(0.0135394930621 -0.0621594593675 0)
(0.0129066147532 -0.0677302108908 0)
(0.0122455239296 -0.0730237655937 0)
(0.0115629559661 -0.07803008414 0)
(0.0108651404927 -0.0827419187085 0)
(0.0101577389741 -0.087154558912 0)
(0.0094458090207 -0.0912655583612 0)
(0.00873380434562 -0.0950744601347 0)
(0.00802559334198 -0.098582528971 0)
(0.00732449720065 -0.101792502715 0)
(0.00663333879903 -0.104708364151 0)
(0.00595449534889 -0.107335140787 0)
(0.00528995750546 -0.109678728575 0)
(0.00464137908897 -0.111745743811 0)
(0.00401013342172 -0.113543396049 0)
(0.00339735016325 -0.11507938462 0)
(0.00280396287666 -0.11636181025 0)
(0.00223072947239 -0.11739910402 0)
(0.00167827028345 -0.118199965104 0)
(0.00114707292433 -0.118773309971 0)
(0.000637522831258 -0.119128225122 0)
(0.000149893679141 -0.119273929515 0)
(-0.000315616408756 -0.11921973311 0)
(-0.000758903126075 -0.118975003557 0)
(-0.00117993809374 -0.118549132947 0)
(-0.00157878520828 -0.117951503421 0)
(-0.00195556773716 -0.117191455207 0)
(-0.00231049460016 -0.116278255716 0)
(-0.00264382791072 -0.115221069387 0)
(-0.00295590974307 -0.114028930563 0)
(-0.00324712580548 -0.112710716371 0)
(-0.00351793359055 -0.11127512303 0)
(-0.00376882286855 -0.109730642999 0)
(-0.00400034506847 -0.108085545678 0)
(-0.00421307130172 -0.106347859637 0)
(-0.00440762293175 -0.104525358332 0)
(-0.00458462795928 -0.102625547842 0)
(-0.00474475277695 -0.100655657788 0)
(-0.00488865781157 -0.0986226345628 0)
(-0.00501703046265 -0.0965331372883 0)
(-0.00513054085644 -0.0943935361754 0)
(-0.00522987591253 -0.0922099129285 0)
(-0.00531569602565 -0.0899880635035 0)
(-0.00538867016153 -0.087733502122 0)
(-0.00544943416615 -0.0854514674133 0)
(-0.00549862669665 -0.0831469289 0)
(-0.00553684973771 -0.0808245952871 0)
(-0.00556470507303 -0.078488922178 0)
(-0.00558275738037 -0.0761441212029 0)
(-0.00559157079176 -0.0737941676648 0)
(-0.00559167473839 -0.0714428092491 0)
(-0.00558360001466 -0.0690935725016 0)
(-0.00556784730903 -0.0667497701152 0)
(-0.00554492206316 -0.0644145054163 0)
(-0.00551530547439 -0.0620906775883 0)
(-0.00547948741839 -0.0597809838174 0)
(-0.00543793960634 -0.0574879222874 0)
(-0.00539114589061 -0.0552137920616 0)
(-0.00533957728387 -0.0529606941194 0)
(-0.00528371913361 -0.0507305294962 0)
(-0.00522404778294 -0.0485249989931 0)
(-0.00516105430646 -0.0463456003437 0)
(-0.00509522273237 -0.0441936274157 0)
(-0.00502705027253 -0.0420701673125 0)
(-0.00495702713581 -0.0399760999246 0)
(-0.00488565337803 -0.0379120958016 0)
(-0.00481342042774 -0.0358786167962 0)
(-0.00474082482772 -0.0338759154018 0)
(-0.00466835160614 -0.031904037044 0)
(-0.0045964852399 -0.0299628213419 0)
(-0.00452569496618 -0.0280519063753 0)
(-0.0044564432829 -0.0261707321176 0)
(-0.00438917316168 -0.0243185467983 0)
(-0.00432431424944 -0.0224944125223 0)
(-0.00426227164755 -0.0206972136037 0)
(-0.0042034295179 -0.0189256640446 0)
(-0.00414814026533 -0.0171783170757 0)
(-0.00409672385408 -0.015453572752 0)
(-0.00404945395598 -0.0137496845771 0)
(-0.00400654803509 -0.0120647573323 0)
(-0.00396814446183 -0.0103967271807 0)
(-0.00393428537407 -0.00874329620121 0)
(-0.00390493373067 -0.00710176851392 0)
(-0.00388010791528 -0.00546860631445 0)
(-0.00385992646261 -0.0038377555716 0)
(-0.00382919789901 -0.00222110109482 0)
(-0.00349833123775 -0.000640149342218 0)
(0.0214121853139 -0.00297840667553 0)
(0.0237269974663 -0.0100816556274 0)
(0.0236373088732 -0.0171378829018 1.22826094865e-27)
(0.0233027491268 -0.0242106012791 0)
(0.0228521213085 -0.0311497994036 0)
(0.0222998785827 -0.0379307182234 0)
(0.0216554626843 -0.0445237144657 0)
(0.0209289641302 -0.0509022853471 0)
(0.0201310390826 -0.0570433432109 0)
(0.0192725429885 -0.062927349772 0)
(0.0183642004872 -0.068538277663 0)
(0.0174163321019 -0.0738634777391 0)
(0.0164386425388 -0.0788934660223 0)
(0.0154400718414 -0.0836216550795 0)
(0.0144287037986 -0.0880440541278 0)
(0.013411728046 -0.0921589567422 0)
(0.0123954424748 -0.0959666335339 0)
(0.0113852924082 -0.0994690405827 0)
(0.0103859291304 -0.102669553236 0)
(0.00940128857838 -0.105572728611 0)
(0.00843467098007 -0.108184100241 0)
(0.00748882890305 -0.110510002973 0)
(0.00656604317259 -0.112557427759 0)
(0.00566820142765 -0.114333901624 0)
(0.00479685687784 -0.115847390762 0)
(0.00395328909489 -0.117106221164 0)
(0.00313854156046 -0.118119014576 0)
(0.0023534642173 -0.118894634592 0)
(0.00159873193819 -0.119442141486 0)
(0.000874872722958 -0.119770751776 0)
(0.000182271640927 -0.119889800495 0)
(-0.000478805851727 -0.119808719351 0)
(-0.0011082162939 -0.119536970584 0)
(-0.00170592974755 -0.119084043891 0)
(-0.0022720331151 -0.11845941632 0)
(-0.00280671280531 -0.117672519297 0)
(-0.00331026357457 -0.116732707651 0)
(-0.00378307082192 -0.11564922924 0)
(-0.00422561867724 -0.114431196492 0)
(-0.00463846983079 -0.1130875592 0)
(-0.00502227280123 -0.111627079711 0)
(-0.00537773961987 -0.110058310025 0)
(-0.00570565248724 -0.108389571688 0)
(-0.00600683995153 -0.1066289381 0)
(-0.00628218338534 -0.10478421979 0)
(-0.00653259243224 -0.102862952382 0)
(-0.0067590117984 -0.10087238747 0)
(-0.00696239678291 -0.0988194862363 0)
(-0.00714372086635 -0.0967109157304 0)
(-0.00730395207731 -0.0945530477304 0)
(-0.00744406179033 -0.0923519598271 0)
(-0.00756500261815 -0.09011343877 0)
(-0.00766771875039 -0.0878429854411 0)
(-0.00775312592477 -0.0855458216117 0)
(-0.00782212349843 -0.0832268976041 0)
(-0.00787557689383 -0.0808909011546 0)
(-0.00791433141204 -0.0785422664008 0)
(-0.00793919728891 -0.0761851834343 0)
(-0.00795096500565 -0.0738236072052 0)
(-0.00795039282227 -0.0714612664113 0)
(-0.00793822308398 -0.0691016710882 0)
(-0.00791517180577 -0.06674811974 0)
(-0.00788194524887 -0.0644037047148 0)
(-0.00783923094417 -0.062071316906 0)
(-0.00778771370943 -0.0597536485167 0)
(-0.00772806741348 -0.0574531951794 0)
(-0.00766096963481 -0.0551722562225 0)
(-0.00758709355533 -0.0529129345604 0)
(-0.00750712064026 -0.0506771350463 0)
(-0.00742173223237 -0.0484665628766 0)
(-0.00733161989477 -0.0462827209039 0)
(-0.00723747653855 -0.0441269075014 0)
(-0.00714000436231 -0.0420002138308 0)
(-0.00703990557714 -0.0399035221286 0)
(-0.00693788811634 -0.0378375038366 0)
(-0.00683465620108 -0.035802619124 0)
(-0.00673091415174 -0.0337991165993 0)
(-0.00662735710799 -0.0318270346485 0)
(-0.00652467332448 -0.0298862031768 0)
(-0.00642353534638 -0.0279762470729 0)
(-0.00632460113249 -0.0260965901689 0)
(-0.00622850587663 -0.0242464608725 0)
(-0.00613586216162 -0.022424898232 0)
(-0.00604725241318 -0.0206307594281 0)
(-0.00596322803174 -0.018862727341 0)
(-0.00588430215549 -0.0171193187782 0)
(-0.00581094747793 -0.0153988914755 0)
(-0.00574358922613 -0.0136996492261 0)
(-0.00568260326614 -0.0120196411802 0)
(-0.00562831620433 -0.0103567512785 0)
(-0.00558102602565 -0.00870867316027 0)
(-0.00554106878883 -0.00707286135028 0)
(-0.00550893233736 -0.00544647080838 0)
(-0.00548439080698 -0.00382505819051 0)
(-0.00544185438108 -0.00223043808583 0)
(-0.0048986323797 -0.000653491580139 0)
(0.0279124981818 -0.00303794524869 0)
(0.0309331570114 -0.0102794299802 0)
(0.0308118622769 -0.0174681933024 0)
(0.0303683805981 -0.0246702875585 0)
(0.0297715430932 -0.0317308453577 0)
(0.0290409313731 -0.0386233979054 0)
(0.0281894197213 -0.0453168692893 0)
(0.0272306845232 -0.0517838423251 0)
(0.0261791001212 -0.0580007864089 0)
(0.0250492443731 -0.0639481399194 0)
(0.0238554483678 -0.0696102065086 0)
(0.0226114286173 -0.0749749506537 0)
(0.0213300074633 -0.0800337101063 0)
(0.0200229235102 -0.0847808556169 0)
(0.0187007224145 -0.0892134257845 0)
(0.0173727204747 -0.0933307595421 0)
(0.0160470236373 -0.0971341444173 0)
(0.0147305922847 -0.100626492532 0)
(0.0134293330052 -0.103812052406 0)
(0.0121482109023 -0.106696159634 0)
(0.0108913656935 -0.109285027188 0)
(0.00966223057469 -0.111585572842 0)
(0.00846363995386 -0.113605280462 0)
(0.00729793054549 -0.115352090068 0)
(0.00616702415564 -0.116834312048 0)
(0.00507250130965 -0.118060559983 0)
(0.00401565517073 -0.119039697783 0)
(0.00299753842215 -0.119780796518 0)
(0.00201899251165 -0.120293097914 0)
(0.00108067427425 -0.120585981529 0)
(0.000183068280695 -0.120668930477 0)
(-0.000673499716727 -0.120551522381 0)
(-0.00148885247588 -0.120243345757 0)
(-0.00226296231554 -0.119754023007 0)
(-0.00299594528311 -0.119093155264 0)
(-0.00368805320354 -0.1182702938 0)
(-0.00433967320367 -0.117294908226 0)
(-0.00495131719008 -0.116176355518 0)
(-0.00552361967718 -0.114923850435 0)
(-0.00605732477868 -0.11354643755 0)
(-0.00655328199549 -0.11205296543 0)
(-0.00701243099001 -0.110452063136 0)
(-0.00743579581732 -0.108752119442 0)
(-0.00782446824573 -0.106961264848 0)
(-0.00817960121046 -0.105087356593 0)
(-0.00850239160235 -0.103137966668 0)
(-0.00879407378743 -0.101120372846 0)
(-0.0090559027884 -0.0990415526832 0)
(-0.00928914866589 -0.0969081803342 0)
(-0.00949508093631 -0.0947266260925 0)
(-0.00967496452175 -0.0925029583543 0)
(-0.00983004615236 -0.0902429478823 0)
(-0.0099615524778 -0.0879520739368 0)
(-0.0100706790545 -0.0856355321156 0)
(-0.0101585910415 -0.0832982433533 0)
(-0.0102264151631 -0.0809448639179 0)
(-0.0102752431533 -0.0785797957763 0)
(-0.0103061267658 -0.0762071971872 0)
(-0.0103200837843 -0.0738309928614 0)
(-0.0103180957781 -0.0714548836362 0)
(-0.0103011161166 -0.0690823550402 0)
(-0.0102700697898 -0.0667166848193 0)
(-0.0102258625434 -0.0643609488954 0)
(-0.0101693818225 -0.062018026002 0)
(-0.010101505971 -0.0596906006007 0)
(-0.0100231052691 -0.05738116449 0)
(-0.00993505017036 -0.0550920168447 0)
(-0.00983821153312 -0.0528252632472 0)
(-0.00973346709773 -0.0505828135534 0)
(-0.009621700299 -0.0483663792406 0)
(-0.00950380454068 -0.0461774701301 0)
(-0.00938068035394 -0.0440173911641 0)
(-0.00925323741031 -0.0418872391232 0)
(-0.00912239013737 -0.0397878999302 0)
(-0.00898905772689 -0.0377200463789 0)
(-0.00885415857256 -0.0356841368643 0)
(-0.00871860872368 -0.0336804148889 0)
(-0.00858331562205 -0.0317089098264 0)
(-0.0084491755081 -0.0297694386508 0)
(-0.00831706692996 -0.0278616090218 0)
(-0.00818784756027 -0.0259848233744 0)
(-0.0080623478537 -0.0241382843059 0)
(-0.00794136761803 -0.0223210008374 0)
(-0.00782567007736 -0.0205317957223 0)
(-0.00771597845907 -0.0187693132422 0)
(-0.00761297076412 -0.0170320274341 0)
(-0.00751727702105 -0.0153182499097 0)
(-0.00742947627441 -0.0136261367746 0)
(-0.00735009820631 -0.0119536936105 0)
(-0.00727963074339 -0.0102987784069 0)
(-0.00721854367133 -0.00865910742421 0)
(-0.00716733586385 -0.00703226625813 0)
(-0.0071265283645 -0.0054157629028 0)
(-0.00709498362912 -0.0038056216022 0)
(-0.00703735520829 -0.00222521438556 0)
(-0.00631639120211 -0.000654613760782 0)
(0.0345575367124 -0.00311338497435 0)
(0.0382950039155 -0.0105326044198 0)
(0.0381374941593 -0.0178934119392 0)
(0.0375770712326 -0.0252622308775 0)
(0.0368236537338 -0.0324784975387 0)
(0.03590244862 -0.0395136477531 0)
(0.0348303250395 -0.046334866944 0)
(0.0336251026089 -0.0529136363794 0)
(0.0323053888358 -0.0592259372243 0)
(0.030889931738 -0.0652522724102 0)
(0.0293970358032 -0.070977475514 0)
(0.0278440922882 -0.0763904058976 0)
(0.0262472329512 -0.0814835573149 0)
(0.0246211054655 -0.0862526189071 0)
(0.0229787577419 -0.0906960221351 0)
(0.0213316156109 -0.0948145002762 0)
(0.0196895326132 -0.0986106798864 0)
(0.0180608937066 -0.102088716476 0)
(0.0164527523337 -0.105253980769 0)
(0.0148709868503 -0.108112796882 0)
(0.0133204607686 -0.110672230398 0)
(0.0118051792285 -0.112939921643 0)
(0.0103284317128 -0.114923958223 0)
(0.00889291933097 -0.116632779954 0)
(0.00750086109133 -0.118075109411 0)
(0.00615408197111 -0.119259901428 0)
(0.00485408006542 -0.120196305794 0)
(0.00360207854017 -0.120893638023 0)
(0.00239906098838 -0.121361354424 0)
(0.00124579725923 -0.121609028337 0)
(0.000142859437978 -0.12164632204 0)
(-0.000909373721131 -0.121482991453 0)
(-0.00191069648249 -0.121128779482 0)
(-0.0028610869167 -0.120593474601 0)
(-0.00376069645684 -0.119886833352 0)
(-0.00460984621578 -0.119018558409 0)
(-0.00540902288662 -0.117998264868 0)
(-0.00615887050347 -0.116835448154 0)
(-0.00686018346621 -0.115539453081 0)
(-0.00751389502822 -0.114119444602 0)
(-0.00812106727892 -0.112584380785 0)
(-0.00868287684105 -0.110942988348 0)
(-0.00920060261844 -0.109203741109 0)
(-0.00967560974453 -0.107374841503 0)
(-0.0101093362151 -0.105464205336 0)
(-0.0105032762658 -0.103479449807 0)
(-0.0108589670322 -0.101427884786 0)
(-0.0111779724872 -0.0993165072855 0)
(-0.0114618711773 -0.0971519989791 0)
(-0.0117122417321 -0.0949407266292 0)
(-0.0119306526046 -0.0926887451625 0)
(-0.0121186500485 -0.0904018031664 0)
(-0.0122777506628 -0.0880853504602 0)
(-0.0124094325693 -0.0857445474241 0)
(-0.012515131363 -0.0833842756484 0)
(-0.0125962349734 -0.0810091495339 0)
(-0.0126540832994 -0.0786235283375 0)
(-0.0126899668376 -0.0762315282804 0)
(-0.0127051298261 -0.0738370342084 0)
(-0.0127007722285 -0.0714437104759 0)
(-0.0126780557002 -0.069055010611 0)
(-0.0126381080136 -0.0666741855559 0)
(-0.0125820307155 -0.0643042901771 0)
(-0.0125109047265 -0.0619481880204 0)
(-0.0124257983173 -0.0596085541789 0)
(-0.0123277724997 -0.0572878764414 0)
(-0.0122178879874 -0.0549884547611 0)
(-0.0120972091778 -0.0527123993781 0)
(-0.0119668090678 -0.0504616277611 0)
(-0.0118277710272 -0.0482378608009 0)
(-0.0116811911189 -0.0460426184776 0)
(-0.0115281773785 -0.0438772154554 0)
(-0.0113698494992 -0.0417427568151 0)
(-0.0112073358018 -0.039640134329 0)
(-0.0110417706576 -0.0375700234195 0)
(-0.0108742896632 -0.0355328811208 0)
(-0.0107060254139 -0.0335289450958 0)
(-0.0105381015415 -0.0315582339213 0)
(-0.0103716275124 -0.0296205486067 0)
(-0.0102076921759 -0.027715475465 0)
(-0.0100473581975 -0.025842390225 0)
(-0.009891655664 -0.0240004634142 0)
(-0.00974157665164 -0.022188666833 0)
(-0.00959806934685 -0.0204057810596 0)
(-0.00946203323683 -0.018650403727 0)
(-0.0093343143537 -0.0169209584157 0)
(-0.00921570205589 -0.0152157038756 0)
(-0.00910692709542 -0.0135327435221 0)
(-0.00900866307797 -0.0118700353773 0)
(-0.00892153271847 -0.0102254038441 0)
(-0.00884612189899 -0.00859656028974 0)
(-0.00878299648228 -0.00698112924001 0)
(-0.00873260077218 -0.00537670474722 0)
(-0.00869299981141 -0.00377931788713 0)
(-0.00862002712729 -0.00221213372351 0)
(-0.00773066619434 -0.000651690308009 0)
(0.0413843592214 -0.00320683176366 0)
(0.0458545236248 -0.010846889303 0)
(0.045654360927 -0.0184218531252 1.2186900021e-27)
(0.0449661405679 -0.0259975502197 0)
(0.0440423457271 -0.0334062703067 0)
(0.042914479867 -0.0406168196584 0)
(0.0416041231762 -0.0475942749844 0)
(0.0401339597691 -0.0543088428699 0)
(0.0385275006158 -0.0607360281299 0)
(0.0368082443896 -0.0668565701228 0)
(0.0349989368647 -0.0726561291487 0)
(0.0331209905094 -0.0781248424054 0)
(0.0311940737118 -0.0832567912175 0)
(0.0292358622354 -0.0880494301724 0)
(0.0272619331497 -0.0925030196989 0)
(0.0252857760812 -0.0966200930906 0)
(0.0233188929507 -0.100404978741 0)
(0.0213709594411 -0.103863388866 0)
(0.0194500228172 -0.107002078592 0)
(0.0175627162928 -0.109828573444 0)
(0.0157144728379 -0.112350959622 0)
(0.0139097273859 -0.114577728938 0)
(0.0121520983217 -0.116517669299 0)
(0.0104445444684 -0.118179791216 0)
(0.00878949439432 -0.119573281221 0)
(0.00718894934904 -0.120707473824 0)
(0.00564456049392 -0.121591834761 0)
(0.00415768479432 -0.122235949616 0)
(0.00272942208124 -0.122649513428 0)
(0.00136063856577 -0.12284231698 0)
(5.19850588927e-05 -0.122824229584 0)
(-0.00119611470976 -0.122605212739 0)
(-0.0023834322615 -0.122195193261 0)
(-0.00350995276791 -0.12160415683 0)
(-0.00457586852912 -0.120842047748 0)
(-0.0055815749504 -0.119918752567 0)
(-0.00652766572259 -0.118844063827 0)
(-0.00741492485357 -0.117627646222 0)
(-0.00824431723263 -0.116279003741 0)
(-0.00901697611266 -0.114807448658 0)
(-0.00973418951663 -0.113222072917 0)
(-0.010397384117 -0.111531722406 0)
(-0.0110081087446 -0.109744974418 0)
(-0.0115680161081 -0.107870118556 0)
(-0.0120788449115 -0.105915141167 0)
(-0.0125424009225 -0.103887713393 0)
(-0.012960539146 -0.101795182753 0)
(-0.0133351456166 -0.0996445682216 0)
(-0.0136681209109 -0.0974425586172 0)
(-0.0139613638709 -0.0951955141471 0)
(-0.0142167575855 -0.0929094708391 0)
(-0.0144361561192 -0.0905901476078 0)
(-0.0146213739601 -0.0882429555884 0)
(-0.0147741766693 -0.0858730093803 0)
(-0.0148962745864 -0.0834851397312 0)
(-0.01498931803 -0.0810839072182 0)
(-0.0150548956662 -0.0786736163807 0)
(-0.0150945344014 -0.0762583298202 0)
(-0.015109702242 -0.07384188172 0)
(-0.0151018123764 -0.0714278903376 0)
(-0.0150722296779 -0.0690197690151 0)
(-0.0150222778106 -0.0666207353929 0)
(-0.0149532479332 -0.064233818545 0)
(-0.0148664071833 -0.0618618639311 0)
(-0.0147630078129 -0.0595075361076 0)
(-0.0146442952577 -0.0571733193184 0)
(-0.0145115159825 -0.0548615161266 0)
(-0.0143659235842 -0.0525742443999 0)
(-0.014208784037 -0.0503134329688 0)
(-0.0140413788219 -0.0480808163783 0)
(-0.0138650069019 -0.0458779291175 0)
(-0.0136809845535 -0.0437060997597 0)
(-0.0134906440754 -0.0415664453727 0)
(-0.013295330616 -0.0394598665577 0)
(-0.0130963981484 -0.0373870433852 0)
(-0.0128952040026 -0.0353484324746 0)
(-0.0126931029296 -0.0333442653641 0)
(-0.0124914402122 -0.0313745482981 0)
(-0.0122915446954 -0.0294390634682 0)
(-0.0120947213153 -0.0275373717327 0)
(-0.0119022438769 -0.0256688167633 0)
(-0.0117153477054 -0.0238325305672 0)
(-0.0115352228112 -0.0220274402642 0)
(-0.0113630072585 -0.0202522760171 0)
(-0.0111997813155 -0.018505579952 0)
(-0.0110465622191 -0.0167857159756 0)
(-0.0109043001976 -0.015090880418 0)
(-0.0107738758862 -0.0134191136319 0)
(-0.0106560999998 -0.0117683131881 0)
(-0.010551715577 -0.0101362498298 0)
(-0.0104614025529 -0.0085205912972 0)
(-0.010385774387 -0.00691892697242 0)
(-0.0103252216964 -0.00532880469557 0)
(-0.010277203455 -0.00374612583019 0)
(-0.0101892563586 -0.00219355560184 0)
(-0.00913556800396 -0.000646533644202 0)
(0.0484340836321 -0.00332039477564 0)
(0.053656911939 -0.0112289172501 0)
(0.0534057401786 -0.0190640265067 -1.21804113891e-27)
(0.0525756440353 -0.0268902837218 0)
(0.0514636620026 -0.0345310766361 0)
(0.0501085374537 -0.0419519303053 0)
(0.0485375194934 -0.0491153981384 0)
(0.0467791023371 -0.0559902670115 0)
(0.044862566219 -0.0625516602634 0)
(0.0428168967219 -0.0687808436103 0)
(0.0406698594366 -0.0746647367185 0)
(0.0384473001763 -0.0801952763336 0)
(0.0361726766362 -0.0853686929055 0)
(0.0338668041518 -0.0901847668773 0)
(0.0315477839956 -0.0946461158273 0)
(0.0292310757712 -0.0987575481619 0)
(0.0269296739529 -0.102525504364 0)
(0.0246543515977 -0.105957594587 0)
(0.0224139392738 -0.109062232013 0)
(0.0202156137981 -0.111848355051 0)
(0.0180651774544 -0.114325227562 0)
(0.0159673144164 -0.116502304454 0)
(0.0139258156963 -0.118389149447 0)
(0.0119437683179 -0.119995392175 0)
(0.010023707304 -0.121330712791 0)
(0.00816773205955 -0.12240484354 0)
(0.00637759031783 -0.123227578496 0)
(0.0046547346447 -0.123808784508 0)
(0.00300035677622 -0.124158408644 0)
(0.00141540537301 -0.124286473476 0)
(-9.94010069936e-05 -0.124203091398 0)
(-0.00154359063874 -0.123918417144 0)
(-0.00291691794702 -0.123442626091 0)
(-0.00421937722636 -0.122785919414 0)
(-0.0054512050988 -0.121958464051 0)
(-0.00661287642788 -0.120970364076 0)
(-0.00770509961671 -0.119831623186 0)
(-0.00872880832426 -0.118552108007 0)
(-0.00968515012253 -0.117141512597 0)
(-0.010575472054 -0.115609325047 0)
(-0.0114013038439 -0.113964796842 0)
(-0.0121643388888 -0.112216915513 0)
(-0.012866413872 -0.110374380913 0)
(-0.0135094871447 -0.10844558535 0)
(-0.0140956167074 -0.106438597692 0)
(-0.0146269378765 -0.10436115144 0)
(-0.0151056414047 -0.102220636731 0)
(-0.0155339520696 -0.10002409615 0)
(-0.0159141084391 -0.0977782241781 0)
(-0.0162483437813 -0.0954893700917 0)
(-0.016538868794 -0.09316354404 0)
(-0.0167878561022 -0.0908064260101 0)
(-0.0169974271607 -0.0884233773184 0)
(-0.0171696414752 -0.0860194541969 0)
(-0.0173064886941 -0.0835994229939 0)
(-0.0174098833889 -0.0811677764366 0)
(-0.0174816629118 -0.07872875037 0)
(-0.0175235879785 -0.0762863403558 0)
(-0.0175373461421 -0.0738443175221 0)
(-0.0175245575932 -0.0714062430902 0)
(-0.0174867832164 -0.068975481064 0)
(-0.0174255341498 -0.0665552086709 0)
(-0.0173422825986 -0.0641484242516 0)
(-0.0172384730536 -0.0617579524448 0)
(-0.017115533596 -0.0593864466419 0)
(-0.0169748864753 -0.0570363888448 0)
(-0.0168179577047 -0.054710087168 0)
(-0.0166461850215 -0.0524096713608 0)
(-0.0164610241226 -0.0501370867765 0)
(-0.016263952761 -0.0478940872945 0)
(-0.0160564728212 -0.0456822276906 0)
(-0.0158401102066 -0.0435028559648 0)
(-0.0156164128361 -0.0413571060699 0)
(-0.0153869467778 -0.0392458914526 0)
(-0.0151532909192 -0.0371698997167 0)
(-0.0149170303128 -0.0351295886746 0)
(-0.014679748613 -0.0331251839418 0)
(-0.0144430197708 -0.0311566781889 0)
(-0.0142083993577 -0.0292238320789 0)
(-0.0139774156658 -0.0273261768845 0)
(-0.0137515608791 -0.0254630187235 0)
(-0.0135322824365 -0.0236334443285 0)
(-0.0133209748093 -0.0218363282391 0)
(-0.0131189718038 -0.0200703412911 0)
(-0.0129275395777 -0.0183339602898 0)
(-0.0127478705065 -0.0166254787763 0)
(-0.0125810781053 -0.0149430188983 0)
(-0.0124281931782 -0.0132845445602 0)
(-0.0122901613126 -0.0116478762199 0)
(-0.012167841556 -0.0100307080659 0)
(-0.0120620047628 -0.00843063173181 0)
(-0.0119733198602 -0.00684515419849 0)