/*--------------------------------*- C++ -*----------------------------------*\
| =========                 |                                                 |
| \\      /  F ield         | OpenFOAM: The Open Source CFD Toolbox           |
|  \\    /   O peration     | Version:  v1906                                 |
|   \\  /    A nd           | Web:      www.OpenFOAM.com                      |
|    \\/     M anipulation  |                                                 |
\*---------------------------------------------------------------------------*/
FoamFile
{
    version     2.0;
    format      ascii;
    class       volVectorField;
    location    "691";
    object      U;
}
// * * * * * * * * * * * * * * * * * * * * * * * * * * * * * * * * * * * * * //

dimensions      [0 1 -1 0 0 0 0];


internalField   nonuniform List<vector> 
9216
(
(0.00156469707288 -0.0015658274964 0)
(0.00160466046988 -0.00487957221761 6.53703938203e-28)
(0.00159328959324 -0.00820136427295 1.08623960428e-31)
(0.00157012480846 -0.0115030335152 0)
(0.00153894335313 -0.0147459660478 0)
(0.00150061714911 -0.0179161136509 0)
(0.00145592087054 -0.0209994454924 0)
(0.00140573676289 -0.0239835777771 0)
(0.00135075953077 -0.0268578330053 0)
(0.00129188784833 -0.0296131225089 0)
(0.00122976842553 -0.0322420511087 0)
(0.00116525853119 -0.034738721042 0)
(0.00109888908727 -0.0370987620179 0)
(0.00103141630885 -0.0393190739919 0)
(0.000963211960025 -0.0413978088224 0)
(0.000894903658362 -0.0433340868527 0)
(0.000826692312549 -0.0451279638975 0)
(0.000759077277317 -0.0467801534187 0)
(0.000692100875961 -0.0482920013205 0)
(0.000626152538184 -0.0496652327348 0)
(0.000561140391598 -0.0509019468022 0)
(0.000497369095503 -0.0520043981963 0)
(0.000434641274559 -0.0529750126879 0)
(0.000373202698073 -0.0538162049143 0)
(0.000312777513719 -0.0545304118466 0)
(0.000253574917434 -0.0551199471341 0)
(0.000195265329971 -0.0555870453071 0)
(0.000138040658293 -0.0559337513857 0)
(8.15398835945e-05 -0.0561619712657 0)
(2.59547549584e-05 -0.0562733978566 0)
(-2.90858514549e-05 -0.0562695676527 0)
(-8.33781631696e-05 -0.0561518167723 0)
(-0.00013727907245 -0.0559213310429 0)
(-0.000190549928105 -0.0555791712682 0)
(-0.000243507207722 -0.0551263086216 0)
(-0.000295864128537 -0.05456369632 0)
(-0.000347870075421 -0.0538922984946 0)
(-0.000399174401628 -0.0531132224789 0)
(-0.000449933031424 -0.0522277252131 0)
(-0.000499722255143 -0.0512374085693 0)
(-0.000548585328344 -0.0501441889476 0)
(-0.000596028438108 -0.0489505512176 0)
(-0.000641975772496 -0.0476594607104 0)
(-0.000685883651567 -0.0462746609664 0)
(-0.000727569871627 -0.0448005086196 0)
(-0.000766480803424 -0.0432422901393 0)
(-0.000802361232844 -0.0416059669076 0)
(-0.000834701772398 -0.0398984788192 0)
(-0.000863220770259 -0.0381274090224 0)
(-0.000887502719355 -0.036301247275 0)
(-0.000907276588944 -0.0344290223801 0)
(-0.000922232662085 -0.0325205234082 0)
(-0.00093210569682 -0.030585989389 0)
(-0.000936643697658 -0.0286363147212 0)
(-0.000935546886356 -0.0266828730643 0)
(-0.000928574545233 -0.0247376868492 0)
(-0.00091543193319 -0.0228133083421 0)
(-0.000895997428904 -0.0209227852216 0)
(-0.000870192262927 -0.0190793833065 0)
(-0.000838223247183 -0.0172962625199 0)
(-0.000800426143747 -0.0155860349068 0)
(-0.000757486583557 -0.0139602456825 0)
(-0.000710271145361 -0.0124288224357 0)
(-0.000659929982116 -0.0109995114194 0)
(-0.000607544551649 -0.00967769810418 0)
(-0.000554179338103 -0.00846646572037 0)
(-0.000500792560146 -0.00736685883617 0)
(-0.000448399100534 -0.00637782088677 0)
(-0.000397954750256 -0.00549629358324 0)
(-0.000350318373239 -0.00471723985906 0)
(-0.000306144468382 -0.00403408049191 0)
(-0.000265816456992 -0.00343908937991 0)
(-0.000229483004291 -0.00292403554331 0)
(-0.000197024561964 -0.00248064142006 0)
(-0.000168217199546 -0.00210104616766 0)
(-0.000142734560898 -0.0017779751718 0)
(-0.000120355582913 -0.00150474788376 0)
(-0.000100858310387 -0.00127512258598 0)
(-8.40821551606e-05 -0.00108324095961 0)
(-6.97525099717e-05 -0.000923694705093 0)
(-5.76167816404e-05 -0.000791631683492 0)
(-4.7339206562e-05 -0.000682818724894 0)
(-3.86134197025e-05 -0.000593646529985 0)
(-3.08360858186e-05 -0.000521888961757 0)
(-2.30145534133e-05 -0.000457830998188 0)
(-1.9726774461e-05 -0.00042080370403 0)
(-1.82744462725e-05 -0.000380343406006 0)
(-1.56260953855e-05 -0.000346467883263 0)
(-1.54632613296e-05 -0.000318199714838 0)
(-1.66078915781e-05 -0.000286156671201 0)
(-1.67238773302e-05 -0.000254065491843 0)
(-1.72297447504e-05 -0.000219566243571 0)
(-1.99011402395e-05 -0.000181456138818 0)
(-2.30450877971e-05 -0.000139080872468 0)
(-2.65375732126e-05 -8.68838878508e-05 0)
(-2.87798423991e-05 -2.81910870093e-05 0)
(0.00489255244417 -0.00162223930339 0)
(0.0051546739679 -0.00519332712545 0)
(0.00511531433009 -0.00873304407861 -6.72182421056e-28)
(0.00503924835813 -0.0122537041157 0)
(0.00493801964674 -0.015708362972 0)
(0.00481427162257 -0.0190838498055 0)
(0.00467027364321 -0.0223655310344 0)
(0.0045086251354 -0.025540344507 0)
(0.00433172050519 -0.0285969536797 0)
(0.0041422607826 -0.0315257735634 0)
(0.00394254599836 -0.0343190089034 0)
(0.00373510916508 -0.0369705304915 0)
(0.00352190960543 -0.0394758140786 0)
(0.0033051127374 -0.0418317432502 0)
(0.00308619495279 -0.0440364973827 0)
(0.00286686685208 -0.0460893267441 0)
(0.00264808630803 -0.0479904289594 0)
(0.00243111447424 -0.0497407302343 0)
(0.00221643121995 -0.0513417763035 0)
(0.00200491044445 -0.0527955397957 0)
(0.00179663346883 -0.0541043380028 0)
(0.00159217168748 -0.0552706742284 0)
(0.0013912985076 -0.0562971842695 0)
(0.00119436828098 -0.0571865120241 0)
(0.00100093155463 -0.0579412811456 0)
(0.000811200752284 -0.0585640019643 0)
(0.000624578708156 -0.0590570627659 0)
(0.000441200350368 -0.0594226652204 0)
(0.000260387759056 -0.0596628306829 0)
(8.22561455687e-05 -0.0597793641556 0)
(-9.38887687661e-05 -0.0597738681863 0)
(-0.000267897869532 -0.0596477459678 0)
(-0.000440412319202 -0.0594022305277 0)
(-0.000611183671101 -0.0590384042048 0)
(-0.000780724318622 -0.0585572453803 0)
(-0.000948625761788 -0.0579596934962 0)
(-0.00111519297986 -0.0572467024629 0)
(-0.00127979674773 -0.0564193472356 0)
(-0.00144246133439 -0.0554788821743 0)
(-0.00160229358826 -0.0544268863485 0)
(-0.00175898730935 -0.0532653162363 0)
(-0.00191137879766 -0.0519966806178 0)
(-0.00205882517657 -0.0506240694062 0)
(-0.00219994074197 -0.0491513396986 0)
(-0.00233380197714 -0.0475830987299 0)
(-0.00245891542091 -0.0459248751873 0)
(-0.00257419988948 -0.044183034959 0)
(-0.00267822103591 -0.0423649090693 0)
(-0.00276990380639 -0.0404786348934 0)
(-0.00284803620103 -0.038533224999 0)
(-0.0029116748522 -0.0365383608841 0)
(-0.00295987997074 -0.034504425664 0)
(-0.00299180957493 -0.0324423317107 0)
(-0.00300664246057 -0.0303635898576 0)
(-0.00300345575627 -0.0282802669605 0)
(-0.00298138010776 -0.0262051133594 0)
(-0.00293949077648 -0.0241515638242 0)
(-0.00287724911536 -0.0221336833733 0)
(-0.00279444445026 -0.0201658905319 0)
(-0.00269159860905 -0.018262584449 0)
(-0.00256985859623 -0.0164376536661 0)
(-0.00243132123381 -0.014703909564 0)
(-0.00227894008819 -0.0130723755871 0)
(-0.00211647977403 -0.0115514946339 0)
(-0.00194757690141 -0.0101468859689 0)
(-0.00177555505317 -0.00886168320745 0)
(-0.0016035023601 -0.00769693562303 0)
(-0.00143465791472 -0.00665151536764 0)
(-0.00127218668734 -0.0057220129389 0)
(-0.00111891251036 -0.00490276627009 0)
(-0.000976976800305 -0.00418629429737 0)
(-0.000847634649332 -0.00356386615551 0)
(-0.000731294845002 -0.00302621990876 0)
(-0.000627539753756 -0.0025641830909 0)
(-0.000535508078555 -0.0021692026768 0)
(-0.000454121438164 -0.00183356920982 0)
(-0.000382603045028 -0.00155030951853 0)
(-0.000320347057921 -0.00131286840275 0)
(-0.000266827485558 -0.00111497768525 0)
(-0.000221219817256 -0.000950804829645 0)
(-0.000182645644758 -0.0008151394503 0)
(-0.000150119792647 -0.000703428884465 0)
(-0.000122747157783 -0.000611663957107 0)
(-9.94768313621e-05 -0.000536451063906 0)
(-7.87750826334e-05 -0.000470894254187 0)
(-6.49505631994e-05 -0.00041238387327 0)
(-5.53874050164e-05 -0.000371469997988 0)
(-4.71110946092e-05 -0.000338604440166 0)
(-4.544237154e-05 -0.00030593333937 0)
(-4.81210383725e-05 -0.000279955903026 0)
(-4.98657583173e-05 -0.000252568383854 0)
(-5.32047580927e-05 -0.000216544727786 0)
(-5.94324511886e-05 -0.000177496723515 0)
(-7.43758935691e-05 -0.000141588738238 0)
(-9.21517948741e-05 -9.12592999584e-05 0)
(-8.42780759564e-05 -2.53529152292e-05 0)
(0.00827973148937 -0.00164351290355 0)
(0.0087277463515 -0.00525853534908 0)
(0.00865362181498 -0.00883500949772 -6.71232574327e-28)
(0.00852162444575 -0.012394924444 0)
(0.00834816577019 -0.0158866597081 0)
(0.00813684835253 -0.0192963946529 0)
(0.00789142915586 -0.0226090376245 0)
(0.00761611679664 -0.0258113054911 0)
(0.00731518828536 -0.028891755978 0)
(0.00699306531611 -0.0318408322699 0)
(0.00665391498 -0.0346508489016 0)
(0.0063018201255 -0.0373158854906 0)
(0.00594038344109 -0.0398316697513 0)
(0.00557299955279 -0.0421953955826 0)
(0.00520246485145 -0.044405557034 0)
(0.00483134439816 -0.0464617419335 0)
(0.00446157626849 -0.0483644610418 0)
(0.00409491637265 -0.0501149534034 0)
(0.00373252148931 -0.0517150374078 0)
(0.00337545369749 -0.0531669466243 0)
(0.00302422894542 -0.0544732142458 0)
(0.00267936667916 -0.0556365450706 0)
(0.00234089687067 -0.0566597333036 0)
(0.00200894539327 -0.057545568072 0)
(0.00168319853962 -0.0582967800204 0)
(0.001363518857 -0.0589159754125 0)
(0.00104937117382 -0.0594056051932 0)
(0.000740465603527 -0.059767922966 0)
(0.000436152302022 -0.0600049726614 0)
(0.000136088567892 -0.0601185687569 0)
(-0.000160387460992 -0.0601103014675 0)
(-0.000453570036952 -0.0599815378162 0)
(-0.000744024754819 -0.059733444793 0)
(-0.00103188914608 -0.0593670204882 0)
(-0.0013175127546 -0.0588831360536 0)
(-0.00160075718121 -0.0582825959902 0)
(-0.0018816294984 -0.0575662032666 0)
(-0.00215959911718 -0.0567348523731 0)
(-0.00243421514789 -0.0557896141305 0)
(-0.00270446370957 -0.0547318581699 0)
(-0.00296936063043 -0.0535633492792 0)
(-0.00322737682153 -0.0522863884394 0)
(-0.00347699565509 -0.0509039033394 0)
(-0.00371623532726 -0.0494195876621 0)
(-0.00394315647092 -0.0478379613789 0)
(-0.00415550472114 -0.0461644797652 0)
(-0.00435114712528 -0.0444055342401 0)
(-0.00452784142412 -0.0425684997118 0)
(-0.00468356727697 -0.0406616529531 0)
(-0.0048163959794 -0.0386941398006 0)
(-0.00492466246476 -0.0366758210514 0)
(-0.00500686756265 -0.034617190893 0)
(-0.00506163772506 -0.0325292399813 0)
(-0.00508761090162 -0.0304234531903 0)
(-0.0050832631023 -0.0283118589588 0)
(-0.00504695504193 -0.0262072211109 0)
(-0.00497700530862 -0.0241232020634 0)
(-0.00487220104452 -0.0220743759767 0)
(-0.00473212341012 -0.0200758982654 0)
(-0.00455738537497 -0.0181431109736 0)
(-0.00434994389918 -0.0162909932225 0)
(-0.00411313110853 -0.0145336230395 0)
(-0.00385235068506 -0.0128832199558 0)
(-0.00357450266668 -0.0113486970832 0)
(-0.00328616389241 -0.0099353300934 0)
(-0.0029926910949 -0.00864584012731 0)
(-0.00269916066152 -0.00748124799142 0)
(-0.0024111096893 -0.00644050653386 0)
(-0.00213421698539 -0.00551994990191 0)
(-0.00187355781298 -0.00471320192669 0)
(-0.00163292284468 -0.004011701454 0)
(-0.00141447306756 -0.00340550553177 0)
(-0.00121873784971 -0.00288419488191 0)
(-0.00104478159245 -0.00243770540049 0)
(-0.000890725147297 -0.00205702685034 0)
(-0.000754466715068 -0.0017345191217 0)
(-0.000634576570451 -0.00146356124705 0)
(-0.000530323872925 -0.00123777507324 0)
(-0.000440950443306 -0.00105071839656 0)
(-0.000365095873198 -0.000896292962978 0)
(-0.00030111254359 -0.000769183664249 0)
(-0.000247394274801 -0.000664876675786 0)
(-0.00020252838577 -0.000579470166541 0)
(-0.000165293485154 -0.000509868211012 0)
(-0.000135257533501 -0.000449196498445 0)
(-0.00011276099496 -0.00039670393231 0)
(-9.68156432143e-05 -0.000365312710688 0)
(-8.16662183979e-05 -0.000321357531629 0)
(-7.28154962498e-05 -0.000284201769826 0)
(-7.45919724628e-05 -0.000262038380359 0)
(-8.52072356329e-05 -0.000244034880815 0)
(-8.8585371252e-05 -0.000197016657988 0)
(-0.000102305444398 -0.000163687011359 0)
(-0.000121283573474 -0.000120259348065 0)
(-0.000138082098183 -7.26904209045e-05 0)
(-0.000135614156686 -2.26445171594e-05 0)
(0.0117322749775 -0.00166983458453 0)
(0.0123720017062 -0.00534095613654 0)
(0.0122650529113 -0.00896997112908 6.7114345697e-28)
(0.0120750682289 -0.012581210627 0)
(0.0118257438892 -0.0161208230775 0)
(0.0115223979771 -0.0195742008919 0)
(0.0111705674895 -0.0229256551736 0)
(0.0107763278349 -0.0261615677572 0)
(0.0103459714358 -0.0292703684752 0)
(0.00988584516983 -0.0322425653417 0)
(0.00940205637973 -0.0350706880875 0)
(0.00890039949874 -0.0377491611423 0)
(0.00838612863507 -0.0402741404023 0)
(0.00786398434261 -0.0426433103293 0)
(0.00733803130374 -0.044855676569 0)
(0.00681177193134 -0.0469113464847 0)
(0.00628802824411 -0.0488113271312 0)
(0.00576911640699 -0.0505573277676 0)
(0.00525674642382 -0.0521515906293 0)
(0.00475223161206 -0.053596732796 0)
(0.00425638442788 -0.0548956182317 0)
(0.00376974237494 -0.056051240781 0)
(0.00329244735608 -0.0570666344223 0)
(0.00282447792063 -0.0579447915488 0)
(0.00236550786018 -0.0586886037336 0)
(0.00191514179805 -0.0593008073532 0)
(0.00147275496577 -0.0597839473152 0)
(0.00103773292005 -0.0601403440035 0)
(0.000609297810592 -0.0603720751459 0)
(0.000186754860775 -0.0604809611018 0)
(-0.000230687823633 -0.0604685656768 0)
(-0.000643664577441 -0.0603361972893 0)
(-0.00105283233105 -0.060084928675 0)
(-0.00145860813347 -0.0597156280233 0)
(-0.00186134632666 -0.0592289996293 0)
(-0.00226107276306 -0.0586256422404 0)
(-0.00265765846278 -0.0579061194285 0)
(-0.00305056171662 -0.0570710502353 0)
(-0.00343900143774 -0.0561212081462 0)
(-0.00382172380581 -0.0550576419071 0)
(-0.00419718199466 -0.0538817964564 0)
(-0.00456334759435 -0.0525956527132 0)
(-0.00491790395807 -0.0512018535175 0)
(-0.00525812281053 -0.0497038401593 0)
(-0.00558107500601 -0.0481059555553 0)
(-0.00588358589499 -0.0464135446011 0)
(-0.00616245673656 -0.0446329965097 0)
(-0.00641449433605 -0.0427717677631 0)
(-0.00663671299745 -0.0408383234814 0)
(-0.00682639233792 -0.0388420471826 0)
(-0.0069811812279 -0.0367930666866 0)
(-0.00709907013784 -0.0347020746444 0)
(-0.007178268385 -0.0325801394841 0)
(-0.0072169769473 -0.0304386416333 0)
(-0.00721307182365 -0.0282893917475 0)
(-0.00716397557857 -0.026145004992 0)
(-0.00706687137336 -0.0240193659647 0)
(-0.00691948194995 -0.0219278266807 0)
(-0.00672097850102 -0.0198866565154 0)
(-0.00647174319692 -0.0179126552819 0)
(-0.00617446705571 -0.0160224546508 0)
(-0.00583325146987 -0.0142323346374 0)
(-0.00545657852205 -0.0125569054941 0)
(-0.00505598260405 -0.0110057978625 0)
(-0.0046417387896 -0.00958309757942 0)
(-0.00422057214882 -0.00829044324399 0)
(-0.00379902802155 -0.00712906620969 0)
(-0.00338519408488 -0.00609843895904 0)
(-0.00298795490261 -0.00519468437879 0)
(-0.00261527538277 -0.00441024282645 0)
(-0.00227293266916 -0.00373470663534 0)
(-0.00196403602584 -0.00315606918219 0)
(-0.00168903370104 -0.00266195656182 0)
(-0.0014459964497 -0.00224077235992 0)
(-0.00123131977493 -0.00188278273831 0)
(-0.0010411438218 -0.00158071416063 0)
(-0.000873288790615 -0.00132895197816 0)
(-0.000727497040453 -0.00112160083021 0)
(-0.000603243424691 -0.000951751939002 0)
(-0.000498461704445 -0.000812673142724 0)
(-0.000410404476644 -0.000698899170969 0)
(-0.000336698759144 -0.000606104225471 0)
(-0.000275319874917 -0.000530653414189 0)
(-0.000224619745391 -0.000470007936328 0)
(-0.000183973291972 -0.000414940715053 0)
(-0.000156181919332 -0.000375576272708 0)
(-0.000134234338656 -0.000340015466016 0)
(-0.000115877184497 -0.00029902408014 0)
(-0.000107575889923 -0.000271860028035 0)
(-0.000102861058747 -0.000235582819714 0)
(-0.00011054128233 -0.00020474534027 0)
(-0.000131400276024 -0.000182958885585 0)
(-0.000140326191514 -0.000134741487448 0)
(-0.000160727988677 -9.50201655472e-05 0)
(-0.000181036630869 -5.80085725726e-05 0)
(-0.00018167674623 -1.91043469466e-05 0)
(0.0152468325778 -0.00170507147326 0)
(0.0160780844037 -0.00545230650237 0)
(0.0159360721303 -0.00915426012509 0)
(0.0156845376754 -0.0128355448578 0)
(0.0153547231527 -0.0164401880591 0)
(0.0149539336347 -0.0199525899504 0)
(0.0144897498009 -0.0233563009287 0)
(0.0139704023166 -0.0266372637024 0)
(0.0134044120711 -0.0297837633572 0)
(0.0128002847237 -0.0327864276534 0)
(0.0121662027204 -0.0356381231372 0)
(0.011509829956 -0.0383337823647 0)
(0.0108381183503 -0.0408701866749 0)
(0.0101572381157 -0.0432457192608 0)
(0.00947249267728 -0.0454601122041 0)
(0.00878835171818 -0.0475141959929 0)
(0.0081084409804 -0.0494096676353 0)
(0.00743563924958 -0.0511488782761 0)
(0.00677210400216 -0.0527346492241 0)
(0.00611939629257 -0.0541701117356 0)
(0.00547851200006 -0.0554585749306 0)
(0.0048500105349 -0.056603414325 0)
(0.00423403464952 -0.057607983209 0)
(0.00363043164547 -0.0584755389888 0)
(0.00303875631168 -0.0592091863664 0)
(0.00245838280801 -0.0598118303217 0)
(0.00188849288526 -0.0602861409869 0)
(0.00132818214467 -0.0606345251827 0)
(0.000776439818874 -0.0608591072697 0)
(0.000232255427858 -0.060961715643 0)
(-0.00030540248587 -0.0609438812049 0)
(-0.000837473904458 -0.060806835594 0)
(-0.00136482248553 -0.0605515282573 0)
(-0.0018881147923 -0.0601786547542 0)
(-0.00240782865819 -0.0596886951021 0)
(-0.00292412555608 -0.0590819705307 0)
(-0.00343685487229 -0.0583587165134 0)
(-0.00394542957454 -0.0575191754906 0)
(-0.00444883619792 -0.0565637062598 0)
(-0.00494553036882 -0.0554929127969 0)
(-0.00543346819002 -0.0543077854291 0)
(-0.00591004312276 -0.0530098554502 0)
(-0.00637215676038 -0.0516013508753 0)
(-0.00681621921238 -0.050085353093 0)
(-0.00723827402769 -0.0484659359714 0)
(-0.00763407736763 -0.0467482854837 0)
(-0.00799928114133 -0.0449387748633 0)
(-0.00832958693046 -0.0430449924499 0)
(-0.00862096265053 -0.0410756882721 0)
(-0.00886981542195 -0.0390406432013 0)
(-0.00907313793996 -0.0369504293938 0)
(-0.00922852298631 -0.0348161020054 0)
(-0.00933399110637 -0.0326488627405 0)
(-0.0093875630853 -0.0304598637091 0)
(-0.00938662505063 -0.0282603555159 0)
(-0.00932741728052 -0.0260624097547 0)
(-0.0092053006707 -0.0238799896735 0)
(-0.00901616824049 -0.0217296581567 0)
(-0.00875874482173 -0.0196292308886 0)
(-0.00843241984709 -0.0175975704477 0)
(-0.0080408966742 -0.0156533760412 0)
(-0.00758707432715 -0.0138165173822 0)
(-0.00708374397296 -0.0121066477909 0)
(-0.00655066809298 -0.0105344739015 0)
(-0.00600343056631 -0.0091004622118 0)
(-0.00544776934187 -0.00780360412051 0)
(-0.00489025713262 -0.00664628309141 0)
(-0.00434209693223 -0.00562979115469 0)
(-0.00381686052835 -0.00475033951096 0)
(-0.00332656831416 -0.0039984442773 0)
(-0.00287949435643 -0.00336068829175 0)
(-0.00247970735983 -0.00282179928462 0)
(-0.00212727411483 -0.00236631902117 0)
(-0.00181854506328 -0.00198013020004 0)
(-0.0015468642454 -0.00165229155587 0)
(-0.00130501588444 -0.00137658729877 0)
(-0.00108983357598 -0.00114999831064 0)
(-0.000903216720632 -0.000967800701241 0)
(-0.000746034364074 -0.000821743313697 0)
(-0.000614935047228 -0.000703505338529 0)
(-0.000505192504407 -0.000607464650309 0)
(-0.000413531520785 -0.000529829622885 0)
(-0.000337296429918 -0.000467413967842 0)
(-0.000274384309761 -0.000418224240793 0)
(-0.00022254999725 -0.000370108585915 0)
(-0.000195589091158 -0.000346716047848 0)
(-0.000173673463216 -0.00031527937802 0)
(-0.000153409277567 -0.000279447977509 0)
(-0.000136200754016 -0.000237002223927 0)
(-0.000135223050258 -0.000209924321619 0)
(-0.000138616407463 -0.000173501408232 0)
(-0.000161720458283 -0.000150790905427 0)
(-0.000188266646895 -0.000120172754252 0)
(-0.000197360149575 -7.7735692854e-05 0)
(-0.000210289311673 -4.56585521598e-05 0)
(-0.000210952659778 -1.51819687238e-05 0)
(0.0188447257969 -0.00175018788485 0)
(0.019869992545 -0.00559556332739 0)
(0.019689517154 -0.00939192748516 0)
(0.0193713155536 -0.0131634324452 0)
(0.0189545418205 -0.0168514767793 0)
(0.0184488166755 -0.0204392042493 0)
(0.0178641186501 -0.0239092208566 0)
(0.0172111988883 -0.0272469447697 0)
(0.0165011239588 -0.030440530105 0)
(0.0157448485931 -0.0334808232953 0)
(0.0149528422272 -0.0363611958196 0)
(0.0141348133858 -0.0390773026332 0)
(0.0132995026394 -0.0416267933008 0)
(0.0124545751861 -0.044009000781 0)
(0.0116065647911 -0.0462246312369 0)
(0.0107608964442 -0.0482754697199 0)
(0.0099219297779 -0.0501641141739 0)
(0.00909305524943 -0.051893742131 0)
(0.00827678215013 -0.0534679135522 0)
(0.00747485956294 -0.0548904071234 0)
(0.0066883691724 -0.0561650884492 0)
(0.00591784096565 -0.0572958045109 0)
(0.00516333037563 -0.0582863013933 0)
(0.00442451641622 -0.0591401594628 0)
(0.00370075788407 -0.0598607434324 0)
(0.00299117387246 -0.0604511627254 0)
(0.00229468310045 -0.0609142408072 0)
(0.00161007332474 -0.0612524905861 0)
(0.000936032398967 -0.061468095861 0)
(0.000271215896111 -0.061562897348 0)
(-0.00038572046251 -0.0615383890003 0)
(-0.00103604609222 -0.0613957108401 0)
(-0.00168091268833 -0.0611356625139 0)
(-0.00232126777388 -0.0607587263472 0)
(-0.00295780005472 -0.0602651015487 0)
(-0.00359084125411 -0.0596547584206 0)
(-0.00422030403528 -0.0589275120357 0)
(-0.00484558305105 -0.0580831185872 0)
(-0.00546549942763 -0.0571213942284 0)
(-0.00607822095289 -0.0560423572776 0)
(-0.00668123567542 -0.0548463905212 0)
(-0.00727131817311 -0.0535344203766 0)
(-0.00784455944059 -0.0521081063495 0)
(-0.00839640739745 -0.0505700316976 0)
(-0.00892177838018 -0.0489238854118 0)
(-0.00941519493296 -0.0471746207658 0)
(-0.00987099397747 -0.0453285724211 0)
(-0.0102835727556 -0.0433935128909 0)
(-0.0106476786854 -0.0413786128658 0)
(-0.0109587231038 -0.0392942806689 0)
(-0.0112130319168 -0.0371518298033 0)
(-0.0114079877807 -0.0349629807736 0)
(-0.0115418216069 -0.0327392299942 0)
(-0.0116129434063 -0.0304913234346 0)
(-0.0116186531919 -0.0282292911889 0)
(-0.011553700703 -0.0259637231158 0)
(-0.0114103249537 -0.0237081564946 0)
(-0.0111809295028 -0.021481307152 0)
(-0.0108647351537 -0.0193029412015 0)
(-0.0104581191685 -0.0171948367376 0)
(-0.0099680581595 -0.0151771354274 0)
(-0.00938925548469 -0.0132752048048 0)
(-0.00874119277743 -0.0115205192541 0)
(-0.00806122109573 -0.00992550231143 0)
(-0.00737379532774 -0.00848021482329 0)
(-0.0066762523452 -0.00717728397792 0)
(-0.00597176281635 -0.00602340628256 0)
(-0.00527630786352 -0.00502505334889 0)
(-0.00461147444593 -0.00417916539948 0)
(-0.00399544101463 -0.00347288502313 0)
(-0.00343955565758 -0.00288785287534 0)
(-0.00294874212837 -0.00240385506817 0)
(-0.00252232439805 -0.00200079943095 0)
(-0.00215406052319 -0.00166036678585 0)
(-0.00183189178198 -0.00136925708794 0)
(-0.00154155716493 -0.00112368642272 0)
(-0.00127809198644 -0.00092715534329 0)
(-0.00105016096075 -0.000777803806347 0)
(-0.000862946691396 -0.000663472115927 0)
(-0.000709845897154 -0.000571832840163 0)
(-0.00058179987781 -0.000497496946719 0)
(-0.000474852329068 -0.000438208458865 0)
(-0.000385961152841 -0.000391483033036 0)
(-0.000312507128964 -0.000354584683001 0)
(-0.000254949644243 -0.000319695903572 0)
(-0.000224358194772 -0.000300292970695 0)
(-0.000197550335731 -0.000269217240637 0)
(-0.000183397788358 -0.000246449719875 0)
(-0.000175512538327 -0.000220238296986 0)
(-0.000175784982101 -0.000192794095717 0)
(-0.000169213929369 -0.000149340334471 0)
(-0.000183715043135 -0.000118883380708 0)
(-0.000217642454427 -9.90919283439e-05 0)
(-0.000232176328672 -6.83994743216e-05 0)
(-0.00023809580581 -3.8990401306e-05 0)
(-0.000239414068059 -1.29784753723e-05 0)
(0.0225477067066 -0.00180635013887 0)
(0.0237706136247 -0.00577403192363 0)
(0.0235470656524 -0.00968803190437 6.66385439368e-28)
(0.0231553390435 -0.0135715750212 0)
(0.0226430265819 -0.0173627176715 0)
(0.0220225081164 -0.0210430129885 0)
(0.0213066370165 -0.0245939175904 0)
(0.0205091601404 -0.0280002571828 0)
(0.0196441168531 -0.0312501124006 0)
(0.0187252776311 -0.0343347081191 0)
(0.0177656783238 -0.0372481570917 0)
(0.0167772749038 -0.0399871207429 0)
(0.0157707111718 -0.0425504237345 0)
(0.0147552001697 -0.0449386560646 0)
(0.0137384920952 -0.0471537900174 0)
(0.01272692002 -0.0491988302126 0)
(0.0117254904121 -0.0510775081852 0)
(0.0107380121696 -0.0527940254208 0)
(0.00976723434958 -0.054352844598 0)
(0.00881499437661 -0.05575852458 0)
(0.00788235282001 -0.0570155935793 0)
(0.0069697248655 -0.0581284533642 0)
(0.00607698930232 -0.059101308195 0)
(0.00520359131889 -0.0599381121154 0)
(0.00434862234341 -0.0606425297454 0)
(0.00351089699036 -0.0612179061434 0)
(0.00268901103323 -0.061667242776 0)
(0.00188140266528 -0.0619931773292 0)
(0.00108640073003 -0.062197966333 0)
(0.000302283273575 -0.0622834698723 0)
(-0.000472671036213 -0.0622511446778 0)
(-0.00124011408683 -0.0621020290023 0)
(-0.00200156168253 -0.061836750907 0)
(-0.00275830763681 -0.0614555428563 0)
(-0.0035113382318 -0.0609582690677 0)
(-0.00426122781962 -0.0603444747291 0)
(-0.0050080395807 -0.0596134582463 0)
(-0.00575121478945 -0.0587643705251 0)
(-0.00648947768294 -0.0577963435028 0)
(-0.0072207427857 -0.0567086480821 0)
(-0.00794205373157 -0.0555008813877 0)
(-0.00864954334992 -0.0541731776664 0)
(-0.00933844294679 -0.0527264382848 0)
(-0.0100031327045 -0.0511625699835 0)
(-0.0106372581896 -0.0494847212684 0)
(-0.0112339023227 -0.047697498713 0)
(-0.0117858476274 -0.0458071502674 0)
(-0.0122858899626 -0.0438216747917 0)
(-0.0127272810873 -0.0417508364357 0)
(-0.0131041722761 -0.0396059945883 0)
(-0.0134121571134 -0.0373996927431 0)
(-0.0136485998035 -0.0351448910615 0)
(-0.0138126411951 -0.0328538185629 0)
(-0.0139042282956 -0.0305366963807 0)
(-0.01392175959 -0.0282011147606 0)
(-0.0138582855875 -0.0258540841526 0)
(-0.0137003510214 -0.0235072215162 0)
(-0.0134325479545 -0.0211840709989 0)
(-0.0130596913893 -0.0189064230634 0)
(-0.0125682845325 -0.0167008949756 0)
(-0.0119802635993 -0.0145845131566 0)
(-0.0112578333326 -0.0125896509966 0)
(-0.0104320334265 -0.0107786115963 0)
(-0.00958360057381 -0.00916707422435 0)
(-0.00875382378445 -0.0077154896922 0)
(-0.00790938687333 -0.00640156648352 0)
(-0.00704276271145 -0.00524633268606 0)
(-0.00617995191525 -0.00426949660939 0)
(-0.00535820017252 -0.00346946630261 0)
(-0.00460523520723 -0.00282651905068 0)
(-0.003935599107 -0.00231398324182 0)
(-0.0033544289282 -0.00190456248468 0)
(-0.00286017792052 -0.00157163267852 0)
(-0.00244356715103 -0.00128969372547 0)
(-0.00208340051011 -0.00103978535454 0)
(-0.00174939145765 -0.000822785979918 0)
(-0.00143162781411 -0.000658601753479 0)
(-0.001158115473 -0.000552655434872 0)
(-0.000946065207759 -0.000481428276324 0)
(-0.000778956954937 -0.000422358531229 0)
(-0.000637159596966 -0.000372470971541 0)
(-0.000518050009575 -0.00033398605701 0)
(-0.000419299631582 -0.00030490892763 0)
(-0.000336926183218 -0.00028198409242 0)
(-0.000279491382616 -0.000263988473795 0)
(-0.00024667309325 -0.000250256050988 0)
(-0.000222253548303 -0.000231893390209 0)
(-0.000204767900701 -0.000209641576134 0)
(-0.000201927378396 -0.00019061899107 0)
(-0.000200163232223 -0.000161316230113 0)
(-0.000210779680106 -0.000137510481678 0)
(-0.000211912558749 -0.000101208699898 0)
(-0.000231750032302 -7.82714261961e-05 0)
(-0.000257814579916 -5.93401745983e-05 0)
(-0.00026207565496 -3.3998854818e-05 0)
(-0.000263869077925 -1.13452099384e-05 0)
(0.0263801159627 -0.00187491517994 0)
(0.0278051534881 -0.00599186725093 0)
(0.0275325302485 -0.0100491898495 -6.66282789394e-28)
(0.027058349982 -0.0140687329677 0)
(0.026439380008 -0.0179843437515 0)
(0.0256913735457 -0.0217755927546 0)
(0.0248307030299 -0.0254225664133 0)
(0.0238747362902 -0.0289094622483 0)
(0.0228410427321 -0.0322244097278 0)
(0.0217466701134 -0.0353592587778 0)
(0.0206075667624 -0.0383091953831 0)
(0.0194381686517 -0.0410722665478 0)
(0.0182511458565 -0.0436488647636 0)
(0.0170572935104 -0.0460412165879 0)
(0.0158655380754 -0.0482529081484 0)
(0.0146830320562 -0.050288468222 0)
(0.0135153046292 -0.0521530189213 0)
(0.0123664458521 -0.0538519951867 0)
(0.0112393000927 -0.0553909284495 0)
(0.0101356573192 -0.0567752858818 0)
(0.00905642828078 -0.058010355325 0)
(0.00800180223469 -0.0591011655397 0)
(0.00697138077422 -0.0600524326067 0)
(0.0059642926512 -0.0608685242529 0)
(0.00497928699465 -0.0615534357641 0)
(0.00401481282511 -0.062110772218 0)
(0.00306908372067 -0.0625437334999 0)
(0.00214013681704 -0.062855099447 0)
(0.00122588546698 -0.0630472139887 0)
(0.00032417519179 -0.0631219674436 0)
(-0.000567158451211 -0.0630807848194 0)
(-0.00145021898215 -0.0629245995818 0)
(-0.00232697000521 -0.0626538539543 0)
(-0.00319913958927 -0.0622685005683 0)
(-0.00406811270967 -0.0617680191683 0)
(-0.00493480747075 -0.0611514569555 0)
(-0.00579954445367 -0.0604174959271 0)
(-0.00666190799891 -0.0595645533353 0)
(-0.0075206137367 -0.0585909185875 0)
(-0.00837338520045 -0.0574949294038 0)
(-0.00921685709169 -0.056275186882 0)
(-0.0100465122719 -0.0549308051197 0)
(-0.0108566673982 -0.0534616909849 0)
(-0.0116405211001 -0.0518688420067 0)
(-0.0123902648789 -0.0501546499286 0)
(-0.0130972975697 -0.0483232049962 0)
(-0.013752496329 -0.0463805548358 0)
(-0.0143466777524 -0.0443349412228 0)
(-0.0148710876569 -0.0421968903106 0)
(-0.0153182080603 -0.0399791522927 0)
(-0.0156825342521 -0.0376962536532 0)
(-0.0159615804195 -0.035363462179 0)
(-0.0161563542926 -0.0329948570469 0)
(-0.0162706125964 -0.0306004417371 0)
(-0.0163069350353 -0.0281833497678 0)
(-0.0162573840595 -0.0257423170246 0)
(-0.0160975130226 -0.0232824223828 0)
(-0.0157910053236 -0.0208406497873 0)
(-0.0153690378089 -0.0184386804784 0)
(-0.014781550133 -0.0161154089625 0)
(-0.0141164831987 -0.0138666805044 0)
(-0.0132214159146 -0.011726963235 0)
(-0.0121495812855 -0.00984626763174 0)
(-0.0111013068394 -0.00824723627781 0)
(-0.0101493737804 -0.00680587305527 0)
(-0.00916246839162 -0.00546604383409 0)
(-0.00811007672534 -0.00429375872615 0)
(-0.00704552443143 -0.00334025814955 0)
(-0.00603968720264 -0.00260420090198 0)
(-0.00513444485892 -0.00205003125374 0)