/*--------------------------------*- C++ -*----------------------------------*\
| =========                 |                                                 |
| \\      /  F ield         | OpenFOAM: The Open Source CFD Toolbox           |
|  \\    /   O peration     | Version:  v1906                                 |
|   \\  /    A nd           | Web:      www.OpenFOAM.com                      |
|    \\/     M anipulation  |                                                 |
\*---------------------------------------------------------------------------*/
FoamFile
{
    version     2.0;
    format      ascii;
    class       volScalarField;
    location    "94";
    object      p;
}
// * * * * * * * * * * * * * * * * * * * * * * * * * * * * * * * * * * * * * //

dimensions      [0 2 -2 0 0 0 0];


internalField   nonuniform List<scalar> 
9216
(
18777.5705797
18772.4471774
18762.0024672
18746.2020528
18725.1154277
18698.8261455
18667.4379907
18631.0734122
18589.8718881
18543.9882682
18493.591062
18438.8606648
18379.9875786
18317.1706318
18250.6152581
18180.5318263
18107.1340785
18030.6376532
17951.2587476
17869.2128813
17784.7138104
17697.9725467
17609.1965245
17518.5888642
17426.3477744
17332.6660346
17237.7306017
17141.7222797
17044.8154958
16947.1781218
16848.9713836
16750.3497978
16651.4611754
16552.4465783
16453.4407924
16354.5721687
16255.9624279
16157.7271608
16059.9759871
15962.8126927
15866.3354239
15770.6368659
15675.8044527
15581.9205529
15489.0626838
15397.3036977
15306.711993
15217.3516961
15129.2828663
15042.5616703
14957.240578
14873.3685283
14790.9911138
14710.1507376
14630.8867863
14553.2357767
14477.2315178
14402.9052467
14330.28578
14259.3996396
14190.2711935
14122.9227719
14057.3747978
13993.6458939
13931.7530041
13871.7114915
13813.5352504
13757.2367967
13702.8273715
13650.3170235
13599.7147042
13551.0283439
13504.2649386
13459.4306194
13416.5307317
13375.5698985
13336.5520922
13299.480692
13264.3585483
13231.1880346
13199.9711045
13170.7093385
13143.4039941
13118.0560464
13094.6662323
13073.2350851
13053.7629716
13036.2501212
13020.6966549
13007.1026062
12995.4679379
12985.7925383
12978.0761958
12972.3183788
12968.5209126
12966.6567093
18782.6149648
18777.4723732
18767.0012677
18751.144867
18729.980917
18703.5955031
18672.0940479
18635.6004798
18594.255769
18548.2163101
18497.652198
18442.7454335
18383.6881144
18320.6806332
18253.9299288
18183.6478032
18110.0493379
18033.3514141
17953.7713596
17871.5257168
17786.8291482
17699.8934642
17610.9267866
17520.1328246
17427.710275
17333.8523202
17238.7462336
17142.5730657
17045.5074194
16947.717288
16849.3639661
16750.6020083
16651.5792522
16552.4369255
16453.3094774
16354.3248501
16255.6048188
16157.2649103
16059.4146032
15962.157522
15865.5916358
15769.8094498
15674.8982103
15580.9401013
15488.0124512
15396.187929
15305.5347477
15216.1168558
15127.9941338
15041.2225778
14955.8544875
14871.9386401
14789.5204676
14708.6422208
14629.3431359
14551.6595872
14475.6252432
14401.2712083
14328.6261683
14257.7165221
14188.5665162
14121.1983668
14055.6323843
13991.8870864
13929.9793127
13869.9243292
13811.7359342
13755.4265544
13701.0073423
13648.4882644
13597.8781913
13549.184978
13502.4155463
13457.5759585
13414.6714927
13373.7067094
13334.68552
13297.6112474
13262.4866872
13229.3141624
13198.0955782
13168.8324703
13141.5260536
13116.1772645
13092.7868032
13071.3551702
13051.8827022
13034.3696028
13018.815972
13005.2218314
12993.5871494
12983.9118649
12976.1959455
12970.4394003
12966.6467041
12964.7825224
18792.9284553
18787.7341906
18777.1832617
18761.2070333
18739.8844029
18713.3032086
18681.5712573
18644.8151967
18603.1789582
18556.8220745
18505.9178879
18450.6516941
18391.2188691
18327.8230155
18260.674164
18189.9870528
18115.9795127
18038.8709658
17958.881057
17876.2284156
17791.129558
17703.7979209
17614.4430296
17523.2697877
17430.4778871
17336.2613235
17240.8080143
17144.2995031
17046.9107477
16948.8099767
16850.1586116
16751.1112413
16651.8156466
16552.4128673
16453.0372636
16353.8166743
16254.8725454
16156.3200824
16058.268433
15960.8208761
15864.0750198
15768.1230004
15673.0516879
15578.9428888
15485.8735528
15393.9159742
15303.137994
15213.6031961
15125.3711021
15038.4973586
14953.0339232
14869.0292412
14786.5284217
14705.5734032
14626.2031185
14548.4536498
14472.3583821
14397.9481476
14325.2513685
14254.2941906
14185.1006156
14117.6926252
14052.0903033
13988.3119505
13926.374197
13866.2921085
13808.0792903
13751.7479843
13697.3091654
13644.7726307
13594.1470875
13545.4402354
13498.6588471
13453.8088432
13410.8953659
13369.9228473
13330.8950757
13293.815258
13258.6860794
13225.5097594
13194.2881048
13165.02256
13137.7142536
13112.3640424
13088.9725526
13067.5402172
13048.0673113
13030.553984
13015.0002881
13001.4062072
12989.7716829
12980.09664
12972.3810385
12966.6247859
12962.8321769
12960.9632811
18808.622577
18803.3652893
18792.6914758
18776.5308104
18754.9643932
18728.0828636
18695.9976184
18658.8394422
18616.756811
18569.9140893
18518.4896253
18462.6737887
18402.6670009
18338.6777955
18270.9209458
18199.6156861
18124.9840488
18047.2493321
17966.6347087
17883.3619786
17797.6504693
17709.7160768
17619.770445
17528.0202742
17434.66675
17339.905083
17243.924149
17146.9062194
17049.0267721
16950.4543723
16851.3506157
16751.8701242
16652.1605859
16552.3628392
16452.6110081
16353.0326292
16253.7487107
16154.8739879
16056.5171063
15958.7808159
15861.7621743
15765.5527542
15670.238853
15575.9017019
15482.6176754
15390.4584971
15299.4914439
15209.7795448
15121.3817772
15034.3532563
14948.7454208
14864.6062123
14781.9802498
14700.9089975
14621.4309287
14543.5816816
14467.3942119
14392.8989382
14320.1238832
14249.0948082
14179.8353443
14112.3671168
14046.7098664
13982.8815639
13920.8985223
13860.7755031
13802.5258187
13746.1614307
13691.6930447
13639.1301999
13588.4813565
13539.753978
13492.954611
13448.0889606
13405.1619633
13364.1778552
13325.1402387
13288.0521442
13252.9160896
13219.7341365
13188.5079432
13159.2388144
13131.9277484
13106.5754806
13083.1825249
13061.749211
13042.2757199
13024.7621161
13009.2083771
12995.6144214
12983.9801338
12974.3053885
12966.5900901
12960.8340379
12957.041403
12955.1713672
18829.7536502
18824.4140002
18813.5732173
18797.1615849
18775.2635582
18747.9737794
18715.4086003
18677.704491
18635.0161691
18587.5146312
18535.3850878
18478.8248531
18418.0412396
18353.2495005
18284.6708573
18212.530641
18137.0565681
18058.477165
17977.0203509
17892.9121787
17806.375736
17717.6301969
17626.8900207
17534.3642849
17440.2561438
17344.7623996
17248.0731762
17150.3716833
17051.8340596
16952.6292866
16852.9191606
16752.8583171
16652.5942943
16552.2676658
16452.0121824
16351.9549101
16252.2162804
16152.910389
16054.1451963
15956.0227312
15858.6393052
15762.0857271
15666.4475211
15571.8051417
15478.2341884
15385.8056164
15294.5859437
15204.6374538
15116.018393
15028.7831627
14942.982506
14858.6636883
14775.8706718
14694.644285
14615.0223852
14537.0400158
14460.7295578
14386.1208754
14313.2414564
14242.1165474
14172.7692833
14105.220812
14039.4904148
13975.595621
13913.5523192
13853.3748629
13795.076173
13738.6678355
13684.1601954
13631.5624468
13580.882719
13532.1281589
13485.3050108
13440.4186908
13397.4738599
13356.4744921
13317.4239404
13280.3249984
13245.1799603
13211.9906761
13180.7586049
13151.4848643
13124.1702778
13098.8154182
13075.4206483
13053.9861592
13034.5120051
13016.9981354
13001.4444249
12987.8506998
12976.2167634
12966.5424145
12958.8274829
12953.071674
12949.2790867
12947.4088119
18856.4064677
18850.9626084
18839.9089341
18823.1769322
18800.8555911
18773.0448874
18739.8676592
18701.4677762
18658.0080559
18609.6680805
18556.6419238
18499.1358452
18437.3660089
18371.556274
18301.9360944
18228.7385597
18152.1985951
18072.5513353
17990.0306771
17904.8680099
17817.2911204
17727.5232632
17635.7823858
17542.2804965
17447.2231622
17350.8091223
17253.2300058
17154.670139
17055.3064319
16955.3083321
16854.8378359
16754.0495482
16653.0907766
16552.1017302
16451.2156474
16350.5589499
16250.25132
16150.4060308
16051.1301632
15952.5248249
15854.6853754
15757.7016533
15661.6582018
15566.6344922
15472.7051448
15379.940145
15288.4050545
15198.1612175
15109.265961
15021.7727892
14935.7315711
14851.1887229
14768.1873833
14686.7675826
14606.9664064
14528.8181521
14452.3544807
14377.6045616
14304.5952133
14233.3510369
14163.8945463
14096.2462916
14030.4249791
13966.447585
13904.3294665
13844.0844666
13785.725016
13729.2622302
13674.706003
13622.065096
13571.3472242
13522.5591384
13475.7067038
13430.7949749
13387.8282674
13346.810227
13307.7438941
13270.6317662
13235.4758566
13202.2777503
13171.0386566
13141.759459
13114.4407616
13089.082933
13065.6861468
13044.2504198
13024.7756467
13007.2616322
12991.7081204
12978.1148209
12966.4814333
12956.8076635
12949.0932579
12943.3378393
12939.5454667
12937.675301
18888.6881277
18883.1163564
18871.8010884
18854.6752927
18831.8337156
18803.3831288
18769.4545705
18730.2012264
18685.7960782
18636.4294486
18582.3064626
18523.6444963
18460.6706744
18393.619472
18322.7304589
18248.2462191
18170.4104631
18089.4663441
18005.65498
17919.2141765
17830.3773434
17739.3725922
17646.4219988
17551.741018
17455.5380328
17358.0140227
17259.3623362
17159.7685533
17059.4104251
16958.457878
16857.073072
16755.4105047
16653.6171412
16551.832698
16450.1897445
16348.8138605
16247.8237862
16147.3317708
16047.4438075
15948.2598687
15849.8741471
15752.3752942
15655.8466575
15560.3665124
15466.0082902
15372.8408006
15280.9284482
15190.3314418
15101.1059985
15013.3045399
14926.9758819
14842.1654179
14758.9152951
14677.2645841
14597.2494422
14518.9032704
14442.2568643
14367.3385593
14294.1743694
14222.7881214
14153.2015835
14085.4345881
14019.5051513
13955.4295859
13893.222611
13832.897457
13774.4659663
13717.9386898
13663.3249797
13610.6330785
13559.870204
13511.0426313
13464.1557706
13419.2142421
13376.2219472
13335.1821369
13296.0974765
13258.9701076
13223.8017062
13190.593539
13159.3465152
13130.0612367
13102.738044
13077.3770603
13053.9782317
13032.5413652
13013.0661635
12995.5522567
12979.9992317
12966.4066578
12954.7741104
12945.101187
12937.3875418
12931.6327158
12927.8407334
12925.97085
18926.7299939
18921.0047462
18909.3756839
18891.7775415
18868.3121804
18839.0948156
18804.26663
18763.9922967
18718.4572874
18667.8650739
18612.434259
18552.3957194
18487.9898332
18419.4638534
18347.0694676
18271.0605776
18191.6913135
18109.2142888
18023.879095
17935.9310246
17845.6100099
17753.1497597
17658.7770747
17562.7113224
17465.1640526
17366.3387343
17266.4305965
17165.6265584
17064.1052326
16962.0369905
16859.5840766
16756.9007648
16654.1335305
16551.4214343
16448.8961986
16346.6823323
16244.8974178
16143.6524601
16043.052138
15943.1950613
15844.1740272
15746.076274
15648.983729
15552.9732514
15458.1168681
15364.4820027
15272.1316972
15181.1248262
15091.5163039
15003.3572823
14916.6953438
14831.5746847
14748.0362926
14666.1181161
14585.8552284
14507.2799838
14430.4221681
14355.3091431
14281.9659848
14210.4156169
14140.6789379
14072.7749441
14006.7208466
13942.5321849
13880.2229347
13819.8056122
13761.291374
13704.6901129
13650.0105499
13597.2603222
13546.4460682
13497.573508
13450.6475215
13405.6722222
13362.6510284
13321.5867308
13282.4815571
13245.3372334
13210.1550424
13176.9358792
13145.6803028
13116.3885862
13089.0607624
13063.6966679
13040.295983
13018.8582698
12999.3830065
12981.8696193
12966.3175116
12952.7260889
12941.0947829
12931.4230672
12923.7104924
12917.956512
12914.16511
12912.2956327
18970.6894921
18964.7830509
18952.7836872
18934.6282798
18910.4273707
18880.3065197
18844.4192991
18802.9443641
18756.0823307
18704.0525473
18647.0898151
18585.4411566
18519.3627184
18449.1168725
18374.9695648
18297.1879358
18216.0382305
18131.7839939
18044.684546
17954.9937172
17862.9588246
17768.8198659
17672.8089044
17575.1496233
17476.0570238
17375.7372471
17274.3874985
17172.1960586
17069.3423628
16965.9971382
16862.3225841
16758.472588
16654.5929478
16550.8218647
16447.290008
16344.1205497
16241.4296754
16139.326902
16037.9153494
15937.2920197
15837.5480726
15738.7690943
15641.0353586
15544.4220799
15448.9996583
15354.8339151
15261.986321
15170.5142137
15080.4710087
14991.9064005
14904.8665559
14819.3942992
14735.5292899
14653.3081929
14572.7648412
14493.9303928
14416.8334796
14341.5003515
14267.9550138
14196.2193589
14126.3132933
14058.2548586
13992.060348
13927.7444184
13865.3201975
13804.7993868
13746.1923605
13689.5082605
13634.7550875
13581.9397882
13531.0683396
13482.1458285
13435.1765294
13390.1639775
13347.1110394
13306.0199803
13266.8925279
13229.729934
13194.5330319
13161.302292
13130.0378733
13100.739673
13073.4073725
13048.0404804
13024.6383735
13003.2003336
12983.7255822
12966.2133127
12950.6627182
12937.073018
12925.4434802
12915.7734381
12908.0623264
12902.3095015
12898.518898
12896.6499449
19020.752243
19014.6343095
19002.2028819
18983.3974999
18958.3392296
18927.1662129
18890.0470393
18847.1772509
18798.7756744
18745.0806567
18686.3462783
18622.8386682
18554.8325184
18482.6078707
18406.4472233
18326.632982
18243.4452621
18157.1600339
18068.0475912
17976.3713187
17882.3867282
17786.3407305
17688.4711149
17589.0062024
17488.1646486
17386.1553681
17283.17756
17179.4208136
17075.0652782
16970.2818828
16865.2325924
16760.0706927
16654.9410747
16549.9808293
16445.3193269
16341.0780997
16237.3716708
16134.3078022
16031.9877877
15930.5067591
15829.9539811
15730.4131365
15631.9626009
15534.6757069
15438.6209982
15343.8624726
15250.4598154
15158.4686219
15067.9406114
14978.9238301
14891.4628465
14805.5989376
14721.3702662
14638.8120516
14557.9567318
14478.8341188
14401.471548
14325.89402
14252.1243372
14180.1832344
14110.0895042
14041.8601167
13975.510335
13911.0538255
13848.5027642
13787.8679382
13729.1588439
13672.3837803
13617.5499398
13564.6634939
13513.7296768
13464.7528647
13417.736652
13372.6839245
13329.5969289
13288.4773401
13249.3263241
13212.1445996
13176.9324948
13143.6900027
13112.4168325
13083.1124589
13055.7761678
13030.4070993
13007.0042882
12985.5667014
12966.0932716
12948.58293
12933.0346339
12919.447393
12907.820292
12898.1525073
12890.4433443
12884.6920507
12880.9025024
12879.0342042
19077.1346198
19070.771772
19057.8401319
19038.2825929
19012.2329496
18979.8445949
18941.304254
18896.8277778
18846.6557855
18791.0492295
18730.2849878
18664.6516315
18594.445482
18519.9670367
18441.5178097
18359.3976046
18273.902217
18185.3215438
18093.9380712
18000.0257003
17903.8488714
17805.6619456
17705.7088038
17604.222628
17501.4258303
17397.5301031
17292.7365627
17187.2359674
17081.2089903
16974.8265335
16868.2500711
16761.6320093
16655.1160651
16548.8379295
16442.9253423
16337.4978755
16232.6680971
16128.5417191
16025.2179198
15922.7896783
15821.3440904
15720.9626706
15621.7216406
15523.692205
15426.9408146
15331.5294163
15237.515692
15144.953286
15053.8920207
14964.3781027
14876.4543186
14790.1602219
14705.5323109
14622.6041976
14541.4067704
14461.9683479
14384.3148266
14308.4698217
14234.4548022
14162.2892201
14091.9906336
14023.574826
13957.055919
13892.4464822
13829.7576373
13768.9991589
13710.1795705
13653.3062379
13598.3854576
13545.4225422
13494.4219032
13445.3871285
13398.3210591
13353.2258605
13310.1030922
13268.9537743
13229.7784499
13192.5772459
13157.3499301
13124.0959658
13092.8145628
13063.5047268
13036.1653044
13010.7950265
12987.3925484
12965.9564867
12946.4854538
12928.9780894
12913.433089
12899.8492297
12888.2253929
12878.5605813
12870.8539562
12865.1046461
12861.3164572
12859.4489661
19140.0868356
19133.4418688
19119.9341213
19099.5107603
19072.3209756
19038.5366349
18998.3663435
18952.0503363
18899.8552469
18842.0688371
18778.9948272
18710.9480084
18638.2497661
18561.2241006
18480.1941815
18395.4794453
18307.3932149
18216.2408032
18122.3180535
18025.9102622
17927.2914299
17826.7237883
17724.4575552
17620.7308724
17515.7698909
17409.7889686
17302.990954
17195.567533
17087.6996198
16979.5577764
16871.3026503
16763.0854036
16655.0483458
16547.3253983
16440.0421533
16333.3159821
16227.2571601
16121.9690198
16017.548309
15914.0855516
15811.6653836
15710.3668723
15610.2638186
15511.4250441
15413.9146626
15317.7923375
15223.1135254
15129.9297073
15038.2886069
14948.2343981
14859.8079017
14773.0467722
14687.9856748
14604.6564547
14523.0882968
14443.3078796
14365.3395202
14289.205314
14214.9252677
14142.5174264
14071.9979955
14003.3814573
13936.6806831
13871.9070401
13809.070495
13748.1797124
13689.2421501
13632.2641506
13577.2510283
13524.2071546
13473.1360381
13424.0404029
13376.9222631
13331.782994
13288.6234011
13247.4437857
13208.2440069
13171.0235421
13135.7815437
13102.5168928
13071.2282509
13041.9141079
13014.572828
12989.2026924
12965.8019387
12944.368799
12924.901533
12907.3984604
12891.8579887
12878.2786393
12866.6590703
12856.9980933
12849.2947116
12843.5479221
12839.7614523
12837.8949466
19209.8966707
19202.9277942
19188.7586477
19167.3418854
19138.8453545
19103.4633358
19061.4308583
19013.0174408
18958.5207528
18898.2602983
18832.5713157
18761.7991093
18686.29396
18606.4066978
18522.4849634
18434.8701469
18343.8949575
18249.8815668
18153.1402505
18053.96846
17952.6502488
17849.4559919
17744.6423359
17638.4523324
17531.1157088
17422.8492408
17313.8571982
17204.3318384
17094.4539297
16984.393288
16874.3093173
16764.3514928
16654.6604633
16545.3678869
16436.5966306
16328.4616417
16221.0705154
16114.5238415
16008.9155977
15904.3335288
15800.8595036
15698.5698492
15597.5356681
15497.8231344
15399.4937747
15302.604731
15207.2090089
15113.3557117
15021.0902609
14930.4546041
14841.4874123
14754.2242656
14668.6978296
14584.938023
14502.972176
14422.8251815
14344.5196386
14268.0759903
14193.5126538
14120.8461455
14050.0912013
13981.2608905
13914.3667257
13849.4187689
13786.4257318
13725.3950737
13666.3330946
13609.2450251
13554.1351131
13501.0067063
13449.8623325
13400.7037764
13353.5321527
13308.3479777
13265.1512364
13223.9414477
13184.7177266
13147.4788433
13112.2232798
13078.9492836
13047.6549185
13018.3381128
12990.996705
12965.6284856
12942.2312377
12920.8027737
12901.3409691
12883.8437944
12868.3093433
12854.7358584
12843.1217542
12833.465634
12825.7663286
12820.022692
12816.2383628
12814.3730511
19286.8939718
19279.553826
19264.6265704
19242.0719411
19212.0804749
19174.8737288
19130.718724
19079.9202109
19022.8129113
18959.7538955
18891.1153459
18817.2779676
18738.6252039
18655.5383316
18568.3924399
18477.5532469
18383.3746777
18286.197111
18186.3461927
18084.1321213
17979.8493137
17873.7763709
17766.1762745
17657.2967548
17547.3707833
17436.6171485
17325.241087
17213.4349423
17101.3788354
16989.2413319
16877.1800963
16765.3424706
16653.866804
16542.8821532
16432.5082577
16322.8571011
16214.0332135
16106.1340657
15999.250503
15893.467149
15788.8627807
15685.5106798
15583.4789614
15482.8308807
15383.6251202
15285.9160582
15189.7540208
15095.1855174
15002.2534629
14910.9973851
14821.4536215
14733.6555039
14647.6335331
14563.4155437
14481.0268612
14400.4904501
14321.8270555
14245.0553369
14170.1919974
14097.2519053
14026.2482121
13957.1924638
13890.0947091
13824.9636027
13761.806504
13700.6295727
13641.4378605
13584.2353995
13529.0252868
13475.8097662
13424.5903072
13375.3676804
13328.1420303
13282.912945
13239.6795236
13198.44044
13159.1940048
13121.938224
13086.670855
13053.3894598
13022.0914562
12992.7741647
12965.4348549
12940.0707866
12916.6792508
12895.2576054
12875.8033101
12858.3139574
12842.7873011
12829.221282
12817.6140508
12807.963985
12800.2697285
12794.5299806
12790.7482818
12788.884406
19371.4560885
19363.6905355
19347.8945422
19324.0370241
19292.3362421
19253.0470968
19206.4754965
19152.9687032
19092.9057523
19026.6881892
18954.731453
18877.4572097
18795.2867999
18708.6358475
18617.9099934
18523.5016608
18425.7877277
18325.1279697
18221.8641381
18116.3195445
18008.7990422
17899.589306
17788.95933
17677.1610785
17564.4302368
17450.9870214
17337.0370192
17222.7720302
17108.3708994
16994.0003252
16879.8156355
16765.9615035
16652.573385
16539.7772458
16427.6891301
16316.4175962
16206.0636767
16096.7213125
15988.4778302
15881.4143691
15775.606275
15671.1234661
15568.0307723
15466.3882505
15366.2514776
15267.6718228
15170.6967016
15075.369813
14981.7313603
14889.8182592
14799.6643316
14711.3004886
14624.7549025
14540.0531695
14457.2184629
14376.2716785
14297.2315731
14220.1148956
14144.9365126
14071.7095271
14000.4453939
13931.1540283
13863.8439114
13798.522191
13735.1947784
13673.8664415
13614.5408952
13557.2208872
13501.9082815
13448.6041388
13397.3087941
13348.0219304
13300.7426512
13255.469549
13212.2007717
13170.9340863
13131.6669394
13094.3965161
13059.1197952
13025.8336022
12994.53466
12965.2196359
12937.8851874
12912.5280038
12889.1448462
12867.7325838
12848.2882286
12830.8089664
12815.2921849
12801.7354999
12790.1367784
12780.4941547
12772.8060711
12767.0710607
12763.2925562
12761.4303948
19464.014456
19455.7610812
19438.9686872
19413.6181288
19379.9617388
19338.2954147
19288.9725745
19232.3919801
19168.9857984
19099.2082771
19023.5254595
18942.4062807
18856.3151926
18765.7063148
18671.0190061
18572.6746926
18471.0747614
18366.5993294
18259.6067034
18150.4333735
18039.3944016
17926.7840933
17812.8768603
17697.9282048
17582.1757688
17465.8404089
17349.127266
17232.2268098
17115.3158421
16998.5584543
16882.1069149
16766.1026776
16650.677809
16535.9542079
16422.0438221
16309.0512944
16197.0736807
16086.200951
15976.5165032
15868.0976114
15761.0158363
15655.3374036
15551.1235522
15448.4308559
15347.3115206
15247.8136585
15149.9815434
15053.8558464
14959.4738567
14866.8696863
14776.0744617
14687.1165037
14600.021496
14514.8126441
14431.5108248
14350.1347285
14270.700993
14193.224332
14117.7176559
14044.1921888
13972.6575792
13903.1220065
13835.5922831
13770.0739527
13706.5713848
13645.0878657
13585.6256859
13528.186225
13472.7700334
13419.3769104
13368.0059812
13318.6557691
13271.324267
13226.0090047
13182.7071149
13141.4153957
13102.1303712
13064.8483491
13029.565476
12996.27779
12964.9812708
12935.6718871
12908.3456415
12882.9986125
12859.6269942
12838.2271327
12818.7955605
12801.3290277
12785.8245302
12772.2793357
12760.6910068
12751.0574175
12743.376794
12737.6474916
12733.8728256
12732.0126964
19565.0625824
19556.2488384
19538.3114312
19511.2467955
19475.3494212
19430.9659678
19378.5082584
19318.4377466
19251.2505002
19177.4632889
19097.6013001
19012.1878477
18921.7361668
18826.7431959
18727.6851342
18625.0145088
18519.1584713
18410.5180621
18299.4682073
18186.3582506
18071.5128591
17955.2331738
17837.7981076
17719.4657148
17600.4745803
17481.0451874
17361.3812401
17241.6709214
17122.0880763
17002.7933159
16883.9349236
16765.6510919
16648.0693042
16531.3060592
16415.4693583
16300.6592857
16186.9683701
16074.4821362
15963.2796203
15853.4338336
15745.0121853
15638.0768709
15532.6852261
15428.8900533
15326.7399195
15226.279432
15127.5494915
15030.5875266
14935.4277109
14842.1011646
14750.6361423
14661.0582084
14573.390401
14487.653387
14403.8656066
14322.043411
14242.2011925
14164.351508
14088.5051968
14014.6714925
13942.8581312
13873.0714541
13805.3165068
13739.5971342
13675.9160725
13614.2750382
13554.6748125
13497.1153249
13441.5957324
13388.114497
13336.6694599
13287.2579134
13239.8766712
13194.5221343
13151.1903566
13109.8771066
13070.5779272
13033.2881929
12998.003165
12964.7180434
12933.4280168
12904.1283097
12876.8142272
12851.4811971
12828.1248092
12806.740852
12787.325347
12769.8745796
12754.3851279
12740.8538884
12729.278099
12719.6553557
12711.9836545
12706.2611612
12702.4910637
12700.6333268
19675.1657675
19665.7066842
19646.4497487
19617.4118026
19578.9398961
19531.4440699
19475.4084757
19411.3713104
19339.9057593
19261.6028407
19177.0567668
19086.8531591
18991.5600871
18891.7216688
18787.853859
18680.4420144
18569.9398418
18456.7693808
18341.3217272
18223.9582592
18105.0121843
17984.7902655
17863.574626
17741.624559
17619.1782928
17496.4546798
17373.6547871
17250.9633817
17128.5503036
17006.5717306
16885.1712545
16764.4823971
16644.6275116
16525.71742
16407.8551086
16291.1355694
16175.6462925
16061.4678721
15948.6745362
15837.3346239
15727.5110182
15619.2615403
15512.6393075
15407.6930601
15304.4674591
15203.0033597
15103.3380611
15005.505537
14909.5366483
14815.4593392
14723.2988201
14633.0777373
14544.8163317
14458.5325876
14374.242373
14291.9595712
14211.6962062
14133.4625614
14057.2672926
13983.1175363
13911.0190132
13840.9761273
13772.9920617
13707.0688709
13643.2075691
13581.4082167
13521.6700031
13463.9913271
13408.3698751
13354.8026962
13303.2862751
13253.8166035
13206.3892476
13160.9994148
13117.6420172
13076.3117333
13037.003067
12999.7104042
12964.4280679
12931.1503695
12899.8716587
12870.5863707
12843.2890708
12817.9744958
12794.6375943
12773.2735626
12753.8778795
12736.4463369
12720.975069
12707.4605777
12695.8997561
12686.2899049
12678.6287749
12672.914331
12669.1496239
12667.2946847
19794.9729451
19784.7683558
19763.9851703
19732.6671063
19691.2273053
19640.1557388
19580.0268954
19511.4735054
19435.1621508
19351.7720754
19261.9778502
19166.4360928
19065.7759695
18960.5929526
18851.4452168
18738.8520726
18623.2938972
18505.2131173
18385.0158855
18263.0741819
18139.7281363
18015.2884313
17890.0386854
17764.2377517
17638.1218932
17511.9068112
17385.7895166
17259.9500449
17134.5530203
17009.7490626
16885.6761754
16762.4624512
16640.2238826
16519.0649484
16399.0829414
16280.3671585
16162.9994988
16047.0551192
15932.6029791
15819.7063267
15708.4231381
15598.8065136
15490.9050354
15384.7630926
15280.4211752
15177.9161425
15077.2814679
14978.5474631
14881.741484
14786.8881203
14694.0093716
14603.1248102
14514.2517332
14427.4053048
14342.5986898
14259.8431802
14179.1483138
14100.5219883
14023.9705687
13949.4989911
13877.1108617
13806.808552
13738.5932906
13672.4652522
13608.4236431
13546.4667845
13486.5921927
13428.796658
13373.0763198
13319.426741
13267.8429788
13218.3196548
13170.8510216
13125.4310283
13082.0533832
13040.7116151
13001.3991313
12964.1092744
12928.8353761
12895.5708093
12864.3090373
12835.0436608
12807.7684624
12782.4774485
12759.1648891
12737.8253539
12718.4537472
12701.0453385
12685.595792
12672.1011918
12660.5580656
12650.9634013
12643.3146899
12637.609684
12633.851287
12631.9995988
19925.2311061
19914.1624377
19891.6060066
19857.6412834
19812.7653061
19757.5700676
19692.7439935
19619.0370524
19537.2293077
19448.1047968
19352.4312591
19250.9455679
19144.3441551
19033.2774844
18918.3476196
18800.1080318
18679.0649413
18555.6796428
18430.3714004
18303.520618
18175.4720809
18046.5381314
17917.0016956
17787.1191128
17657.1227426
17527.2233436
17397.6122276
17268.4631966
17139.9342791
17012.1691218
16885.300202
16759.4483675
16634.7211711
16511.2172292
16389.0272704
16268.2341767
16148.9136667
16031.1349352
15914.9612018
15800.4501999
15687.654616
15576.6224833
15467.3975353
15360.0195242
15254.5245091
15150.9451159
15049.3107742
14949.6479329
14851.980258
14756.3288132
14662.7122276
14571.1468505
14481.6468953
14394.2245746
14308.8902261
14225.6524322
14144.5181327
14065.4927322
13988.5802024
13913.7831806
13841.1030634
13770.5400981
13702.0934704
13635.7613894
13571.54117
13509.4293134
13449.4215846
13391.5130888
13335.6983447
13281.9713567
13230.3256849
13180.7545128
13133.2507138
13087.8069151
13044.4155601
13003.0689684
12963.7593939
12926.4790809
12891.2203181
12857.9754895
12826.7371245
12797.4979443
12770.2509065
12744.9892472
12721.7065203
12700.3966346
12681.053888
12663.6729986
12648.2491344
12634.7779381
12623.2555519
12613.678633
12606.0443983
12600.3503759
12596.5993121
12594.7513791
20066.8027828
20054.7297351
20030.1024095
19993.0487886
19944.1735541
19884.2008414
19813.9643883
19734.3605821
19646.3077187
19550.7140489
19448.4546073
19340.3559493
19227.1873364
19109.6568047
18988.4107041
18864.0355523
18737.0613174
18607.9654859
18477.1774656
18345.0830291
18212.0286064
18078.3253209
17944.2527096
17810.0621069
17675.9796933
17542.2092229
17408.9344518
17276.3212938
17144.5197261
17013.6653862
16883.8835026
16755.2864296
16627.9729936
16502.0347512
16377.5551465
16254.6100028
16133.2682713
16013.5926583
15895.6401716
15779.4626071
15665.1069825
15552.6159225
15442.0280044
15333.3780659
15226.697483
15122.0144189
15019.3540503
14918.738772
14820.1883833
14723.7202591
14629.3495069
14537.089112
14446.9500725
14358.941525
14273.0708629
14189.3438479
14107.7647157
14028.3362766
13951.0600118
13875.9361657
13802.9638353
13732.1410562
13663.4648861
13596.9314861
13532.5361996
13470.2736297
13410.1377139
13352.1217982
13296.2187083
13242.4208199
13190.7201272
13141.1083093
13093.5767956
13048.1168289
13004.7195265
12963.3759404
12924.0771147
12886.8141411
12851.5782126
12818.3606751
12787.1530763
12757.947213
12730.7351754
12705.509389
12682.2626549
12660.9881859
12641.6796416
12624.3311598
12608.9373856
12595.4934972
12583.9952303
12574.4388941
12566.821416
12561.1400888
12557.3974906
12555.553871
20220.6869342
20207.4451112
20180.385137
20139.7034063
20086.1444219
20020.6066156
19944.1113719
19857.7391879
19762.5769079
19659.6793023
19550.0436489
19434.5950311
19314.1796987
19189.5640406
19061.4371899
18930.4157748
18797.0497684
18661.8287394
18525.1880599
18387.5148078
18249.1532258
18110.4096753
17971.5570744
17832.838839
17694.4723609
17556.6520643
17419.5520838
17283.3286122
17148.1218931
17014.0586138
16881.2554603
16749.8141568
16619.824614
16491.3702642
16364.5265262
16239.3615145
16115.9368231
15994.3081435
15874.5258045
15756.6352486
15640.6774534
15526.6893041
15414.7039244
15304.7509707
15196.8568952
15091.0451808
14987.3365532
14885.7491723
14786.2988056
14688.9989865
14593.8611596
14500.8948151
14410.1076124
14321.5054966
14235.0928076
14150.8723825
14068.8456537
13989.0127422
13911.3725471
13835.9228319
13762.6603083
13691.580717
13622.6789067
13555.9489118
13491.3840271
13428.9768821
13368.7195136
13310.603436
13254.6197118
13200.7590193
13149.0117196
13099.367922
13051.8175481
13006.3503941
12962.9561916
12921.6246666
12882.345597
12845.1088678
12809.9045246
12776.7228253
12745.5542885
12716.3897416
12689.2203646