/*--------------------------------*- C++ -*----------------------------------*\
| =========                 |                                                 |
| \\      /  F ield         | OpenFOAM: The Open Source CFD Toolbox           |
|  \\    /   O peration     | Version:  v1906                                 |
|   \\  /    A nd           | Web:      www.OpenFOAM.com                      |
|    \\/     M anipulation  |                                                 |
\*---------------------------------------------------------------------------*/
FoamFile
{
    version     2.0;
    format      ascii;
    class       surfaceScalarField;
    location    "672";
    object      phi;
}
// * * * * * * * * * * * * * * * * * * * * * * * * * * * * * * * * * * * * * //

dimensions      [0 3 -1 0 0 0 0];
oriented        oriented;


internalField   nonuniform List<scalar> 
18240
(
-0.000199262184039
0.000199226440656
-0.000407962640702
0.00020866007932
-0.000615266030881
0.000207267098386
-0.000819549803071
0.00020424230537
-0.00101974905411
0.000200163892134
-0.00121494579087
0.000195154255827
-0.00140430172602
0.000189321429967
-0.00158711108457
0.000182765836875
-0.00176273805668
0.000175593294005
-0.00193068676415
0.000167904134858
-0.00209052099068
0.000159801391511
-0.00224194346164
0.000151376837508
-0.00238469701444
0.00014272155577
-0.00251865467531
0.000133910954109
-0.00264370423255
0.000125018428267
-0.00275985148327
0.000116099455741
-0.00286708998151
0.000107208245979
-0.00296551941562
9.83805267274e-05
-0.00305520161132
8.96528756858e-05
-0.00313629540256
8.10437299233e-05
-0.00320889900186
7.25752405176e-05
-0.00327320228585
6.42519915113e-05
-0.0033293149836
5.60853822878e-05
-0.0033774372184
4.80695847802e-05
-0.00341767223586
4.02087907878e-05
-0.00345021627092
3.24898304638e-05
-0.00347515413814
2.49128398434e-05
-0.00349267004342
1.74598737674e-05
-0.00350282373051
1.01299313608e-05
-0.00350578460037
2.90265409947e-06
-0.00350158550627
-4.22140673129e-06
-0.00349038299713
-1.12633380565e-05
-0.00347218580398
-1.82179181643e-05
-0.00344714560632
-2.51041391435e-05
-0.00341525539285
-3.19090583477e-05
-0.00337667507148
-3.86479266895e-05
-0.00333139479753
-4.52969704702e-05
-0.00327960072181
-5.18659310145e-05
-0.0032212972072
-5.83176122433e-05
-0.00315671825085
-6.4655631497e-05
-0.00308590138443
-7.08279604405e-05
-0.00300915016611
-7.68331083395e-05
-0.00292655266334
-8.26049286705e-05
-0.00283849956556
-8.8140142578e-05
-0.0027451409641
-9.33616087909e-05
-0.00264696277061
-9.82694409036e-05
-0.00254417947395
-0.000102780665116
-0.0024373686599
-0.000106904196395
-0.00232680353737
-0.000110555619811
-0.00221314200373
-0.000113753873747
-0.00209671225243
-0.000116412086818
-0.00197824834816
-0.000118551404554
-0.00185814898814
-0.000120072869002
-0.00173724317631
-0.000120984875248
-0.00161603997009
-0.000121167908949
-0.00149549314509
-0.000120614910396
-0.00137624755238
-0.000119202659986
-0.00125936439115
-0.000116939258014
-0.0011455715163
-0.000113744225026
-0.00103593172174
-0.000109684743027
-0.000931117391516
-0.000104762546021
-0.000832021910662
-9.9130667052e-05
-0.000739084131113
-9.28852296709e-05
-0.000652857867967
-8.62533953593e-05
-0.000573430098145
-7.93763781602e-05
-0.000500990618969
-7.24602965879e-05
-0.000435349768645
-6.55920269243e-05
-0.000376453483607
-5.89121531751e-05
-0.000323934748429
-5.24734202933e-05
-0.000277558680996
-4.63882689074e-05
-0.000236829729718
-4.06875074053e-05
-0.000201398107048
-3.54414552996e-05
-0.000170721975051
-3.06385957215e-05
-0.000144426943164
-2.6303507461e-05
-0.000121991400212
-2.240166624e-05
-0.000103050608231
-1.89484512472e-05
-8.71065701762e-05
-1.59132210387e-05
-7.38133639679e-05
-1.32999165835e-05
-6.27280925093e-05
-1.10566494846e-05
-5.35719509149e-05
-9.16160661657e-06
-4.59925055971e-05
-7.55247810547e-06
-3.97921203548e-05
-6.20421615443e-06
-3.47117649567e-05
-5.05482380658e-06
-3.06544268198e-05
-4.06013351784e-06
-2.75638519137e-05
-3.06675415172e-06
-2.50105325661e-05
-2.55265358964e-06
-2.26720450168e-05
-2.31482656706e-06
-2.06941884626e-05
-1.97213483383e-06
-1.87594268724e-05
-1.90943979913e-06
-1.66923012285e-05
-2.05358444831e-06
-1.45661882995e-05
-2.09608718459e-06
-1.23772145197e-05
-2.16450783159e-06
-9.85965335369e-06
-2.48384805223e-06
-6.82498295002e-06
-2.99505964982e-06
-3.30099248714e-06
-3.47736960479e-06
-3.27809287227e-06
-0.000210819042041
0.000410007480098
-0.000434196835706
0.000431997110053
-0.00065535532792
0.00042838603568
-0.000873045901466
0.000421891882116
-0.00108626027883
0.000413338853798
-0.00129405269735
0.000402905400178
-0.0014955512313
0.000390780667182
-0.00168999699655
0.000377169998108
-0.00187672920613
0.0003622863281
-0.00205521136153
0.000346344346852
-0.00222500126593
0.000329552236324
-0.00238577478461
0.00031210806821
-0.00253728556394
0.000294193399591
-0.00267938984974
0.000275972604172
-0.00281199883196
0.000257588595731
-0.00293510725087
0.00023916488756
-0.0030487405931
0.000220802910454
-0.00315298946764
0.000202586058089
-0.0032479529679
0.000184577835179
-0.00333377997234
0.000166827019832
-0.00341060910305
0.000149365982297
-0.00347861749415
0.000132216262168
-0.00353795711201
0.000115386743721
-0.00358881124074
9.88791196215e-05
-0.0036313265119
8.26859243237e-05
-0.00366567737807
6.67955207308e-05
-0.00369199295655
5.11903352755e-05
-0.00371042999615
3.58510007809e-05
-0.00372109348441
2.07553408438e-05
-0.00372411890992
5.88123502143e-06
-0.00371958567943
-8.79280702688e-06
-0.00370761032637
-2.32866933507e-05
-0.00368825074791
-3.76158050565e-05
-0.00366161151408
-5.17927775528e-05
-0.00362773799059
-6.58211101857e-05
-0.00358673603128
-7.97009469373e-05
-0.00353865348384
-9.34182688269e-05
-0.00348361615116
-0.00010695623266
-0.0034216940128
-0.000120278758592
-0.00335305534326
-0.000133349394652
-0.00327781432825
-0.000146108130541
-0.00319620487026
-0.000158499840974
-0.00310840588347
-0.000170442958881
-0.00301473571283
-0.000181869423468
-0.00291545173924
-0.000192683730783
-0.00281096560769
-0.00020281541458
-0.00270161549067
-0.000212166659055
-0.00258790172739
-0.000220676560207
-0.00247023385974
-0.000228255048102
-0.0023491868367
-0.000234855532638
-0.00222523101039
-0.00024039282384
-0.00209901014339
-0.000244819971448
-0.00197106719703
-0.000248031966784
-0.00184214151493
-0.000249948751051
-0.00171289706045
-0.000250418526483
-0.00158421928753
-0.000249319938732
-0.00145693326778
-0.000246484895524
-0.00133206696767
-0.000241822094223
-0.00121054875733
-0.000235250339286
-0.00109343241177
-0.000226808532686
-0.000981589678967
-0.000216586985262
-0.000875903755938
-0.000204817188483
-0.000776975377123
-0.000191791366464
-0.000685299552067
-0.000177924922549
-0.000601041078438
-0.000163610774911
-0.000524279797269
-0.000149214225658
-0.000454873439915
-0.000134974168311
-0.000392670233695
-0.000121106304965
-0.000337343616218
-0.000107776490228
-0.000288557934962
-9.51642484773e-05
-0.0002458321896
-8.33910551337e-05
-0.000208710513051
-7.25535011488e-05
-0.000176659346353
-6.26692974955e-05
-0.000149218181688
-5.37357732352e-05
-0.000125886059803
-4.57153401098e-05
-0.000106225372116
-3.86012087696e-05
-8.97468218622e-05
-3.23750207528e-05
-7.60254680762e-05
-2.70137750515e-05
-6.46251640327e-05
-2.24411475092e-05
-5.52058180361e-05
-1.85733952364e-05
-4.74325108158e-05
-1.53103872536e-05
-4.10533157048e-05
-1.25751420496e-05
-3.58087645432e-05
-1.02842513215e-05
-3.14841933381e-05
-8.37604184012e-06
-2.7733372686e-05
-6.80319619918e-06
-2.45802337741e-05
-5.69527653965e-06
-2.2107265739e-05
-4.77197552774e-06
-2.01037170569e-05
-3.96238663169e-06
-1.8290162563e-05
-3.70480588189e-06
-1.64707765923e-05
-3.85336524687e-06
-1.4450462211e-05
-4.09148174385e-06
-1.22649944216e-05
-4.32344816861e-06
-9.87128830122e-06
-4.84450136556e-06
-7.0046168607e-06
-5.82215168184e-06
-3.43583764407e-06
-7.00352720806e-06
-6.69297505311e-06
-0.00021368095823
0.000623650078315
-0.000439345707736
0.000657621662479
-0.000662974707267
0.000651974693912
-0.000883056767464
0.000641933342887
-0.0010985072614
0.000628749034608
-0.00130833983814
0.000612697225941
-0.00151166694313
0.000594067430683
-0.00170771516573
0.000573177313404
-0.0018958264201
0.000550357184548
-0.00207546318766
0.000525940048238
-0.00224619937282
0.000500247967466
-0.00240771894527
0.000473586413743
-0.00255980026198
0.000446234199552
-0.00270231175064
0.000418442704636
-0.00283519307612
0.000390429349314
-0.00295845087025
0.000362381132406
-0.00307213922799
0.000334450636897
-0.00317635748182
0.000306762600222
-0.00327123143046
0.00027941110022
-0.00335691414102
0.000252467845777
-0.00343356834641
0.000225979431652
-0.00350137052827
0.00019997635721
-0.00356049431372
0.000174469677901
-0.00361111773553
0.000149460194534
-0.00365340713722
0.000124934308498
-0.00368752745315
0.000100873135792
-0.00371362607588
7.72476944322e-05
-0.0037318461562
5.4027897929e-05
-0.00374230990487
3.11774489529e-05
-0.00374513517361
8.66268160104e-06
-0.0037404177547
-1.35523597117e-05
-0.00372825173075
-3.54973468443e-05
-0.00370871038447
-5.71999292289e-05
-0.00368187107521
-7.86776998043e-05
-0.00364779423147
-9.99414876785e-05
-0.00360655353501
-0.000120988417757
-0.00355821226807
-0.000141803977221
-0.0035028594663
-0.000162357153025
-0.00344058246936
-0.000182601204722
-0.00337150938416
-0.00020247210003
-0.00329577607077
-0.000221887975494
-0.00321357475788
-0.000240752270241
-0.00312511325373
-0.000258951838192
-0.00303066898362
-0.000276365890389
-0.00293053788563
-0.000292862286303
-0.00282509277562
-0.000308312642783
-0.00271471997779
-0.000322585365148
-0.00259988126702
-0.000335565297143
-0.00248103849257
-0.000347139871631
-0.00235872088496
-0.000357218317779
-0.00223344404132
-0.000365705103482
-0.00210578954636
-0.000372511806224
-0.00197633185715
-0.000377515940958
-0.00184573797813
-0.00038056966799
-0.00171470853224
-0.000381463310237
-0.0015840829124
-0.000379961328543
-0.0014547660973
-0.00037580621351
-0.00132779496979
-0.000368798637127
-0.00120422034661
-0.000358820251043
-0.00108514537271
-0.000345880640813
-0.00097158390894
-0.000330137226292
-0.000864477596645
-0.000311914662539
-0.000764544034084
-0.000291709608423
-0.000672254167556
-0.000270202020429
-0.000587752810212
-0.000248094385041
-0.000511004518356
-0.000225948315572
-0.000441845364374
-0.000204114898506
-0.000380069093235
-0.000182867710395
-0.000325358596276
-0.000162468867369
-0.000277318534995
-0.000143189376336
-0.000235444720472
-0.000125247470371
-0.000199204236203
-0.000108779590685
-0.000168045113014
-9.38121935393e-05
-0.000141469312308
-8.02985723637e-05
-0.00011900165997
-6.81684586919e-05
-0.000100188529938
-5.74028280652e-05
-8.45387636244e-05
-4.80116859082e-05
-7.15769647789e-05
-3.99648144355e-05
-6.08606358214e-05
-3.31449489796e-05
-5.20301029125e-05
-2.73933957011e-05
-4.47720327995e-05
-2.25560727804e-05
-3.88276197465e-05
-1.85084881964e-05
-3.39613989379e-05
-1.51377533112e-05
-2.99716691789e-05
-1.23548387421e-05
-2.66376858041e-05
-1.01243945652e-05
-2.3809361532e-05
-8.51088897509e-06
-2.12612930894e-05
-7.30489697126e-06
-1.89280165282e-05
-6.28034419113e-06
-1.70656615652e-05
-5.54934426346e-06
-1.55559868858e-05
-5.3423504145e-06
-1.35854868598e-05
-6.03707540346e-06
-1.11815719092e-05
-6.70006183924e-06
-8.62373813325e-06
-7.37085268862e-06
-5.76791569254e-06
-8.64158625951e-06
-2.92675507664e-06
-9.80722659807e-06
-9.60129036567e-06
-0.000217108730246
0.000840720290605
-0.000446135365584
0.000886607628991
-0.000673049765741
0.000878848596778
-0.000896241450325
0.000865084319677
-0.00111456125777
0.000847028241909
-0.00132697660423
0.000825071810086
-0.0015325722623
0.000799622393799
-0.00173055957002
0.00077112374918
-0.00192027985263
0.000740036677077
-0.00210120340112
0.000706822605023
-0.00227292326341
0.000671926940781
-0.00243514641583
0.000635768452412
-0.00258768174705
0.000598728546857
-0.0027304275659
0.000561147288388
-0.00286335768867
0.000523318390797
-0.00298650870459
0.000485490792756
-0.00309996693185
0.000447867691166
-0.00320385751188
0.000410611702843
-0.00329833360497
0.000373845918785
-0.00338356811819
0.000337660746682
-0.00345974543339
0.000302115356277
-0.00352705574714
0.000267244890671
-0.00358568899757
0.000233061370911
-0.00363583142607
0.000199560611078
-0.00367766116458
0.000166722253662
-0.00371134660783
0.000134516238562
-0.00373704314586
0.000102902087952
-0.00375489310219
7.18350574514e-05
-0.00376502327463
4.12650037108e-05
-0.00376754645919
1.11424678428e-05
-0.00376255962002
-1.85824384025e-05
-0.0037501472482
-4.79538674686e-05
-0.00373038021289
-7.70109526512e-05
-0.00370332142664
-0.000105781534974
-0.00366902535448
-0.000134282451557
-0.00362754642455
-0.000162513456536
-0.00357893911388
-0.000190457228579
-0.00352326936217
-0.000218074255893
-0.00346061470439
-0.000245303045638
-0.00339107847426
-0.000272057091997
-0.00331478890904
-0.000298226052194
-0.00323191529076
-0.000323676066083
-0.00314266419531
-0.000348252598784
-0.00304729599838
-0.000371785224632
-0.00294611583436
-0.000394092434157
-0.00283948821679
-0.000414991079881
-0.00272782001991
-0.00043430217569
-0.00261157094486
-0.000451862725268
-0.00249122724013
-0.000467528211616
-0.0023673092948
-0.000481179289706
-0.00224034171242
-0.00049271033126
-0.00211087001218
-0.000502018118383
-0.00197944679201
-0.000508966834885
-0.00184667916015
-0.000513360746218
-0.0017132472432
-0.000514911349322
-0.00157997073342
-0.000513249405021
-0.00144781334324
-0.000507968720835
-0.00131788802751
-0.000498724956127
-0.00119137656724
-0.000485327822169
-0.00106952189403
-0.000467728829242
-0.0009535078149
-0.00044614072359
-0.000844442691319
-0.000420968617215
-0.000743208243697
-0.000392929448656
-0.000650290307559
-0.000363105318315
-0.000565710671569
-0.000332657541447
-0.000489250745805
-0.000302392391783
-0.000420669482783
-0.000272679454901
-0.000359736733228
-0.000243784575843
-0.00030613520703
-0.00021605356798
-0.00025941561449
-0.000189893344488
-0.000218996811766
-0.000165649753738
-0.000184242553016
-0.000143518721501
-0.00015453356945
-0.000123505846154
-0.000129346131335
-0.000105472218119
-0.000108244186054
-8.92570675142e-05
-9.07944609998e-05
-7.48404759293e-05
-7.64740716966e-05
-6.23201618922e-05
-6.47310378918e-05
-5.16963838141e-05
-5.50840174582e-05
-4.27804309215e-05
-4.71714315689e-05
-3.52947986595e-05
-4.07061952104e-05
-2.90097019875e-05
-3.5442152495e-05
-2.3760890558e-05
-3.11680929561e-05
-1.9399875484e-05
-2.77016959843e-05
-1.58094625271e-05
-2.48941016707e-05
-1.29198169439e-05
-2.22243102068e-05
-1.11667045872e-05
-1.98323732639e-05
-9.68107241643e-06
-1.77606518979e-05
-8.33543766635e-06
-1.56960117054e-05
-7.5951873527e-06
-1.35666574902e-05
-7.45073800203e-06
-1.19323790548e-05
-7.64774566192e-06
-9.65721606993e-06
-8.94798940151e-06
-6.93901065795e-06
-1.00585635933e-05
-4.57778496555e-06
-1.09713568059e-05
-2.35581167627e-06
-1.19964995186e-05
-1.19399930589e-05
-0.000221684496025
0.00106236603508
-0.000455390617545
0.00112027335803
-0.000686809225411
0.00111022632664
-0.00091423453694
0.00109246881721
-0.00113644279986
0.00106919561633
-0.00135234404734
0.00104093213222
-0.00156098591089
0.00100822329388
-0.00176156157866
0.000971658381461
-0.00195341211295
0.000931846142885
-0.00213602234489
0.000889391689018
-0.00230901236053
0.000844875779865
-0.00247212481935
0.000798839651533
-0.00262521058233
0.000751773023385
-0.00276821259422
0.000704107930398
-0.00290115042132
0.000656214826011
-0.00302410469998
0.000608403593693
-0.00313720366253
0.000560925154189
-0.00324061028142
0.000513976732667
-0.00333451204459
0.000467706069268
-0.00341911134023
0.000422218325633
-0.00349461846384
0.0003775807238
-0.00356124486259
0.00033382940386
-0.00361919875068
0.000290973308146
-0.00366868051513
0.000249000249621
-0.00370988019769
0.000207879698878
-0.00374297442129
0.000167567990281
-0.00376812515637
0.000128010186584
-0.00378547777765
8.91447325056e-05
-0.00379516079664
5.09048478788e-05
-0.00379728496566
1.3223077035e-05
-0.00379194394976
-2.39672947063e-05
-0.0037792147119
-6.07274079911e-05
-0.00375915936387
-9.71109414046e-05
-0.00373182725917
-0.000133158817786
-0.0036972583752
-0.000168896906434
-0.00365548758249
-0.000204330451873
-0.00360654980324
-0.000239441691633
-0.00355048667323
-0.000274184807213
-0.00348735334705
-0.000308484366271
-0.00341722722097
-0.000342232040629
-0.00334021556253
-0.000375287159393
-0.00325646512761
-0.000407476728051
-0.00316616892539
-0.000438599503184
-0.00306957458395
-0.00046843069789
-0.00296698745989
-0.000496730608706
-0.00285877451387
-0.000523254740726
-0.00274535956361
-0.00054776660505
-0.00262721853214
-0.000570051708722
-0.00250486240833
-0.0005899295829
-0.002378822375
-0.000607261685693
-0.00224962448888
-0.000621946123727
-0.00211778048417
-0.000633895411704
-0.0019837858164
-0.000642988901279
-0.001848160075
-0.000649008150071
-0.00171151102014
-0.000651575366019
-0.00157462777421
-0.000650142494028
-0.00143853576559
-0.000644064217117
-0.00130448777215
-0.000632772779095
-0.00117382260953
-0.000615987965628
-0.00104801947673
-0.000593523618509
-0.000928474381688
-0.000565675370085
-0.000816601190734
-0.000532829580948
-0.000713597371519
-0.000495919708136
-0.000620003059525
-0.00045668412473
-0.000535529866005
-0.000417114457695
-0.000459591789294
-0.000378314828257
-0.000391834305804
-0.00034042064671
-0.000332073767084
-0.000303529134913
-0.000280034633446
-0.000268076892006
-0.000235206771111
-0.000234704913913
-0.000196869716394
-0.000203971276858
-0.000164211108683
-0.000176161514375
-0.00013648124382
-0.000151220816572
-0.000113133814973
-0.000128806120168
-9.38425145663e-05
-0.000108535342044
-7.82680411078e-05
-9.04030797448e-05
-6.58132975228e-05
-7.47630875173e-05
-5.57646037473e-05
-6.17337145338e-05
-4.75557322542e-05
-5.09776011701e-05
-4.08541051044e-05
-4.19852419996e-05
-3.54297661516e-05
-3.44223371371e-05
-3.10589292306e-05
-2.81201341076e-05
-2.75567500087e-05
-2.28897589047e-05
-2.4759312776e-05
-1.85951618238e-05
-2.25399045295e-05
-1.51264452977e-05
-2.04594599428e-05
-1.32325253209e-05
-1.83900458394e-05
-1.17341491161e-05
-1.60166191817e-05
-1.06909990757e-05
-1.37897200852e-05
-9.80290376351e-06
-1.1682999639e-05
-9.53602464147e-06
-9.88837016276e-06
-9.41916998272e-06
-8.23549071645e-06
-1.05751104047e-05
-5.89396816558e-06
-1.23724747499e-05
-3.66760489958e-06
-1.31684199427e-05
-1.84830769484e-06
-1.37865596773e-05
-1.37743198195e-05
-0.000227551817576
0.00128987890766
-0.000467321494377
0.00136000187575
-0.000704553683467
0.00134741752622
-0.000937420766826
0.00132529474201
-0.0011646038763
0.00129633760448
-0.00138494155566
0.00126122861183
-0.00159743560303
0.00122067610711
-0.00180125906905
0.00117544054355
-0.00199575624382
0.00112630196997
-0.00218043523508
0.00107402926107
-0.00235495510218
0.00101935418577
-0.00251910887842
0.000962951893285
-0.00267280472624
0.000905427300785
-0.00281604619099
0.00084730774848
-0.00294891334078
0.000789040297975
-0.00307154502292
0.000730993519121
-0.00318412341183
0.000673461759446
-0.00328686039179
0.000616671841093
-0.0033799865103
0.000560790284273
-0.00346374160972
0.000505931416547
-0.00353836768931
0.000452164747817
-0.00360410291158
0.000399522431487
-0.00366117730868
0.000348005429675
-0.00370980907723
0.000297589554334
-0.0037502021048
0.000248230134781
-0.00378254367489
0.000199866713255
-0.00380700308235
0.000152426558671
-0.00382373023457
0.000105828521354
-0.0038328550144
5.99860185201e-05
-0.00383448666825
1.48107198429e-05
-0.00382871395592
-2.97843152255e-05
-0.00381560562577
-7.3880513435e-05
-0.00379521175714
-0.00011754992516
-0.00376756588283
-0.00016085034766
-0.00373268814021
-0.000203820702342
-0.00369058971344
-0.000246475561032
-0.00364127834731
-0.000288800218937
-0.00358476553114
-0.000330745531961
-0.00352107450638
-0.000372223877621
-0.0034502499735
-0.000413105898008
-0.00337236793163
-0.000453219129695
-0.00328754669967
-0.000492348690214
-0.00319595677803
-0.000530240558416
-0.0030978307585
-0.000566608280982
-0.0029934699957
-0.000601142716691
-0.00288324906111
-0.000633526460924
-0.00276761370982
-0.000663451458614
-0.00264707230285
-0.000690640927407
-0.00252217571032
-0.000714871292736
-0.00239348804004
-0.000735991483703
-0.00226154611082
-0.000753925628396
-0.00212682590315
-0.000768648780992
-0.00198972736529
-0.000780114346629
-0.00185061989167
-0.000788136248346
-0.00170995654066
-0.00079225349667
-0.00156844403942
-0.00079166309353
-0.00142718712373
-0.000785324895389
-0.00128767721876
-0.000772280150047
-0.0011514136971
-0.000752245750599
-0.00102026546373
-0.000724663236991
-0.000895808259717
-0.000690121741189
-0.000779999222233
-0.000648628602704
-0.000674712986831
-0.000601193356961
-0.00058066157773
-0.000550721293027
-0.00049678933319
-0.000500972432943
-0.000421720728769
-0.000453366909014
-0.000355009191356
-0.000407117089045
-0.000296723885852
-0.000361797813812
-0.000246756660926
-0.000318028113472
-0.000204522922296
-0.000276921898326
-0.000169052088116
-0.000239425746149
-0.000139218477349
-0.000205978265295
-0.000114018183955
-0.000176406277784
-9.28760644423e-05
-0.000149932901543
-7.57646062551e-05
-0.000125633760626
-6.26338805445e-05
-0.000103520943521
-5.27186014077e-05
-8.46666341124e-05
-4.4919179257e-05
-6.95205224239e-05
-3.85020329761e-05
-5.73830587081e-05
-3.32547863705e-05
-4.72203260208e-05
-2.90928593104e-05
-3.85725830305e-05
-2.58000573235e-05
-3.14007085017e-05
-2.32185577588e-05
-2.54588650307e-05
-2.12146044003e-05
-2.05867433377e-05
-1.93405694477e-05
-1.69872912417e-05
-1.75666334312e-05
-1.49916437314e-05
-1.59517037242e-05
-1.33324250693e-05
-1.44184554719e-05
-1.22058078891e-05
-1.25045444201e-05
-1.16960368528e-05
-1.03892409862e-05
-1.16291263198e-05
-8.10020294399e-06
-1.16860051884e-05
-6.49704056664e-06
-1.21545374063e-05
-5.0488204813e-06
-1.37940108994e-05
-3.15274884673e-06
-1.50387783349e-05
-1.57415418851e-06
-1.53399771938e-05
-1.53349623088e-05
-0.000234857253731
0.00152469686474
-0.000482188296083
0.00160729201295
-0.000726653453436
0.00159184120627
-0.000966263952097
0.00156486386389
-0.00119957974296
0.00152961191027
-0.00142535038997
0.00148695775769
-0.00164252350519
0.00143780765301
-0.00185025181007
0.00138312722835
-0.00204788988361
0.00132389835785
-0.00223498172999
0.00126107936799
-0.00241124193744
0.00119557258827
-0.00257653257485
0.00112820067534
-0.0027308385194
0.00105969132373
-0.00287424272021
0.000990669982818
-0.00300690328066
0.000921658825249
-0.00312903277648
0.000853080940463
-0.00324088082463
0.000785267661026
-0.00334271940497
0.000718468231651
-0.00343483142074
0.000652860025035
-0.00351750147468
0.000588559137741
-0.00359100920066
0.000525630026922
-0.00365562393244
0.000464094628151
-0.00371160115315
0.000403939956186
-0.00375917948912
0.000345125058415
-0.00379857888746
0.000287586479699
-0.00382999878706
0.000231243359527
-0.00385361712284
0.000176001350994
-0.00386958904249
0.000121756630291
-0.0038780463448
6.83991529471e-05
-0.00387909662207
1.58165027906e-05
-0.00387282324086
-3.61025993059e-05
-0.00385928532031
-8.74637144108e-05
-0.00383851883733
-0.000138362147422
-0.00381053820169
-0.000188877153652
-0.00377533942115
-0.000239066172332
-0.00373290426236
-0.000288957915147
-0.00368320638673
-0.000338545906436
-0.00362621883739
-0.000387781485208
-0.00356192365353
-0.000436568192103
-0.00349032266892
-0.000484756648517
-0.00341145016689
-0.000532142171569
-0.00332538575912
-0.000578464147399
-0.00323226832987
-0.000623409628256
-0.00313230832971
-0.000666619891361
-0.00302579961742
-0.000707702904865
-0.0029131264343
-0.000746250168963
-0.00279476578066
-0.000781861594848
-0.0026712778726
-0.00081417615112
-0.00254328299425
-0.000842911566248
-0.00241141464939
-0.000867901826979
-0.00227625282177
-0.000889125889658
-0.00213824471999
-0.000906690291351
-0.00199765079407
-0.00092073586246
-0.00185457954706
-0.000931228752707
-0.00170917191403
-0.000937675479697
-0.00156193293358
-0.00093891037621
-0.00141406759653
-0.000933192077715
-0.00126756530941
-0.000918781777692
-0.00112392072148
-0.000895884690589
-0.000985788156958
-0.000862787479586
-0.000854515948295
-0.000821387572146
-0.000733061691979
-0.000770075200284
-0.000624871971363
-0.000709374866441
-0.000531240518297
-0.000644341943657
-0.000449119769231
-0.000583075957273
-0.000375395492146
-0.000527078183997
-0.000309764963525
-0.00047272635823
-0.00025312702651
-0.00041842116655
-0.000205810384412
-0.000365323458395
-0.00016710313315
-0.0003156131385
-0.000135571072198
-0.000270936659642
-0.00010951960493
-0.000232013496233
-8.74210694611e-05
-0.000198484950004
-6.86148447968e-05
-0.000168725118125
-5.38163924586e-05
-0.000140417103661
-4.38215603757e-05
-0.000113503136124
-3.74420514921e-05
-9.10330712417e-05
-3.26098233802e-05
-7.43399918154e-05
-2.82565217214e-05
-6.17234413939e-05
-2.45840595235e-05
-5.08812381575e-05
-2.18789586242e-05
-4.12651723296e-05
-1.98247238715e-05
-3.34427485267e-05
-1.82878341125e-05
-2.69828306942e-05
-1.71781265857e-05
-2.16831207405e-05
-1.59428365254e-05
-1.82086934855e-05
-1.48500752511e-05
-1.60685435515e-05
-1.35462088592e-05
-1.46188178372e-05
-1.21634372737e-05
-1.35691221648e-05
-1.05640152671e-05
-1.32741328792e-05
-9.02516559607e-06
-1.31457876535e-05
-7.12798864429e-06
-1.35597341405e-05
-5.23440424667e-06
-1.40253385866e-05
-4.16181246382e-06
-1.48443099658e-05
-2.72513439276e-06
-1.64504300457e-05
-1.35902700097e-06
-1.66817830843e-05
-1.66824618667e-05
-0.000243774940146
0.00176843225879
-0.000500330152503
0.00186380536146
-0.000753593230388
0.00184506264101
-0.00100136898229
0.001812597779
-0.00124206360787
0.00177026473788
-0.00147431814599
0.00171917041345
-0.00169701812195
0.00166046570243
-0.00190929896197
0.00159536606975
-0.00211053740912
0.00152509475049
-0.00230033184358
0.00145083167667
-0.00247847493958
0.00137367350561
-0.00264492223494
0.00129460572105
-0.00279975964624
0.00121448643931
-0.00294317242285
0.00113404039248
-0.00307541712075
0.00105386111595
-0.00319679764234
0.000974418981225
-0.00330764554489
0.000896073044005
-0.00340830462929
0.000819084712255
-0.00349911921096
0.0007436319539
-0.00358042566145
0.000669822827383
-0.00365254637703
0.000597707906363
-0.00371578577497
0.000527291039027
-0.00377042753964
0.000458538611956
-0.00381673291625
0.000391387114819
-0.00385493942931
0.000325749489365
-0.00388526003879
0.000261520180758
-0.00390788224494
0.000198579517592
-0.00392296736008
0.000136797348249
-0.00393064955894
7.60366433748e-05
-0.00393103514552
1.61569594776e-05
-0.00392420171773
-4.29815119988e-05
-0.00391019797979
-0.000101513410904
-0.00388904381254
-0.00015956266434
-0.00386073167247
-0.00021723617333
-0.00382522887066
-0.000274616292337
-0.0037824819778
-0.000331752729462
-0.0037324226787
-0.000388653631178
-0.00367497642634
-0.000445276854449
-0.00361007279748
-0.000501521497948
-0.00353765879473
-0.00055722105563
-0.00345771348703
-0.000612138411148
-0.00337026488518
-0.000665964291535
-0.00327540705061
-0.00071831915452
-0.00317331813861
-0.00076876060998
-0.00306427670376
-0.000816795460071
-0.002948676581
-0.000861900949095
-0.00282703454366
-0.000903552470787
-0.00269998908106
-0.0009412699563
-0.00256827309109
-0.000974672918901
-0.00243265650248
-0.00100356246503
-0.00229383216791
-0.00102798999442
-0.00215226406678
-0.0010482942973
-0.00200802956972
-0.00106500007506
-0.0018607956852
-0.0010784850763
-0.00171008687797
-0.00108839989805
-0.0015559185048
-0.00109308990441
-0.00139961455075
-0.00108950282212
-0.00124444291128
-0.00107395436285
-0.0010910607518
-0.00104926294026
-0.000944288860665
-0.0010095555209
-0.000803329234775
-0.000962338046535
-0.000673199419622
-0.000900200974349
-0.000561105038878
-0.000821460444052
-0.000470423333943
-0.000735003922012
-0.000392633067174
-0.000660846773241
-0.000320709822038
-0.000598978565734
-0.000255570074607
-0.000537841036536
-0.000200362781609
-0.000473606290474
-0.000156389814053
-0.000409273884164
-0.00012255108549
-0.000349432182584
-9.6564780541e-05
-0.000296901048587
-7.56977338448e-05
-0.000252864170529
-5.73352825863e-05
-0.000216828347529
-4.0392415251e-05
-0.000185658597695
-2.73689885414e-05
-0.000153427973579
-2.14871757305e-05
-0.000119374897444
-2.04501496535e-05
-9.20593315549e-05
-1.96298073818e-05
-7.5149901775e-05
-1.73204898398e-05
-6.40230891024e-05
-1.50196386994e-05
-5.31707321086e-05
-1.39955986555e-05
-4.22788653953e-05
-1.33246587942e-05
-3.41012144477e-05
-1.29133536936e-05
-2.73805590732e-05
-1.27359683657e-05
-2.18463716636e-05
-1.2329148495e-05
-1.8599886111e-05
-1.1947987585e-05
-1.64324396222e-05
-1.13158368063e-05
-1.52317809616e-05
-1.02513048166e-05
-1.46126718177e-05
-9.03452313972e-06
-1.44685969003e-05
-7.52005023912e-06
-1.46371645664e-05
-6.27956988475e-06
-1.47774235586e-05
-4.75000367707e-06
-1.55322099391e-05
-3.44695917961e-06
-1.6123855771e-05
-2.44447475354e-06
-1.74304846815e-05
-1.193957878e-06
-1.79103959585e-05
-1.78642308252e-05
-0.000254526170304
0.00202291842425
-0.000522183777258
0.00213142136599
-0.000785999373651
0.00210883599332
-0.00104351382631
0.00207007010506
-0.00129294173522
0.00201965039353
-0.00153279339869
0.00195897980528
-0.0017618863227
0.00188951627541
-0.00197934655055
0.00181278388964
-0.0021845920741
0.0017302977908
-0.00237730228524
0.00164349934552
-0.0025573788465
0.00155370745052
-0.00272490272739
0.00146208693282
-0.00288009168352
0.00136963265346
-0.00302326102101
0.0012771669433
-0.00315478973846
0.00118534697389
-0.00327509266625
0.00109467900965
-0.00338459891438
0.00100553631325
-0.00348373580825
0.000918178582914
-0.00357291780115
0.000832770824867
-0.00365253902301
0.000749400862162
-0.00372296890939
0.000668094468519
-0.00378454961938
0.000588828318575
-0.00383759500369
0.000511540370261
-0.00388239005692
0.000436138375219
-0.00391919097249
0.000362506341979
-0.00394822491878
0.000290509825795
-0.00396968993297
0.000219999882976
-0.00398375417794