/*--------------------------------*- C++ -*----------------------------------*\
| =========                 |                                                 |
| \\      /  F ield         | OpenFOAM: The Open Source CFD Toolbox           |
|  \\    /   O peration     | Version:  v1906                                 |
|   \\  /    A nd           | Web:      www.OpenFOAM.com                      |
|    \\/     M anipulation  |                                                 |
\*---------------------------------------------------------------------------*/
FoamFile
{
    version     2.0;
    format      ascii;
    class       surfaceScalarField;
    location    "981";
    object      phia;
}
// * * * * * * * * * * * * * * * * * * * * * * * * * * * * * * * * * * * * * //

dimensions      [0 3 -1 0 0 0 0];
oriented        oriented;


internalField   nonuniform List<scalar> 
18240
(
0.000851207321588
-0.000851258249259
0.00174457772089
-0.000893428398061
0.00263589908043
-0.000891372961417
0.00352002755497
-0.00088418715282
0.00439413107342
-0.00087415275844
0.0052556474009
-0.000861574864816
0.00610223550899
-0.000846634348368
0.0069316697155
-0.000829492015741
0.00774191551427
-0.000810288548488
0.00853104621029
-0.000789187231236
0.00929734222913
-0.000766334819398
0.0100391898061
-0.000741902339031
0.010755191211
-0.000716035884175
0.0114440417712
-0.000688903093075
0.0121046492618
-0.000660637287621
0.0127359899926
-0.000631390619891
0.0133372377074
-0.000601272547357
0.0139076006881
-0.000570409838681
0.0144464612164
-0.000538880103823
0.0149531963554
-0.00050677859999
0.0154273295876
-0.000474147327026
0.0158683383307
-0.000441048444236
0.0162758192964
-0.000407489327266
0.0166492858328
-0.000373502113922
0.0169883482895
-0.000339064894479
0.0172925040077
-0.0003041867903
0.0175613332091
-0.000268825485686
0.0177942841699
-0.00023297713047
0.0179908847053
-0.000196590500408
0.0181505251278
-0.000159661266607
0.0182726846592
-0.000122142974876
0.0183567126593
-8.4043081482e-05
0.0184020689275
-4.53330635833e-05
0.0184081099166
-6.04985343343e-06
0.0183743401711
3.37997474774e-05
0.0183002002531
7.41377239191e-05
0.0181853264373
0.000114910677911
0.0180293418492
0.000155989529045
0.0178321178794
0.000197267774066
0.0175935665689
0.000238563867
0.0173138957692
0.000279721563562
0.0169934002122
0.000320516257639
0.0166327021326
0.000360755848459
0.0162325404969
0.0004001910329
0.01579399207
0.000438613160451
0.0153182641647
0.000475766536552
0.0148068981929
0.000511437563541
0.0142615806646
0.000545365847173
0.0136843405287
0.000577318332216
0.013077401685
0.00060699726979
0.0124433895579
0.000634096609577
0.0117852464447
0.000658212098183
0.0111064481906
0.000678888548116
0.0104109743379
0.000695553902464
0.00970348428451
0.000707585160093
0.00898926964505
0.000714306800856
0.00827426492075
0.000715103046811
0.00756487892078
0.000709492493741
0.00686775558366
0.0006972238963
0.00618956722862
0.000678311424403
0.00553671539086
0.000652954011512
0.00491528026708
0.000621570144854
0.00433070038507
0.000584676560558
0.00378770466818
0.000543125698882
0.00329001212122
0.000497769490434
0.00284029843148
0.000449821211893
0.00243912211348
0.00040122808855
0.00208518101809
0.000354026475273
0.00177553706577
0.000309678722092
0.00150666018322
0.000268946806242
0.00127471668332
0.000231967531201
0.00107607250067
0.000198698796097
0.000906973233001
0.000169114334834
0.000763788361222
0.000143227130705
0.000642940672579
0.000120858310386
0.000541285897859
0.000101691683665
0.000455993299409
8.53037866241e-05
0.000384701178524
7.13279974669e-05
0.00032524693501
5.94671935751e-05
0.000275770203318
4.9510984055e-05
0.000234590305098
4.11932302167e-05
0.000200396925518
3.42261009808e-05
0.000172092139817
2.83184392465e-05
0.000148972901485
2.31512137759e-05
0.00013096966232
1.80179335278e-05
0.000115975439514
1.50255636726e-05
0.000102298369133
1.36957240812e-05
9.05581125454e-05
1.17751349841e-05
7.95916441848e-05
1.09932913404e-05
6.85873354952e-05
1.10467324458e-05
5.79707097176e-05
1.06561228394e-05
4.78187660469e-05
1.02052019367e-05
3.71788909874e-05
1.06974005083e-05
2.52876474978e-05
1.19553114679e-05
1.2169190025e-05
1.31895048999e-05
1.22068823728e-05
0.000898708375863
-0.00175002137721
0.00185298048449
-0.00184775882415
0.00280203798203
-0.00184048725847
0.00374253274847
-0.00182474008989
0.00467198383825
-0.00180365912815
0.00558787242161
-0.00177752043617
0.0064877541384
-0.00174656920572
0.00736929114564
-0.0017110842167
0.0082303098196
-0.00167135767933
0.00906877936345
-0.00162770963232
0.00988285783161
-0.00158046057797
0.010670853748
-0.00152994828908
0.0114312700596
-0.00147649587192
0.0121627520328
-0.00142043183798
0.0128641301686
-0.00136205510213
0.0135343556603
-0.00130165922857
0.0141725432736
-0.00123949548111
0.0147778961889
-0.00117580185539
0.0153497505143
-0.00111076507879
0.0158874920045
-0.0010445548402
0.0163906043916
-0.000977285382274
0.0168585808585
-0.000909054983692
0.0172909784879
-0.000839907362145
0.0176873273179
-0.000769876017621
0.0180471928424
-0.000698945266053
0.018370085021
-0.000627098714525
0.018655530113
-0.000554279588121
0.0189029815011
-0.000480442599839
0.0191119015285
-0.000405513404079
0.0192816754268
-0.000329443233353
0.0194117040937
-0.000252168104408
0.0195013246002
-0.000173665292874
0.0195499123034
-9.39105287014e-05
0.0195568051646
-1.29377049533e-05
0.0195214170385
6.92050687773e-05
0.0194431694268
0.000152397398658
0.0193216115412
0.000236492964597
0.0191563564221
0.000321264097413
0.018947203389
0.000406452638935
0.0186940746027
0.000491719825953
0.0183971328633
0.000576702801798
0.0180567132909
0.000660971087719
0.0176734289762
0.000744087564957
0.0172480940063
0.000825569711277
0.0167818129011
0.000904949780494
0.0162758973535
0.000981734569201
0.0157319437138
0.00105545496069
0.0151517565588
0.00112561449348
0.0145374301538
0.00119171674299
0.0138913034225
0.0012531946796
0.0132160693954
0.0013094108419
0.0125147881466
0.00135957329853
0.0117910378223
0.00140272720141
0.0110489825454
0.00143769819845
0.0102935224797
0.00146314186289
0.00953032473215
0.00147760180972
0.00876582308124
0.00147971011199
0.00800703007237
0.00146839161081
0.00726125417926
0.00144311409582
0.00653575715204
0.00140392662314
0.00583754810853
0.0013512834335
0.00517319374038
0.00128605229158
0.00454874812657
0.00120923804717
0.00396929427904
0.00112269789627
0.00343917751513
0.00102798072458
0.00296179730649
0.000927293035116
0.00253784967566
0.000825244477143
0.00216542470445
0.000726520758492
0.00184076628607
0.000634389633739
0.00155952152155
0.000550247416817
0.00131743481558
0.000474094895945
0.0011106162738
0.000405559130744
0.000935112170591
0.000344647311502
0.000786888137925
0.000291482194144
0.000662033385659
0.000245735878799
0.000557104269827
0.000206648520211
0.000469157451353
0.000173273175615
0.000395739769269
0.000144773949713
0.000334644248659
0.000120585667043
0.000283851477845
0.000100331108413
0.000241569019516
8.34977207171e-05
0.000206378086623
6.94431219039e-05
0.00017706326728
5.76551305606e-05
0.000152510090436
4.77304365607e-05
0.000131166226178
3.93838011891e-05
0.000113257726066
3.29591033769e-05
9.87750752586e-05
2.82026079529e-05
8.68509376338e-05
2.3728413037e-05
7.63434110861e-05
2.15310332791e-05
6.63239157092e-05
2.11032167828e-05
5.61105601164e-05
2.09123007997e-05
4.60828184876e-05
2.02819381671e-05
3.60252116334e-05
2.08089811984e-05
2.50105839924e-05
2.30332847915e-05
1.21696584701e-05
2.60976605644e-05
2.4407066539e-05
0.000906929361271
-0.00265700632645
0.00186686827436
-0.00280775638456
0.00282263921104
-0.00279631613582
0.00376991676793
-0.00277207564756
0.00470597704643
-0.00273977612214
0.00562821974289
-0.00269981962484
0.00653415555214
-0.00265255981033
0.00742142369262
-0.00259840677258
0.00828782351606
-0.00253780981855
0.00913131533711
-0.00247125326071
0.00995004223149
-0.00239923679606
0.0107423186562
-0.00232227343297
0.0115066456039
-0.00224086870769
0.0122416889516
-0.00215552038665
0.0129462891138
-0.00206669730898
0.0136194303861
-0.00197484180123
0.0142602463826
-0.001880349328
0.0148679821513
-0.00178357467385
0.0154419973153
-0.00168481356151
0.0159817234503
-0.00158431345116
0.0164866674986
-0.00148225791685
0.0169563673329
-0.00137878240578
0.0173903981348
-0.00127396150682
0.0177883289601
-0.00116782923405
0.0181497343809
-0.00106036859394
0.0184741542305
-0.000951535441088
0.0187611119973
-0.000841249508587
0.0190100792455
-0.000729420889028
0.0192205017278
-0.000615941981531
0.0193917697202
-0.000500716095713
0.0195232527162
-0.000383650807331
0.0196142765682
-0.000264687510911
0.0196641674896
-0.000143794462734
0.0196722376801
-2.09994250453e-05
0.019637838561
0.000103618184586
0.0195603544204
0.000229897160649
0.0194392635325
0.000357605138821
0.0192741376028
0.000486413109014
0.0190647063266
0.0006159127834
0.0188108574448
0.00074559955652
0.0185126975327
0.000874899447832
0.0181705451828
0.00100316238027
0.0177849795425
0.00112969811283
0.0173568198209
0.00125377678664
0.0168871561908
0.00137466676186
0.0163773149629
0.00149163184673
0.0158288758023
0.00160395612577
0.0152436346139
0.00171092061968
0.0146236261291
0.00181179601185
0.0139711128916
0.00190578183056
0.0132886477715
0.00199195553778
0.0125791289997
0.00206917508983
0.0118459376402
0.00213600657625
0.0110930800089
0.00219064843956
0.0103253745056
0.0022309424271
0.0095485900382
0.00225448937464
0.00876946621874
0.00225893490479
0.00799553946772
0.00224243202152
0.00723467903155
0.00220408427767
0.0064945838725
0.00214414516585
0.00578265982573
0.00206332856529
0.00510572391974
0.0019631152511
0.00447046678253
0.00184461466222
0.00388194698522
0.00171132908402
0.00334532286109
0.00156469965699
0.00286580776313
0.00140689069121
0.00244424219974
0.0012468784627
0.00207745273401
0.00109337357533
0.0017599749271
0.00095192212407
0.00148612889402
0.000824146155959
0.0012512479569
0.000709019308533
0.00105168280474
0.000605163549295
0.000883553159149
0.000512807713403
0.000742421503894
0.00043264317706
0.000623979756607
0.000364202323272
0.000524593309821
0.000306061998996
0.000441408990031
0.00025648247972
0.000372193076412
0.000214017701832
0.000314900230485
0.000177903866858
0.000267419062188
0.000147837707573
0.000227859418904
0.000123080994247
0.000194891150732
0.00010243588551
0.000167414707643
8.51549396386e-05
0.000144444848991
7.07255639484e-05
0.000125036680246
5.88154815003e-05
0.000108355090389
4.96653656192e-05
9.33019756552e-05
4.32811405957e-05
7.98741840089e-05
3.71832949147e-05
6.9013799817e-05
3.2421266188e-05
6.02339516772e-05
2.99184723278e-05
5.05147002408e-05
3.06716428466e-05
3.99009635152e-05
3.09428312743e-05
2.96528233513e-05
3.11116771985e-05
1.92852940248e-05
3.34539201614e-05
9.7300248932e-06
3.57063963252e-05
3.4166255884e-05
0.000915356388584
-0.00357241886284
0.00188328217655
-0.00377574077295
0.00284712945696
-0.00376022211355
0.00380234969666
-0.00372735408486
0.00474609152349
-0.00368357535996
0.00567567048898
-0.00362945524812
0.00658853602896
-0.00356548083842
0.00748228563474
-0.00349221087429
0.00835468523411
-0.00341026242919
0.00920367750597
-0.00332029732491
0.0100273942479
-0.00322300357107
0.0108241548038
-0.00311908259624
0.0115924701838
-0.00300923068728
0.0123310322411
-0.00289412744028
0.0130387103346
-0.00277441817446
0.0137145323397
-0.00265070481497
0.0143576751605
-0.00252353073206
0.0149674393427
-0.00239337553598
0.0155432355774
-0.00226064386929
0.016084555556
-0.00212566546479
0.0165909573882
-0.00198868899784
0.0170620359095
-0.00184988801105
0.0174974101841
-0.00170935990721
0.0178966963061
-0.00156713718426
0.0182594995599
-0.00142319053767
0.0185853918531
-0.00127744399233
0.0188739100673
-0.00112978066397
0.0191245393103
-0.000980060495513
0.0193367182991
-0.000828127828285
0.0195098293557
-0.000673831283409
0.0196432118187
-0.000517033712084
0.0197361597507
-0.000357633001346
0.0197879446846
-0.000195573080766
0.0197978231008
-3.08684885512e-05
0.0197650692828
0.000136385399903
0.0196889925627
0.000305990469826
0.0195689796133
0.000477638886028
0.0194045193657
0.00065089749935
0.019195250495
0.000825210159043
0.0189409879549
0.000999894112487
0.0186417673511
0.00117415658519
0.0182978632794
0.00134710667151
0.0179098195215
0.00151778675227
0.0174784485733
0.00168519648079
0.0170048386941
0.00184833017721
0.0164903299816
0.00200619812355
0.0159364998195
0.00215784873638
0.0153451261694
0.00230236091676
0.0147181726312
0.0024388210319
0.0140577734487
0.00256625702937
0.0133662653153
0.00268354420733
0.0126462563639
0.00278926939989
0.0119007755692
0.00288157733608
0.0111334919222
0.00295802545275
0.0103490151329
0.00301551956444
0.00955318281642
0.00305042029092
0.00875324398725
0.00305898451463
0.00795763094972
0.00303814982509
0.00717525773506
0.00298657746518
0.00641438816322
0.00290513196897
0.00568305242238
0.00279479077338
0.00498812133134
0.00265817234978
0.00433778234061
0.00249507252911
0.0037359713157
0.00231324536024
0.00318915229994
0.00211160780645
0.00270747493786
0.00188864145174
0.00229191477408
0.00166250271331
0.00193651584815
0.00144883004375
0.00163224254788
0.00125624918185
0.00137091575121
0.00108552321701
0.00114743850734
0.000932540397291
0.000959400007484
0.000793238668222
0.000803310110956
0.000668929742553
0.000673762956686
0.000562216947532
0.000565574685078
0.00047241785981
0.000474796550378
0.000396865609891
0.000398832041694
0.00033247483584
0.000336022558299
0.000276853685926
0.000284703751908
0.000229248635399
0.000242474311032
0.000190091486782
0.000207086302558
0.000158492948897
0.000177520168894
0.000132025264905
0.000152910001185
0.000109789561732
0.000132347005453
9.13134159278e-05
0.000115316693792
7.58703840688e-05
9.89170826556e-05
6.60896803593e-05
8.43126883914e-05
5.79107247484e-05
7.17496099671e-05
4.97725263119e-05
6.00749773205e-05
4.41236529082e-05
4.89475504903e-05
4.10769750837e-05
4.08752426783e-05
3.87815713356e-05
3.13111095434e-05
4.05514060023e-05
2.12882601749e-05
4.1179192438e-05
1.35121171647e-05
4.12776287522e-05
6.89545355737e-06
4.23718181166e-05
4.10839277525e-05
0.000926254075542
-0.00449872953066
0.00190530785702
-0.00475485408807
0.00288012975496
-0.00473510311252
0.00384604780924
-0.00469333087647
0.0048001041647
-0.00463768962289
0.00573952044652
-0.00456892860896
0.00666166889869
-0.00448768527211
0.00756408789914
-0.00439468472197
0.00844449910719
-0.00429072711146
0.00930081827617
-0.00417666857425
0.0101311643217
-0.00405340006644
0.0109338608023
-0.00392182791045
0.0117074359222
-0.00378285278431
0.0124506146744
-0.0036373513589
0.0131623102659
-0.00348615687366
0.0138416077882
-0.00333004346648
0.0144877483177
-0.00316971015399
0.0151001058686
-0.00300576984636
0.015678166462
-0.00283873881851
0.0162215012722
-0.00266903235486
0.0167297440625
-0.00249696130804
0.0172025642714
-0.00232273531839
0.0176396465707
-0.00214646658674
0.0180406674164
-0.00196817984143
0.0184052796529
-0.00178782170901
0.0187330947217
-0.0016052752667
0.0190236736745
-0.00142037277798
0.0192765158321
-0.00123291291784
0.0194910566554
-0.00104267570129
0.0196666634046
-0.000849442005276
0.0198026408284
-0.000653011715627
0.0198982350582
-0.000453224553028
0.0199526490325
-0.000249980811237
0.0199650573797
-4.32671493908e-05
0.0199346334325
0.000166822769828
0.0198605762534
0.000380064690748
0.0197421495337
0.000596086544519
0.0195787191601
0.000814352609846
0.0193697999502
0.00103415816573
0.0191150969929
0.00125462984307
0.0188145503721
0.00147474020258
0.0184683675641
0.00169333063464
0.0180770510932
0.00190914876881
0.0176414060354
0.00212089140998
0.017162535794
0.00232725485224
0.0166418139021
0.00252697892362
0.0160808445394
0.00271888180174
0.0154814059077
0.00290186771748
0.0148453976264
0.00307490280721
0.0141747940485
0.003236938014
0.0134716411186
0.00338678082046
0.0127381069768
0.00352289052871
0.0119766498515
0.00364312728297
0.0111903203067
0.00374445257163
0.0103832391212
0.00382269937846
0.00956120217806
0.00387256514203
0.00873216223023
0.00388812721195
0.00790617347351
0.0038642542216
0.0070940223791
0.00379884091524
0.00630450942964
0.003694769846
0.00554667645051
0.00355275020319
0.00482629421487
0.00337868160914
0.00415606556095
0.0031654155049
0.00353425482895
0.00293515483556
0.00296898430574
0.00267695555336
0.00248407619416
0.00237361468691
0.00207988601304
0.00206674721846
0.00174427567963
0.00178449318963
0.00146104073898
0.00153953320174
0.00121739975171
0.0013292122286
0.00100819093766
0.00114178718868
0.000835304311914
0.000966162798675
0.000696433439715
0.000807828063743
0.000583517899694
0.000675161886093
0.000489509136115
0.000566450863777
0.000410015985042
0.000476387288146
0.000343081877498
0.000399434055144
0.000288437918792
0.000331526111466
0.00024534618221
0.000272365662088
0.000210496073286
0.000224965987117
0.000180436860268
0.000188575572666
0.000155174020658
0.00015731230524
0.00013427352313
0.000130714364194
0.000116563374478
0.000109049804171
0.000101984618744
9.04741871484e-05
8.75786868654e-05
8.05207496636e-05
7.41120765044e-05
7.14020813645e-05
6.02651103707e-05
6.36431456648e-05
4.79879442714e-05
5.64260383838e-05
3.70700008453e-05
5.20240687201e-05
2.87967926434e-05
4.70869242335e-05
2.241248489e-05
4.6974838435e-05
1.4703655069e-05
4.893282232e-05
8.49721724027e-06
4.75222399548e-05
4.22231203835e-06
4.66836416145e-05
4.53266590526e-05
0.000939932393257
-0.00543871914615
0.00193323599784
-0.00574821724969
0.00292205437405
-0.00572398134207
0.00390157379554
-0.00567290947554
0.0048687158234
-0.00560489015052
0.00582059188815
-0.00552086222579
0.00675447982671
-0.00542162970017
0.00766784288017
-0.0053081030469
0.0085583468995
-0.00518128504748
0.00942387256627
-0.00504224667902
0.0102625234352
-0.00489210177122
0.011072628262
-0.00473198186078
0.0118527391229
-0.00456301095318
0.0126016238131
-0.00438628144336
0.0133182543615
-0.00420283081845
0.0140017901655
-0.0040136205762
0.0146515579867
-0.00381951711996
0.0152670275058
-0.00362127626192
0.0158477852392
-0.00341953113841
0.0163935057864
-0.00321478509074
0.0169039236997
-0.00300740895151
0.0173788049724
-0.00279764377744
0.0178179215351
-0.00258560772619
0.0182210272726
-0.00237130745938
0.0185878385847
-0.00215465212812
0.0189180171972
-0.00193547013035
0.0192111578448
-0.00171352672837
0.0194667779758
-0.0014885433239
0.0196843122367
-0.00126021709932
0.0198631089674
-0.00102824266591
0.0200024322757
-0.000792335618975
0.0201014668064
-0.000552256286629
0.0201593301301
-0.00030783780157
0.020175089802
-5.90169126071e-05
0.0201477894666
0.000194136746853
0.0200764809872
0.000451390567255
0.0199602660888
0.00071232276712
0.019798343061
0.000976300895448
0.019590060453
0.0012424701501
0.019334971136
0.00150975265325
0.01903288643
0.00177686271108
0.0186839213217
0.00204233784827
0.018288528548
0.00230458813524
0.0178475117056
0.00256195934803
0.0173620156387
0.00281280666946
0.0168334874226
0.00305556767827
0.016263610869
0.00328882359741
0.0156542168618
0.00351133240822
0.0150071792922
0.00372201515419
0.0143243170378
0.00391988208023
0.0136073176042
0.00410386455531
0.0128577460638
0.00427255469129
0.0120771750937
0.0044237928452
0.0112675728496
0.00455415524739
0.0104320220027
0.00465835519086
0.0095758442651
0.00472884677239
0.00870789929164
0.00475618453361
0.0078411142666
0.00473114835992
0.00699016358294
0.00464991353839
0.0061633338068
0.00452172291947
0.00537214995969
0.00434406175277
0.00461625420441
0.00413469963974
0.00392467112208
0.0038571091924
0.00327339600162
0.00358651368623
0.00267171875573
0.00327869397724
0.00218228425987
0.00286310400781
0.00180018131348
0.00244889599347
0.00149928670123
0.00208543732558
0.00124925494559
0.00178961372498
0.00102864653844
0.00154985882279
0.000833051041997
0.00133743058226
0.000677804496266
0.00112143549037
0.000563493982107
0.000922173351589
0.000473970815825
0.000764709344077
0.000398538638442
0.000641910816016
0.000332427777157
0.000542526731385
0.000275167301879
0.000456722692981
0.000229688084828
0.000377038012541
0.000197706366829
0.000304374523051
0.000173271946353
0.000249426898284
0.000149014628243
0.000212859823978
0.000128538800107
0.000177813447631
0.000112254599127
0.000147025904207
9.74728093943e-05
0.000123858858452
8.36627902355e-05
0.000104310261589
7.03001444084e-05
9.39089405306e-05
5.83583464901e-05
8.33666205691e-05
4.76535307052e-05
7.43704143529e-05
3.63537330063e-05
6.77496032428e-05
2.64562327161e-05
6.19475649675e-05
1.7370753848e-05
5.62022432802e-05
1.21219834519e-05
5.22568536931e-05
8.6637531118e-06
5.24239646464e-05
4.65843045024e-06
5.15621143708e-05
2.24286049168e-06
4.91329608319e-05
4.75836264981e-05
0.000956602964763
-0.00639537981126
0.00196735595763
-0.00675903103297
0.00297330393759
-0.00672998956135
0.00396944597227
-0.00666911137874
0.00495255492836
-0.00658805810253
0.00591960798748
-0.00648797337733
0.0068677682627
-0.00636984694082
0.00779440677739
-0.00623479729064
0.00869712129229
-0.00608405389076
0.00957374950861
-0.00591892771804
0.0104223771036
-0.00574078053759
0.0112413400025
-0.00555099420102
0.0120292215314
-0.00535094005643
0.012784843835
-0.00514194940322
0.0135072543727
-0.00492528495962
0.0141957068557
-0.00470211458486
0.0148496378577
-0.00447348743296
0.0154686387503
-0.00424031424385
0.0160524249283
-0.00400335204114
0.0166008024653
-0.00376319499301
0.0171136348519
-0.00352027119348
0.0175908101423
-0.00327484641992
0.0180322112251
-0.00302703350031
0.0184376889953
-0.00277680726186
0.0188070403848
-0.00252402272885
0.0191399899746
-0.00226843609835
0.0194361762292
-0.00200972636477
0.0196951404908
-0.0017475179432
0.0199163197032
-0.0014814034854
0.0200990415413
-0.0012109684459
0.0202425239061
-0.000935818542177
0.0203458779554
-0.000655607447546
0.0204081182298
-0.000370071603029
0.0204281795002
-7.90680445555e-05
0.0204049431089
0.00021738706147
0.0203372727834
0.000519078697285
0.0202240613514
0.000825555984983
0.0200642869667
0.00113610116415
0.0198570779984
0.00144970918224
0.01960178259
0.00176508244029
0.0192980385449
0.00208064551315
0.0189458360568
0.00239458361725
0.0185455653207
0.00270490673957
0.018098039204
0.00300953805275
0.017604482566
0.00330642078677
0.0170664807021
0.00359363185335
0.0164858856006
0.00386948660437
0.0158646790342
0.00413261123214
0.0152048080842
0.00438196570591
0.0145079927424
0.00461677932406
0.0137755582056
0.00483639075571
0.0130082967683
0.00503990826658
0.0122065123425
0.00522567860593
0.0113703548621
0.0053904159514
0.0105007985328
0.00552801784052
0.00960158311652
0.00562817348164
0.00868223079343
0.00567564701597
0.00776104630385
0.00565244924978
0.00686190112123
0.00554917724237
0.00598772591339
0.00539602122856
0.00515884582451
0.00517306740647
0.00434915135805
0.00494452169656
0.00364981484297
0.00455654438358
0.00295515909036
0.00428122507391
0.00227201050375
0.00396192426866
0.00177780661359
0.00335733092297
0.00144057547945
0.00278620222834
0.00120237239791
0.00232366938406
0.00100620294328
0.00198584780191
0.000814074058008
0.00174202575753
0.000620787764196
0.00153076753822
0.000482931138043
0.0012593152641
0.0004067375003
0.000998413423777
0.000350534474115
0.000820920636468
0.000298241700497
0.000694255976718
0.000245982851666
0.000594793554014
0.000196118503776
0.000506643501773
0.000158684562199
0.000414486542112
0.000142441285287
0.000320655061334
0.000134437912889
0.000257457472965
0.000114164969273
0.000233159000338
9.81244520783e-05
0.000193886539941
8.83008935138e-05
0.000156880245338
7.64708446457e-05
0.000135720346487
6.40156559175e-05
0.000116795481787
5.25763053239e-05
0.000105373872421
4.10492447653e-05
9.49175785387e-05
3.06894992394e-05
8.47510601068e-05
2.15440625932e-05
7.69167309196e-05
1.4728730679e-05
6.87861565744e-05
8.17596737856e-06
6.27797612443e-05
3.28851677643e-06
5.717165439e-05
2.30570099714e-06
5.3437707903e-05
9.06228025393e-07
5.29877984228e-05
3.47513601637e-07
4.97158665005e-05
4.7944766062e-05
0.000976459702105
-0.00737189790583
0.00200801953314
-0.00779065149969
0.00303438368239
-0.00775641478132
0.00405031654645
-0.00768510453729
0.00505240653081
-0.00759020768762
0.00603746792293
-0.00747309333586
0.00700252521487
-0.00733496167958
0.00794483857405
-0.00717716678754
0.00886192430638
-0.00700119434158
0.00975156918482
-0.00680862574117
0.010611838535
-0.00660110137083
0.0114410783932
-0.00638028373907
0.0122379116651
-0.00614782114813
0.0130012284772
-0.00590531204058
0.0137301704401
-0.00565427072495
0.0144241090852
-0.00539609487593
0.0150826183802
-0.00513203620996
0.0157054422262
-0.00486317527235
0.0162924576264
-0.00459040232804
0.016843635451
-0.00431440526704
0.0173590003525
-0.00403566611218
0.017838592346
-0.00375446585151
0.0182824316176
-0.00347089762769
0.0186904884008
-0.00318488616593
0.0190626582357
-0.00289621193059
0.0193987427686
-0.0026045370899
0.0196984349219
-0.00230943202793
0.0199613075301
-0.00201040096016
0.0201868043041
-0.00170690750233
0.0203742329907
-0.00139840106479
0.0205227614401
-0.00108434752473
0.0206314173324
-0.000764260343872
0.0206990948533
-0.000437742487641
0.0207245696141
-0.000104532418654
0.0207065246467
0.000235446298242
0.0206435890189
0.000582032566283
0.0205343907234
0.000934776647804
0.0203776235223
0.00129289492734
0.020172127033
0.00165523660398
0.019916976023
0.00202026880567
0.0196115737297
0.0023860877673
0.0192557395676
0.00275046239932
0.0188497802469
0.0031109155065
0.0183945298248
0.0034648428861
0.0178913449062
0.00380966512977
0.0173420433156
0.00414299846172
0.016748777725
0.00446282206015
0.0161138484346
0.00476761734698
0.0154394507906
0.00505644349135
0.0147273841615
0.00532893538236
0.0139787018595
0.00558516345126
0.0131933805104
0.00582533013268
0.0123700366108
0.00604912417845
0.0115059950628
0.00625456662378
0.0105981912448
0.00643593332359
0.00964604067318
0.00658043697617
0.00865775589185
0.00666404562552
0.00766156172937
0.00664875884171
0.00670680936172
0.00650404828976
0.00577219818356
0.00633076873673
0.00491343738338
0.00603196720622
0.0039963805759
0.0058616885196
0.00335827960362
0.00519473493411
0.00260016499714
0.00503944326846
0.00172533512336
0.00483678276874
0.00124518086032
0.00383758688642
0.00101008989291
0.00302130865356
0.000899985714448
0.00243387448954
0.000808110229242
0.0020777437427
0.00066249268091
0.00188774781177
0.0004177558795
0.001775523443
0.000272260857573
0.00140491565134
0.000255822935367
0.0010148474409
0.000242318254833
0.00083450468826
0.000213397368046
0.000723166663456
0.000169932651217
0.000638330621381
0.000116667134671
0.000559908904548
7.79878399263e-05
0.000453204773528
8.33471909369e-05
0.000315321343948
0.000104656595232
0.000236157987162
7.71420504304e-05
0.000260720560887
6.28190509634e-05
0.000208229099261
6.46984917841e-05
0.000155034922939
5.31820818692e-05
0.000147270732562
4.25060305372e-05
0.000127500956022
3.22118156106e-05
0.000115698157391
2.24260811375e-05
0.000104728881334
1.34297272339e-05
9.37692567003e-05
7.22660624896e-06
8.31405688766e-05
1.6029776304e-06
7.44310871064e-05
-1.31245371077e-06
6.57185014377e-05
-3.67288846395e-06
5.95561627933e-05
-4.11489415088e-06
5.39003978167e-05
-2.80600080117e-06
5.1702380707e-05
-1.55200788783e-06
4.84841398762e-05
4.64004519987e-05
0.000999720152835
-0.008371676839
0.00205565185709
-0.00884664526261
0.00310591635574
-0.00880674059895
0.00414498972915
-0.00872423887754
0.00516923690062
-0.0086145148565
0.00617527566859
-0.00847919113491
0.0071599651613
-0.00831970898645
0.00812043397267
-0.00813769208941
0.00905410266656
-0.00793491803254
0.00995869880302
-0.00771327528159
0.0108322652197
-0.0074747194526
0.0116731616994
-0.00722123008012
0.012480060469
-0.00695476783841
0.0132519351361
-0.00667723265987
0.0139880431387
-0.00639042257397
0.0146879009458
-0.00609599442825
0.0153512524441
-0.0057954272074
0.0159780303359
-0.00548999044365
0.0165683123741
-0.00518071926867
0.0171222736371
-0.00486839909231
0.0176401382899
-0.00455356081555
0.0181221329511
-0.00423648808593
0.0185684453879
-0.00391723497631
0.0189791896742
-0.0035956527237
0.019354379572
-0.00327142126698
0.0196939085932
-0.00294408271559
0.0199975358624
-0.00261307287157
0.0202648746026
-0.00227775021755
0.0204953821722
-0.00193742233935
0.0206883501034
-0.00159137295787
0.0208428958066
-0.00123889370195
0.0209579565647
-0.000879318008334
0.0210322908355
-0.000512069931482
0.0210644887594
-0.000136719678044
0.0210529961443
0.000246953561248
0.0209961546129
0.000638892856298
0.0208922605841
0.00103869367175
0.0207396442087
0.00144553868794
0.0205367679535
0.00185814473956
0.02028234184
0.00227473146848
0.0199754487603
0.00269302215286
0.0196156690555
0.00311028835699
0.0192031883362
0.00352344751985
0.0187388687828
0.00392921896234
0.0182242618887
0.00432433410976
0.01766154267
0.00470578515253
0.0170533547366
0.00507108398068
0.0164025594709
0.00541849121649
0.0157119036703
0.00574718592259
0.0149835851963
0.00605734293222
0.0142187277773
0.00635011912158
0.0134166913627
0.00662746727986
0.0125742645671
0.00689166040425
0.0116848335662
0.0071441102023
0.0107382353558
0.00738264662835
0.00972337332836
0.00759541484132
0.00863865567739
0.00774887951744
0.00752983368293
0.00775770428752
0.00652371409498
0.00751031379231
0.00549819634747
0.0073564148993
0.00467874856616
0.00685152577396
0.00349646370823
0.00704409531251
0.00335359721775
0.00533770381802
0.00277928250898
0.00561386448345
0.00133258741197
0.00628371444678
0.00103251028295
0.00413783188874
0.0010684545831
0.00298558461289
0.00125184971593
0.00225062443802
0.00162784614899
0.00170197660769
0.00215947688444
0.00135626338698
0.00245304988188
0.00148220892681
0.00215245621329
0.00170561915213
0.00157766866703
0.00158980721168
0.00114857653031
0.00126366524327
0.000860829210115
0.00101104137492
0.000630719888321
0.00086851554241
0.000402570990041
0.000788134335647
0.000196244491948
0.000659622424988
9.95728405036e-05
0.000411986847613
0.000127578658719
0.000208196380901
4.28343783765e-05
0.000345460867347
2.04551486629e-05
0.00023063067477
5.02975006423e-05