/*--------------------------------*- C++ -*----------------------------------*\
| =========                 |                                                 |
| \\      /  F ield         | OpenFOAM: The Open Source CFD Toolbox           |
|  \\    /   O peration     | Version:  v1906                                 |
|   \\  /    A nd           | Web:      www.OpenFOAM.com                      |
|    \\/     M anipulation  |                                                 |
\*---------------------------------------------------------------------------*/
FoamFile
{
    version     2.0;
    format      ascii;
    class       surfaceScalarField;
    location    "23";
    object      phi;
}
// * * * * * * * * * * * * * * * * * * * * * * * * * * * * * * * * * * * * * //

dimensions      [0 3 -1 0 0 0 0];
oriented        oriented;


internalField   nonuniform List<scalar> 
18240
(
-0.000731833891299
0.000747541142351
-0.00132528669218
0.000608733865229
-0.00195199280015
0.000637810022676
-0.00257696978968
0.000641022894541
-0.00319744766299
0.000630815706471
-0.00380104741053
0.00062034053884
-0.00440067681601
0.000609155385514
-0.00498803548007
0.000604985601032
-0.00558509404295
0.00060568390504
-0.00618150721784
0.000615075280065
-0.00680789776946
0.000634267608067
-0.00736168141651
0.000573623524435
-0.00785917550704
0.000504671586577
-0.00830029588527
0.000462033899355
-0.00869824972511
0.000404109678185
-0.008999506731
0.000322150703416
-0.00919794783939
0.000203049595178
-0.00937066082475
0.000192911168463
-0.00956400061611
0.000196581432974
-0.00979065978369
0.000247683371477
-0.0100771532076
0.000288204356497
-0.0102049594323
0.000147514164342
-0.0101153945019
-8.97455956361e-05
-0.00992108289679
-0.000176539805141
-0.00979101737529
-0.000133772122504
-0.00975438834459
-1.88983759491e-05
-0.0098121022697
5.16680130019e-05
-0.0098375554413
4.36650361898e-05
-0.00985196735101
8.02350476078e-06
-0.00976625368788
-6.70146117519e-05
-0.00979854692664
2.47961262233e-05
-0.00954229729947
-0.000239289711876
-0.00876581709392
-0.000785208458348
-0.00795655197756
-0.000797597876027
-0.00727782598827
-0.000686266242955
-0.00666622489322
-0.000605016251196
-0.00616333421047
-0.000509789563931
-0.00573351044155
-0.000427191048903
-0.00539486984346
-0.000346366876438
-0.00512240618169
-0.000271162850752
-0.00497623595124
-0.000150920506837
-0.00492957556162
-4.8624687266e-05
-0.00493328954959
2.89104736626e-06
-0.00496289613299
2.84566579116e-05
-0.00504446422058
7.98952462225e-05
-0.0050906759545
4.66529126585e-05
-0.00509577759465
-1.62595257832e-06
-0.00497986900609
-0.000109882370918
-0.00470914478403
-0.00028425972184
-0.00441759578922
-0.000278627599018
-0.00427409397385
-0.000159764176699
-0.00415747502247
-0.000103725744541
-0.00404263749965
-0.000130019983301
-0.00389807736439
-0.000133268680015
-0.00381607011106
-9.64028378467e-05
-0.00374990718488
-5.66548699826e-05
-0.00368924078071
-7.30338016978e-05
-0.00355879855018
-0.000123419067522
-0.00344264117414
-0.000128229692585
-0.00335972127707
-7.7629584901e-05
-0.00327329559355
-9.83974210103e-05
-0.0031564750459
-0.000112573981337
-0.00306438887781
-0.000104699556893
-0.00297820517657
-8.25518128313e-05
-0.00287829585909
-0.000112123289062
-0.00274215460374
-0.000132624438988
-0.00260890779266
-0.000145769901924
-0.00248474466196
-0.000120033874555
-0.002396785524
-9.87777491215e-05
-0.00232889945328
-6.52966436347e-05
-0.00234067802436
3.71710658102e-06
-0.00237300282742
3.17833006901e-05
-0.00237056707674
-7.70043598263e-06
-0.00233118131141
-4.19952060589e-05
-0.00223674400425
-9.88898232505e-05
-0.00211805688691
-0.000121850888563
-0.00200114661126
-0.000121561200597
-0.00189457603874
-0.000109840469851
-0.00179378313184
-0.000104863205613
-0.00169917735538
-9.81756144931e-05
-0.00162520617943
-7.76433132017e-05
-0.00159076918219
-3.75104859732e-05
-0.00159523219461
3.58354105603e-07
-0.00159283348946
-5.33655006854e-06
-0.00156366806434
-3.3754079492e-05
-0.00152228983049
-4.41656809866e-05
-0.00150552678026
-2.12170992577e-05
-0.0015129155632
3.83974173272e-06
-0.00147499967509
-4.34816827701e-05
-0.00135310452191
-0.000127528770016
-0.00119553560861
-0.000165146938196
-0.00102176437622
-0.000181312721743
-0.000792328694335
-0.000237311184798
-0.000511197793415
-0.000289322016333
-0.000223635216427
-0.000295885259148
-0.000227547223757
-0.000603493566173
0.00136412028312
-0.00134255299385
0.00136212025526
-0.00205300127345
0.00136172054505
-0.00273412098576
0.00133677581502
-0.00342474369719
0.0013347917066
-0.00411435589094
0.00132498582404
-0.00480681564125
0.0013148362606
-0.00548332530137
0.00129695984705
-0.00612609769729
0.00126146436137
-0.00672147323672
0.00122593383707
-0.0072882232181
0.00121388712895
-0.00789999163604
0.00120130175159
-0.00854360093052
0.00116123392375
-0.00903875813374
0.000973604130867
-0.00951548494288
0.000893859732539
-0.00997788556971
0.000800919317225
-0.0103836574491
0.00062074244537
-0.0107155432976
0.000540311498233
-0.0109704772046
0.000462620161939
-0.0110114309208
0.000303428837453
-0.010934813777
0.000220581340408
-0.0109910630398
0.000216685030376
-0.0110822283742
8.55734410816e-06
-0.0110738481125
-0.000173009084089
-0.0109393573625
-0.000262529804053
-0.0106360070947
-0.000312017713555
-0.010326723584
-0.000252000202323
-0.0101204241617
-0.00015281030497
-0.0101375829286
2.99492272645e-05
-0.0102235216716
2.83218345664e-05
-0.00999047400279
-0.000202897477446
-0.00957424263524
-0.000649568469011
-0.00930872084707
-0.00104647418405
-0.00904951374203
-0.00105387006143
-0.0086868450128
-0.00104883643841
-0.00825350527386
-0.00103896269194
-0.00788432984571
-0.000884338808504
-0.00756796141533
-0.000747698118471
-0.00731977333707
-0.000597700805039
-0.00710917119162
-0.00047944264983
-0.00688747149443
-0.000377261802479
-0.0066970961559
-0.000225462664136
-0.00687454123496
0.000172240001427
-0.00720305989972
0.000374601956734
-0.00743719263221
0.000305226279867
-0.00752370153192
0.000147056387217
-0.00756574073618
3.49038620858e-05
-0.00743718751314
-0.000234168742358
-0.00688376064578
-0.00083294807465
-0.00641080371409
-0.000753981961373
-0.00633210863381
-0.000229615962409
-0.0063202636603
-0.0001258376928
-0.00649474330006
5.07500343664e-05
-0.0068110140141
0.000168924926198
-0.00691948536656
1.60886690938e-05
-0.00685106464121
-0.000140197188405
-0.0068526476521
-6.94602059087e-05
-0.00719141919156
0.000198954803089
-0.00746648790282
0.000146553183428
-0.00740219950975
-0.000159400715612
-0.0072197339259
-0.000283066006374
-0.00695771645382
-0.000392722988052
-0.00647990384844
-0.000586370580554
-0.00591473535476
-0.000664816623872
-0.00550695543282
-0.000524463748006
-0.0051925673725
-0.000463434892493
-0.00474942091154
-0.000594370198704
-0.00415208097243
-0.000731466458617
-0.00354925343197
-0.000708758505777
-0.0031261562573
-0.000499064442725
-0.00305725564384
-7.71956958124e-05
-0.00312546395802
9.52174049249e-05
-0.00314142067425
-3.13903111839e-06
-0.00312476513712
-6.07138244947e-05
-0.00296406093617
-0.000269140452609
-0.002764217193
-0.000323692959744
-0.00251475190127
-0.000379894412859
-0.0022236217716
-0.000403134418257
-0.00200620751626
-0.000330186489103
-0.00188238579792
-0.000224535476627
-0.00179382864037
-0.000172671134238
-0.00172367250143
-0.000111097512016
-0.00167815741804
-5.01603205803e-05
-0.00161093819842
-7.70008038242e-05
-0.00153036633422
-0.000118200395056
-0.00144615803126
-0.000132506598477
-0.00141329181858
-5.77841957247e-05
-0.00142400411438
1.0637599145e-05
-0.00142729984704
-4.46514061942e-05
-0.00139964846878
-0.000160997786152
-0.00129042449273
-0.000281695496143
-0.00112397605088
-0.000355039034729
-0.000916369126543
-0.000452929763408
-0.000645805445713
-0.00056893385208
-0.000300844848797
-0.000649385967451
-0.000532110085586
-0.000633183696853
0.00201050741798
-0.00135938141702
0.00210256226254
-0.00207346101113
0.00208986450915
-0.00278391946834
0.00206163997346
-0.00351630859851
0.0020815272906
-0.00422334354247
0.00204679806392
-0.00490170460126
0.00200750303933
-0.00555011481451
0.00196008709988
-0.00620296353655
0.00192844566685
-0.00686014919933
0.00189794768899
-0.00747727356604
0.00184521978032
-0.00800526020524
0.00174428098599
-0.00848723904917
0.00165728726632
-0.00919874200862
0.00170050491333
-0.00988446119416
0.00159450255387
-0.0103333277125
0.00126519571906
-0.0107842145618
0.00108561175605
-0.0111406856739
0.000911485022628
-0.0113819391494
0.00071672627801
-0.0115601368795
0.000494989080824
-0.0115948194569
0.000266535129777
-0.011477031576
0.000110444289651
-0.0114498960909
-7.97657901209e-06
-0.0114293304574
-0.00018243990683
-0.0115563971316
-0.000124895318767
-0.0118852339477
2.80833281213e-05
-0.012259030219
0.000132422147308
-0.0123876797177
-1.40722109539e-05
-0.0122114920672
-0.000136851759051
-0.0121236914948
-5.04916487402e-05
-0.0120368608656
-0.000282366221072
-0.0120586047675
-0.000619723654976
-0.0120616516427
-0.00104056384394
-0.0117464279731
-0.00136521984244
-0.011257364821
-0.00153930070839
-0.0105799614172
-0.00171910669041
-0.0097975603274
-0.00167119466267
-0.00907494282356
-0.00146638684472
-0.00845545183482
-0.00121712850276
-0.00797838862526
-0.000945175069925
-0.0076827122367
-0.000660244547663
-0.00770664977651
-0.000193241133852
-0.00804255661842
0.000530506003467
-0.00905598314302
0.00139056058842
-0.0101113494256
0.00138291359058
-0.0112246506329
0.00125573129914
-0.0123868011758
0.00121161612027
-0.0141235710819
0.0014993661317
-0.0176051474259
0.002656582121
-0.0200556767542
0.00169904022457
-0.0201524154852
-0.000138418618684
-0.0194665456548
-0.00081663787082
-0.0184491456581
-0.000979308826932
-0.0173037883031
-0.000986621722193
-0.0162708011488
-0.00103375036964
-0.0153744410919
-0.00104936727131
-0.014531867731
-0.000931629171014
-0.0136281754357
-0.000720570828208
-0.012857991563
-0.000644915734623
-0.0123305801174
-0.000704140302326
-0.0119097006804
-0.000726358174631
-0.0115726490892
-0.000748652415221
-0.0113732214955
-0.000808884764965
-0.0112536443257
-0.000804045102731
-0.0111079682346
-0.000693111975575
-0.0109803826811
-0.000611610743753
-0.0109518109063
-0.00064549793636
-0.0109695756427
-0.000735445482271
-0.0108606065199
-0.000838657531835
-0.0103182993427
-0.00106966115237
-0.00873674334285
-0.00167518005971
-0.00716289227363
-0.00150112583011
-0.00588517562043
-0.00129070439353
-0.00492427904686
-0.00103846658339
-0.00464694742399
-0.000554446352429
-0.00449025870213
-0.00049605148784
-0.00432481031471
-0.000554136879643
-0.00409439024893
-0.000648410906224
-0.00365186311224
-0.000782630921156
-0.00303930834122
-0.000849799447246
-0.00251864719912
-0.000703791070591
-0.00226653700737
-0.000373201330015
-0.00218870323153
-0.000136905998408
-0.00205039179705
-0.000220640642482
-0.00185671575489
-0.000318734141768
-0.00165767881867
-0.0003361334555
-0.00148467360505
-0.000236129214823
-0.00136851052445
-0.000109889942466
-0.00133049826231
-8.71779429348e-05
-0.00136290529346
-0.000134205143169
-0.00128453984954
-0.000367095602897
-0.00108650996519
-0.000560400345662
-0.000886209655079
-0.00066130899036
-0.000626660890054
-0.0008366598307
-0.000312345972079
-0.000971665376276
-0.000848518504834
-0.000652634518001
0.00267645595825
-0.0013724070333
0.00283655286092
-0.0020831870529
0.00281488863951
-0.00282363396857
0.00281656962138
-0.00355876128192
0.00283129217025
-0.0042705670743
0.00277332539823
-0.0049622050491
0.00271371998472
-0.00567839114134
0.00269102390974
-0.00638314660835
0.00264791048154
-0.00701944962934
0.00254900669221
-0.00759446654138
0.00243486242218
-0.00813116773504
0.00229561648866
-0.00880737402149
0.002348427193
-0.00945989412937
0.00236829988385
-0.00997163321173
0.00212137880785
-0.0105188542318
0.00182760475403
-0.0109765782919
0.00155799975283
-0.0113551749146
0.00130460220905
-0.0116301332766
0.00100521543001
-0.0118593289863
0.000737443899796
-0.0121020524061
0.000521760159356
-0.0122102192167
0.000231367572919
-0.012307137845
0.000101659901318
-0.0126621458005
0.000186647739476
-0.013266976745
0.000493598246383
-0.013827409702
0.000602278177154
-0.0141591113072
0.000476929665862
-0.0145992919379
0.000438232993468
-0.014876701908
0.00015144628273
-0.0145541630445
-0.000362337801883
-0.0140405026455
-0.000787767055437
-0.0133695651
-0.0012851987301
-0.0126651580822
-0.00174152144651
-0.0121199548873
-0.00190811134652
-0.0115758919196
-0.00208268972555
-0.0112853559817
-0.00200486967624
-0.0110383993909
-0.00190932204722
-0.0102213185483
-0.00227520243242
-0.00951326629044
-0.00190446889867
-0.0109296592124
0.000492683675357
-0.0145985423953
0.00304039377005
-0.0192176301546
0.00445006321228
-0.0224458164518
0.00378112863286
-0.0226138504624
0.00157922394889
-0.021561518263
0.000336294716219
-0.0198324095389
-0.000464443984974
-0.0175917329318
-0.00103464646656
-0.0146974326034
-0.0013946373217
-0.0106306551897
-0.00141580567336
-0.00700389446973
-0.00193404880014
-0.00442138721929
-0.00273295639459
-0.00211849052175
-0.00312963481908
6.79194705915e-05
-0.00318074316279
0.00211594676997
-0.00304782814693
0.00391286975826
-0.00284761693946
0.0054352602101
-0.00258691673721
0.00673367173479
-0.00224862592339
0.00785939047341
-0.00186322418641
0.00871974700353
-0.00152458000856
0.00923883597031
-0.00124079183657
0.00945702219381
-0.000964195307156
0.00940418911388
-0.000713841024634
0.00908087018435
-0.000505437031333
0.00855589064614
-0.000297283360715
0.00791072733829
-6.79633843983e-05
0.00714677991936
0.000133752524246
0.0062205197672
0.000260869946631
0.00514778544728
0.000318832078221
0.00397465690167
0.000313652711787
0.0026778915177
0.000207829787332
0.000977217669063
2.28125546728e-06
-0.000625959978407
8.22534834575e-05
-0.00217200933097
0.000231783735838
-0.00355788651948
0.000326991080123
-0.00452959896567
0.000394016402645
-0.00532611558803
0.000278917286628
-0.00597023649671
6.67040964016e-05
-0.00646043977937
-0.000180796369211
-0.00681224948578
-0.000453845493453
-0.00695722112594
-0.000728777964872
-0.0066525682534
-0.00103022022855
-0.00551323562197
-0.00153518077788
-0.00417304551139
-0.00149015349399
-0.003266019362
-0.00114155860381
-0.00270567688434
-0.000889647097622
-0.00227777371959
-0.000775052540415
-0.00185407166482
-0.000670505377139
-0.0015907067322
-0.000379661336139
-0.00136539827386
-0.000318155329681
-0.00112721995168
-0.000377780192126
-0.00111466258724
-0.000385801043878
-0.000987273556934
-0.000695075172619
-0.000736331373336
-0.000919716882842
-0.000540025380052
-0.0010406622056
-0.000298265445874
-0.00122161315033
-0.00115083149705
-0.000673625788047
0.00336354193566
-0.00140070867982
0.00357796213183
-0.00212631965708
0.00355494290322
-0.00288985650906
0.00359482281404
-0.00362078914193
0.00357695619424
-0.0043396789715
0.00350699602334
-0.00508639640648
0.00347525350667
-0.00582199807321
0.00344155667589
-0.00649785630766
0.00333860128774
-0.00714396010943
0.00320994915614
-0.00775404259128
0.00305958663197
-0.00847243090848
0.00302909033652
-0.0091931020871
0.00308444594723
-0.00971676770733
0.002907515075
-0.0102495710113
0.00266933151403
-0.0107945092205
0.00238788709194
-0.0112623734844
0.00204088790717
-0.0117130132325
0.00176977036012
-0.0122304638083
0.00153683356165
-0.012653146744
0.00117415298511
-0.0127633064929
0.000645666682311
-0.012940548424
0.000422706386571
-0.0134160242389
0.000592223816169
-0.0142169780189
0.00100329213787
-0.0150129092428
0.00130535887698
-0.0156982290871
0.00130284459712
-0.0161485056047
0.000941181635466
-0.0159850431147
0.000288453132542
-0.0156448002788
-0.000177153430171
-0.0152137845008
-0.000783465738862
-0.0147865301908
-0.00120730151718
-0.0148315581848
-0.00123591353762
-0.0147329545521
-0.0018362528122
-0.0140998001979
-0.00253554834868
-0.013141006375
-0.00302961972328
-0.0118638596806
-0.00326505797025
-0.0121176404221
-0.00163423893092
-0.0150841913963
0.00071624651648
-0.0202019327481
0.00325203505195
-0.0234381865406
0.0037777303079
-0.0225885109783
0.00221822215504
-0.0192044760475
0.001084181735
-0.0148372100527
-0.00057870947169
-0.0106916732646
-0.00256153951612
-0.0063490030429
-0.00400904953932
-0.00183519243107
-0.00498263303422
0.00274415480838
-0.00562365554095
0.00734963235415
-0.00600931376819
0.0120816920377
-0.00615969815611
0.0164546447354
-0.00631945095257
0.0201741833773
-0.00646616807984
0.0234408352044
-0.00640953647406
0.0263778414548
-0.00613221426005
0.029009522944
-0.00569373037574
0.0313019826222
-0.00515544295397
0.0332427257335
-0.00454284667417
0.0348474076644
-0.0038696503654
0.0361312900797
-0.00316319649504
0.037057583443
-0.00246768037789
0.0375956502805
-0.00179523246518
0.037750443192
-0.0011358762569
0.0375261644239
-0.000505896062404
0.036933684332
7.02666086738e-05
0.0360190909193
0.000601054096227
0.0348403633962
0.00109404018094
0.0334260562893
0.0015318192373
0.031777444121
0.00189290647756
0.0299070448628
0.00217342884409
0.0278297272029
0.00237455070101
0.025528517565
0.00249287933428
0.0229577982366
0.00255588114144
0.0203478771092
0.00267546788187
0.017774186441
0.00278741381069
0.0152796020265
0.00280381892229
0.0129417733694
0.0027127557706
0.010709939527
0.00249174189948
0.0085726314025
0.00218397118639
0.00654260056863
0.00182930456725
0.00462247433426
0.00144553665879
0.00282640541517
0.00104696252172
0.00114299908654
0.000632243125219
-0.000614015600751
0.000201778756307
-0.00213925566194
1.37795502072e-05
-0.00322826269941
-7.32262689163e-05
-0.0038700207331
-0.000268450681002
-0.00401447463264
-0.000652479595334
-0.00343947216981
-0.00126320178041
-0.00246453374554
-0.00136721537891
-0.00172376279909
-0.00106856607364
-0.00121135254312
-0.000899195925838
-0.000979083956225
-0.000624023275638
-0.000929217026081
-0.000751880758863
-0.000726939323283
-0.00112991413433
-0.000456433436334
-0.00131861057606
-0.000249696435615
-0.00143576001933
-0.00140453501365
-0.000691106310085
0.00406821538437
-0.00143611791831
0.00433738060389
-0.00218504097478
0.00431847428881
-0.00295819239073
0.00438280447312
-0.00369748434062
0.00433111767288
-0.00447203251908
0.00429646606615
-0.0052280573706
0.00424634796824
-0.00593519360769
0.00416369952468
-0.00662758136942
0.00404587018278
-0.00729328114468
0.00389051489729
-0.00796071720211
0.00374198927967
-0.00873544617474
0.00381918211144
-0.0094025952211
0.00376733396829
-0.00996735472815
0.00348767822585
-0.0105681593602
0.00328594501647
-0.0111949419869
0.00303011105769
-0.0118945758133
0.00275578739885
-0.0125357873383
0.00242611256189
-0.0129496532288
0.0019652460331
-0.0132390339314
0.00147806915731
-0.0135675131325
0.000988824467928
-0.0140997780102
0.000970841061376
-0.015084985208
0.00159422344556
-0.0163483255821
0.00228407130021
-0.0171338957708
0.00210816982462
-0.0172421309117
0.00142652390943
-0.0170178717744
0.000732220061689
-0.0166808467863
-3.51861650023e-05
-0.016475246108
-0.000370652826039
-0.0168579256981
-0.000390728110544
-0.0170447718341
-0.00101436524098
-0.0163680791527
-0.00190689412185
-0.0154084120461
-0.0027873604128
-0.0145346041572
-0.00339558921529
-0.0143602035946
-0.003181801457
-0.0160116248164
-0.00158245083561
-0.0184415486268
0.000837994056678
-0.02088740172
0.003199356721
-0.0210946734498
0.00349784367887
-0.0175274529549
0.000235511652451
-0.0125475747155
-0.00275166597729
-0.00643595736902
-0.00502522202025
-7.46934366495e-05
-0.00694304630276
0.00597104331806
-0.00861259494423
0.0118120778107
-0.00985803491408
0.0175007791665
-0.0106808200683
0.0230196353569
-0.011154176447
0.0283444355653
-0.0113463712924
0.0334743651502
-0.0113030600898
0.0382541449811
-0.0111130454822
0.0425675139721
-0.0107935064773
0.0464489641699
-0.0103048048978
0.0499459092604
-0.00964316242916
0.0530744306759
-0.00883626889404
0.05582363781
-0.00791901424042
0.0581831934073
-0.00691688486936
0.0601501422239
-0.00585151697121
0.0617210781987
-0.00474911577882
0.062877872715
-0.00363970159004
0.0636049529241
-0.0025375052336
0.0638949023581
-0.00144106267536
0.0637424911115
-0.000368468291951
0.0631574651435
0.000640339586935
0.0621697234213
0.00157405685865
0.0608205859489
0.00242840821421
0.0591439286801
0.00319392415203
0.0571617198204
0.00386057103287
0.0548955582445
0.00442544147355
0.0523658169194
0.00489012093033
0.0495860208729
0.00525860624278
0.0465804832748
0.00554711348886
0.043455656406
0.00578585977502
0.0402764447931
0.00595151674597
0.03706487089
0.0059999559342
0.0338429799715
0.0059184176586
0.0306043618374
0.00571377927693
0.0273575168123
0.00541364904191
0.0241229255607
0.00504659133182
0.0209174652115
0.00463331015435
0.0177550238206
0.00419192021923
0.0146302788845
0.00373940208473
0.0115145062502
0.0032999475162
0.00857348490382
0.00293668975907
0.00591185688125
0.00257022597727
0.00352348460591
0.00210101064567
0.00136151038344
0.00149044269475
-0.000664780708702
0.000743815669875
-0.00213327330479
8.24151268886e-05
-0.0025777396025
-0.000642318673723
-0.00199752975072
-0.00149403429038
-0.00110770861665
-0.00152352915437
-0.000764964691256
-0.0011010822105
-0.000679672757897
-0.00122236102997
-0.000430000343185
-0.00157590450987
-0.000228273460039
-0.00164505395602
-0.0016368361352
-0.000705323699935
0.00478719232493
-0.00147303861952
0.00511960153498
-0.00224824950063
0.00510834830403
-0.00303098768147
0.00518048952648
-0.00383051957267
0.00514559084148
-0.00461528106148
0.00509632492438
-0.00532012103504
0.00496625859731
-0.00605474782371
0.00491337355867
-0.0067790798159
0.00478522733137
-0.00746844028768
0.00459488320079
-0.00827823748854
0.00456712128968
-0.00908003390299
0.00463692357976
-0.00973421887369
0.00443731424169
-0.0105483389066
0.00431790290762
-0.0113678434873
0.00412162450397
-0.0120410633353
0.00371931013271
-0.0126035386391
0.00333385707254
-0.0130602613243
0.00289783177801
-0.0134630427081
0.00238311709637
-0.0137868942656
0.00181678719683
-0.0144864301243
0.00170468252935
-0.0156827530686
0.00218459601323
-0.0170596150163
0.00298988398854
-0.0178571223704
0.00310021668163
-0.0180408594091
0.00230890438901
-0.0180522159167
0.00145438569435
-0.017988321424
0.000683620203343
-0.0185322095852
0.000522940954729
-0.0190715715424
0.000181005738386
-0.0187035595026
-0.000750844789783
-0.0179601489958
-0.00174860309616
-0.0171624807185
-0.00269484489655
-0.0168976244592
-0.00303531678332
-0.0168298366204
-0.0034388637099
-0.0183139476481
-0.00166487816739
-0.022402471277
0.0025579215617
-0.0244415582335
0.00292338166108
-0.0210648346235
-0.000146135020515
-0.014459513714
-0.00308958507157
-0.0075725448377
-0.00664464997217
-0.000610206734742
-0.00971498411617
0.00646520159389
-0.0121060956983
0.0134686573122
-0.0139541917067
0.0202042474418
-0.0153571660299
0.026660586542
-0.0163242278512
0.0328547360811
-0.0168857968401
0.0387852247064
-0.0170965316952
0.0444392324832
-0.0170129296821
0.0498036632486
-0.0166806926553
0.0548251027179
-0.0161480600251
0.0594584861917
-0.0154404765206
0.0637026431518
-0.0145625660649
0.067569879577
-0.0135239636291
0.0710643926287
-0.0123444188801
0.0741792138767
-0.0110475755842
0.0769035137987
-0.00965506824091
0.0792260874566
-0.00818815864981
0.0811337078635
-0.00667091459763
0.0826084139606
-0.00512869087099
0.0836345293622
-0.00357798937977
0.0842026096754
-0.00202345932793
0.0843005891083
-0.000480528502007
0.0839314482597
0.000995544924461
0.0831138180234
0.00237793687743
0.08187693379
0.00365164720292
0.0802511722987
0.00480621119115
0.0782638339084
0.00583453199835
0.0759416734679
0.00673444888738
0.0733112746639
0.00750748051207
0.0703993838697
0.00815751690226
0.0672413160855
0.00869215555916
0.0638944324181
0.009119548316
0.0604019934658
0.00943036945302
0.0567821225267
0.00960588080248
0.0530449082102
0.00964115450682
0.0491964963076
0.00954734743439
0.0452505844423
0.00934429939701
0.0412284709858
0.00905325321663
0.0371528798261
0.00869322043376
0.0330468123525
0.00828231665485
0.0289313612326
0.00783914659791
0.0248344612144
0.00738102311689
0.0208369303775
0.00691809789768
0.0169843815662
0.00640649637559
0.0132724214482
0.00579626458162
0.00968211939207
0.00506375937155
0.00621404054449
0.0041946326437
0.00308968383332
0.00318951469349
0.000526153935858
0.00190372043963
-0.00124106690869
0.000255341211176
-0.0014264919298
-0.00135276176978
-0.00073513306109
-0.00180191944197
-0.000521010086399
-0.0014429984854
-0.000363277625818
-0.00174123435068
-0.000186543976533
-0.00182916416484
-0.00182742009269
-0.000709439801542
0.00551032595984
-0.00150699887685
0.00593173509834
-0.00231636278911
0.00593244781215
-0.00307640637705
0.00595542185906
-0.00386736334952
0.00595146284595
-0.0046200100314
0.00586385215237
-0.00537680376173
0.00573800392756
-0.00618985415758
0.00574162393289
-0.00697159461173
0.00558216336734
-0.00777013699927
0.00540864329624
-0.0086219275164
0.00543489025115
-0.00935556147345
0.00538657601526
-0.0102385678928
0.00533668440892
-0.0111182940345
0.00521409170122
-0.0118144419743
0.00483402452364
-0.0124739415452
0.00439472716474
-0.0130596622215
0.00393494754562
-0.0135735679684
0.00342750347688
-0.0140323304536
0.00285717777942
-0.0145842078192
0.00238516950435
-0.0156706773451
0.00280812492036
-0.0172588452108
0.00379201570973
-0.0184184712896
0.00416947682099
-0.018741307518
0.0034418102857
-0.0188957614055
0.00248120616793
-0.019018380973
0.00159363367311
-0.0197530512668
0.00143446429361
-0.0203070537131
0.00109120513636
-0.0200626427327
-5.30773814221e-05
-0.0195176465715
-0.00128434812173
-0.0187003944498
-0.00255648750835
-0.0185049342092
-0.00287073369936
-0.0182416307414
-0.00327551248485
-0.0198932991153
-0.0017532709375
-0.0240468207418
0.00254022651039
-0.0243188342972
0.00287944623947
-0.0196911836081
-0.00167536522473
-0.013233853623
-0.00658850368293
-0.00553404310567
-0.0107847399733
0.00221493738003
-0.0143952875777
0.0098075321727
-0.0173132096872
0.0172339665124
-0.019540425822
0.0244415790725
-0.0211708033754
0.0313669574953
-0.0222922512263
0.0379936497059
-0.0229611258163
0.0443243043438
-0.0232272846593
0.0503592490257
-0.0231429877531
0.0560925712892
-0.0227583804052
0.0615153734094
-0.0221161258326
0.0666078098839
-0.0212535172313
0.071351820795
-0.0201976031732
0.0757420264245
-0.0189660107744
0.0797794260365
-0.0175745807336
0.0834627532866
-0.0160410619496
0.0867858420947
-0.0143840126626
0.0897384871443
-0.0126211945727
0.0923077055548
-0.0107709336931
0.0944772526998
-0.00885412399289
0.0962277856981
-0.00689293824542
0.097540636738
-0.00490469481421
0.0984074547884
-0.00290402578882
0.0988093158288
-0.000895933458851
0.0987354537976
0.00105608788447
0.0981946725567
0.00290556747898
0.0972066288806
0.00462672760523
0.095795456403
0.00620456625858
0.0939866110559
0.00763070872404
0.09180652986
0.008901996297
0.0892826181234
0.0100189844977
0.0864433635484
0.0109844024479
0.0833207565331
0.0118023892431
0.079951476901
0.0124763254239
0.0763653888878
0.013003714965
0.0725793273833
0.0133789121177
0.0686039095271
0.0136031830026
0.0644500636803
0.0136874909588
0.060132907541
0.0136474467616
0.0556723656317
0.013499581285
0.0510914809755
0.0132597131892
0.0464162521096
0.0129430687322
0.0416766035336
0.0125642426435
0.036909248269
0.0121337058429
0.0321615509059
0.0116509213204
0.0274610869241
0.0110919337298
0.022813838372
0.0104282295542
0.018225596383
0.00963649562879
0.0137257854662
0.00867872343696
0.00942223213869
0.00747715311301
0.00544515725308
0.00586455388879
0.00200559992896
0.0036785145871
-0.000377405352142
0.00101380173475
-0.000809826577244
-0.00138323420525
-0.000372352997128
-0.00188871209983
-0.000315366164818
-0.00180530485496
-0.000136108100523
-0.00201564824316
-0.0019672633639
-0.000704833655823
0.00622880834507
-0.00152625933381
0.00676781323201
-0.00234376776653
0.00676465624621
-0.00310650952162
0.00673289319756
-0.00393147406445
0.00679135751249
-0.0047409125653
0.00668823928614
-0.00554138923691
0.00655350897352
-0.00636404923171
0.00657967221502
-0.00716438851316
0.00639765097771
-0.00800248259039
0.00626231757593
-0.00887826853907
0.00632649157697
-0.00980152693172
0.00632628073223
-0.0107610342373
0.00631283802376
-0.0115289319774
0.00599848245258
-0.012253083142
0.00557436768215
-0.0129398211392
0.00509710716048
-0.0135647551498
0.00457581938787
-0.0141150005457
0.00399358594491
-0.0145516930635
0.00331025941993
-0.0153953098646
0.00324504146927
-0.0168774407307
0.00430936375031
-0.018411183131
0.00534593614648
-0.0192913069182
0.00506986179989
-0.0196718991472
0.0038416652416
-0.019986691264
0.00281365544206
-0.0209776771236
0.00260300594398
-0.0217045320595
0.00217802306371
-0.0214171849744
0.000817277027764
-0.0210333985988
-0.000423649312453
-0.0205459486349
-0.00176384197556
-0.0203236538835
-0.00276036063391
-0.0202489026321
-0.00292528733833
-0.0220835050104
-0.00140575183168
-0.0262745637673
0.00248794072624
-0.0261266266359
0.0024433526267
-0.0203356125932
-0.00288114709668
-0.0129798675491
-0.00901552530433
-0.00505939156392
-0.0145039054394
0.0030668517824
-0.0189120304445
0.0110738315752
-0.0224070394905
0.0188432776244
-0.0250894990004
0.026347191992
-0.0270525653009
0.0335641245373
-0.0283966341108
0.0404729173324
-0.0292105883529
0.0470664021712
-0.0295645807314
0.0533460455371
-0.029517488951
0.0593141540854
-0.029122211811
0.0649702085523
-0.0284261221637
0.070311486278
-0.0274695476268
0.0753317320197
-0.0262862995465
0.0800247801651
-0.0249033697066
0.0843877665386
-0.0233418918912
0.0884199902404
-0.0216197427024
0.0921195422988
-0.0197536516353
0.0954817873679
-0.0177593358257
0.0984987913712
-0.0156513685519
0.101159470376
-0.0134448418757
0.10344916432
-0.0111571056069
0.105350425872
-0.00880755005629
0.106846785066
-0.00641452183422
0.107924042493
-0.00399466777287
0.10856022125
-0.00154526143513
0.108735521664
0.000867849137856
0.108449581433
0.00317877587593
0.107712566964
0.00535120632417
0.106541097791
0.00736366547961
0.104955555028
0.00920402805477
0.102978753191
0.0108666896774
0.100635231771
0.0123505029478
0.0979505890999
0.013657072775
0.0949515140565
0.0147894956714
0.0916648094426
0.0157509693854