/*--------------------------------*- C++ -*----------------------------------*\
| =========                 |                                                 |
| \\      /  F ield         | OpenFOAM: The Open Source CFD Toolbox           |
|  \\    /   O peration     | Version:  v1906                                 |
|   \\  /    A nd           | Web:      www.OpenFOAM.com                      |
|    \\/     M anipulation  |                                                 |
\*---------------------------------------------------------------------------*/
FoamFile
{
    version     2.0;
    format      ascii;
    class       volScalarField;
    location    "316";
    object      pa;
}
// * * * * * * * * * * * * * * * * * * * * * * * * * * * * * * * * * * * * * //

dimensions      [0 2 -2 0 0 0 0];


internalField   nonuniform List<scalar> 
9216
(
920.887004957
920.580914411
919.947654317
918.981707147
917.688420131
916.073822055
914.145360395
911.911897144
909.383440364
906.571166008
903.487118124
900.14425669
896.556124601
892.736926947
888.701174788
884.463802762
880.03979845
875.444362394
870.692529611
865.799372495
860.779618517
855.647893674
850.418338748
845.104888604
839.720888196
834.279402015
828.792830965
823.273245723
817.732005697
812.180110435
806.627822228
801.085031139
795.560884241
790.064154698
784.602878813
779.184731021
773.816670737
768.505313854
763.256592271
758.076119179
752.968862757
747.939501607
742.992114261
738.130521472
733.357992773
728.677572991
724.091806843
719.603047386
715.213199165
710.924006959
706.736817702
702.6528483
698.672966112
694.797935252
691.02821523
687.364185573
683.805961942
680.353599502
677.006925771
673.765723513
670.629579476
667.598048007
664.670514866
661.846342969
659.124750435
656.504940045
653.98599078
651.566972552
649.246850465
647.024586374
644.899055147
642.869134421
640.933632112
639.091365601
637.341099735
635.68161646
634.111662497
632.630010288
631.235414519
629.926665033
628.702551355
627.561908079
626.503586515
625.52649289
624.629566116
623.811808832
623.072269868
622.410067066
621.824370782
621.314412081
620.879451125
620.518734601
620.231330769
620.014893751
619.872274514
619.819304196
921.19203137
920.88422226
920.249344377
919.279074363
917.979634299
916.357321247
914.419768377
912.175958907
909.63606399
906.811376124
903.714111839
900.357345325
896.754794605
892.920767799
888.869944548
884.617343709
880.178108291
875.567499852
870.800692076
865.892793777
860.858653497
855.712910182
850.46980904
845.143276981
839.746748747
834.293263257
828.795298694
823.264885747
817.713450633
812.151941631
806.590679679
801.039494156
795.507580223
790.003643822
784.53576584
779.111549445
773.737992097
768.421635592
763.168445032
757.983958535
752.873173465
747.840693874
742.890624055
738.026711958
733.252250042
728.57021316
723.983166603
719.493397148
715.10282806
710.813142265
706.625703978
702.54167318
698.56193347
694.687197307
690.917939666
687.25449379
683.696990227
680.245443146
676.899694418
673.659490804
670.524432824
667.494043385
664.567721277
661.744801974
659.02451568
656.406041148
653.888468246
651.470845669
649.152148004
646.931318168
644.807238936
642.77877083
640.844728011
639.003912236
637.255092932
635.597037679
634.028496204
632.54822773
631.154988539
629.847556381
628.624721213
627.485306753
626.428163927
625.452189558
624.556321982
623.739556723
623.00094363
622.33959923
621.754704769
621.245515805
620.811364807
620.451684379
620.166071266
619.954427021
619.819146103
619.766262201
921.826569067
921.514051793
920.873468176
919.894575545
918.583699222
916.947263882
914.993102341
912.730406266
910.169591332
907.322185353
904.200669119
900.818357686
897.189233043
893.327831272
889.249079177
884.968196919
880.500546663
875.861556515
871.066585732
866.130872242
861.069415793
855.896948514
850.627835074
845.276063722
839.855161166
834.37820078
828.857729699
823.305790896
817.73386038
812.152880473
806.573205646
801.004644535
795.456413268
789.93718501
784.455049482
779.017567519
773.631736588
768.304049116
763.04046294
757.846461841
752.727030269
747.686714848
742.729602806
737.859383273
733.079328857
728.392355739
723.801007859
719.307514878
714.913778405
710.621427039
706.431804114
702.346019117
698.364936425
694.489222606
690.719335733
687.055568219
683.498036385
680.046718733
676.701445633
673.461933117
670.327772672
667.298460885
664.373389491
661.551871318
658.833130838
656.216326976
653.700544488
651.284814206
648.968105553
646.749344783
644.627408905
642.601142383
640.669352637
638.830825572
637.08432273
635.428595865
633.862385706
632.384435697
630.993492218
629.6883175
628.467691069
627.330421759
626.275350103
625.301359311
624.4073783
623.592391527
622.855442506
622.195642748
621.612176628
621.104312199
620.671414414
620.312975069
620.028676397
619.818518357
619.683572596
619.623715929
922.80203537
922.484110742
921.834609489
920.842247742
919.513544913
917.855151579
915.875193522
913.58319245
910.989930847
908.107316121
904.948226704
901.526368806
897.856118731
893.952384914
889.830458828
885.505892402
880.994365613
876.311585251
871.473173325
866.494589343
861.391040245
856.17742525
850.868265419
845.477668092
840.019272863
834.506231934
828.951169201
823.36617327
817.762767088
812.151911205
806.543982165
800.948784332
795.37553592
789.832887144
784.328912395
778.87113466
773.466522844
768.121520115
762.842045427
757.633524857
752.500896385
747.44864318
742.480800853
737.600991746
732.812433961
728.117975805
723.520105906
719.020987013
714.622466549
710.326109035
706.133206442
702.044808584
698.061732707
694.184591323
690.413800593
686.749605224
683.192085354
679.741178364
676.396684156
673.15828392
670.025543907
666.997931406
664.074817262
661.255489474
658.539154844
655.924950703
653.411946133
650.999152357
648.685523978
646.469968524
644.351348089
642.32848844
640.40018133
638.565193463
636.822269624
635.170141653
633.607532423
632.133164851
630.745766635
629.444079229
628.22686317
627.092906872
626.041032325
625.070103542
624.179032429
623.366786812
622.632396505
621.974961307
621.39365824
620.887751709
620.456606138
620.099705152
619.816679449
619.607337334
619.471966123
619.407911271
924.122416747
923.797541897
923.135852028
922.125045959
920.771939173
919.083513943
917.068300965
914.736281514
912.098741065
909.168114708
905.957824508
902.482119197
898.755911212
894.794623827
890.614040799
886.230171382
881.659120758
876.91697884
872.019715288
866.98309381
861.822591688
856.553337848
851.19005394
845.747012239
840.237993925
834.676262378
829.074534603
823.444966342
817.799133784
812.148028216
806.50204629
800.870992998
795.26407958
789.689931886
784.156594522
778.671546165
773.241708231
767.873464123
762.572671758
757.344685959
752.194373828
747.126139323
742.143940655
737.251316214
732.451403231
727.746964278
723.140406488
718.633807862
714.228936334
709.927275172
705.730041209
701.638208665
697.65252592
693.773537211
690.001597461
686.336891452
682.779446396
679.329148402
675.98575272
672.748897527
669.618111978
666.592827574
663.672384365
660.856040312
658.142976117
655.532303111
653.02306725
650.614256082
648.304802442
646.093591002
643.979462118
641.961218369
640.037628878
638.207436119
636.46936089
634.822109507
633.264379472
631.794867053
630.412273554
629.115313177
627.90271972
626.773254545
625.725713488
624.758934745
623.871805817
623.063271206
622.332339401
621.678090605
621.09968428
620.596367801
620.167485702
619.812489536
619.530945095
619.322529489
619.187277006
619.122215551
925.794298383
925.460633152
924.783332935
923.748866761
922.36445484
920.637527541
918.577149223
916.193904114
913.499732749
910.507757426
907.232103679
903.687722609
899.890215819
895.855668998
891.600493984
887.141284488
882.494683524
877.677267001
872.705439857
867.595348575
862.362805014
857.023224949
851.591575224
846.082332949
840.509450196
834.886328188
829.225794547
823.540088397
817.840847171
812.139100507
806.445265149
800.769146936
795.119943324
789.506249718
783.93606862
778.416823484
772.955371595
767.558021846
762.230551269
756.978225844
751.805819675
746.717637934
741.717537873
736.808953122
731.994915813
727.278081497
722.660751653
718.144898478
713.732187053
709.423999265
705.221454904
701.125433997
697.136596183
693.255400843
689.482124212
685.816876879
682.259618301
678.810171457
675.468234689
672.233393566
669.105130216
666.082832705
663.165802248
660.353260597
657.644355679
655.038167599
652.53371332
650.129951915
647.825788885
645.620081219
643.511641864
641.499245036
639.581631184
637.757512842
636.02558028
634.384508003
632.832961121
631.369602458
629.993099544
628.702132186
627.495399887
626.371629666
625.32958367
624.368067012
623.485935359
622.682102623
621.955548414
621.305325543
620.730567357
620.230495007
619.804424143
619.451769531
619.172045419
618.964858279
618.830167209
618.765051793
927.826039007
927.481543158
926.784974995
925.72129111
924.298232559
922.523805763
920.407755046
917.961428939
915.19759375
912.130235197
908.774358264
905.145789431
901.260984793
897.13684879
892.790565208
888.239443617
883.500781493
878.591743792
873.529258974
868.32993193
863.009971692
857.585133283
852.070670894
846.481301271
840.831174575
835.133851972
829.402287953
823.64881746
817.885146606
812.122347632
806.370857153
800.640478934
794.940389773
789.279145511
783.664694237
778.104390408
772.605010665
767.17277199
761.813350914
756.531904535
751.333092137
746.221098237
741.199655873
736.272070974
731.441246623
726.709708054
722.079627191
717.552847526
713.130908171
708.815067854
704.606327698
700.505453562
696.512996809
692.629314323
688.854586655
685.188835229
681.631937485
678.183641047
674.84357579
671.611265022
668.486134694
665.467521951
662.554681962
659.746794397
657.042968543
654.442248397
651.943616796
649.545999842
647.248270737
645.049254177
642.947730472
640.942440382
639.032089918
637.215355912
635.49089169
633.857333481
632.313306968
630.857434467
629.488342224
628.204668179
627.005069768
625.888232023
624.85287559
623.897764891
623.021716086
622.223605037
621.502374967
620.857043994
620.28671218
619.790568061
619.367894012
619.018069411
618.740569911
618.534964385
618.401191789
618.336449251
930.227925722
929.87036113
929.150565268
928.051664988
926.582052399
924.75045647
922.567469788
920.045389618
917.198002048
914.040353812
910.588525221
906.85940793
902.870492525
898.639669793
894.185048333
889.524790709
884.676969092
879.659441307
874.489746625
869.185020945
863.761929092
858.236612735
852.624650524
846.94102858
841.200117924
835.415657825
829.600742706
823.767812987
817.928648625
812.09436655
806.275421137
800.481609263
794.722078183
789.005333218
783.339254027
777.731110518
772.187580672
766.714770588
761.318235394
756.003001862
750.773591509
745.634045043
740.587947012
735.638451463
730.788307527
726.039885641
721.39520338
716.855951503
712.423519258
708.099019416
703.883312203
699.777028474
695.780591441
691.894237209
688.118033621
684.451897573
680.895610553
677.448832479
674.111113829
670.881906109
667.760570821
664.746386993
661.838557556
659.036214616
656.338424002
653.744189121
651.25245452
648.862109164
646.571989811
644.380884454
642.287536145
640.290647149
638.388883648
636.580880909
634.865249058
633.240579345
631.705450972
630.258438338
628.89811874
627.623080364
626.431930567
625.323304295
624.295872624
623.348351251
622.479508953
621.688175816
620.973251263
620.333711645
619.768617352
619.277119099
618.858463098
618.511994048
618.237156114
618.033494297
617.900938374
617.83680926
933.012351923
932.6392489
931.891890522
930.751221369
929.226438617
927.327165813
925.065040984
922.453524366
919.507644696
916.243734306
912.679168629
908.832115045
904.721295751
900.365769095
895.784731493
890.997342261
886.022572077
880.87907574
875.585088632
870.158345641
864.616020377
858.974681456
853.250262528
847.458041946
841.612629117
835.727954499
829.817262262
823.89310457
817.967338367
812.051124613
806.154931911
800.288542601
794.461063464
788.680936065
782.955955866
777.293290242
771.699499044
766.180556395
760.741873917
755.38832475
750.12426865
744.953577659
739.879662579
734.90549979
730.033658606
725.266328645
720.605347399
716.052227434
711.60818334
707.274157884
703.0508474
698.938725933
694.938068109
691.048970386
687.271370582
683.605065568
680.049726948
676.604914888
673.270089847
670.044622665
666.927802667
663.918844516
661.016893402
658.221029454
655.530270958
652.943577305
650.459851251
648.077941384
645.79664438
643.614707817
641.530833181
639.543679639
637.65186825
635.853987027
634.148596539
632.534236303
631.009431721
629.572701641
628.222566366
626.957556101
625.776219664
624.677133438
623.658910386
622.720209099
621.859742693
621.076287549
620.368691663
619.735882621
619.176874889
618.690776339
618.276793654
617.934236258
617.662518531
617.461164377
617.330092531
617.266747501
936.194023737
935.802631869
935.022910644
933.833233445
932.243787379
930.26529769
927.910682673
925.194817543
922.134232905
918.746803987
915.051450234
911.067849593
906.816173175
902.316843613
897.59031961
892.65690821
887.536605704
882.248967594
876.813006831
871.247118942
865.56903075
859.795768998
853.943643341
848.028239073
842.064414247
836.06629853
830.047291399
824.020060436
817.996540043
811.987932727
806.004714948
800.056644836
794.15277512
788.301467925
782.510415982
776.786664107
771.136632152
765.566139492
760.080430105
754.684198782
749.381617736
744.176364193
739.071648265
734.070241627
729.174506256
724.386423679
719.707623968
715.139414796
710.682809839
706.338556664
702.107163498
697.988924828
693.983945427
690.092162598
686.313366487
682.647218175
679.09326566
675.650957435
672.319654029
669.098637223
665.987117538
662.984239746
660.089087121
657.300684251
654.617999168
652.039944648
649.56537942
647.193109139
644.921887775
642.750419255
640.677359878
638.70132132
636.820874586
635.034554702
633.340866376
631.738290388
630.225290829
628.800322947
627.461841654
626.208310427
625.038210644
623.95005108
622.942377599
622.01378275
621.162915335
620.388489634
619.689294356
619.064201002
618.512171666
618.032265957
617.623647057
617.285586265
617.017466886
616.818790381
616.689458529
616.627042582
939.790211734
939.37743247
938.559973188
937.31320019
935.648518647
933.578008909
931.116153244
928.279542175
925.086511916
921.556777956
917.711086555
913.570889668
909.158047269
904.494560669
899.602337777
894.502992009
889.21767529
883.766945778
878.170669688
872.447955279
866.617115459
860.695653162
854.700262882
848.646840378
842.550494476
836.425555763
830.285581138
824.143354445
818.010886516
811.899416654
805.819420562
799.780619781
793.791996791
787.861814964
781.997643244
776.206380854
770.494283688
764.86699115
759.329553807
753.88646132
748.541671159
743.298637682
738.160342007
733.129322172
728.207703921
723.39723152
718.69929887
714.114980212
709.64506066
705.290065739
701.050290114
696.925824686
692.916582164
689.022320449
685.242663852
681.577121796
678.025104921
674.585938676
671.258874173
668.043096852
664.937732604
661.941852265
659.054474052
656.274565089
653.601041529
651.032768519
648.568559496
646.207175969
643.947327317
641.787671546
639.726816584
637.763322784
635.895706267
634.122443514
632.441976891
630.852721274
629.353071538
627.941410897
626.616119915
625.375586074
624.218213772
623.142434562
622.146717554
621.229579791
620.389596476
619.62541095
618.935744216
618.319404
617.775293053
617.30241674
616.899889675
616.566941319
616.302920469
616.107302464
615.979966707
615.918617471
943.82106013
943.383363059
942.522076503
941.209071489
939.45725619
937.28038136
934.694840701
931.719300976
928.374263021
924.681627088
920.664288959
916.345769898
911.749884253
906.900445486
901.821011228
896.534667788
891.063854994
885.4302323
879.654586002
873.756776033
867.755717538
861.669390247
855.514865191
849.308338408
843.06516113
836.799860788
830.526150433
824.25693016
818.004284999
811.779485321
805.592994878
799.454483517
793.372843088
787.35621568
781.412021559
775.54698854
769.767181628
764.078033026
758.484371821
752.990454181
747.599993606
742.316192053
737.14177133
732.079005381
727.129752742
722.29548963
717.577342895
712.976123143
708.492357224
704.126320178
699.878065891
695.747456304
691.734188625
687.837820205
684.057790848
680.393442126
676.844033866
673.408757364
670.086745885
666.87708203
663.778802854
660.790902377
657.912332557
655.142002456
652.478776709
649.921473099
647.468860274
645.119655433
642.872522843
640.726073022
638.678863202
636.72939888
634.876136833
633.117489364
631.451829948
629.877500023
628.392816952
626.99608289
625.685594509
624.459653315
623.316576493
622.254707989
621.272429823
620.368173287
619.540430085
618.787763054
618.108816548
617.502326139
616.967127718
616.502165695
616.106500443
615.77931442
615.51991773
615.327755546
615.202679353
615.14253461
948.309971928
947.843284525
946.931192117
945.541518441
943.689038213
941.389570873
938.661851695
935.527061687
932.008291732
928.130027292
923.917680753
919.397173554
914.594566985
909.535740821
904.246117185
898.75043002
893.072540956
887.235303913
881.260479798
875.168700308
868.979476145
862.711239506
856.381407028
850.0064462
843.601930744
837.182574894
830.762246038
824.353961369
817.969879428
811.621295247
805.318647621
799.07153512
792.888734427
786.778238865
780.747291248
774.802418301
768.949464611
763.193625306
757.539478185
751.991015449
746.551675884
741.224377447
736.011550726
730.915172918
725.936802621
721.077614862
716.338436666
711.719782358
707.221888874
702.844750029
698.588149919
694.451694311
690.4348401
686.536921861
682.757175481
679.094758365
675.548766059
672.118245457
668.802204224
665.599617303
662.509429949
659.530558698
656.661889618
653.902275526
651.250531528
648.705430586
646.265698501
643.930009855
641.696984341
639.565184692
637.533115698
635.599225115
633.761906012
632.019500959
630.370307688
628.812586299
627.344567751
625.964463458
624.670475877
623.460809737
622.333683905
621.287343485
620.320072159
619.430204433
618.616137728
617.876344116
617.209381527
616.613904391
616.088673452
615.632564807
615.244577975
614.923842948
614.669626
614.481337561
614.358796446
614.299998132
953.284087749
952.783653322
951.812658472
950.334256581
948.365560849
945.924969863
943.034099533
939.717179014
936.000395206
931.911282149
927.478185039
922.729792997
917.694735215
912.401232992
906.876802996
901.148010286
895.240273477
889.177726753
882.983143085
876.677920406
870.28212572
863.814584948
857.292997238
850.734048901
844.153502221
837.566245059
830.98630033
824.426809445
817.900007817
811.41721026
804.988815523
798.624324895
792.332369445
786.120760512
779.996529203
773.965967718
768.034667431
762.20755453
756.488923604
750.88247097
745.391327973
740.018095403
734.764878513
729.633323294
724.624653199
719.739706864
714.978975977
710.342643674
705.830622514
701.442592062
697.178035085
693.036271999
689.016492769
685.117785658
681.339162493
677.679579742
674.137955687
670.713183009
667.404137628
664.209683232
661.128672748
658.159946336
655.302327402
652.554616348
649.915583601
647.383961749
644.958438167
642.637648037
640.420168835
638.304516172
636.289141702
634.372432901
632.552715077
630.828255325
629.197268494
627.657924862
626.208359382
624.84668221
623.570990311
622.379379862
621.269959276
620.240862536
619.290262745
618.41638555
617.61752242
616.892043414
616.238409508
615.655184101
615.141043821
614.6947883
614.315349098
614.001797262
613.753349946
613.569378122
613.449663174
613.392359581
958.774891076
958.235077303
957.195663708
955.614430669
953.511454796
950.90837909
947.83038132
944.305393471
940.363297792
936.035210341
931.352874804
926.348151963
921.052586623
915.497038188
909.711364051
903.724154284
897.562521825
891.25195786
884.816262931
878.277560132
871.656388162
864.971857996
858.24184328
851.483163613
844.71172119
837.942565397
831.189888091
824.466975719
817.786153962
811.158756894
804.595122361
798.104619271
791.695695987
785.375939602
779.152129008
773.030283733
767.015706546
761.113020751
755.326204622
749.658625021
744.113071779
738.691793303
733.396533633
728.22857061
723.188755216
718.277551603
713.495078132
708.841148592
704.315313962
699.916903274
695.645063795
691.498798708
687.477002388
683.578491666
679.802033074
676.146365241
672.610216217
669.192315995
665.891403679
662.706230645
659.635558866
656.678156531
653.832789997
651.0982146
648.473163385
645.956336243
643.546388655
641.241922159
639.04147585
636.943520498
634.946454643
633.048603616
631.248220914
629.543492274
627.932541979
626.413441275
624.984218614
623.642871295
622.38737843
621.215714635
620.125864554
619.115837543
618.183682695
617.327503602
616.545472959
615.835846618
615.196977009
614.627325823
614.125475689
613.690140955
613.320177274
613.014590043
612.772541272
612.593357704
612.476778496
612.421125767
964.818976088
964.233015121
963.113839295
961.413069676
959.154593254
956.364176888
953.071430345
949.30879051
945.110541519
940.511985521
935.548776852
930.256382029
924.669632534
918.822342321
912.746974034
906.474350766
900.033422575
893.451105884
886.752216691
879.959514548
873.093860148
866.174468587
859.219213495
852.244917194
845.267557151
838.302344522
831.363680778
824.46504722
817.618891957
810.836568833
804.12832837
797.503361863
790.969880497
784.535194275
778.205781422
771.987346347
765.884865507
759.902624723
754.04425203
748.312750559
742.710532963
737.239458482
731.900871706
726.695643301
721.624211564
716.686625525
711.882588729
707.211504393
702.672520772
698.264576763
693.986446221
689.836780273
685.814146328
681.917062699
678.144028325
674.493546443
670.964142694
667.554376629
664.262847919
661.088196475
658.02909835
655.084256871
652.252391189
649.532221947
646.922456233
644.421771748
642.028802069
639.742123014
637.560241542
635.481587115
633.50450639
631.627260997
629.848028694
628.164907532
626.575922846
625.079036694
623.672159328
622.353162377
621.119893289
619.97019078
618.901900916
617.912893559
617.001078959
616.164424134
615.400968983
614.708841706
614.086273625
613.531612946
613.043337647
612.620067081
612.260572526
611.963786215
611.728808905
611.554917694
611.441805006
611.387968749
971.459042708
970.81866739
969.60599366
967.765621506
965.326421187
962.319467256
958.779918541
954.745698205
950.256311576
945.351915627
940.072619389
934.457947185
928.546402413
922.375088232
915.979359178
909.392501576
902.645459549
895.766638687
888.781826969
881.714267557
874.584900535
867.412755409
860.215431076
853.009555797
845.811103677
838.635480645
831.49739565
824.4106273
817.387809235
810.440319522
803.578279843
796.810633272
790.145278528
783.589179835
777.148457259
770.828453639
764.633781263
758.568354744
752.635418882
746.837578409
741.176832132
735.654611267
730.2718207
725.028882122
719.92577847
714.96209955
710.137089434
705.449695146
700.89861717
696.482359847
692.199281735
688.047642947
684.025649438
680.131491514
676.363376596
672.719554839
669.198337388
665.798107689
662.517325054
659.354522645
656.308298543
653.377303257
650.560222179
647.855756791
645.262603308
642.779432355
640.404868662
638.137473718
635.975730601
633.918033004
631.962677727
630.107861705
628.351682762
626.692144347
625.127163477
623.654581549
622.272177551
620.977682945
619.76879819
618.643209963
617.598609391
616.632710254
615.743267605
614.92809585
614.18508662
613.512225795
612.907609719
612.369460394
611.896139401
611.486160694
611.138201879
610.851114095
610.623930003
610.455872074
610.346580547
610.294736595
978.745199898
978.040122463
976.717024361
974.712570241
972.062285989
968.804169998
964.980372453
960.635488943
955.815173364
950.565144994
944.930515654
938.95531194
932.682094507
926.15160524
919.402407615
912.470519412
905.389067652
898.188020075
890.894061391
883.53068208
876.118523842
868.675974487
861.219924709
853.766510699
846.331615272
838.930947527
831.579732296
824.292243147
817.081410027
809.958640276
802.933845602
796.015609134
789.211408209
782.527771796
775.970394499
769.54420981
763.253431351
757.101573418
751.091467332
745.225285417
739.5045746
733.93029721
728.502875404
723.222237711
718.087865859
713.098843389
708.25390586
703.5514943
698.98981066
694.566875273
690.280583727
686.128761585
682.109214634
678.219772688
674.458326144
670.822853474
667.311440547
663.922290219
660.65372433
657.504176948
654.472181672
651.556352361
648.755360367
646.067908115
643.492702022
641.028424928
638.67371063
636.427120753
634.28712589
632.252091056
630.320266489
628.489783508
626.758655471
625.124783311
623.585964954
622.139908106
620.784245476
619.516552108
618.334364009
617.235197902
616.216571516
615.276024212
614.411137595
613.619555756
612.899005023
612.247312751
611.662425235
611.142424237
610.685542338
610.290176653
609.954901185
609.678477464
609.459863055
609.298219467
609.193130299
609.143466694
986.73671731
985.953865705
984.499057661
982.300132885
979.401722586
975.850993375
971.698941319
966.998239451
961.801688707
956.16126443
950.127578134
943.749555014
937.074174693
930.146179673
923.007705146
915.697835304
908.252135573
900.702246421
893.075652924
885.395750837
877.682309373
869.952356512
862.221380229
854.504559897
846.817603247
839.176789492
831.598279738
824.097205814
816.68697861
809.379011158
802.182846032
795.106521617
788.156932895
781.340058693
774.661093356
768.124517465
761.734122357
755.493003319
749.403553801
743.467480548
737.685838723
732.059077686
726.587090963
721.269266731
716.104537227
711.091428964
706.228116124
701.512477923
696.94216119
692.514645292
688.227308844
684.077492724
680.062558961
676.179940668
672.427183307
668.801974997
665.302165801
661.925776859
658.670998077
655.536178028
652.519803805
649.620476183
646.83687769
644.167739379
641.611804441
639.167793838
636.834372824
634.61012235
632.493514627
630.482895458
628.57647252
626.772310737
625.068333563
623.462330059
621.951966487
620.534801569
619.208304643
617.969875548
616.816866307
615.746603244
614.756410227
613.843631523
613.005655126
612.239935116
611.544013696
610.915541946
610.352299476
609.85221266
609.413371188
609.034043168
608.712688278
608.447969156
608.238760595
608.084157944
607.983681714
607.93639895
995.50442115
994.626789253
993.012882763
990.581000895
987.388606271
983.49518209
978.962927602
973.85418221
968.229876038
962.148815577
955.667468248
948.839940387
941.717936181
934.350571602
926.783989752
919.060793199
911.219369095
903.293237056
895.310596851
887.294284309
879.262336948
871.229284314
863.208069495
855.212155462
847.257022847
839.360117152
831.539357324
823.811385792
816.190363311
808.687607231
801.311976538
794.070634501
786.969662955
780.014352781
773.209323884
766.558575839
760.065478517
753.732709992
747.562210649
741.555188236
735.712161931
730.03301913
724.517074657
719.163126834
713.969507627
708.934133254
704.054558569
699.328039401
694.751602087
690.322119895
686.036390947
681.891213861
677.883456546
674.010114635
670.26835845
666.655565876
663.169342925
659.807529823
656.568196081
653.449622935
650.450277365
647.568776951
644.803849941
642.154290653
639.618914363
637.196512314
634.885810461
632.685432636
630.593870835
628.609462919
626.730379046
624.954616376
623.28000167
621.704200684
620.224732799
618.838989915
617.544257862
616.337740018
615.216581864
614.177896567
613.218790827
612.336390945
611.527868638
610.790466217
610.121520946
609.51848803
608.978962298
608.500698046
608.081627248
607.719875658
607.41377711
607.161885866
606.962986007
606.816099301
606.720678844
606.675992553
1005.13406432
1004.13896064
1002.32976304
999.615044455
996.070997044
991.773866599
986.799939723
981.222863942
975.112474559
968.534688648
961.551901827
954.223477415
946.606049258
938.753494882
930.716522022
922.541901756
914.271459139
905.941001717
897.579447478
889.208486247
880.843159564
872.493676398
864.168495141
855.878040463
847.637602171
839.467072429
831.38770995
823.418807051
815.575641218
807.869114149
800.306747259
792.894254794
785.63659461
778.538230509
771.603152549
764.834885411
758.236427358
751.810078206
745.557321719
739.478827448
733.574524523
727.843680537
722.284976392
716.896569237
711.676139818
706.62093849
701.727839046
696.99340389
692.413964034
687.985708811
683.704781529
679.567369942
675.569789735
671.708552542
667.980419956
664.382440041
660.911967171
657.566666966
654.344504254
651.243720289
648.262795238
645.40040449
642.655364984
640.026580122
637.512980941
635.11347067
632.82687185
630.651881248
628.587032418
626.630669181
624.780929413
623.035740219
621.392822555
619.849704357
618.403739657
617.052131958
615.791960352
614.620206875
613.533785186
612.529569142
611.604422455
610.755227499
609.978914671
609.272490201
608.633063427
608.05787217
607.54430654
607.08993079
606.692502873
606.349992108
606.060594314
605.822744671
605.635128092
605.496687528
605.406801029
605.3649416
1015.7311653
1014.587513
1012.53374286
1009.46975807
1005.50034901
1000.72471917
995.236470564
989.121904347
982.459983928
975.323434187
967.780162213
959.894531301
951.728157678
943.340098456
934.786376919
926.118907895
917.383970787
908.620462248
899.858275745
891.117313425
882.407811031
873.732719702
865.092608673
856.492386113
847.947387163
839.482686835
831.125907877
822.900943735
814.824597542
806.906496787
799.151480252
791.56282232
784.144012357
776.898618676
769.829995427
762.941256743
756.235174189
749.713773519
743.37808735
737.228185301
731.263331397
725.482100567
719.882477649
714.461929003
709.217436191
704.145529334
699.242334868
694.50364338
689.925000681
685.501819493
681.229497173
677.103529439
673.119610714
669.273715435
665.562159875
661.981641425
658.529259383
655.2025143
651.999291554
648.917826824
645.956659552
643.114573684
640.390531669
637.783602504
635.292889455
632.917458972
630.656275853
628.508146196
626.47167213
624.545219203
622.726898446
621.014562351
619.405813493
617.898023219
616.488356985
615.173804192
613.951209499
612.817305386
611.768744424
610.802132148
609.914059741
609.101136976