/*--------------------------------*- C++ -*----------------------------------*\
| =========                 |                                                 |
| \\      /  F ield         | OpenFOAM: The Open Source CFD Toolbox           |
|  \\    /   O peration     | Version:  v1906                                 |
|   \\  /    A nd           | Web:      www.OpenFOAM.com                      |
|    \\/     M anipulation  |                                                 |
\*---------------------------------------------------------------------------*/
FoamFile
{
    version     2.0;
    format      ascii;
    class       volVectorField;
    location    "466";
    object      U;
}
// * * * * * * * * * * * * * * * * * * * * * * * * * * * * * * * * * * * * * //

dimensions      [0 1 -1 0 0 0 0];


internalField   nonuniform List<vector> 
9216
(
(0.00155814190824 -0.00155941170362 0)
(0.00159786916727 -0.0048596434843 6.54503894905e-28)
(0.00158645622383 -0.00816772680934 1.08195910818e-31)
(0.00156321278913 -0.0114555126935 0)
(0.00153197197723 -0.0146843975914 0)
(0.00149352426095 -0.0178403282036 0)
(0.00144873740512 -0.0209091945866 0)
(0.00139838801985 -0.0238786112771 0)
(0.00134328893914 -0.0267378230652 0)
(0.00128420967614 -0.0294777397489 0)
(0.00122193876927 -0.0320908912351 0)
(0.00115718127208 -0.0345713795024 0)
(0.00109063303884 -0.036914763679 0)
(0.00102287616931 -0.0391179450499 0)
(0.000954469375966 -0.0411790103871 0)
(0.000885845263823 -0.0430970844319 0)
(0.000817412883886 -0.0448721659069 0)
(0.000749457435157 -0.0465049769911 0)
(0.000682249134332 -0.0479968171263 0)
(0.00061594577939 -0.0493494276624 0)
(0.000550701989885 -0.0505648766737 0)
(0.00048657588334 -0.0516454461403 0)
(0.00042363332392 -0.0525935519195 0)
(0.000361861219669 -0.0534116536277 0)
(0.000301262093839 -0.0541022084764 0)
(0.000241777547295 -0.054667600684 0)
(0.000183369010623 -0.055110126172 0)
(0.000125955701405 -0.055431937893 0)
(6.94776700382e-05 -0.0556350590709 0)
(1.38534042536e-05 -0.0557213403179 0)
(-4.09820828957e-05 -0.0556925094131 0)
(-9.50951083232e-05 -0.0555501203992 0)
(-0.00014853460725 -0.0552956376689 0)
(-0.000201325627141 -0.0549304182849 0)
(-0.00025348577809 -0.0544558035691 0)
(-0.000304983371634 -0.0538731148848 0)
(-0.000355789468387 -0.0531837708209 0)
(-0.000405800540191 -0.052389290357 0)
(-0.000454931818806 -0.0514914274228 0)
(-0.000503001129515 -0.0504921735431 0)
(-0.00054986828421 -0.0493938994463 0)
(-0.000595276171845 -0.048199346966 0)
(-0.000639039087786 -0.0469117665767 0)
(-0.00068083607017 -0.0455348903829 0)
(-0.000720449410073 -0.0440730617305 0)
(-0.000757503431359 -0.0425311921159 0)
(-0.000791753028348 -0.0409148913239 0)
(-0.000822762455492 -0.0392304237395 0)
(-0.000850247161471 -0.0374848574331 0)
(-0.000873692925821 -0.035686037304 0)
(-0.00089276137461 -0.0338427539268 0)
(-0.000906861058883 -0.0319647176837 0)
(-0.000915632821114 -0.0300626930472 0)
(-0.000918488090642 -0.0281483982319 0)
(-0.000915175810172 -0.0262344899065 0)
(-0.000905286925572 -0.0243342932374 0)
(-0.000888868834867 -0.0224615567548 0)
(-0.000865876793002 -0.0206300179381 0)
(-0.000836792415701 -0.018852973187 0)
(-0.000802027918649 -0.0171427868497 0)
(-0.000762509160078 -0.0155103981008 0)
(-0.000719027898577 -0.0139649467814 0)
(-0.000672736223888 -0.0125134810283 0)
(-0.000624500856779 -0.0111609456937 0)
(-0.000575408210043 -0.00991020483333 0)
(-0.000526211468218 -0.00876223125951 0)
(-0.000477833061631 -0.00771622329622 0)
(-0.000430844814245 -0.00676984901051 0)
(-0.000385935935848 -0.0059194361305 0)
(-0.000343433957879 -0.00516028255284 0)
(-0.000303768542314 -0.00448687403401 0)
(-0.00026704916164 -0.00389316549834 0)
(-0.000233509875987 -0.00337272714774 0)
(-0.000203104036457 -0.00291895817479 0)
(-0.000175897928371 -0.00252520984864 0)
(-0.000151687641363 -0.00218500640288 0)
(-0.000130380869018 -0.0018921636643 0)
(-0.000111666116014 -0.00164095282364 0)
(-9.53761594774e-05 -0.00142612672797 0)
(-8.11734541619e-05 -0.00124298834023 0)
(-6.88641627045e-05 -0.00108736747917 0)
(-5.80654434676e-05 -0.000955681741443 0)
(-4.83455621238e-05 -0.000845353576549 0)
(-3.84687503266e-05 -0.000750930965098 0)
(-3.12885368334e-05 -0.000674809849099 0)
(-2.92915173173e-05 -0.000620287315413 0)
(-2.68384165844e-05 -0.000559682420087 0)
(-2.310322881e-05 -0.000510276354285 0)
(-2.31876174762e-05 -0.000468721285955 0)
(-2.51478309656e-05 -0.000420735051638 0)
(-2.53547424688e-05 -0.000372507367782 0)
(-2.59762230126e-05 -0.00032075080688 0)
(-2.97791229713e-05 -0.000264027504859 0)
(-3.41417480946e-05 -0.00020153465315 0)
(-3.87998318187e-05 -0.000125198809324 0)
(-4.15719052891e-05 -4.03866072798e-05 0)
(0.00487215468604 -0.00161565237959 0)
(0.0051330377052 -0.00517231318374 0)
(0.00509352776965 -0.00869756529781 -6.7300521654e-28)
(0.00501724288799 -0.0122035528221 0)
(0.00491579039906 -0.0156433866458 0)
(0.00479169348003 -0.0190038577545 0)
(0.0046473577925 -0.0222702727018 0)
(0.00448522977173 -0.0254295416131 0)
(0.00430787597925 -0.0284702698837 0)
(0.00411781076247 -0.0313828462766 0)
(0.00391754082986 -0.0341594199444 0)
(0.00370937969552 -0.0367938373984 0)
(0.0034955270195 -0.0392815221904 0)
(0.00327789754332 -0.0416193364178 0)
(0.00305824042061 -0.0438054120117 0)
(0.00283798624001 -0.0458389818674 0)
(0.00261839698486 -0.0477202028048 0)
(0.0024004271816 -0.0494499897213 0)
(0.00218489066931 -0.0510298570418 0)
(0.00197233121278 -0.052461775253 0)
(0.0017631927261 -0.0537480439713 0)
(0.00155769724071 -0.0548911780219 0)
(0.0013560077287 -0.0558938152079 0)
(0.00115811484962 -0.05675863137 0)
(0.00096398424174 -0.0574882803811 0)
(0.000773456526071 -0.0580853342132 0)
(0.000586372939993 -0.0585522511617 0)
(0.000402495152566 -0.058891336828 0)
(0.000221604112474 -0.0591047371262 0)
(4.34474865967e-05 -0.0591944186609 0)
(-0.000132195725514 -0.059162178235 0)
(-0.000305532658898 -0.0590096589285 0)
(-0.00047672466636 -0.058738376769 0)
(-0.000645866634126 -0.0583497372518 0)
(-0.000813003572242 -0.0578451021039 0)
(-0.000978061611062 -0.0572258223336 0)
(-0.00114091828449 -0.0564933254941 0)
(-0.00130128451752 -0.0556491621332 0)
(-0.00145883841443 -0.0546951081418 0)
(-0.001613055351 -0.0536332154456 0)
(-0.0017634134074 -0.0524659179186 0)
(-0.00190916643176 -0.0511960734857 0)
(-0.00204962448702 -0.0498270606498 0)
(-0.00218385975968 -0.0483628015424 0)
(-0.00231105900911 -0.0468078431043 0)
(-0.00243014640834 -0.0451673626082 0)
(-0.00254020117362 -0.0434472439353 0)
(-0.00263998384522 -0.0416540856119 0)
(-0.00272842192391 -0.0397952979428 0)
(-0.00280404555157 -0.0378791397023 0)
(-0.0028655708978 -0.0359148489589 0)
(-0.00291128668924 -0.033912697817 0)
(-0.00293979052718 -0.0318841031288 0)
(-0.00294937948174 -0.0298416039851 0)
(-0.00293895775962 -0.0277988126307 0)
(-0.00290741615244 -0.0257701759699 0)
(-0.00285461260093 -0.0237706618906 0)
(-0.00278064290243 -0.0218153005025 0)
(-0.00268678256387 -0.0199186795352 0)
(-0.00257463723469 -0.0180943839469 0)
(-0.00244697143965 -0.016354417806 0)
(-0.0023066628609 -0.0147087127502 0)
(-0.00215723326952 -0.0131648199638 0)
(-0.00200175160429 -0.0117279092759 0)
(-0.00184348761583 -0.0104008921124 0)
(-0.00168509776414 -0.00918462118878 0)
(-0.00152933249789 -0.00807805036028 0)
(-0.00137825270664 -0.00707845733062 0)
(-0.00123386326646 -0.00618168806615 0)
(-0.00109740685835 -0.00538248122287 0)
(-0.00097004861367 -0.00467475835743 0)
(-0.000852310976451 -0.00405190172244 0)
(-0.000744756388715 -0.00350692668342 0)
(-0.000647412488038 -0.0030326547138 0)
(-0.000560321822636 -0.00262186748177 0)
(-0.000482980382135 -0.00226752933887 0)
(-0.00041491311297 -0.00196296817967 0)
(-0.000355249917047 -0.00170203019577 0)
(-0.000303298667064 -0.00147912412695 0)
(-0.000258123113204 -0.0012892416708 0)
(-0.000219016170214 -0.00112790914185 0)
(-0.000185034863954 -0.000991123743216 0)
(-0.000155321197215 -0.000875186501955 0)
(-0.000128067789195 -0.000776192118599 0)
(-0.000105931070811 -0.000682240707953 0)
(-9.42575041881e-05 -0.000609908916344 0)
(-8.09653832666e-05 -0.000546201769225 0)
(-6.96133843653e-05 -0.000498808566457 0)
(-6.81019874867e-05 -0.000450192565529 0)
(-7.2836816894e-05 -0.000411485681652 0)
(-7.5619848361e-05 -0.000370407722351 0)
(-8.02156005859e-05 -0.000316212040927 0)
(-8.88342582539e-05 -0.000258224038749 0)
(-0.000110243338253 -0.000205682276703 0)
(-0.000135157499199 -0.00013219874576 0)
(-0.000122080791422 -3.64702437466e-05 0)
(0.00824542962285 -0.0016369537335 0)
(0.00869136583816 -0.00523759799914 0)
(0.0086169843938 -0.00879968477789 -6.72059439319e-28)
(0.00848465675782 -0.0123449872168 0)
(0.00831078520392 -0.0158219602911 0)
(0.00809892294583 -0.0192167357865 0)
(0.00785288469145 -0.0225141723776 0)
(0.00757681707282 -0.0257009485045 0)
(0.00727506968481 -0.0287655737887 0)
(0.00695198906872 -0.0316984544314 0)
(0.0066118295747 -0.034491858945 0)
(0.00625858640113 -0.0371398321785 0)
(0.00589596405298 -0.0396380587535 0)
(0.00552725794831 -0.0419837007412 0)
(0.00515538079821 -0.0441752130511 0)
(0.00478278820425 -0.0462121560449 0)
(0.00441154924764 -0.0480950070516 0)
(0.00404330197386 -0.0498249837761 0)
(0.00367934927316 -0.0514038792911 0)
(0.00332062944931 -0.0528339150834 0)
(0.00296782057287 -0.0541176110119 0)
(0.00262131578274 -0.0552576732968 0)
(0.0022813245369 -0.0562569002782 0)
(0.00194784817932 -0.0571181027972 0)
(0.00162077180076 -0.0578440413169 0)
(0.0012998404905 -0.0584373733034 0)
(0.000984739288579 -0.0589006164359 0)
(0.000675073673615 -0.0592361181436 0)
(0.000370437025116 -0.0594460411569 0)
(7.03998803584e-05 -0.0595323525966 0)
(-0.000225433960356 -0.059496832005 0)
(-0.000517424986189 -0.0593410768287 0)
(-0.000805858112415 -0.059066533695 0)
(-0.00109092241027 -0.058674527604 0)
(-0.00137268854218 -0.0581663135798 0)
(-0.00165107310124 -0.0575431272346 0)
(-0.00192584140305 -0.056806259006 0)
(-0.00219655835636 -0.0559571223094 0)
(-0.0024626251822 -0.0549973433083 0)
(-0.00272322049568 -0.0539288366858 0)
(-0.00297737814461 -0.0527538977518 0)
(-0.00322391793203 -0.0514752701499 0)
(-0.00346156432982 -0.0500962235138 0)
(-0.00368885618839 -0.0486205980089 0)
(-0.00390429382546 -0.0470528576571 0)
(-0.00410620516825 -0.045398110871 0)
(-0.00429290045161 -0.0436621508927 0)
(-0.00446247279808 -0.0418514784511 0)
(-0.00461295417613 -0.0399733684319 0)
(-0.00474206180188 -0.0380359401716 0)
(-0.00484740151565 -0.0360482869004 0)
(-0.00492623919478 -0.0340206023467 0)
(-0.00497586008115 -0.0319643270973 0)
(-0.00499347547312 -0.0298922143559 0)
(-0.00497679934916 -0.0278183024421 0)
(-0.00492405811747 -0.0257577012492 0)
(-0.00483461063928 -0.0237262229772 0)
(-0.00470881292896 -0.0217398813801 0)
(-0.00454851639144 -0.0198143148021 0)
(-0.00435676559607 -0.0179641499519 0)
(-0.00413814964179 -0.0162022820391 0)
(-0.00389810002891 -0.0145391769613 0)
(-0.00364257697002 -0.0129825106731 0)
(-0.00337716798 -0.0115372787618 0)
(-0.00310720490594 -0.0102061061569 0)
(-0.00283745558553 -0.00898950163457 0)
(-0.00257238987818 -0.00788601439151 0)
(-0.00231577097984 -0.0068924183651 0)
(-0.00207078744365 -0.00600399262045 0)
(-0.00183971596015 -0.00521490087714 0)
(-0.00162424630688 -0.00451856489748 0)
(-0.00142538942937 -0.0039079598191 0)
(-0.00124387766347 -0.00337576042981 0)
(-0.00107995633462 -0.00291443385651 0)
(-0.000933524618298 -0.00251638484267 0)
(-0.000803857718281 -0.00217421566416 0)
(-0.000689904506001 -0.00188099097005 0)
(-0.000590270999469 -0.001630408457 0)
(-0.000503585270736 -0.0014168292849 0)
(-0.000428402229994 -0.00123524988523 0)
(-0.000363441193236 -0.00108123415501 0)
(-0.000307442215388 -0.000950823942904 0)
(-0.000259368043941 -0.000840376965258 0)
(-0.000218349373214 -0.000746977879773 0)
(-0.000184920142269 -0.000657234448764 0)
(-0.000162304967026 -0.000590810683597 0)
(-0.000142158454927 -0.000540354287606 0)
(-0.000121528963852 -0.000474200532887 0)
(-0.00010949823499 -0.000417657572405 0)
(-0.000113064562233 -0.00038395709008 0)
(-0.00012948311969 -0.000357080768003 0)
(-0.000133345540283 -0.000286118745637 0)
(-0.000152615670862 -0.000236960176517 0)
(-0.000179045385689 -0.000173680905795 0)
(-0.00020197065991 -0.000104922837122 0)
(-0.000196606533704 -3.25787977177e-05 0)
(0.0116840780474 -0.00166333275964 0)
(0.0123208719493 -0.00532020221596 0)
(0.0122135518912 -0.00893496366566 6.71970593182e-28)
(0.0120231127379 -0.0125317188884 0)
(0.0117731924443 -0.0160566980695 0)
(0.0114690918569 -0.0194952415563 0)
(0.0111163691212 -0.02283161471 0)
(0.010721080363 -0.0260521567394 0)
(0.0102895447273 -0.0291452525439 0)
(0.00982808617816 -0.032101369094 0)
(0.00934284454915 -0.0349129930007 0)
(0.00883958821092 -0.0375745097273 0)
(0.00832360991025 -0.0400820345213 0)
(0.00779962175219 -0.0424332157202 0)
(0.00727173371547 -0.0446270217844 0)
(0.00674341847004 -0.0466635278887 0)
(0.00621755099863 -0.0485437087138 0)
(0.00569641814731 -0.0502692469815 0)
(0.0051817920073 -0.0518423595735 0)
(0.00467495943378 -0.0532656453094 0)
(0.0041768064681 -0.0545419530803 0)
(0.00368785052454 -0.0556742708074 0)
(0.00320832180261 -0.0566656328012 0)
(0.00273818977968 -0.057519044045 0)
(0.00227723569043 -0.0582374194105 0)
(0.00182507200418 -0.0588235355201 0)
(0.0013812056407 -0.0592799946834 0)
(0.000945053426336 -0.0596091983026 0)
(0.000515998566078 -0.0598133310934 0)
(9.34066708883e-05 -0.0598943526991 0)
(-0.000323321130075 -0.0598540042992 0)
(-0.000734727585969 -0.0596938134796 0)
(-0.0011412493786 -0.0594151246426 0)
(-0.00154319016532 -0.0590191315116 0)
(-0.00194067562017 -0.0585069258221 0)
(-0.00233362368278 -0.0578795557168 0)
(-0.00272171227428 -0.057138099696 0)
(-0.00310435420167 -0.0562837470593 0)
(-0.00348068830293 -0.0553178906638 0)
(-0.00384956830457 -0.0542422187887 0)
(-0.00420958690457 -0.0530588109135 0)
(-0.00455908226524 -0.0517702207126 0)
(-0.00489619386595 -0.0503795518037 0)
(-0.00521887448484 -0.0488905091342 0)
(-0.00552495649228 -0.047307436835 0)
(-0.0058121354508 -0.0456353312571 0)
(-0.00607800762979 -0.043879851955 0)
(-0.00631998530026 -0.0420473308579 0)
(-0.00653528157939 -0.040144815562 0)
(-0.00672076423351 -0.0381801533156 0)
(-0.00687294845909 -0.0361621472692 0)
(-0.00698791473941 -0.0341007670151 0)
(-0.00706149817553 -0.0320073949707 0)
(-0.00708948249963 -0.0298950208403 0)
(-0.00706814080021 -0.0277782957368 0)
(-0.00699467549453 -0.0256733364038 0)
(-0.00686781399064 -0.0235972662307 0)
(-0.00668795113136 -0.0215676336614 0)
(-0.00645755231509 -0.0196017400774 0)
(-0.00618107625941 -0.0177159313427 0)
(-0.00586537368372 -0.015924619075 0)
(-0.0055189672269 -0.0142391230475 0)
(-0.00515086161037 -0.0126671635504 0)
(-0.00476933426913 -0.0112132909932 0)
(-0.00438190115492 -0.00987960226058 0)
(-0.00399544463977 -0.0086660896193 0)
(-0.00361634503948 -0.00757070065923 0)
(-0.00325015585521 -0.00658942728133 0)
(-0.00290137307309 -0.00571662207988 0)
(-0.0025732061035 -0.00494551611538 0)
(-0.00226778181198 -0.00426875494134 0)
(-0.0019864150329 -0.00367875205164 0)
(-0.00173002154412 -0.0031677451785 0)
(-0.00149908298909 -0.00272771022301 0)
(-0.00129344440835 -0.00235044625805 0)
(-0.00111203866662 -0.0020279551526 0)
(-0.000953109301017 -0.00175288404185 0)
(-0.000814533870605 -0.00151874759125 0)
(-0.000694194168111 -0.00131989365111 0)
(-0.000590036394375 -0.0011513963895 0)
(-0.000500196951822 -0.00100895946866 0)
(-0.000423009873405 -0.000888816455133 0)
(-0.000357138587929 -0.000787643409173 0)
(-0.000302160257008 -0.00070278305527 0)
(-0.000254266475385 -0.000616390419041 0)
(-0.000225666173651 -0.000565105351236 0)
(-0.000198946669792 -0.000506676312645 0)
(-0.000174452019984 -0.000442876909735 0)
(-0.000163728614217 -0.000400063062481 0)
(-0.000156753904734 -0.000343330090546 0)
(-0.000167573968713 -0.000296097571382 0)
(-0.000197819207898 -0.00026374953731 0)
(-0.00020821013707 -0.000192538207027 0)
(-0.00023598785404 -0.00013521814896 0)
(-0.000264102264414 -8.26229768262e-05 0)
(-0.000263318241089 -2.72156052349e-05 0)
(0.0151848848535 -0.0016986489142 0)
(0.0160123640672 -0.00543180448176 0)
(0.0158698681926 -0.00911967919296 0)
(0.0156177490982 -0.0127866548717 0)
(0.0152871590666 -0.0163768378459 0)
(0.0148853972205 -0.0198745760655 0)
(0.0144200525658 -0.0232633744896 0)
(0.0138993520082 -0.0265291318622 0)
(0.0133318273566 -0.0296600888169 0)
(0.0127259803072 -0.0326468303342 0)
(0.0120900070865 -0.0354821801094 0)
(0.0114315679326 -0.0381610297539 0)
(0.0107576319253 -0.0406801199249 0)
(0.0100743666592 -0.0430377953018 0)
(0.00938709694933 -0.0452337501465 0)
(0.00870029210228 -0.0472687797857 0)
(0.00801760484829 -0.0491445473984 0)
(0.00734191766939 -0.0508633736404 0)
(0.00667542276534 -0.0524280516732 0)
(0.00601969177401 -0.0538416891491 0)
(0.00537576624904 -0.0551075755061 0)
(0.00474422712717 -0.05622907295 0)
(0.00412527838224 -0.0572095279118 0)
(0.00351880543897 -0.0580522003488 0)
(0.00292444606647 -0.058760207885 0)
(0.00234163643099 -0.059336482446 0)
(0.00176967069022 -0.0597837374947 0)
(0.00120773885838 -0.0601044443045 0)
(0.00065498021015 -0.0603008169319 0)
(0.000110519114619 -0.0603748042819 0)
(-0.000426482122788 -0.06032809646 0)
(-0.000956783904927 -0.0601621269859 0)
(-0.00148101423736 -0.0598781036008 0)
(-0.00199962477292 -0.0594770403614 0)
(-0.0025128349951 -0.0589598066486 0)
(-0.00302058854619 -0.0583271903972 0)
(-0.0035225060584 -0.0575799769918 0)
(-0.00401785365316 -0.0567190408512 0)
(-0.00450551966545 -0.0557454491581 0)
(-0.00498401107044 -0.0546605705681 0)
(-0.00545146914776 -0.0534661849625 0)
(-0.00590570352968 -0.0521645829199 0)
(-0.0063442480755 -0.050758648876 0)
(-0.00676441952728 -0.0492519160952 0)
(-0.00716338365167 -0.0476485916333 0)
(-0.00753818890555 -0.0459535480746 0)
(-0.00788577770866 -0.0441722956931 0)
(-0.00820292321592 -0.0423109524136 0)
(-0.0084861272798 -0.0403762490261 0)
(-0.00873144440784 -0.0383756073819 0)
(-0.00893432969971 -0.0363173339355 0)
(-0.00908952823283 -0.0342109428544 0)
(-0.00919118000029 -0.0320675785885 0)
(-0.00923317447581 -0.0299004329652 0)
(-0.00920986237963 -0.0277249637094 0)
(-0.00911692606647 -0.0255587357648 0)
(-0.00895220780457 -0.0234207545663 0)
(-0.00871585149377 -0.0213307726231 0)
(-0.00841088920218 -0.019308492954 0)
(-0.00804302162546 -0.0173729282898 0)
(-0.00762199294534 -0.0155410384485 0)
(-0.0071605241533 -0.0138254438537 0)
(-0.00667167563312 -0.0122335756246 0)
(-0.00616657685924 -0.0107689407653 0)
(-0.00565483271298 -0.00943276925246 0)
(-0.00514539803028 -0.00822443423367 0)
(-0.00464681319728 -0.00714115597892 0)
(-0.00416665983542 -0.00617782395065 0)
(-0.00371090665435 -0.00532737292893 0)
(-0.00328354524419 -0.00458159725793 0)
(-0.00288686318124 -0.00393202384071 0)
(-0.00252215136421 -0.00337041640141 0)
(-0.00219048217094 -0.00288861618741 0)
(-0.00189276203276 -0.00247801920751 0)
(-0.00162897680508 -0.00212948104697 0)
(-0.00139756627001 -0.00183400210897 0)
(-0.00119575310066 -0.00158359139464 0)
(-0.00102036937123 -0.00137158453605 0)
(-0.000868432363866 -0.00119241104365 0)
(-0.000737181863604 -0.00104132169357 0)
(-0.000624120044107 -0.000914267949716 0)
(-0.000527039136995 -0.000807817635928 0)
(-0.000444033530639 -0.000719551396904 0)
(-0.000374392483771 -0.000643701103642 0)
(-0.000320956814649 -0.00057761914937 0)
(-0.000288333307573 -0.000530734306667 0)
(-0.000262789080519 -0.000477050542465 0)
(-0.000235398658871 -0.000417022781887 0)
(-0.000209689325123 -0.00034783091714 0)
(-0.000207746321127 -0.000303558749829 0)
(-0.000210489510257 -0.000246908309189 0)
(-0.000242462866707 -0.000213084114774 0)
(-0.00027892185618 -0.000168885671856 0)
(-0.000288448388023 -0.000108052872852 0)
(-0.000304944901851 -6.32257809039e-05 0)
(-0.000304149557731 -2.10638109065e-05 0)
(0.0187692106233 -0.00174386405195 0)
(0.0197898763926 -0.0055753802976 0)
(0.0196088061252 -0.00935788506695 0)
(0.0192898863283 -0.0131152997028 0)
(0.0188721574857 -0.0167891015752 0)
(0.0183652375914 -0.020362380253 0)
(0.0177791097278 -0.0238176966017 0)
(0.0171245265125 -0.0271404236435 0)
(0.0164125608452 -0.030318670773 0)
(0.0156541699706 -0.0333432405091 0)
(0.014859831712 -0.0362074609127 0)
(0.0140392586162 -0.0389069445839 0)
(0.01320120232 -0.0414392994094 0)
(0.0123533343587 -0.0438038179848 0)
(0.011502203225 -0.0460011670573 0)
(0.0106532438452 -0.0480330938837 0)
(0.00981083586783 -0.0499021599712 0)
(0.00897838536192 -0.0516115085725 0)
(0.00815842944685 -0.0531646674181 0)
(0.00735274167969 -0.0545653859762 0)
(0.00656244328211 -0.0558175038452 0)
(0.00578810235681 -0.0569248465303 0)
(0.00502983122429 -0.0578911438603 0)
(0.00428736742914 -0.0587199670279 0)
(0.0035601518789 -0.0594146801698 0)
(0.00284739172322 -0.0599784035241 0)
(0.00214812312383 -0.0604139855584 0)
(0.0014612625989 -0.0607239825613 0)
(0.000785662481855 -0.0609106448821 0)
(0.000120159556991 -0.0609759085974 0)
(-0.000536368395061 -0.0609214012552 0)
(-0.00118494829632 -0.0607484391986 0)
(-0.00182644912319 -0.0604580586073 0)
(-0.00246152036355 -0.0600510446623 0)
(-0.00309052360994 -0.0595279810903 0)
(-0.00371346989569 -0.058889317185 0)
(-0.00432995759236 -0.0581354539287 0)
(-0.00493912499916 -0.0572668483268 0)
(-0.0055396161869 -0.0562841340942 0)
(-0.00612957318198 -0.0551882524589 0)
(-0.00670665421646 -0.0539805855625 0)
(-0.00726808495595 -0.0526630796644 0)
(-0.00781073757277 -0.0512383454983 0)
(-0.00833123040311 -0.0497097199253 0)
(-0.0088260309116 -0.0480812787995 0)
(-0.00929153455686 -0.0463577951335 0)
(-0.00972409046324 -0.0445446531926 0)
(-0.0101199358662 -0.0426477443514 0)
(-0.0104750240128 -0.0406733975783 0)
(-0.0107847390537 -0.038628413387 0)
(-0.0110435611724 -0.0365202855214 0)
(-0.0112447829207 -0.0343576684835 0)
(-0.0113804872781 -0.0321510891003 0)
(-0.0114419806986 -0.0299137478016 0)
(-0.0114208753273 -0.0276620885825 0)
(-0.0113105681787 -0.0254157197345 0)
(-0.0111077533823 -0.0231962262566 0)
(-0.0108118606454 -0.0210263463901 0)
(-0.0104264477586 -0.018928938403 0)
(-0.00995762899786 -0.0169270602849 0)
(-0.00941901059485 -0.0150421441211 0)
(-0.00882984538691 -0.0132888259684 0)
(-0.00820913631984 -0.0116732345385 0)
(-0.00757071920206 -0.0101964646121 0)
(-0.00692562733658 -0.00885843837048 0)
(-0.00628472097135 -0.00765808354892 0)
(-0.00565914821962 -0.00659197450353 0)
(-0.00505910949065 -0.00565353143911 0)
(-0.00449234200881 -0.0048335169176 0)
(-0.00396338748209 -0.0041214808784 0)
(-0.00347405803039 -0.00350736821267 0)
(-0.00302495417002 -0.00298237724394 0)
(-0.00261722879005 -0.00253836124494 0)
(-0.00225280938392 -0.0021662095656 0)
(-0.0019323583643 -0.00185525459653 0)
(-0.00165357287963 -0.00159473501076 0)
(-0.001411948428 -0.00137569023546 0)
(-0.0012027250091 -0.00119142954207 0)
(-0.00102194144432 -0.00103670848347 0)
(-0.000866089967619 -0.000907086103369 0)
(-0.000732008274717 -0.000798818221835 0)
(-0.000616906546061 -0.000708721214306 0)
(-0.000518204310348 -0.000634655092165 0)
(-0.000434222514882 -0.000568257057334 0)
(-0.000376438362017 -0.000514277373643 0)
(-0.000341062033177 -0.000469855519092 0)
(-0.000306358391914 -0.000411784466266 0)
(-0.000287626794388 -0.000368784057754 0)
(-0.000275379951155 -0.000321887398816 0)
(-0.000273068501044 -0.000275205313727 0)
(-0.000257460378084 -0.00020766795446 0)
(-0.000274206340999 -0.000162128835207 0)
(-0.000320563448464 -0.000134371097643 0)
(-0.000337681940594 -9.20377390898e-05 0)
(-0.000343031781864 -5.19875798418e-05 0)
(-0.000343057737702 -1.73157147666e-05 0)
(0.0224588509618 -0.00180014753023 0)
(0.0236763423751 -0.00575423437172 0)
(0.0234520878486 -0.00965463831799 6.6723234524e-28)
(0.0230595073002 -0.0135243569088 0)
(0.0225460583785 -0.0173015196629 0)
(0.0219241190818 -0.0209676262941 0)
(0.0212065463898 -0.0245040871835 0)
(0.0204070905336 -0.0278956823872 0)
(0.019539796187 -0.0311304470516 0)
(0.0186184386686 -0.0341995612125 0)
(0.0176560610559 -0.0370970932657 0)
(0.0166646261227 -0.039819661009 0)
(0.0156547874408 -0.0423660461109 0)
(0.0146357676318 -0.0447367963928 0)
(0.0136153302707 -0.0469338427236 0)
(0.0125998221619 -0.0489601492718 0)
(0.0115942684945 -0.0508194080731 0)
(0.0106024982712 -0.0525157823103 0)
(0.00962728742297 -0.0540536976573 0)
(0.00867050339149 -0.0554376776634 0)
(0.00773324614833 -0.056672217222 0)
(0.00681597620658 -0.0577616874399 0)
(0.00591863085136 -0.0587102653076 0)
(0.00504072383945 -0.0595218821958 0)
(0.00418143357892 -0.0602001861247 0)
(0.00333967751909 -0.0607485137661 0)
(0.00251417957793 -0.0611698692156 0)
(0.00170352939596 -0.0614669075746 0)
(0.00090624082827 -0.0616419226139 0)
(0.000120808565812 -0.0616968371154 0)
(-0.0006542303649 -0.0616332067969 0)
(-0.00142023021672 -0.0614522100891 0)
(-0.0021783642215 -0.0611546779583 0)
(-0.00292954539804 -0.060741117039 0)
(-0.00367434151615 -0.0602117582569 0)
(-0.00441288999326 -0.0595666263259 0)
(-0.00514481520456 -0.0588056338975 0)
(-0.00586915875016 -0.0579287010903 0)
(-0.00658432909686 -0.0569358988158 0)
(-0.00728808309644 -0.0558276098921 0)
(-0.00797754666349 -0.0546046978409 0)
(-0.00864928293381 -0.0532686671822 0)
(-0.0092994071411 -0.0518217950226 0)
(-0.0099237403073 -0.0502672099185 0)
(-0.0105179793363 -0.048608896048 0)
(-0.0110778463654 -0.0468516076548 0)
(-0.01159916628 -0.0450006967918 0)
(-0.0120778116486 -0.0430618855101 0)
(-0.0125094605294 -0.0410410515236 0)
(-0.0128891413318 -0.0389441436315 0)
(-0.0132106052461 -0.0367773767038 0)
(-0.013465682962 -0.0345478677114 0)
(-0.0136439339889 -0.0322647750018 0)
(-0.0137330556722 -0.0299408195273 0)
(-0.0137205091882 -0.0275935495307 0)
(-0.013596166528 -0.0252456118677 0)
(-0.0133556293651 -0.0229220447967 0)
(-0.0129967478455 -0.0206494643598 0)
(-0.0125241011784 -0.0184542582969 0)
(-0.0119410097665 -0.0163654876497 0)
(-0.0112665313413 -0.0144132512118 0)
(-0.0105315767481 -0.0126155662883 0)
(-0.00976496986547 -0.0109744467561 0)
(-0.00898175230795 -0.0094854297358 0)
(-0.00819227919043 -0.00814676957292 0)
(-0.00740887426158 -0.00695795419893 0)
(-0.00664633631093 -0.00591554400568 0)
(-0.00591878398714 -0.00501101752713 0)
(-0.00523637669893 -0.00423165083141 0)
(-0.00460377210674 -0.00356331318855 0)
(-0.00402096169796 -0.00299359037882 0)
(-0.00348637004801 -0.00251358698482 0)
(-0.00300099697927 -0.00211647128162 0)
(-0.002569424246 -0.00179314874634 0)
(-0.0021944327688 -0.00153024455413 0)
(-0.00187245389077 -0.00131359219399 0)
(-0.00159561762014 -0.00113274354654 0)
(-0.00135656014349 -0.000981577580529 0)
(-0.00115045257134 -0.000855776033261 0)
(-0.000973167599735 -0.000751388539142 0)
(-0.000820887462432 -0.000665083998322 0)
(-0.000690391145178 -0.000593995142764 0)
(-0.000578646837436 -0.000536253678419 0)
(-0.000483725096449 -0.000481604473152 0)
(-0.000427953673881 -0.000443789582731 0)
(-0.000389065040687 -0.000402424707701 0)
(-0.000356422717038 -0.000358804420505 0)
(-0.00032959963872 -0.000311674419916 0)
(-0.000322566649008 -0.000272994887869 0)
(-0.00031318327922 -0.000222967863284 0)
(-0.000321853231423 -0.00018450240895 0)
(-0.000315183057793 -0.000131180922004 0)
(-0.000338231331779 -9.96879913927e-05 0)
(-0.000372049983797 -7.55245237564e-05 0)
(-0.000374375622254 -4.28847450397e-05 0)
(-0.000374917952253 -1.43119680258e-05 0)
(0.0262781901785 -0.00186885308461 0)
(0.0276970131311 -0.00597252292233 0)
(0.0274235713775 -0.0100165600636 -6.6712991338e-28)
(0.0269483992517 -0.014022588871 0)
(0.0263281090538 -0.017924528485 0)
(0.0255784520979 -0.021701894093 0)
(0.0247158044443 -0.0253347257683 0)
(0.0237575381082 -0.0288071743004 0)
(0.022721227825 -0.0321073229693 0)
(0.0216239271992 -0.0352269758662 0)
(0.0204815917898 -0.0381612735989 0)
(0.0193086655167 -0.0409082182725 0)
(0.0181178282062 -0.0434681579239 0)
(0.0169198858514 -0.0458432751418 0)
(0.015723778236 -0.0480371124869 0)
(0.0145366730006 -0.0500541555985 0)
(0.0133641179859 -0.0518994837834 0)
(0.0122102249526 -0.0535784895506 0)
(0.0110778652017 -0.0550966621908 0)
(0.009968860706 -0.0564594271314 0)
(0.00888416213373 -0.0576720309 0)
(0.0078240069484 -0.0587394616882 0)
(0.00678805692919 -0.0596663960825 0)
(0.0057755141581 -0.0604571641533 0)
(0.0047852190222 -0.0611157263455 0)
(0.00381573193313 -0.0616456573882 0)
(0.00286540405799 -0.0620501335585 0)
(0.00193243974029 -0.0623319212079 0)
(0.0010149564957 -0.0624933656106 0)
(0.000111045334702 -0.0625363788303 0)
(-0.000781163539596 -0.0624624396946 0)
(-0.00166342473354 -0.0622725726008 0)
(-0.00253729448633 -0.0619673732582 0)
(-0.00340403336087 -0.061547021341 0)
(-0.00426449990624 -0.0610113249736 0)
(-0.00511903869359 -0.0603597900553 0)
(-0.00596736862565 -0.059591721752 0)
(-0.00680848270383 -0.0587063611621 0)
(-0.00764057098281 -0.0577030572538 0)
(-0.00846098302652 -0.0565814687049 0)
(-0.00926624460263 -0.0553417839429 0)
(-0.0100521430959 -0.0539849385471 0)
(-0.0108138875786 -0.0525128011374 0)
(-0.0115463386738 -0.0509282902436 0)
(-0.0122442827849 -0.0492353828329 0)
(-0.0129027018416 -0.0474389798967 0)
(-0.0135169612769 -0.0455446161306 0)
(-0.0140828138257 -0.0435580360854 0)
(-0.014596109199 -0.0414847245795 0)
(-0.0150521155831 -0.0393295552771 0)
(-0.0154444436404 -0.0370968242286 0)
(-0.0157637270903 -0.034790994283 0)
(-0.0159965308836 -0.0324184589241 0)
(-0.0161253492988 -0.0299903201825 0)
(-0.0161310048451 -0.0275251966125 0)
(-0.0159974064285 -0.0250508367476 0)
(-0.0157207635499 -0.0225968042436 0)
(-0.0152951075769 -0.0201948143235 0)
(-0.014729594113 -0.0178731960044 0)
(-0.0140136684925 -0.0156694850972 0)
(-0.0131746394847 -0.0136327053867 0)
(-0.0122671977414 -0.011787259417 0)
(-0.0113386500151 -0.0101234059302 0)
(-0.0103990945226 -0.00862377061966 0)
(-0.00945257554021 -0.00728555784174 0)
(-0.00851226309014 -0.00611213900462 0)
(-0.00759914713529 -0.00510188327199 0)
(-0.00673418968341 -0.0042435713459 0)
(-0.00593131539219 -0.00351850475665 0)
(-0.00519453243172 -0.00290606556032 0)
(-0.00451923878315 -0.00238996567929 0)