/*--------------------------------*- C++ -*----------------------------------*\
| =========                 |                                                 |
| \\      /  F ield         | OpenFOAM: The Open Source CFD Toolbox           |
|  \\    /   O peration     | Version:  v1906                                 |
|   \\  /    A nd           | Web:      www.OpenFOAM.com                      |
|    \\/     M anipulation  |                                                 |
\*---------------------------------------------------------------------------*/
FoamFile
{
    version     2.0;
    format      ascii;
    class       volScalarField;
    location    "48";
    object      p;
}
// * * * * * * * * * * * * * * * * * * * * * * * * * * * * * * * * * * * * * //

dimensions      [0 2 -2 0 0 0 0];


internalField   nonuniform List<scalar> 
9216
(
307.544683557
307.642583577
307.846100274
308.156780345
308.57334063
309.094340781
309.71870138
310.443492857
311.267419244
312.187963497
313.202879572
314.307912798
315.500139974
316.776733602
318.135517242
319.572175575
321.085504336
322.672334688
324.33043725
326.054343138
327.841563315
329.68664915
331.587199501
333.538835846
335.539669309
337.58533374
339.669536761
341.785011523
343.936165132
346.121093565
348.335679803
350.560725393
352.790801482
355.037460106
357.298915808
359.561053846
361.818934059
364.06479801
366.294187344
368.501493021
370.681613121
372.825008228
374.927342935
376.986077006
378.995699929
380.949283088
382.842869428
384.672589372
386.433672048
388.122821193
389.736713253
391.271631783
392.725170244
394.095855937
395.381619169
396.58189109
397.695732956
398.724956202
399.669535606
400.530106564
401.309428997
402.011111978
402.63858236
403.196737661
403.689577167
404.120307143
404.493039449
404.816500549
405.097231734
405.341741852
405.556074351
405.745244025
405.913241384
406.06418629
406.201077529
406.32612746
406.441055744
406.547335954
406.64617095
406.738735589
406.825425801
406.906664898
406.982716249
407.053564152
407.119209178
407.179509435
407.235113739
407.287225456
407.333293413
407.37028307
407.396899446
407.414889809
407.427150369
407.435043034
407.439523019
407.441203069
307.447207706
307.545370291
307.74879301
308.060183044
308.478037866
309.000986282
309.627216119
310.35385332
311.179472241
312.101930595
313.11847596
314.225871549
315.421455967
316.702864044
318.064719438
319.503176949
321.017833822
322.607572723
324.269744792
325.997742371
327.788879997
329.637661531
331.540623179
333.495157649
335.498795992
337.547155795
339.636060312
341.757299232
343.911476014
346.099505023
348.312048609
350.541198932
352.783150799
355.036838245
357.300431307
359.565502521
361.82714939
364.078269897
366.314110936
368.527227398
370.709638225
372.857322191
374.966130054
377.030298164
379.045829061
381.003360781
382.899785887
384.73348722
386.497715752
388.189946554
389.807037373
391.344243249
392.7994838
394.171635725
395.458334989
396.659043857
397.773728444
398.802793069
399.744877524
400.602171956
401.378624984
402.076861177
402.700383476
403.253537143
403.742415308
404.169155321
404.536846866
404.854687045
405.129585949
405.368881265
405.578884362
405.764258591
405.9288191
406.076957132
406.211840973
406.335188181
406.448726189
406.553701999
406.651534929
406.743501742
406.829624073
406.910524651
406.98648262
407.05715006
407.122683891
407.182876802
407.237949684
407.288370279
407.334180101
407.372014181
407.398947198
407.416838123
407.428954244
407.436850807
407.441088951
407.442806614
307.244075202
307.343332025
307.548024685
307.861350669
308.281642693
308.807633045
309.43751507
310.168539428
310.998470176
311.925810317
312.947237189
314.059612987
315.260534132
316.546726196
317.914904612
319.361179291
320.883967049
322.479990444
324.146023587
325.879278627
327.675744727
329.531320741
331.442013684
333.404369823
335.415141383
337.471895136
339.567330281
341.693588498
343.855073507
346.048978771
348.267968494
350.505992591
352.758808724
355.026457211
357.299942329
359.573262624
361.844858629
364.106082034
366.350402425
368.572770688
370.766507035
372.926776429
375.047174487
377.12174249
379.144659662
381.109713351
383.017868337
384.861178266
386.630213861
388.328294946
389.952144395
391.492027947
392.949223686
394.324430146
395.612689255
396.813756196
397.927630709
398.954323778
399.893893714
400.747886359
401.51920694
402.210870717
402.826751026
403.372141421
403.851381481
404.266669531
404.622628267
404.928540698
405.192288833
405.421018676
405.622396688
405.800621638
405.958188196
406.101373598
406.232839664
406.352965755
406.463742757
406.566507848
406.661918356
406.752569496
406.838586762
406.919038388
406.994625173
407.06477381
407.12967688
407.189771989
407.243935519
407.292162074
407.336486985
407.375224818
407.40294783
407.420308521
407.432379565
407.440618813
407.445252237
407.447563342
306.932035179
307.032313048
307.238898805
307.55525608
307.979602384
308.51063086
309.146081215
309.883387887
310.720365811
311.654679945
312.683938782
313.804903808
315.014705036
316.309808131
317.686147803
319.14131754
320.673534202
322.279363117
323.955275973
325.698256467
327.504450092
329.371034976
331.292886755
333.266217971
335.28745059
337.350580591
339.453289288
341.590551193
343.762634982
345.969777515
348.201380088
350.451759065
352.720714236
355.002635575
357.291657362
359.583295659
361.8733946
364.151172446
366.409187113
368.647258065
370.857838619
373.03826884
375.175262285
377.257269127
379.292720432
381.271115147
383.18750815
385.040427653
386.821746824
388.530217286
390.161222046
391.71092121
393.179217956
394.560010794
395.850076572
397.051541335
398.164789771
399.189300182
400.12518025
400.972977168
401.736059517
402.417232397
403.020523401
403.55221562
404.015256253
404.412368595
404.74901344
405.036927142
405.283817424
405.498239117
405.687236613
405.853830287
406.002657279
406.138507888
406.262944368
406.377849665
406.484719335
406.584654507
406.678676345
406.767639187
406.851548016
406.930549546
407.005206025
407.074531777
407.139447364
407.199713073
407.252185271
407.299893435
407.343796924
407.380677331
407.407857247
407.42646333
407.439214375
407.44811631
407.452986099
407.455595671
306.510222066
306.611829166
306.821088206
307.14147685
307.571224287
308.108770875
308.752331028
309.498637541
310.344774167
311.289307957
312.329320377
313.461841563
314.683002274
315.988991754
317.377211273
318.845422401
320.390515882
322.009216325
323.697924596
325.454473253
327.273806124
329.152478143
331.089447407
333.076836101
335.109195372
337.182850879
339.297940934
341.450808704
343.637705313
345.859440713
348.108954354
350.380083071
352.671184571
354.973570785
357.281791888
359.595179568
361.905385478
364.207446051
366.489176982
368.750424472
370.979962114
373.172268129
375.325092212
377.427765179
379.482894819
381.480755087
383.420329432
385.28961607
387.084698025
388.807325233
390.450031394
392.010711039
393.486518073
394.876616542
396.173245853
397.374433948
398.487172952
399.509444971
400.441075345
401.279984492
402.032071182
402.698890179
403.285206775
403.801792547
404.239669617
404.60484028
404.912872997
405.177069342
405.400930025
405.596483467
405.770574389
405.92385559
406.059696347
406.184281433
406.300510485
406.40949752
406.511398612
406.607153669
406.698423814
406.784830377
406.866775549
406.945683221
407.019899791
407.088710068
407.153183686
407.212350261
407.26481739
407.312184033
407.354935315
407.389559852
407.415981843
407.435953935
407.449938776
407.459813694
407.464839034
407.467518778
305.976846049
306.080208176
306.292965922
306.61864767
307.05538095
307.601375327
308.254595677
309.012555847
309.871321469
310.828772575
311.882549031
313.029264381
314.264595217
315.584917491
316.988818608
318.472991084
320.034246876
321.669479262
323.374095329
325.145201055
326.980936334
328.877227772
330.831866822
332.834864322
334.878105114
336.967484198
339.100157191
341.270862455
343.47939532
345.722617341
347.996059757
350.290220366
352.601959848
354.92971332
357.267295646
359.610900464
361.947877717
364.276515984
366.582256359
368.862975308
371.116417715
373.33332268
375.513516269
377.649192858
379.729790765
381.749062906
383.709120491
385.599396048
387.420194396
389.160502282
390.816338224
392.390602645
393.876355585
395.275795616
396.577653922
397.781592032
398.895541663
399.916565936
400.841194505
401.666812058
402.403513041
403.057330127
403.624657593
404.10327506
404.489589077
404.811172442
405.091495056
405.328454754
405.524934217
405.701213988
405.860116902
405.996704046
406.117856898
406.232747764
406.341610931
406.444550724
406.540092857
406.631740451
406.720964363
406.805104463
406.885471566
406.963478442
407.035922169
407.104101239
407.16855785
407.227494356
407.280974165
407.328979915
407.37033929
407.402848559
407.429089101
407.449996533
407.465215777
407.475205251
407.481565136
407.484195308
305.329884043
305.435590235
305.652781992
305.98512196
306.430644429
306.987118031
307.652564366
308.424429613
309.298624739
310.272372106
311.343395546
312.506649912
313.75891636
315.097855472
316.520504566
318.023839182
319.604590066
321.258281768
322.981547191
324.772587652
326.628103168
328.545337387
330.518051426
332.536917238
334.596871722
336.704240551
338.858472958
341.053864507
343.286968937
345.556622362
347.854654222
350.175063789
352.517973887
354.876930269
357.248788468
359.624800889
361.99233288
364.347175365
366.679550787
368.990802425
371.277980606
373.534004273
375.747125816
377.910415708
380.0225659
382.07743924
384.064675183
385.977628022
387.819998118
389.582853906
391.263610651
392.853559769
394.348676293
395.757633149
397.064669188
398.274956118
399.38607011
400.400269236
401.31590306
402.129360329
402.857487153
403.462422033
403.961381771
404.375436646
404.715532726
405.006725382
405.257080002
405.462398918
405.633561324
405.793177611
405.93760861
406.058664019
406.169157685
406.27380793
406.376485294
406.476780219
406.568951339
406.655844666
406.742663791
406.825360198
406.903937646
406.981511168
407.053257086
407.121038088
407.185665165
407.24601049
407.300707024
407.34785243
407.388031379
407.421028455
407.448150535
407.469633586
407.485584143
407.494849912
407.502448695
407.505241118
304.567385662
304.675767036
304.898337929
305.238748828
305.694665744
306.264322871
306.944624211
307.733287202
308.625870745
309.619426545
310.710222947
311.893803229
313.167087415
314.527316064
315.97178099
317.497814576
319.100321147
320.775675348
322.521857439
324.335745971
326.214336379
328.154933256
330.1442467
332.179562488
334.264863857
336.396615253
338.576462799
340.800103703
343.060376038
345.354935643
347.683321724
350.038915377
352.418726358
354.812855808
357.218300041
359.628862445
362.03047097
364.416606572
366.787618765
369.14542889
371.471979591
373.761660546
376.014721214
378.223961282
380.372593299
382.456313117
384.476314827
386.425239601
388.298835562
390.086478655
391.786587717
393.391028093
394.902577175
396.316260082
397.629836073
398.840315652
399.947822599
400.964814429
401.888843658
402.659125469
403.293160468
403.81113568
404.253709036
404.624032519
404.928262142
405.175641217
405.394510812
405.572674335
405.721846097
405.865487702
405.991784149
406.099853316
406.204718044
406.306510158
406.405737054
406.500704923
406.589272466
406.676829655
406.764148359
406.844311214
406.923802844
407.00059385
407.072353303
407.140944185
407.206191698
407.267649183
407.321672751
407.368797911
407.410688193
407.445086479
407.472677046
407.494157616
407.510944424
407.51994514
407.527156682
407.530388311
303.686371762
303.797943513
304.026989038
304.377207983
304.845640898
305.430594677
306.128830364
306.937437758
307.851652841
308.868069808
309.982838244
311.190595308
312.488818132
313.874251648
315.343157795
316.893611508
318.521520853
320.222827793
321.994858057
323.834889228
325.74093006
327.701084712
329.710280032
331.769982188
333.880524702
336.041723125
338.251488514
340.502878218
342.792542314
345.121485783
347.485507545
349.880083803
352.296304128
354.729875524
357.176146307
359.622791332
362.061300646
364.49027816
366.913163039
369.315411709
371.68643011
374.026759785
376.329692856
378.58050724
380.769571443
382.898847834
384.961953888
386.94609023
388.845019645
390.661509448
392.383729698
394.00656194
395.532354106
396.954581445
398.274680673
399.486156773
400.601017201
401.638759595
402.46345252
403.112733478
403.666659005
404.135133022
404.527661
404.846879644
405.099249427
405.310113793
405.496693381
405.640607164
405.771647802
405.899281677
406.012674055
406.11672954
406.220145857
406.321652883
406.420412157
406.515622797
406.60680045
406.695394685
406.779973362
406.862333764
406.943416561
407.020944257
407.09439122
407.162893735
407.228182337
407.289913608
407.346260557
407.396438736
407.438862225
407.473510503
407.502106008
407.523505219
407.539789977
407.550836007
407.556544067
407.560619172
302.683359825
302.798693523
303.035451194
303.397254365
303.880924888
304.483913146
305.203184372
306.035189038
306.974667419
308.01719704
309.15986869
310.396404625
311.72264856
313.136449999
314.634587178
316.213579622
317.869758281
319.599645163
321.400303273
323.269678893
325.201624545
327.186533956
329.218793531
331.305555763
333.446676177
335.639719133
337.87887341
340.161070362
342.486752875
344.853505024
347.258210922
349.691499309
352.149579438
354.62768562
357.114410191
359.602267428
362.091609845
364.573614205
367.043495059
369.500739505
371.934994119
374.329264723
376.677851755
378.980694014
381.229756036
383.405471102
385.505765851
387.533175645
389.468233616
391.313248021
393.056380126
394.701845137
396.239770976
397.675726665
398.999020057
400.225578365
401.359229962
402.259536035
402.941041517
403.524680184
404.016353609
404.418718406
404.743468318
404.997503235
405.200396368
405.376287037
405.525104081
405.655159118
405.777528077
405.895600139
406.008340094
406.116841016
406.22327032
406.327155263
406.427904743
406.525212208
406.619041305
406.709854177
406.797434642
406.882665521
406.964677086
407.04266837
407.11696482
407.186846879
407.25189613
407.314305912
407.372749493
407.42441569
407.468975404
407.506309756
407.53664586
407.558610455
407.573924344
407.58680235
407.592200081
407.596633206
301.554425398
301.673995626
301.919861898
302.295280235
302.796801278
303.421280232
304.165305167
305.024753694
305.994017662
307.066681584
308.240165836
309.509134565
310.86861743
312.314788578
313.845425934
315.456524091
317.144489218
318.905949558
320.738004909
322.638985701
324.596807684
326.606648095
328.670403049
330.78813253
332.962112032
335.186021579
337.457261803
339.776655126
342.140474459
344.549060166
346.99438682
349.471442604
351.9762895
354.49784948
357.029154572
359.571056546
362.115175911
364.65306587
367.188095969
369.712260573
372.20483837
374.658029986
377.072013145
379.438726483
381.741561023
383.967289929
386.123466382
388.191985459
390.163761126
392.039534162
393.808931654
395.475496802
397.029373931
398.478227594
399.822921255
401.052476072
402.017359031
402.744122341
403.357283548
403.880513831
404.286331954
404.600236902
404.849613659
405.056213639
405.226268918
405.372701208
405.507431921
405.63682355
405.761347671
405.882617854
405.999940991
406.113582886
406.224151924
406.331391747
406.435012196
406.535059385
406.631703771
406.725105715
406.815206518
406.902168199
406.985615457
407.06530117
407.141405575
407.212870632
407.2798444
407.343234021
407.402359874
407.456338619
407.50348499
407.544699376
407.576336976
407.598916871
407.614950631
407.626237155
407.633938844
407.63786026
300.293320401
300.419071744
300.675936756
301.067147817
301.589671573
302.239473257
303.012481121
303.903871516
304.907396932
306.016153576
307.225513121
308.529945915
309.925767963
311.409106328
312.976097902
314.622902401
316.345964329
318.141951608
320.00829718
321.93980654
323.928440385
325.966523884
328.062500821
330.215937104
332.42226
334.679479828
336.988924631
339.348768168
341.752788385
344.199835505
346.691865813
349.217318142
351.767623564
354.336271648
356.924471333
359.524680788
362.129381053
364.738232205
367.346609772
369.936380064
372.496191636
375.030142101
377.512605803
379.938736434
382.309775896
384.599252527
386.807215396
388.919313254
390.934739912
392.841376437
394.642313515
396.325959585
397.901570794
399.374254128
400.718345116
401.748566716
402.540186202
403.175819101
403.717397076
404.125804077
404.421644321
404.668183981
404.870137616
405.040064201
405.192987672
405.33746771
405.476543297
405.611451028
405.742177588
405.869117177
405.992000562
406.110899899
406.225953376
406.336972057
406.443903432
406.547090024
406.646798427
406.743027393
406.835682761
406.924702772
407.009899508
407.091131346
407.168320406
407.241099753
407.309678244
407.374662215
407.435023984
407.489768754
407.539334604
407.58389919
407.619126578
407.643766123
407.66088346
407.671398246
407.678821964
407.682720793
298.893222195
299.02664804
299.296792537
299.707694321
300.255145062
300.934811068
301.7417225
302.670186104
303.713028023
304.86264168
306.113634925
307.459507808
308.896018335
310.420189385
312.027295613
313.713377493
315.474920993
317.308898723
319.213483541
321.173969616
323.191289936
325.266855811
327.399327022
329.586266003
331.826389209
334.121989677
336.471559307
338.86934222
341.314514795
343.810306667
346.349246416
348.920517468
351.519210211
354.146524564
356.795209315
359.45959078
362.142998198
364.826168496
367.503399834
370.170936284
372.818947025
375.430055254
377.987159909
380.495938317
382.934910852
385.291108296
387.555219967
389.721022564
391.779644931
393.72492966
395.552157286
397.259401692
398.868424727
400.366125472
401.47407307
402.317289706
403.00287543
403.516158781
403.921286845
404.219720057
404.446614917
404.642909383
404.82037519
404.986371423
405.144276004
405.296127658
405.442984825
405.585216643
405.722886039
405.856103833
405.98480805
406.10903792
406.228770351
406.343858617
406.454476041
406.561185505
406.664250669
406.763563814
406.858981453
406.950378839
407.037615106
407.12056729
407.199118614
407.273130299
407.342679814
407.407909262
407.468449272
407.524179966
407.575814803
407.622034924
407.661745911
407.691873441
407.710275951
407.7214961
407.726155234
407.730626814
297.347833049
297.488904859
297.775903751
298.211279523
298.788346535
299.503242875
300.34985873
301.321390309
302.409374016
303.605557601
304.903663159
306.296423999
307.779055608
309.348555716
310.999771152
312.728661144
314.531763353
316.404875688
318.345867424
320.345617339
322.394878232
324.504954538
326.674579526
328.899174215
331.176595776
333.511924761
335.899177726
338.335757443
340.828680486
343.371390807
345.956703811
348.575878451
351.233956698
353.922717805
356.63602329
359.380317079
362.13802371
364.901291165
367.673190866
370.427207495
373.156494205
375.861966333
378.511360311
381.097389355
383.619445928
386.050654377
388.378538554
390.602456365
392.711537631
394.69450903
396.55141808
398.294062215
399.947123304
401.185411066
402.060113277
402.775121049
403.300809841
403.66521101
403.947957712
404.176829396
404.379237558
404.569946842
404.751710553
404.925542288
405.092498649
405.253400137
405.408735406
405.558737833
405.703541425
405.843251733
405.977927247
406.107606622
406.232197686
406.351630229
406.466326514
406.576973494
406.683731848
406.786415662
406.884854519
406.978907845
407.068448991
407.153361941
407.233536729
407.308884225
407.37939613
407.445078185
407.505831266
407.561742965
407.613202521
407.660072704
407.701168851
407.736043779
407.759979093
407.772355834
407.778024745
407.780652423
295.649009982
295.798402108
296.105246647
296.570417254
297.184064777
297.940351609
298.833509097
299.855162143
300.994620124
302.244041
303.595798108
305.041536696
306.575795429
308.195400517
309.894872538
311.670241848
313.517414763
315.433171279
317.410894405
319.446273099
321.536460678
323.685793231
325.891277167
328.151907844
330.470777253
332.84411225
335.271480197
337.751673315
340.285563073
342.87211508
345.506525384
348.184668492
350.904137977
353.661692452
356.451635167
359.27022622
362.109652995
364.973698651
367.836964384
370.684722513
373.522304848
376.324337371
379.074640301
381.758947959
384.367895133
386.876489182
389.276106437
391.570198665
393.735309344
395.758103571
397.664035437
399.464110716
400.826157769
401.786531996
402.494398513
403.021456651
403.363968892
403.623974494
403.861141235
404.081408532
404.289389412
404.488412429
404.679526726
404.863146838
405.039747228
405.209801364
405.373649035
405.531514644
405.683567158
405.829949449
405.97078616
406.106101033
406.235765114
406.359866792
406.47912786
406.594194919
406.705012695
406.811368128
406.913090131
407.010046667
407.102124509
407.18921962
407.271232248
407.348080146
407.419713235
407.486098148
407.547208179
407.603127964
407.654060711
407.700076444
407.741033793
407.777341917
407.807449153
407.825128824
407.832024089
407.830979027
293.785162923
293.945807589
294.275168263
294.774867519
295.434096023
296.241441343
297.189327775
298.270123448
299.469699819
300.77891356
302.190169917
303.69593059
305.287744679
306.962525692
308.714463057
310.539223376
312.434184698
314.394099298
316.41320067
318.484809112
320.614039768
322.80321465
325.049102278
327.348703086
329.705343236
332.117337651
334.584445645
337.107187149
339.685384039
342.318751436
345.004590995
347.740909107
350.524837026
353.353741544
356.221924658
359.121686303
362.063105452
365.025839109
367.99538001
370.956613663
373.896373856
376.813213655
379.67533147
382.468584595
385.175957603
387.780761233
390.267255138
392.630713129
394.84667081
396.937877822
398.928739442
400.410557054
401.46259823
402.199621431
402.67219702
403.000320928
403.266582105
403.513194687
403.750801041
403.978107239
404.195689989
404.404706935
404.605744243
404.7991393
404.985216094
405.164301737
405.336664836
405.502512865
405.662019815
405.815348425
405.96264016
406.103856886
406.238902522
406.368214725
406.492703899
406.61270299
406.727971697
406.838305947
406.943564278
407.043642395
407.138452934
407.227911317
407.31193334
407.39043926
407.463362883
407.530653584
407.592292732
407.648337798
407.69893621
407.744279271
407.784661369
407.820696297
407.853185376
407.878365148
407.886914802
407.883539739
291.743876086
291.919178096
292.276596482
292.816920964
293.528928684
294.39871772
295.413147989
296.563004277
297.833517739
299.212714681
300.690794274
302.261648582
303.917389024
305.652896433
307.460425639
309.337480574
311.282667678
313.287729477
315.349753485
317.464499142
319.634161961
321.861476235
324.146477959
326.484535552
328.880238647
331.329951625
333.836181781
336.400311072
339.022872353
341.703850714
344.443021126
347.238591734
350.089667116
352.993001898
355.945575055
358.939551248
361.973187726
365.050741392
368.13783756
371.224481443
374.293413374
377.3256494
380.316772894
383.232054216
386.054869005
388.763940315
391.342767173
393.777508278
396.081216911
398.304485107
399.976409633
401.085700348
401.830560495
402.263119455
402.585968998
402.869513093
403.135020268
403.389344029
403.634958639
403.871272624
404.098490506
404.317250999
404.527995464
404.731007112
404.926516567
405.114740025
405.295863484
405.470046814
405.637437418
405.798187229
405.952381453
406.099907221
406.240925712
406.376400561
406.506964435
406.632420234
406.752530734
406.867150356
406.97618873
407.079587138
407.1772956
407.26926167
407.355423862
407.435714705
407.510065214
407.578417228
407.640742784
407.697078995
407.747557441
407.792437875
407.832183268
407.867546513
407.8993023
407.926650008
407.941938271
407.93926928
289.511629579
289.704583499
290.096821921
290.687665679
291.462791218
292.406845031
293.501302245
294.732043702
296.084167141
297.543615433
299.099243214
300.742629293
302.467705179
304.267447437
306.136407751
308.06910307
310.065670687
312.117439944
314.222554627
316.384300368
318.593748969
320.858859942
323.182043452
325.559653436
327.991621988
330.481798043
333.024063588
335.628460124
338.293870023
341.022430009
343.814446822
346.670146674
349.588846263
352.569502586
355.608215264
358.696411799
361.848486165
365.041980568
368.258506826
371.482074438
374.69667796
377.876091229
380.997272788
384.054448766
387.007684494
389.837385099
392.517015949
395.050268083
397.506396209
399.488724277
400.687975125
401.380939964
401.802443856
402.130499658
402.432795358
402.719812472
402.994026766
403.257329248
403.5112036
403.756111566
403.992491298
404.220803303
404.441344359
404.654273174
404.859684352
405.057651516
405.248243278
405.431533338
405.607612833
405.776559347
405.938328239
406.092944628
406.24133723
406.384344518
406.521740782
406.653178216
406.778539555
406.897765481
407.010835955
407.1177499
407.218508656
407.313102648
407.401506449
407.483675201
407.55955121
407.629075221
407.692211226
407.748978212
407.799492769
407.844021758
407.883046719
407.917259381
407.947363843
407.973611916
407.994721776
407.996413777
287.069113072
287.28426141
287.720195969
288.373954472
289.226651889
290.259437271
291.449525181
292.776584681
294.222823908
295.774429302
297.417345631
299.142243952
300.943791955
302.81254589
304.744879329
306.736749491
308.785033694
310.888223833
313.03861494
315.241792747
317.49589527
319.800407767
322.159506679
324.572761747
327.041374432
329.563252606
332.144423464
334.787596902
337.494086562
340.267963964
343.11214675
346.026407133
349.013658769
352.072639906
355.203583335
358.399828751
361.656249958
364.985469749
368.344870387
371.722079663
375.100102078
378.44785901
381.735001635
384.936817842
388.043955766
391.013491318
393.796692133
396.462224533
398.789702942
400.212108204
400.834559213
401.263245949
401.622571853
401.951221749
402.261261834
402.556125104
402.837684822
403.108157377
403.369465335
403.622687936
403.86839675
404.106868572
404.338158144
404.562186971
404.778821389
404.987930343
405.189412053
405.383215539
405.569327905
405.747669065
405.918213862
406.082034056
406.24006801
406.39179289
406.536652972
406.674608734
406.805670709
406.929868667
407.047259037
407.157909176
407.261881094
407.359222733
407.449956575
407.534075941
407.611545876
407.682318183
407.746353626
407.803658435
407.854328974
407.898611914
407.936961028
407.970032556
407.998567143
408.023341727
408.045230156
408.053128419
284.392430213
284.636069564
285.127757834
285.860925811
286.810343886
287.950662411
289.254724739
290.696279576
292.253318124
293.909522029
295.650688619
297.465664948
299.348849089
301.294536177
303.294107673
305.346488941
307.447588837
309.599578198
311.801863658
314.046759972
316.340669707
318.684091018
321.079201543
323.527047634
326.025854169
328.581008321
331.196353527
333.875422488
336.617492052
339.434345009
342.32796671
345.298339472
348.351816951
351.489278219
354.713163636
358.020689809
361.407827615
364.870547193
368.384209865
371.92584406
375.498303071
379.03828192
382.514043492
385.900222003
389.165911871
392.267433156
395.185613562
397.893691867
399.544708119
400.209363754
400.640329479
401.040602894
401.408513068
401.747318136
402.063576643
402.362592133
402.648475201
402.924577671
403.19324143
403.45568931
403.712322016
403.963042812
404.207486123
404.445176218
404.675633302
404.898432444
405.113245024
405.319852409
405.5181193
405.707956589
405.89079498
406.067456105
406.236732008
406.397821168
406.55085471
406.695985734
406.833309301
406.96294107
407.085020181
407.199687874
407.307080279
407.407315362
407.500480896
407.58662199
407.665743224
407.737818778
407.802818648
407.86074259
407.911669807
407.955819694
407.993620362
408.025706114
408.052853534
408.076088471
408.096113853
408.1088868
281.450954184
281.732005707
282.296157488
283.131152669
284.2026909
285.476800426
286.919064104
288.495173593
290.181248558
291.956772918
293.807217807
295.721340703
297.691390465
299.713787882
301.784973264
303.900613034
306.059118932
308.260334546
310.507999414
312.801808425
315.133497863
317.513358045
319.942588235
322.419108966
324.94878725
327.531609984
330.178697041
332.89192956
335.66546792
338.510934176
341.453708358
344.4731025
347.590741498
350.801317881
354.119647281
357.536652565
361.058663801
364.673343711
368.363452725
372.110687436
375.88596485
379.637977802
383.325043381
386.92826472
390.394162886
393.68630144
396.763509398
398.681198559
399.451755647
399.934438728
400.373978478
400.784275583
401.157200643
401.49691427
401.812024817
402.110565869
402.398679499
402.680530488
402.958463591
403.233304172
403.504825137
403.772207346
404.034389027
404.290298394
404.538969636
404.779610758
405.011645795
405.234738891
405.449233716
405.656702196
405.857058652
406.048129617
406.22917504
406.40062988
406.562877059
406.716093962
406.860447304
406.996148688
407.123423733
407.242500212
407.353602272
407.456938379
407.552677877
407.640937614
407.721776707
407.795209623
407.861227768
407.919837822
407.971109893
408.015242604
408.05263576
408.0839281
408.109921167
408.131743511
408.15039359
408.165171734
278.204628045
278.536047407
279.196368052
280.16405283
281.391494632
282.83276809
284.443166229
286.180759449
288.015064939
289.925791038
291.896898093
293.917498972
295.982428832
298.085385101
300.227372581
302.406417449
304.620304421
306.873516642
309.167120392
311.501409276
313.876635572
316.290370598
318.748483779
321.254544461
323.812750247
326.420894091
329.087913124
331.826203483
334.631180618
337.514433771
340.485922002
343.547495009
346.717930583
349.998790266
353.404451291
356.933900906
360.590011947
364.371141549
368.241597039
372.223349281
376.238905245
380.249740379
384.207632031
388.048994824
391.768505376
395.278220159
397.566045907
398.503897701
399.087082218
399.598391734
400.057665114
400.465483755
400.827899374
401.156158126
401.462583379
401.75759963
402.048502602
402.339480277
402.632143164
402.926196147
403.220145094
403.511944646
403.799476604
404.080871256
404.354625305
404.619646029
404.875584716
405.123505698
405.3639875
405.5948254
405.813349359
406.019392951
406.213881688
406.397498782
406.57051417
406.733123018
406.885603759
407.028276179
407.161466514
407.285507058
407.400737751
407.507480491