/*--------------------------------*- C++ -*----------------------------------*\
| =========                 |                                                 |
| \\      /  F ield         | OpenFOAM: The Open Source CFD Toolbox           |
|  \\    /   O peration     | Version:  v1906                                 |
|   \\  /    A nd           | Web:      www.OpenFOAM.com                      |
|    \\/     M anipulation  |                                                 |
\*---------------------------------------------------------------------------*/
FoamFile
{
    version     2.0;
    format      ascii;
    class       surfaceScalarField;
    location    "831";
    object      phia;
}
// * * * * * * * * * * * * * * * * * * * * * * * * * * * * * * * * * * * * * //

dimensions      [0 3 -1 0 0 0 0];
oriented        oriented;


internalField   nonuniform List<scalar> 
18240
(
0.000850896261808
-0.000850892304612
0.0017439387217
-0.000893044099879
0.00263492853948
-0.000890984226283
0.00351871949327
-0.000883793338401
0.00439247905101
-0.000873751937254
0.00525364148705
-0.000861165336419
0.00609986552577
-0.000846213810495
0.00692892099197
-0.000829058541151
0.00773877362125
-0.000809839388592
0.00852749094812
-0.000788720233685
0.0092933542724
-0.000765846678098
0.0100347425161
-0.000741390640642
0.0107502595522
-0.00071549665149
0.0114385916054
-0.000688333592292
0.0120986488306
-0.000660032743345
0.0127293963934
-0.000630747894212
0.0133300111707
-0.000600585911878
0.0138996880195
-0.000569675613155
0.01443781299
-0.000538091409868
0.0149437471756
-0.000505931022387
0.0154170182365
-0.000473232583501
0.0158570848039
-0.000440061106296
0.0162635478297
-0.000406419383406
0.0166358987262
-0.000372342764728
0.0169737516731
-0.000337803988023
0.0172765785574
-0.000302815689328
0.0175439624175
-0.000267329393928
0.0177753221053
-0.000231345020462
0.0179701865271
-0.000194804350235
0.0181279121649
-0.000157707050606
0.0182479767973
-0.000119998811777
0.0183296909768
-8.16912032378e-05
0.018372509878
-4.27472991664e-05
0.018375746293
-3.2085604108e-06
0.0183388966114
3.69271043613e-05
0.018261353466
7.75763364644e-05
0.0181427423439
0.000118694239546
0.0179826366812
0.000160144614996
0.0177808977932
0.000201827547954
0.0175373922958
0.000243550609219
0.0172523268097
0.00028515942579
0.0169259674637
0.000326411163064
0.0165589604695
0.000367106110384
0.0161520562617
0.000406963696651
0.0157064095429
0.000445751141228
0.0152233174117
0.000483161048673
0.0147044964046
0.000518931128769
0.0141518541216
0.000552723296623
0.0135677422021
0.000584228044859
0.0129547886566
0.000613050267398
0.0123161153835
0.000638795145921
0.0116552540467
0.000660977567963
0.010976286776
0.000679093538964
0.0102838416137
0.000692583286026
0.00958307292219
0.000700896596652
0.00887969633542
0.000703534720575
0.00817972191909
0.000700098930077
0.00748950460048
0.000690388272438
0.00681524042343
0.000674377477848
0.00616309551644
0.000652317240361
0.00553855593361
0.000624634182531
0.00494670548509
0.000592012424175
0.00439154456976
0.000555232375988
0.0038764805157
0.000515209188546
0.00340373818188
0.000472792116096
0.00297470731177
0.000429158228065
0.00258914329532
0.000385596976826
0.00224583338124
0.000343423367033
0.00194228469719
0.000303571175325
0.00167568666384
0.000266701713012
0.00144263725279
0.000233065181149
0.00123995799655
0.000202774283887
0.001064266779
0.000175702203945
0.000912645415984
0.000151708349898
0.000782143885276
0.000130509785783
0.00067033285917
0.000111891136097
0.000574757846572
9.55821853799e-05
0.000493409690804
8.14221394635e-05
0.000424233319973
6.91833535079e-05
0.000365621268547
5.86811605112e-05
0.000315976718532
4.96524961693e-05
0.000274140697991
4.19008640504e-05
0.000238999523786
3.51502205383e-05
0.000209989797614
2.90716680252e-05
0.000187256933238
2.27444752607e-05
0.000168041242899
1.92746346978e-05
0.000150225376248
1.78361167915e-05
0.000134804570638
1.54851617753e-05
0.000120039058983
1.48021031876e-05
0.000104785239043
1.53307591859e-05
8.96902510936e-05
1.51550685117e-05
7.48438612226e-05
1.49398259486e-05
5.87587462523e-05
1.61842969318e-05
4.02713033181e-05
1.85924719802e-05
1.9464626905e-05
2.09101225741e-05
1.95223402762e-05
0.000898382755715
-0.00174927287883
0.00185230831906
-0.00184696845923
0.00280101581604
-0.00183968928587
0.00374115517671
-0.00182393177194
0.00467024366845
-0.00180283675615
0.00558575985261
-0.00177668003405
0.00648525778382
-0.00174570647254
0.00736639641246
-0.0017101946625
0.00822700054424
-0.00167043628381
0.00906503544447
-0.00162675122267
0.00987865757957
-0.00157945925106
0.0106661706646
-0.00152889804421
0.0114260760222
-0.00147538974592
0.0121570130855
-0.00141926284157
0.0128578106493
-0.0013608149987
0.01352741288
-0.00130033982344
0.0141649326601
-0.00123808698354
0.0147695647505
-0.00117429456372
0.0153406430331
-0.00110914726945
0.0158775432103
-0.00104281488187
0.0163797461967
-0.000975409111612
0.0168467331909
-0.000907028272329
0.0172780575192
-0.000837712942423
0.017673234933
-0.000767496518371
0.0180318257753
-0.000696359465012
0.0183533229563
-0.000624285055678
0.0186372456142
-0.000551211840446
0.0188830267621
-0.000477093873806
0.019090118958
-0.000401851216978
0.0192578830769
-0.000325434053285
0.0193857068831
-0.000247771925185
0.0194728986107
-0.000168840647784
0.0195188162827
-8.86086628284e-05
0.0195227640096
-7.10849875377e-06
0.019484133948
7.56192788923e-05
0.0194023091153
0.000159454752022
0.0192768134098
0.00024425799146
0.0191072187397
0.000329798885996
0.0188932986801
0.000415821616656
0.0186349370645
0.000501978014506
0.018332278487
0.00058789798549
0.0179856345634
0.000673127316265
0.0175956242888
0.000757202497258
0.0171630763243
0.000839590928178
0.0166891555306
0.000919764717521
0.0161752662755
0.000997137793878
0.01562316823
0.00107112967367
0.0150348956896
0.00114109338282
0.0144128722628
0.00120636110722
0.0137598681539
0.00126616436126
0.0130791196906
0.00131966402717
0.0123743381679
0.0013658839892
0.0116498131368
0.00140375066424
0.0109104494642
0.00143208800708
0.0101617788108
0.00144970931758
0.00940994974437
0.00145551919654
0.00866154181439
0.00144865300152
0.00792345730353
0.00142863443898
0.00720254986788
0.00139542573893
0.00650551928153
0.00134950369099
0.00583844993191
0.0012918300583
0.00520680924786
0.00122379134782
0.00461499280684
0.00114715501456
0.0040665729656
0.00106374582448
0.00356421542089
0.000975235062994
0.00310945993579
0.000884010919368
0.00270208506251
0.000793040564814
0.00234043408226
0.000705158269476
0.00202161737427
0.000622445924663
0.00174223872197
0.000546155298705
0.00149855915752
0.000476795254646
0.00128695246439
0.000414448142492
0.00110382651013
0.000358872230119
0.000945933039054
0.000309662451312
0.000810221184879
0.00026626136054
0.000694044723845
0.000228123198088
0.000594916699262
0.000194746878184
0.000510629034256
0.000165760508769
0.000439063854008
0.000140782467555
0.00037842606605
0.000119366535549
0.000327091909215
0.000101018874577
0.000283725015155
8.53125099165e-05
0.000247066128822
7.18404007896e-05
0.000215933881884
6.02466066833e-05
0.00018836384786
5.03455995347e-05
0.000164860699308
4.28176773867e-05
0.000145851972258
3.68807448285e-05
0.000130099148641
3.12863994487e-05
0.000115959055901
2.89909202321e-05
0.000102152463029
2.91997692802e-05
8.76277781436e-05
2.97519180701e-05
7.28715578731e-05
2.97810246026e-05
5.76100129822e-05
3.15357277774e-05
4.03586606778e-05
3.594934527e-05
1.97452801613e-05
4.16295241123e-05
3.93110098629e-05
0.000906605942926
-0.00265587694708
0.00186620150933
-0.00280656335444
0.00282162569615
-0.00279511142085
0.00376855107083
-0.00277085557603
0.00470425208661
-0.00273853499043
0.00562612612845
-0.00269855149071
0.00653168194284
-0.00265125823936
0.00741855612391
-0.00259706492485
0.00828454581187
-0.00253642025016
0.00912760822583
-0.00246980802107
0.00994588394008
-0.00239772718269
0.0107376837405
-0.00232069016556
0.0115015057772
-0.00223920158051
0.0122360115787
-0.00215375853588
0.0129400382985
-0.00206482872937
0.0136125650791
-0.00197285371339
0.0142527217364
-0.0018782275268
0.0148597471958
-0.00178130399968
0.0154329965688
-0.00168237705658
0.0159718941148
-0.00158169293739
0.0164759413034
-0.00147943293281
0.0169446672071
-0.00137573089294
0.0173776402398
-0.00127065850693
0.0177744187915
-0.00116424768466
0.0181345689386
-0.00105647775962
0.0184576175026
-0.000947301822279
0.0187430771966
-0.000836634991545
0.0189904036217
-0.00072438378255
0.0191990288003
-0.000610434878542
0.0193683233859
-0.000494687080814
0.0194976394002
-0.000377041131122
0.019586278604
-0.000257432932888
0.0196335452083
-0.000135822886425
0.0196387221718
-1.22328711881e-05
0.0196011337987
0.00011326587852
0.0195201297416
0.000240517324122
0.0193951562583
0.000369295717699
0.0192257460583
0.000499273700843
0.0190115940439
0.000630043991634
0.0187525484871
0.000761094375231
0.0184486846376
0.000891838337142
0.0181002909086
0.00102159816534
0.017707932896
0.0011496433229
0.0172724296573
0.00127517797525
0.0167949043455
0.00139737968253
0.0162767524948
0.0015153810035
0.0157196848287
0.00162829493011
0.0151257015719
0.00173517696096
0.0144971454008
0.00183502457628
0.013836706589
0.00192671468083
0.0131475081829
0.00200898176519
0.0124331618153
0.00208035560346
0.0116978824548
0.00213916359816
0.0109465682903
0.00218354250508
0.010184867348
0.00221155886289
0.00941915898626
0.00222137891279
0.00865642223361
0.00221154811654
0.00790399287212
0.00218121673305
0.00716925213581
0.00213032147748
0.00645936660538
0.00205953530831
0.00578087240068
0.00197046289967
0.00513957356602
0.00186521856322
0.00453997026624
0.00174687301842
0.00398560991937
0.00161821351334
0.00347978002127
0.00148115741247
0.00302447735011
0.00133940223631
0.00261937119974
0.00119822337262
0.00226211036837
0.00106249528868
0.00194902867673
0.000935594726751
0.00167599800528
0.000819253821891
0.0014388439935
0.000714008917893
0.00123359508217
0.000619757246226
0.00105649113665
0.00053602929186
0.000904122670714
0.000462085573358
0.000773446861226
0.000396985577058
0.000661839343704
0.000339781319292
0.000566926260466
0.000289703874624
0.000486480921067
0.000246251790043
0.000418348231902
0.000208954849396
0.000360676327988
0.000177080869192
0.000311901481269
0.000149831348043
0.00027070126632
0.000126551761061
0.000235893097611
0.000106683975802
0.000206452097863
8.97256992329e-05
0.000181221724853
7.5609581613e-05
0.000159336552723
6.47398472393e-05
0.000139355087156
5.69002585933e-05
0.000121184133679
4.9501100465e-05
0.000106425069435
4.37992111032e-05
9.43950738303e-05
4.12897788309e-05
8.03502211548e-05
4.38635761901e-05
6.44441016929e-05
4.57685890483e-05
4.85744163531e-05
4.7504003704e-05
3.1948863826e-05
5.26617099721e-05
1.61939161659e-05
5.7464678164e-05
5.55523356172e-05
0.000915037417823
-0.00357091259724
0.0018826255236
-0.0037741492102
0.00284613127198
-0.00375861557289
0.00380100510431
-0.00372572724982
0.00474439358669
-0.00368192091038
0.00567361035304
-0.00362776520474
0.00658610270295
-0.00356374675049
0.00747946581385
-0.00349042360873
0.00835146318754
-0.00340841216236
0.00920003477528
-0.00331837341863
0.0100233095745
-0.0032209945391
0.0108196037322
-0.00311697599991
0.0115874250238
-0.00300701307682
0.0123254615601
-0.00289178425223
0.0130325789547
-0.00277193362226
0.0137078006917
-0.00264806177907
0.0143502993061
-0.00252071057421
0.0149593701524
-0.00239035797591
0.0155344187596
-0.00225740669631
0.0160749306208
-0.00212218439472
0.0165804576533
-0.00198493726058
0.017050587204
-0.0018458361811
0.0174849307925
-0.00170497534313
0.017883095365
-0.00156238382304
0.0182446768876
-0.0014180281656
0.0185692359765
-0.00127182799418
0.0188562978733
-0.00112366110555
0.0191053336318
-0.000973381827135
0.0193157673079
-0.000820827781259
0.0194869636243
-0.000665840558226
0.0196182433628
-0.000508274785042
0.0197088784822
-0.000348019757776
0.0197581170556
-0.000185009734954
0.0197651879172
-1.92496620835e-05
0.0197293359407
0.00014917550516
0.0196498363331
0.000320077042482
0.0195260396977
0.000493156142422
0.0193573940982
0.000667985621102
0.0191434959201
0.000844012186789
0.0188841141606
0.00102054871918
0.0185792393616
0.00119678938122
0.0182291013532
0.00137181504898
0.0178342063913
0.00154462080174
0.0173953398035
0.00171412993085
0.0169135846949
0.00187922392627
0.0163903084852
0.00203874965128
0.0158271687096
0.0021915313047
0.0152260989849
0.00233634751179
0.0145893270295
0.00247190232042
0.0139193956595
0.00259675774409
0.0132192338701
0.00270926119347
0.0124922542956
0.00280746154621
0.0117424993976
0.00288905046822
0.0109748075896
0.00295137952239
0.0101949416473
0.00299156996426
0.0094096566411
0.00300682658575
0.00862652336542
0.00299483276845
0.00785364125383
0.00295426515721
0.00709914156336
0.00288496887928
0.00637104662524
0.00278778474511
0.00567648822605
0.00266515623752
0.00502202707207
0.00251980921777
0.00441197191569
0.00235704260665
0.00384942273928
0.00218086738865
0.00333912748421
0.00199154724433
0.00288433765416
0.00179427895215
0.00248442290876
0.00159821842413
0.00213568305941
0.00141131181251
0.00183292169715
0.00123842756272
0.0015708363679
0.00108140776055
0.00134458373319
0.000940324838618
0.00114979255994
0.000814609428312
0.000982432047363
0.000703446649754
0.000838899821705
0.000605673683444
0.000716146807742
0.000519791757551
0.000611698673898
0.000444281074545
0.000523406648368
0.000378044559296
0.00044906970562
0.000320633390485
0.000386350870961
0.000271715897219
0.000333321956929
0.000230150245813
0.000288533844555
0.000194657493786
0.000250756890037
0.000164365576134
0.000218894366038
0.000138582197505
0.000192102852625
0.00011655163078
0.000169714894117
9.80317098086e-05
0.000147995858019
8.64934830513e-05
0.000128413854505
7.65195482182e-05
0.000111378964139
6.65776011009e-05
9.50964886971e-05
6.01274435772e-05
7.91442929135e-05
5.72938437255e-05
6.7333653253e-05
5.57402159128e-05
5.26418606096e-05
6.05396038341e-05
3.6570091178e-05
6.36516748509e-05
2.35873714913e-05
6.57278696591e-05
1.21030464485e-05
6.90301886391e-05
6.76881598512e-05
0.000925941491683
-0.00449685184797
0.0019046641471
-0.00475287078289
0.00287915191038
-0.00473310100771
0.00384473097221
-0.00469130410053
0.00479844197511
-0.00463562899253
0.00573750453556
-0.00456682443479
0.00665928893547
-0.00448552706439
0.00756133128989
-0.00439246122266
0.00844135091264
-0.00428842611441
0.00929726090967
-0.00417427690988
0.0101271774549
-0.00405090344763
0.0109294210165
-0.00391921092487
0.0117025166208
-0.00378009871597
0.0124451856741
-0.00363444217545
0.0131563377054
-0.00348307299747
0.0138350536415
-0.00332676373392
0.0144805702771
-0.00316621151457
0.015092256756
-0.00300202727179
0.015669594055
-0.0028347249131
0.016212147582
-0.0026647171952
0.0167195450667
-0.00249231194645
0.0171914490223
-0.00231771553501
0.017627536791
-0.00214103626699
0.0180274763891
-0.00196229462086
0.0183909116285
-0.0017814321988
0.0187174435257
-0.00159832657023
0.0190066218557
-0.00141280353986
0.0192579328981
-0.0012246546981
0.0194707978678
-0.00103365183467
0.0196445675246
-0.000839566848375
0.0197785284297
-0.000642189397523
0.0198719056299
-0.000441348043982
0.0199238786687
-0.000236930758212
0.0199335950657
-2.89112534703e-05
0.0199001979462
0.000182630691108
0.0198228514852
0.000397484488255
0.0197007805063
0.000615291470188
0.0195333063759
0.000835527091564
0.0193198946755
0.00105749461505
0.0190601951058
0.00128032200929
0.0187540878145
0.00150297371808
0.0184017154816
0.00172426740975
0.018003514379
0.00194290518306
0.0175602248845
0.00215750576393
0.0170728953112
0.00236664307723
0.0165428650248
0.0025688728718
0.01597174413
0.00276274884415
0.0153613854637
0.00294680660911
0.0147138740426
0.00311951978392
0.0140315358703
0.0032792055955
0.0133170086078
0.00342390807603
0.0125733580716
0.00355123404652
0.0118043094699
0.00365823788976
0.0110144962729
0.0037413303145
0.0102097900496
0.00379643730319
0.00939742514967
0.00381934200969
0.00858593323925
0.00380649853372
0.00778452735112
0.00375582125005
0.00700242508316
0.00366723619883
0.00624899974407
0.00354135610167
0.00553206790495
0.00338223067265
0.00486001907706
0.00319198601066
0.00423606159985
0.0029811170732
0.00366098956949
0.00275604568477
0.00314340835816
0.00250922741163
0.0026897116016
0.00224806816623
0.00229845939887
0.00198955995967
0.00196321394179
0.00174664156809
0.00167597373069
0.00152574900808
0.0014296673206
0.00132778973379
0.00121870853486
0.0011513558467
0.00103840332184
0.000994982278676
0.000884383517007
0.000857532624417
0.000752749908622
0.000737371518047
0.000640446613614
0.000632157757938
0.000545370837166
0.000539416217241
0.000465904784026
0.000457565326421
0.000399936916677
0.000386651191226
0.000344558312617
0.000327138424401
0.0002976628993
0.000277087474471
0.000258106831395
0.000234250832504
0.000224838053469
0.000197668815978
0.000196756687306
0.000166695832779
0.000173170182434
0.000140170827896
0.000153745571785
0.000117487336635
0.000134738300266
0.000105534266748
0.000116489346066
9.48038954843e-05
9.70589721355e-05
8.60451845048e-05
7.94593201281e-05
7.7769035487e-05
6.34948750807e-05
7.33091426592e-05
5.09342816115e-05
6.83565769882e-05
4.06837856201e-05
7.08613526618e-05
2.76883267407e-05
7.67336046186e-05
1.65469193407e-05
7.69347427186e-05
8.28690116478e-06
7.73480429158e-05
7.60116343253e-05
0.000939627268205
-0.00543647674189
0.00193260856748
-0.00574584882033
0.00292110126869
-0.00572159151879
0.0039002909905
-0.0056704908459
0.00486709737814
-0.00560243220788
0.00581863023513
-0.00551835345095
0.00675216539421
-0.00541905779248
0.00766516402809
-0.00530545464358
0.00855528964409
-0.00517854571628
0.00942042044661
-0.00503940074133
0.0102586572422
-0.00488913229291
0.0110683258913
-0.00472887047934
0.011847975291
-0.00455973786619
0.012596369894
-0.00438282520069
0.0133124780793
-0.0041991682772
0.0139954553939
-0.00400972663258
0.0146446243979
-0.00381536459927
0.0152594503017
-0.00361683557074
0.0158395147307
-0.00341477006144
0.0163844870206
-0.00320966834701
0.0168940959365
-0.00300189787447
0.0173681011684
-0.00279169575759
0.0178062676785
-0.00257917574808
0.0182083416779
-0.00236433940622
0.0185740310321
-0.0021470901448
0.0189029879736
-0.00192724975657
0.0191947966104
-0.00170457605033
0.0194489624564
-0.00147878189999
0.0196649066994
-0.00124955487263
0.0198419624181
-0.00101657866556
0.0199793763675
-0.000779556687965
0.0200763133298
-0.000538235466256
0.0201318681045
-0.00029243303433
0.0201450819474
-4.20695382442e-05
0.0201149681197
0.00021280321416
0.0200405431369
0.000471971370447
0.0199208676382
0.000735032128385
0.0197550919042
0.00100137126115
0.019542508536
0.00127014970292
0.0192826051075
0.0015403004119
0.0189751172002
0.0018105397992
0.018620072524
0.00207939344557
0.0182178246554
0.00234523744023
0.0177690673452
0.00260635062247
0.0172748282955
0.00286097256236
0.0167364394227
0.00310735569494
0.0161554869833
0.00334379800612
0.0155337541091
0.00356864145246
0.0148731635625
0.00378021411865
0.014175764381
0.00397671824902
0.0134437608889
0.00415602469851
0.0126796815322
0.00431544416724
0.0118866400849
0.00445140662659
0.011068833739
0.00455929276317
0.0102320444693
0.00463337182309
0.00938419125944
0.00466737239075
0.00853519542584
0.00465564892577
0.00769610705644
0.0045950842522
0.00687725021303
0.00448624727598
0.00609049956931
0.00432826487488
0.00534350026055
0.00412937268383
0.00465028387671
0.00388533323231
0.00401028079552
0.00362123664358
0.00341526713612
0.00335117146786
0.00288501093004
0.00303958377074
0.00243354336831
0.00269964109662
0.00205682852167
0.00236637141463
0.0017426364412
0.00206093479722
0.00147785071615
0.00179062576422
0.00125297488087
0.00155275834254
0.00106208058713
0.00134233141585
0.000900618990899
0.00115652932999
0.000763791020122
0.00099443865355
0.000647110238118
0.000854134207992
0.000547448981611
0.00073189451438
0.000463512124179
0.000623428359166
0.00039499512466
0.000526149117823
0.000340061186
0.000441641531019
0.000294131600993
0.00037311939843
0.000254631877231
0.000316627619339
0.00022138058322
0.000267538442142
0.000193654727388
0.00022542662753
0.000169989987257
0.000190390312261
0.000149925403943
0.000160263294494
0.000131170476241
0.000136270587508
0.000113154139609
0.000123581436059
9.68785622038e-05
0.000111110513776
8.20097352842e-05
0.00010094971304
6.56421919764e-05
9.41771992931e-05
5.0300752753e-05
8.86961931092e-05
3.55898479169e-05
8.31239536941e-05
2.64827688761e-05
8.00315692799e-05
1.9693103496e-05
8.35820774729e-05
1.14900492305e-05
8.52032680578e-05
5.65717780486e-06
8.32434012618e-05
8.16920578557e-05
0.000956306951615
-0.00639278038211
0.00196674693317
-0.00675628686904
0.00297237972758
-0.00672722084621
0.003968202697
-0.0066663105774
0.00495098756093
-0.00658521310059
0.0059177097368
-0.00648507125129
0.00686553061386
-0.00636687357641
0.00779181915972
-0.00623173742381
0.00869417096541
-0.0060808908831
0.00957042127007
-0.00591564355206
0.0104186531728
-0.00573735564048
0.0112371997208
-0.00554740745059
0.012024641266
-0.00534716858361
0.0127797966612
-0.00513796857981
0.0135017099809
-0.00492106814103
0.0141896312005
-0.00469763304048
0.0148429930379
-0.00446871000104
0.0154613826006
-0.00423520717085
0.0160445108353
-0.0039978785283
0.0165921788734
-0.00375731491812
0.0171042449766
-0.0035139405305
0.0175805913591
-0.00326801681825
0.01802109464
-0.00301965155397
0.0184255986754
-0.00276881391456
0.0187938927363
-0.00251535235404
0.0191256927528
-0.0022590156847
0.0194206276466
-0.00199947435232
0.0196782279008
-0.00173634313254
0.0198979183102
-0.00146920356789
0.0200790125828
-0.00119762858706
0.0202207127534
-0.000921209610977
0.0203221115136
-0.000639584130807
0.0203822020926
-0.000352470411037
0.0203998941173
-5.97053038216e-05
0.0203740394542
0.000238717440164
0.0203034665859
0.000542607024132
0.0201870264205
0.000851538520684
0.0200236464016
0.00116482081102
0.0198123938557
0.00148147525093
0.0195525425116
0.00180022802643
0.0192436399713
0.00211952198706
0.0188855664275
0.00243754975276
0.0184785791826
0.00275231063738
0.0180233314574
0.00306168721273
0.0175208602582
0.00336353581879
0.0169725362539
0.00365577443335
0.0163799803265
0.0039364531014
0.0157449498305
0.00420377231402
0.0150692294868
0.00445604376786
0.0143545264882
0.0046915270149
0.0136024824048
0.00490819291532
0.0128147592161
0.00510328300975
0.0119934652855
0.00527284743269
0.0111417719224
0.00541112348629
0.0102650387957
0.00551027710199
0.00937187568329
0.00556069681672
0.00847459031599
0.00555311814835
0.00758727107466
0.00548256656224
0.00672053845151
0.00535314925431
0.00589168695532
0.00515727314391
0.00510313203862
0.00491806954777
0.00438835706949
0.00460023131287
0.00373578101192
0.00427393994972
0.00310504146869
0.00398201254558
0.0025506355294
0.00359407956088
0.00210425426402
0.00314612534441
0.00175307013202
0.00271765335527
0.0014722202431
0.00234189322183
0.00123931197422
0.00202363678698
0.00104205754361
0.00175010963798
0.000876002117126
0.00150848576583
0.000738100221667
0.00129452318901
0.000622813580574
0.00110981754408
0.000524159095926
0.000952886412075
0.000438628537598
0.000817513039741
0.00036653006713
0.000695621291557
0.000310884593062
0.000581863771934
0.000270832992649
0.000481768830444
0.000236939821687
0.000407066626434
0.000205405538155
0.00034821123924
0.000179208865752
0.000293773213953
0.000158272643478
0.000246394628992
0.000139548063537
0.000209144318002
0.000123697236474
0.000176141079233
0.000106823636412
0.000153171562176
9.15382295684e-05
0.000138893503492
7.58087249767e-05
0.000126869751739
6.1056402815e-05
0.000115734580182
4.69236862613e-05
0.000108347069888
3.55440168902e-05
0.000100118097084
2.404478218e-05
9.46681682267e-05
1.45997736368e-05
8.95287688107e-05
1.11659202725e-05
8.70809152523e-05
6.6452599649e-06
8.97738788244e-05
3.20898659174e-06
8.67233808358e-05
8.49306024478e-05
0.000976173366242
-0.00736895002363
0.00200743162803
-0.00778754008761
0.00303349167276
-0.00775327729375
0.00404911773241
-0.00768193212588
0.00505089658109
-0.00758698734019
0.00603564122865
-0.00746981059133
0.00700037440582
-0.00733160090479
0.00794235445139
-0.00717371083553
0.00885909550707
-0.00699762455889
0.00974838206306
-0.00680492177547
0.0106082768617
-0.00659724119488
0.011437123262
-0.00637624347021
0.0122335412082
-0.006143575074
0.0129964177944
-0.00590083238972
0.0137248913165
-0.00564952764577
0.014418329917
-0.00539105611947
0.0150763038686
-0.00512666701781
0.0156985532628
-0.00485743794526
0.0162849509336
-0.00458425598946
0.0168354633901
-0.00430780529967
0.0173501104785
-0.00402856377222
0.0178289271051
-0.00374680755484
0.0182719277848
-0.00346262438627
0.0186790766324
-0.00317593269124
0.0190502623467
-0.00288650584667
0.0193852790861
-0.00259399779466
0.019683811327
-0.00229796960996
0.0199454225119
-0.00199791473008
0.0201695456241
-0.00169328452007
0.0203554762511
-0.00138351423895
0.0205023681258
-0.00106805370424
0.0206092325726
-0.000746397759089
0.0206749444211
-0.000418128391033
0.0206982563298
-8.2960084038e-05
0.0206778236251
0.000259210550707
0.0206122417755
0.000608252722149
0.0205000974516
0.00096375013294
0.0203400332972
0.00132495578447
0.0201308250399
0.00169075781338
0.0198714671557
0.00205966370542
0.0195612613041
0.00242980899014
0.0191998980567
0.00279899749944
0.0187875202194
0.00316477597399
0.0183247543781
0.00352454395633
0.017812695131
0.00387568835505
0.0172528365764
0.00421573088877
0.0166469367928
0.00454245124502
0.0159968462154
0.00485396982157
0.0153042763252
0.00514871574298
0.0145706223804
0.00542529860693
0.0137967791473
0.00568214437662
0.0129832176276
0.00591697760226
0.0121302827404
0.00612590917031
0.0112392098859
0.00630235952063
0.0103138491487
0.00643579849172
0.00936340319663
0.00651133093832
0.00840428732907
0.00651241106087
0.00745708778535
0.00642994083883
0.00652764823093
0.00628275281295
0.00564900722315
0.00603606692139
0.00479497602241
0.00577221572301
0.0040685059667
0.00532685762893
0.00342817026457
0.00491439319711
0.00272060902012
0.00468961798943
0.00211574737468
0.00419909302029
0.00168287610512
0.00357901564199
0.00137940056109
0.00302130092893
0.0011528840875
0.00256844082434
0.000964545217756
0.0022121409864
0.000800489704544
0.00191419893466
0.000662986704194
0.0016461442264
0.000553911371025
0.00140362504896
0.000465593077564
0.00119829826736
0.000388085790221
0.00103041659449
0.000316519053113
0.000889241713562
0.000254067048356
0.000758091934737
0.000212377920382
0.000623676652013
0.0001943230637
0.000499860486707
0.000176492979518
0.000424961307446
0.000151234540326
0.000373521636001
0.000132158079969
0.00031288269319
0.000120210266309
0.000258389241308
0.00010615061873
0.000223242813488
9.40137009462e-05
0.000188308408051
7.98473498957e-05
0.000167365874043
6.66395629958e-05
0.000152128425174
5.37431936167e-05
0.000139794895287
4.04454053108e-05
0.000129063814107
2.92670242712e-05
0.000119558528889
1.85873318971e-05
0.00011083402267
1.20961659737e-05
0.000101203266698
6.07581798526e-06
9.55964141791e-05
2.79736233675e-06
9.03986865975e-05
2.08728923347e-06
9.0536539879e-05
8.42201992269e-07
8.80194121554e-05
8.57893134722e-05
0.000999444800122
-0.00836838952155
0.00205508618059
-0.00884317777634
0.00310505941522
-0.00880324493472
0.00414383916178
-0.00872070667602
0.00516778969451
-0.00861093188633
0.00617352737539
-0.00847554193843
0.00715790991801
-0.00831597640577
0.00811806408282
-0.00813385733263
0.00905140846413
-0.0079309604285
0.00995566831809
-0.00770917232331
0.010828884082
-0.00747044663128
0.0116694128381
-0.00721676095339
0.0124759240832
-0.00695007384113
0.0132473884153
-0.0066722831444
0.0139830602764
-0.0063851845391
0.0146824528593
-0.00609043247358
0.0153453067882
-0.00578950314221
0.0159715511929
-0.0054836631124
0.016561260221
-0.00517394401804
0.0171146049767
-0.00486112744106
0.0176318055335
-0.00454573976636
0.0181130839666
-0.00422805961877
0.0185586232713
-0.00390813518493
0.0189685321925
-0.00358581109801
0.0193428187939
-0.00326075960392
0.0196813701863
-0.00293251411999
0.0199839385223
-0.00260050034524
0.0202501291083
-0.00226406526301
0.0204793904813
-0.00192250308601
0.0206710039695
-0.00157508221955
0.0208240752888
-0.00122107652136
0.0209375278521
-0.000859798861398
0.0210101037174
-0.000490649545082
0.0210403730264
-0.000113171464454
0.0210267572103
0.000272887789718
0.0209675673737
0.000667507409333
0.0208610617179
0.00107032431158
0.0207055214645
0.00148056809618
0.0204993464178
0.00189700865016
0.0202411649235
0.00231792446506
0.0199299534286
0.00274110339669
0.0195651516618
0.00316388536091
0.019146759899
0.00358325743731
0.0186753935327
0.00399600264805
0.0181522782091
0.00439890031257
0.0175791559383
0.00478895124801
0.0169581077026
0.00516360414045
0.0162912678904
0.00552091212136
0.0155804948425
0.00585960167031
0.0148269585691
0.00617893927029
0.0140308035887
0.00647842157145
0.0131908483072
0.00675704842434
0.0123047644297
0.00701214184793
0.0113700097836
0.00723726726802
0.0103866380069
0.00741935168091
0.00936305616398
0.00753509881305
0.00832346491898
0.00755218493248
0.00730585160566
0.00744772057439
0.00629125117339
0.00729750213225
0.00536799238922
0.00695942919197
0.00437801654143
0.00676239712617
0.00367564625843
0.00602933100872
0.00314984660742
0.00544027588462
0.00224738171201
0.00559225962907
0.00154425517979
0.0049022158963
0.00115951520771
0.00396398062651
0.000956153557933
0.00322462895895
0.000828098424869
0.00269672464878
0.000702252144739
0.00233794250804
0.000568857093106
0.00204782315715
0.000452627712044
0.00176232192243
0.00037361795894
0.00148285679986
0.000316724323845
0.00125513711876
0.000261869976442
0.00108547242485
0.000198712482181
0.000952355044983
0.000134547476377
0.000822381536242
0.000101722962403
0.00065649636057
0.000118111176741
0.000483492115734
0.00012212304525
0.000421027247371
9.28292155702e-05
0.000402788037325
7.92570247246e-05
0.000326526784202
8.25871494143e-05
0.000255094465993
7.12456254693e-05