/*--------------------------------*- C++ -*----------------------------------*\
| =========                 |                                                 |
| \\      /  F ield         | OpenFOAM: The Open Source CFD Toolbox           |
|  \\    /   O peration     | Version:  v1906                                 |
|   \\  /    A nd           | Web:      www.OpenFOAM.com                      |
|    \\/     M anipulation  |                                                 |
\*---------------------------------------------------------------------------*/
FoamFile
{
    version     2.0;
    format      ascii;
    class       surfaceScalarField;
    location    "47";
    object      phia;
}
// * * * * * * * * * * * * * * * * * * * * * * * * * * * * * * * * * * * * * //

dimensions      [0 3 -1 0 0 0 0];
oriented        oriented;


internalField   nonuniform List<scalar> 
18240
(
0.0122057407839
-0.0122063320448
0.0250995108917
-0.0128945682307
0.0379189660482
-0.0128200232416
0.0505769171303
-0.0126587890403
0.0630144544736
-0.0124380427998
0.0751783603641
-0.0121647697451
0.0870216030531
-0.0118436802819
0.0985005782519
-0.0114798561817
0.10957812193
-0.0110779125772
0.120220470972
-0.0106432395766
0.130400763897
-0.0101805928773
0.1400952943
-0.00969542405925
0.149287317672
-0.00919225656134
0.157962645672
-0.00867621914893
0.166113754599
-0.00815127717928
0.173734835587
-0.00762196498603
0.180826225199
-0.00709149667678
0.187389027825
-0.00656367536094
0.193429877361
-0.00604089814009
0.198955232876
-0.00552621365108
0.203976468344
-0.00502122996308
0.208503921961
-0.0045282941719
0.212552291689
-0.00404831308772
0.216134500428
-0.0035830293643
0.219267367261
-0.00313276349871
0.221965335282
-0.00269876654402
0.224246377626
-0.00228089511543
0.226125625557
-0.00188002264922
0.22762147154
-0.00149565900874
0.228749132449
-0.00112841030039
0.229526920055
-0.000777563384011
0.229969793112
-0.000443596447027
0.230095834819
-0.000125784285312
0.229919957454
0.000175180397124
0.229457514009
0.000462732136017
0.228721579279
0.000735265858475
0.227728226076
0.000993670071706
0.226489742257
0.00123784499054
0.225021151578
0.00146893433667
0.223333720766
0.00168682371089
0.221441435718
0.00189265244774
0.219354557165
0.00208630469532
0.217086042272
0.00226890428003
0.214645175845
0.00244032685231
0.212043913828
0.00260167016797
0.209290612849
0.0027527966754
0.206396268312
0.00289476960248
0.20336836437
0.00302743552065
0.200216984744
0.00315181844275
0.196948803288
0.0032677494942
0.193573044003
0.00337621000999
0.190095631926
0.00347701679102
0.186524984196
0.00357110730941
0.182866338901
0.00365828685966
0.179127357519
0.00373944799169
0.175312648708
0.00381438706201
0.171429167442
0.00388395199369
0.167480948526
0.00394793366292
0.163474286349
0.004007135253
0.159412692175
0.00406134494591
0.15530184297
0.00411132193076
0.151144774377
0.00415685495184
0.146946585797
0.0041986593331
0.142709880289
0.00423652684627
0.138439217041
0.00427112966384
0.134136807559
0.00430226531859
0.12980670539
0.00433056288678
0.12545076753
0.00435582764899
0.121072574544
0.0043786460606
0.116673664571
0.00439883331077
0.11225717578
0.0044169331009
0.10782436009
0.00443277205303
0.103377942619
0.00444685131007
0.098918920852
0.00445901055152
0.0944496349056
0.00446970807665
0.0899708573863
0.00447879770764
0.0854845709565
0.0044866949243
0.080991352346
0.00449326876686
0.0764928537689
0.00449889162985
0.0719894834534
0.0045034483648
0.0674825902718
0.00450726831848
0.062972441193
0.00451025262515
0.0584601088331
0.00451268738715
0.0539457459142
0.00451449017888
0.0494301761919
0.00451590348734
0.0449134664641
0.00451686126546
0.0403962194655
0.00451756080524
0.0358784465767
0.00451795047927
0.0313605647194
0.00451817617231
0.0268425780677
0.00451818636657
0.0223248066315
0.00451803956309
0.0178074363204
0.00451758354926
0.013291186971
0.00451648554141
0.0087778374778
0.00451358004388
0.00428170995468
0.00449635686782
0.00428182016569
0.0128175640287
-0.0250245642213
0.0265090435714
-0.0265867984631
0.0400790680492
-0.0263907384626
0.0534672103533
-0.0260476850611
0.0666195082249
-0.0255910017952
0.0794837892789
-0.0250297935813
0.0920114663843
-0.0243719830563
0.104157766526
-0.0236268819345
0.115883396916
-0.0228041293782
0.127153561678
-0.0219141079579
0.137939420326
-0.0209669965935
0.148216603188
-0.0199732849224
0.157966621944
-0.0189427775251
0.167175008771
-0.0178852556913
0.175832740504
-0.016809468176
0.183934097882
-0.0157239420117
0.191478156777
-0.014635971917
0.198466454733
-0.0135525616666
0.204904590909
-0.0124794087688
0.210799770873
-0.0114219499873
0.216162540158
-0.0103843326189
0.221004259052
-0.00937053709072
0.225338978078
-0.00838332598162
0.22918087753
-0.00742542049008
0.232546280176
-0.00649842168467
0.235451076788
-0.00560402258499
0.237912862207
-0.00474289948329
0.239948358769
-0.00391594668655
0.241575655801
-0.00312313958675
0.242811633059
-0.00236478346595
0.243674271198
-0.00164035147548
0.244180048648
-0.000949738942912
0.244346211401
-0.000292065006281
0.244187769888
0.000333286789146
0.24372273119
0.000927683604547
0.242966361684
0.00149133052045
0.241934489211
0.00202548541424
0.240641201412
0.00253085830956
0.239101319563
0.00300878815851
0.237327897314
0.00346000192514
0.235334702928
0.00388584721392
0.233133743002
0.00428705095272
0.230737730625
0.00466494414082
0.228157643048
0.00502023077658
0.225405163225
0.00535420356091
0.22249027793
0.00566752791009
0.219423681388
0.00596144431928
0.216214420842
0.00623657098966
0.212872252615
0.00649408826839
0.209405341947
0.00673456341408
0.205822562414
0.00695911298664
0.202131256885
0.0071682530719
0.198339472589
0.00736303557568
0.194453789558
0.00754392726951
0.190481483995
0.00771191638541
0.18642843042
0.0078674236099
0.182301187196
0.00801137547682
0.178104977956
0.00814415040881
0.173845693399
0.00826661578889
0.169527957324
0.00837911188827
0.165157039873
0.00848244961275
0.160737012828
0.00857693508487
0.156272569635
0.00866332537958
0.151767274352
0.00874189627839
0.147225284711
0.00881335342467
0.142649698507
0.00887794569197
0.138044175966
0.00893632942212
0.133411387173
0.00898872964917
0.128754530795
0.0090357551794
0.124075885641
0.00907760985858
0.119378222685
0.00911485639601
0.114663463728
0.00914767971677
0.109933984371
0.00917659752586
0.10519138226
0.00920177772381
0.100437668593
0.00922369382074
0.0956741482182
0.00924249823116
0.090902498048
0.00925862082998
0.0861237606267
0.00927219976717
0.0813393080094
0.00928362165528
0.0765499499545
0.00929301125669
0.0717567827867
0.00930071214535
0.0669604127225
0.00930683629364
0.0621616893968
0.00931168424898
0.057361044624
0.00931535544701
0.0525591105561
0.00931810699712
0.0477561741108
0.00932002561425
0.0429526785007
0.00932132341218
0.0381487937775
0.00932207230275
0.033344800183
0.00932243461314
0.0285407715498
0.00932245820448
0.0237368251846
0.00932223861361
0.0189328703301
0.00932177581696
0.0141285553359
0.00932104465415
0.00932284836839
0.00931952736703
0.00451985860936
0.00929958063948
0.00880179359041
0.0129820298396
-0.0380072778433
0.0268080656932
-0.0404135697805
0.0405247490691
-0.0401081384951
0.054057723137
-0.039581385877
0.0673480878044
-0.0388820620562
0.0803416642253
-0.0380240763888
0.0929883549714
-0.0370193417353
0.10524261324
-0.0358818214331
0.11706427358
-0.0346264261474
0.128418382272
-0.0332688687767
0.139275746292
-0.031824962295
0.149612388048
-0.0303105468522
0.159409898796
-0.0287408534864
0.168654626786
-0.0271305699472
0.177337921098
-0.0254932899207
0.185455148899
-0.0238417211189
0.193005906648
-0.0221872191866
0.199992947677
-0.0205401184487
0.206422419364
-0.0189093318793
0.212302762192
-0.017302772985
0.217645011819
-0.0157269962955
0.222461708966
-0.0141876789862
0.226767284826
-0.0126892789365
0.230577003621
-0.0112355491604
0.233907436339
-0.00982919570506
0.236775444221
-0.00847240601028
0.239198734638
-0.00716649605626
0.241194885699
-0.00591243970587
0.242781972979
-0.00471049914453
0.24397762794
-0.0035607474833
0.244799715744
-0.00246267841823
0.24526541252
-0.00141571286014
0.245391919413
-0.000418779584049
0.24519576214
0.000529197760247
0.244693968517
0.00142930083215
0.243901976641
0.00228310709278
0.242835173949
0.00309214209279
0.241508092307
0.00385775514854
0.239935167304
0.00458159723134
0.238129894334
0.00526512013466
0.236105640585
0.00591001418186
0.233874830649
0.00651773572013
0.231449763303
0.00708995332201
0.228841813032
0.00762808471326
0.226062242425
0.00813374342461
0.22312141861
0.00860828350785
0.220029615386
0.00905324346381
0.216796245813
0.00946989949922
0.21343065061
0.00985970470986
0.209941348048
0.0102238511667
0.206336804525
0.0105637021376
0.202624703755
0.0108803641548
0.198812697121
0.0111751107537
0.194907693698
0.0114489650522
0.190916587247
0.0117031132034
0.186845569193
0.0119384987814
0.182700830554
0.0121562247239
0.178487899445
0.0123571601719
0.174212315465
0.0125423294028
0.169878993739
0.0127125324226
0.165492870521
0.0128687198818
0.161058295216
0.0130116280891
0.156579645203
0.0131421386457
0.152060747625
0.0132609291123
0.147505462525
0.0133688165039
0.142917135631
0.0134664242644
0.138299148176
0.0135545085315
0.133654402236
0.0136336425661
0.12898583651
0.0137045250164
0.12429594527
0.0137676824472
0.119587258723
0.0138237586305
0.114861896928
0.0138732362427
0.11012201412
0.0139167064554
0.105369388501
0.0139546104392
0.100605829384
0.0139874883794
0.0958328039686
0.0140157417529
0.0910518068401
0.0140398611071
0.0862640243669
0.0140602096788
0.0814706657583
0.014077229226
0.0766726658229
0.0140912457496
0.0718709774044
0.0141026528745
0.0670663128293
0.0141117400568
0.0622593973574
0.0141188530261
0.057450749701
0.0141242449995
0.0526408964195
0.0141282136999
0.0478301912156
0.0141309759535
0.0430189893028
0.0141327805857
0.0382075051421
0.0141338069524
0.0333959439355
0.0141342527054
0.0285843963839
0.0141342574535
0.0237729196558
0.014133967104
0.018961448777
0.014133487631
0.0141498196002
0.0141329119568
0.00933798195086
0.0141316102726
0.00453485398703
0.0141029462162
0.0133367592294
0.0131588267246
-0.051166790974
0.0271630810897
-0.0544185505337
0.0410548683212
-0.0540006478213
0.054756430715
-0.053283665469
0.0682055003624
-0.0523318333024
0.0813456408638
-0.0511649119018
0.0941250430237
-0.0497994195497
0.106497106985
-0.0482545536085
0.118420937429
-0.0465509023551
0.129861415338
-0.0447099844236
0.140789393176
-0.0427535530827
0.151181429228
-0.0407031874778
0.161019733881
-0.0385797360492
0.17029167029
-0.0364030760235
0.178989552945
-0.0341917143981
0.187110018242
-0.0319627202525
0.194653766353
-0.0297314723433
0.201624886281
-0.0275117359767
0.208030608971
-0.0253155229208
0.213880645573
-0.0231532710024
0.21918699362
-0.0210337761265
0.223963322271
-0.0189644331771
0.228224851742
-0.016951204313
0.231987800239
-0.0149988879067
0.235269340851
-0.0131110968962
0.238087111852
-0.0112905326223
0.240459245911
-0.0095389562922
0.242403938292
-0.00785745380746
0.243939538274
-0.00624639152654
0.245084166902
-0.00470566470231
0.245855861673
-0.00323463283601
0.24627224076
-0.00183234818903
0.246350707342
-0.000497474121202
0.24610817729
0.000771502735755
0.245560790709
0.00197649093276
0.244724451492
0.0031192527017
0.243614628903
0.00420179918437
0.242246080922
0.005226140155
0.240633135971
0.00619440687183
0.238789441071
0.00710868208922
0.23672821902
0.00797113056544
0.234462019763
0.00878383141436
0.232002980834
0.0095489153222
0.22936258646
0.0102684040893
0.226551929168
0.0109443517554
0.223581475367
0.0115786900128
0.220461325464
0.0121733712888
0.217200985284
0.0127302190875
0.213809622529
0.0132510713287
0.210295843672
0.0137376351128
0.206667945195
0.0141916291952
0.202933696122
0.0146146428486
0.199100582716
0.0150082763562
0.195175596844
0.0153740038951
0.191165473196
0.015713311305
0.187076483981
0.0160275630216
0.18291466784
0.0163181363281
0.178685631308
0.0165862924751
0.174394768794
0.0168333069387
0.170047071451
0.0170603448994
0.165647337675
0.0172685869232
0.161199989867
0.0174591090567
0.15670927502
0.0176330035819
0.152179090011
0.0177912639813
0.147613171891
0.0179349003119
0.143014932175
0.0180648293431
0.138387636501
0.0181819842704
0.133734248506
0.0182872103151
0.129057598552
0.0183813684031
0.124360237621
0.0184652365447
0.119644594811
0.0185396072258
0.114912841779
0.0186051948748
0.110167038752
0.0186627266392
0.105409009906
0.0187128562569
0.100640477622
0.0187562479755
0.0958629492447
0.0187934971312
0.0910778393883
0.0188252069291
0.086286368374
0.0188519160153
0.0814896723543
0.0188741679009
0.0766887137712
0.0188924457849
0.0718843791769
0.0189072344103
0.0670774019619
0.0189189623431
0.0622684477469
0.0189280560846
0.0574580495263
0.01893489
0.0526466806174
0.0189398325079
0.047834701746
0.0189432038987
0.0430224208611
0.0189453142946
0.0382100513679
0.0189464297539
0.033397757543
0.018946802448
0.0285856239132
0.0189466453611
0.0237736822038
0.0189461568324
0.0189618979455
0.0189455141446
0.0141502122276
0.0189448422905
0.00933885714716
0.0189432054392
0.0045374914242
0.0189045451218
0.017874365475
0.0133907710704
-0.0645582469765
0.0276408783224
-0.0686693832677
0.0417707469449
-0.0681312360488
0.0557000657306
-0.0672136969367
0.0693630419961
-0.0659955096171
0.0827004782501
-0.0645030375295
0.0956583850967
-0.0627580010409
0.108188677662
-0.0607855083224
0.120249548207
-0.0586124183911
0.131805587511
-0.056266655225
0.142827814068
-0.0537763928301
0.153293445855
-0.0511694175276
0.163185649951
-0.0484725190379
0.172493085147
-0.0457110746174
0.181209493431
-0.0429086659772
0.189333132573
-0.0400868870594
0.196866315862
-0.0372651628618
0.203814826979
-0.0344607386876
0.210187482126
-0.0316886490268
0.215995586094
-0.0289618305509
0.221252559145
-0.0262911841909
0.225973463871
-0.023685757803
0.230174713719
-0.0211528535948
0.233873679479
-0.0186982384347
0.237088480277
-0.0163262622783
0.239837665744
-0.014040068366
0.242140080822
-0.0118417016751
0.24401461353
-0.00973230297428
0.245480121556
-0.00771219639541
0.246555233476
-0.00578105996172
0.24725832452
-0.00393798781216
0.247607362399
-0.00218163696883
0.247619929211
-0.000510273174573
0.247313065827
0.00107814656355
0.246703326326
0.00258603007642
0.245806674787
0.00401571652193
0.244638568026
0.00536973673008
0.243213855052
0.00665069622395
0.241546847145
0.00786127603977
0.239651243472
0.00900415894497
0.237540212956
0.0100820519837
0.235226326759
0.0110976201346
0.232721644667
0.012053517241
0.230037652532
0.0129523272267
0.227185351165
0.0137966008761
0.224175197096
0.0145888026429
0.221017191946
0.0153313512331
0.21772082547
0.0160265706655
0.214295164249
0.016676733246
0.210748796241
0.0172840137007
0.207089917659
0.0178505333409
0.203326278755
0.0183783166487
0.199465268412
0.0188693358578
0.195513860945
0.019325469367
0.191478697777
0.0197485460412
0.187366035368
0.0201403052444
0.183181823856
0.0205024404214
0.178931656149
0.0208365604753
0.174620843181
0.0211442322064
0.170254364437
0.0214269430348
0.165836939851
0.0216861420828
0.161372981925
0.0219232041216
0.156866664036
0.0221394690334
0.152321874474
0.0223362071061
0.147742281253
0.0225146567562
0.143131288231
0.0226759911466
0.138492096278
0.0228213539957
0.133827661793
0.0229518276916
0.129140754312
0.0230684671148
0.124433917598
0.0231722692778
0.119709523553
0.0232642050324
0.114969736171
0.0233451904258
0.110216561825
0.0234161162353
0.105451816238
0.0234778211
0.10067717102
0.0235311187783
0.0958941239087
0.0235767732428
0.0911040416082
0.023615523607
0.0863081334118
0.0236480612519
0.0815074902193
0.0236750523368
0.0767030617722
0.0236971171248
0.0718956918443
0.0237148500291
0.0670860992439
0.0237288011829
0.0622749091136
0.0237394939749
0.0574626377832
0.023747409005
0.0526497202776
0.0237529990561
0.0478364983609
0.0237566755272
0.0430232439076
0.0237588209014
0.0382101497616
0.0237597779829
0.0333973473205
0.0237598597996
0.0285849030169
0.0237593433378
0.0237728329674
0.0237584783003
0.0189611049295
0.0237574838007
0.0141496890791
0.0237564945986
0.00933886594534
0.0237542732924
0.00453830004075
0.0237053479976
0.022412776137
0.0136854589338
-0.0782443885343
0.0282518400496
-0.0832364825743
0.0426871302301
-0.0825672436899
0.0569077504543
-0.0814350250208
0.0708435504828
-0.079932006503
0.0844319031549
-0.0780920750642
0.0976161181969
-0.0759428874089
0.11034625392
-0.0735163017652
0.122579437657
-0.0708462443818
0.134279961837
-0.0679678066027
0.145419195918
-0.0649162372223
0.155975290858
-0.0617261066329
0.165932782293
-0.0584305867829
0.175282060661
-0.0550609125471
0.184018818152
-0.0516459646883
0.192143427589
-0.0482120206371
0.199660357265
-0.0447825980791
0.20657756152
-0.0413784313513
0.212905943499
-0.0380175008268
0.218658816542
-0.0347151563311
0.223851454583
-0.0314842564776
0.228500648629
-0.0283353692301
0.23262435606
-0.0252769601831
0.236241353906
-0.0223156188194
0.239370981271
-0.0194562542193
0.24203287902
-0.0167023143939
0.244246811731
-0.0140559650455
0.246032478739
-0.01151828461
0.247409399772
-0.00908941468045
0.248396781842
-0.00676872362918
0.249013454042
-0.00455492453974
0.249277778227
-0.00244621013887
0.249207618119
-0.000440345738933
0.248820223206
0.00146532391728
0.248132308383
0.00327374426179
0.247160004602
0.00498783483749
0.245918848658
0.00661072350064
0.24442375845
0.00814563194336
0.242689057819
0.00959583803039
0.240728461495
0.0109646309339
0.238555107062
0.0122552975466
0.236181545391
0.0134710868063
0.233619776676
0.0146152059435
0.230881244231
0.0156907931098
0.227976872536
0.016700920534
0.224917062841
0.0176485732581
0.221711731837
0.0185366571323
0.218370308016
0.0193679818564
0.214901769927
0.020145272143
0.211314642605
0.0208711537558
0.207617034807
0.0215481666928
0.203816635139
0.0221787532474
0.199920747853
0.0227652722856
0.195936288462
0.0233099886668
0.191869817914
0.0238150880202
0.18772753769
0.0242826670547
0.183515322201
0.0247147483421
0.179238713411
0.0251132711917
0.17490295147
0.0254801061867
0.170512968979
0.0258170464144
0.166073419875
0.0261258214888
0.161588673453
0.0264080890373
0.157062841584
0.0266654480983
0.152499772673
0.0268994307986
0.147903077273
0.0271115150018
0.143276122112
0.02730311617
0.138622054193
0.0274755992331
0.133943795081
0.0276302706441
0.129244063554
0.027768389413
0.124525370268
0.027891159396
0.119790039047
0.027999739499
0.115040202081
0.028095236247
0.110277819917
0.0281787131326
0.105504677301
0.0282511835268
0.100722401924
0.0283136191832
0.0959324610433
0.0283669435572
0.0911361790145
0.0284120394569
0.086334734793
0.0284497428213
0.0815291782532
0.0284808495437
0.0767204286985
0.0285061097684
0.0719092899659
0.0285262338819
0.0670964500823
0.028541887384
0.0622824951864
0.0285536960633
0.0574679103412
0.0285622415018
0.0526530923946
0.0285680654636
0.0478383513961
0.0285716661597
0.0430239221542
0.028573501838
0.0382099657138
0.0285739880188
0.0333965796737
0.028573500989
0.0285838019429
0.0285723754233
0.0237716191647
0.0285709078666
0.0189599840755
0.0285693607012
0.014148851015
0.0285678724682
0.00933844582479
0.0285649166453
0.00453836299862
0.0285056620176
0.0269512536392
0.0140485288267
-0.0922935962703
0.0290058488085
-0.0981945206681
0.0438182356779
-0.0973803428984
0.0583977387114
-0.0960152323516
0.0726687233256
-0.0942036836826
0.0865643204245
-0.0919883527071
0.100024560573
-0.0894037948179
0.112997297314
-0.0864896917649
0.125438483089
-0.0832880685595
0.13731219713
-0.0798421434566
0.148590428227
-0.0761950749636
0.1592526523
-0.072388920691
0.169285274903
-0.068463782375
0.178680969021
-0.0644571623638
0.187437972475
-0.0604035063663
0.195559360684
-0.0563339295117
0.20305234483
-0.0522760852302
0.209927594339
-0.0482541662346
0.216198620221
-0.0442889943774
0.221881204653
-0.0403981909101
0.226992903969
-0.0365963883522
0.231552601499
-0.0328954819864
0.23558013233
-0.0293048888267
0.239095951693
-0.0258318189508
0.242120867047
-0.0224815331866
0.244675803544
-0.0192575977345
0.246781622856
-0.0161621142621
0.248458964772
-0.0131959399388
0.24972813235
-0.0103588790027
0.250608990352
-0.00764986216983
0.251120899116
-0.00506709724823
0.25128265522
-0.00260821415277
0.251112454038
-0.000270376591173
0.250627773351
0.00194978821585
0.249845555021
0.00405576275556
0.248782072689
0.00605113309047
0.247452952144
0.00793967582416
0.245873168084
0.00972526305055
0.244057060078
0.0114118084955
0.24201833904
0.0130032292355
0.239770108702
0.0145034201034
0.237324876136
0.015916225962
0.234694576084
0.0172454270973
0.231890583467
0.0184947207114
0.228923738869
0.0196677141283
0.22580436165
0.0207679128686
0.222542275394
0.0217987192892
0.219146820769
0.0227634252318
0.215626880272
0.0236652143443
0.211990890279
0.0245071577551
0.208246864622
0.0252922187457
0.204402405579
0.0260232503845
0.200464726098
0.026703001629
0.196440659606
0.0273341161082
0.19233668076
0.0279191389542
0.18815891409
0.0284605162342
0.183913153338
0.0289606020619
0.179604868994
0.0294216582601
0.17523922625
0.0298458614374
0.170821091564
0.0302353026704
0.166355049367
0.0305919943395
0.161845407792
0.0309178696663
0.15729621421
0.0312147891593
0.152711260285
0.031484539953
0.148094096507
0.0317288418027
0.143448036705
0.0319493461692
0.138776171656
0.0321476417121
0.134081373224
0.0323252531459
0.129366307193
0.032483646233
0.124633437134
0.032624226413
0.11988503654
0.0327483432936
0.115123192563
0.0328572891082
0.110349817561
0.032952302739
0.105566652804
0.0330345680309
0.100775279476
0.0331052173509
0.0959771224723
0.0331653298413
0.0911734609435
0.0332159345479
0.0863654322355
0.0332580086423
0.0815540419878
0.0332924801466
0.0767401683445
0.0333202261915
0.0719245716121
0.0333420753679
0.0671078988798
0.0333588060586
0.062290693269
0.0333711484455
0.0574733989886
0.0333797829928
0.0526563703519
0.0333853421469
0.0478398766192
0.0333884090075
0.043024110751
0.0333895188807
0.0382091939385
0.0333891582909
0.0333951827771
0.0333877660291
0.0285820771485
0.0333857337419
0.0237698295897
0.0333834064324
0.0189583519071
0.0333810791033
0.0141475550188
0.0333789036574
0.00933761249308
0.0333751029902
0.00453805612976
0.0333054543162
0.0314894192397
0.0144862320791
-0.106780504334
0.0299153510278
-0.113624349453
0.0451822100154
-0.11264791144
0.0601932467477
-0.111026968408
0.0748659907869
-0.108877116257
0.0891283935646
-0.106251431551
0.102916574685
-0.103192638758
0.116175858976
-0.0997496249101
0.128860985224
-0.0959738286691
0.14093601872
-0.091917795461
0.152373966278
-0.0876336247634
0.163156166931
-0.0831717072294
0.173271535793
-0.0785797200606
0.182715715791
-0.0739018942654
0.191490200525
-0.0691785255572
0.199601461152
-0.0644457073959
0.207060118269
-0.0597352420109
0.213880170245
-0.0550747006056
0.220078300206
-0.0504875891758
0.225673257787
-0.0459935961035
0.23068532575
-0.0416088865013
0.235135859117
-0.0373464284699
0.239046900704
-0.0332163263358
0.242440857296
-0.0292261545922
0.24534023811
-0.0253812760977
0.247767439479
-0.021685144542
0.249744577294
-0.0181395808133
0.251293352336
-0.014745027242
0.252434950822
-0.0115007732271
0.253189966783
-0.00840515765737
0.25357835042
-0.00545574403315
0.253619371933
-0.00264948241708
0.253331592241
1.71720317901e-05
0.252732723591
0.00254844165698
0.251839948579
0.00494833896955
0.250669683209
0.00722121570411
0.249237640116
0.00937155193464
0.247558838892
0.0114039127762
0.245647625162
0.0133228859854
0.243517688449
0.0151330447118
0.241182084734
0.0168389173747
0.238653256709
0.0184449620658
0.235943057721
0.0199555484684
0.233062772568
0.0213749422918
0.230023141338
0.0227072955928
0.226834379688
0.0239566382844
0.223506201745
0.0251268742661
0.220047839265
0.0262217777504
0.216468063124
0.0272449932438
0.212775201029
0.028200035047
0.208977157407
0.0290902896918
0.205081429554
0.0299190174168
0.201095125843
0.0306893560352
0.197024980326
0.0314043235501
0.19287736931
0.0320668227582
0.188658324505
0.0326796444127
0.18437354807
0.0332454720638
0.18002842443
0.0337668853771
0.175628033944
0.0342463648997
0.171177163553
0.0346862952706
0.166680319223
0.0350889696939
0.162141735586
0.0354565928874
0.157565387322
0.0357912851507
0.152954997966
0.0360950849601
0.148314050385
0.036369952561
0.143645794894
0.0366177721734
0.13895325898
0.0368403550982
0.134239254884
0.0370394415265
0.129506388699
0.0372167031617
0.124757067536
0.0373737446496
0.119993508126
0.0375121057591
0.115217743674
0.0376332624655
0.110431632084
0.0377386287079
0.105636862603
0.0378295571851
0.10083496374
0.0379073407405
0.0960273097951
0.0379732129069
0.0912151285528
0.0380283489687
0.0863995077611
0.0380738663037
0.0815814026356
0.0381108251727
0.0767616423833
0.0381402289063
0.0719409375267
0.0381630244671
0.0671198866117
0.0381801025266
0.0622989834212
0.0381922978526
0.0574786238617
0.038200389319
0.0526591132371
0.038205100174
0.0478406728056
0.0382070980866
0.0430234470071
0.0382069952615
0.0382075091917
0.0382053485743
0.03339286913
0.038202660148
0.0285794798815
0.0381993763259
0.0237672434764
0.0381958879144
0.0189560287187
0.0381925345011
0.0141456971367
0.0381894797507
0.00933634309496
0.038184693044
0.00453747034832
0.0381045560465
0.0360270036503
0.0150061152783
-0.121787291286
0.0309959077822
-0.129614852224
0.0468018708729
-0.128454578389
0.0623234088023
-0.126549202061
0.077469636616
-0.124024027835
0.0921622601662
-0.120944726622
0.106332818459
-0.117363855256
0.119923831859
-0.113341282338
0.132888897282
-0.108939523384
0.14519242494
-0.104221936771
0.156809018248
-0.0992508158442
0.167722609974
-0.0940858801377
0.177925445806
-0.088783120501
0.187416997061
-0.0833939930347
0.196202867197
-0.0779649262732
0.204293740996
-0.0725370944875
0.211704409299
-0.0671464065436
0.218452889265
-0.0618236594951
0.224559649634
-0.0565948113997
0.230046942204
-0.0514813333254
0.23493823599
-0.0465006079712
0.239257745842
-0.0416663489785
0.243030046879
-0.0369890212153
0.246279763365
-0.0324762481192
0.249031322932
-0.0281331960743
0.251308764914
-0.0239629303428
0.253135595391
-0.0199667386264
0.254534679253
-0.0161444220096
0.255528164108
-0.012494552665
0.256137428011
-0.0090147000051
0.256383049346
-0.0057016273824
0.256284795177
-0.00255147388668
0.255861610563
0.000440126802116
0.255131443021
0.0032783952285
0.254111714942
0.00596786954692
0.25281897346
0.00851377578623
0.251269004524
0.0109213553171
0.249476854961
0.0131959123074
0.247456858252
0.0153427479625
0.245222660952
0.0173671222712
0.242787250567
0.0192742228124
0.240162982402
0.0210691397785
0.237361607053
0.0227568476716
0.234394296168
0.0243421910114
0.231271668491
0.0258298748994
0.228003813824
0.0272244580377
0.224600317125
0.0285303493226
0.221070280383
0.0297518057504
0.217422344616
0.0308929329861
0.213664709575
0.0319576863913
0.209805153637
0.0329498740752
0.205851051419
0.0338731598018
0.201809391675
0.0347310674768
0.197686792967
0.0355269850469
0.193489519727
0.0362641696841
0.18922349617
0.0369457520817
0.184894320734
0.0375747418421
0.180507278443
0.0381540317594
0.17606735391
0.0386864030775
0.171579242374
0.0391745295078
0.167047361483
0.0396209821573
0.162475861203
0.0400282331216
0.157868634565
0.0403986599588
0.153229326644
0.0407345487869
0.14856134446
0.0410380982499
0.1438678652
0.041311422087
0.139151845424
0.0415565525735
0.134416028691
0.0417754425762
0.129662954228
0.0419699684878
0.124894964084
0.042141931795
0.120114211383
0.0422930615376
0.115322667138
0.0424250154429
0.110522128192
0.0425393819552
0.105714223794
0.0426376809886
0.100900423318
0.0427213655755
0.0960820426872
0.0427918223015
0.0912602519493
0.0428503726267
0.0864360816255
0.0428982730596
0.0816104301595
0.0429367162015
0.0767840702977
0.0429668307221
0.0719576564207
0.0429896821771
0.0671317310962
0.0430062728388
0.0623067323512
0.0430175423326
0.0574830004185
0.043024367393
0.0526607851434
0.0430275623605
0.0478402522883
0.0430278788718
0.0430214911023
0.0430260063656
0.0382045201142
0.0430225717692
0.0333892932791
0.0430181394224
0.0285757087186
0.0430132120358
0.0237636169839
0.0430082297899
0.0189528247007
0.0430035661549
0.0141431311558
0.0429994051141
0.00933457510453
0.0429934917313
0.0045366209327
0.0429027448671
0.0405637328074
0.0156174680401
-0.137405428164
0.0322668858962
-0.146264971283
0.0487056188858
-0.144894012514
0.0648243955921
-0.142668669242
0.0805220411746
-0.13972235293
0.0957128171306
-0.136136169332
0.11032299221
-0.131974683654
0.124292095356
-0.127311024695
0.13757282326
-0.122220875457
0.150130511106
-0.116780233445
0.161942185425
-0.111063082842
0.172995352398
-0.105139623617
0.183286645575
-0.0990749734119
0.192820432063
-0.0929283226527
0.201607457778
-0.0867524780859
0.209663582079
-0.0805937281066
0.217008637928
-0.0744919546194
0.223665430683
-0.0684809276698
0.229658882227
-0.062588721336
0.235015312542
-0.0568382052834
0.239761850864
-0.051247571042
0.243925960247
-0.0458308664847
0.247535063084
-0.040598515468
0.250616250569
-0.0355578105383
0.253196064187
-0.0307133681071
0.255300334767
-0.0260675429811
0.256954069616
-0.0216207991634
0.258181376746
-0.0173720385803
0.259005419262
-0.0133188883914
0.259448391674
-0.00945794959436
0.259531515543
-0.0057850121445
0.259275056751
-0.00229525943364
0.258698343748
0.00101661127852
0.257819580158
0.0041569462694
0.256656374534
0.00713087908137
0.255225391394
0.00994457905043
0.253542466963
0.0126041157354
0.251622650504
0.0151155803471
0.249480237097
0.0174850282153
0.247128803128
0.0197184381254
0.244581240663
0.0218216818974
0.241849790706
0.0238005008795
0.238946075088
0.0256604886454
0.235881126849
0.0274070786212
0.232665419062
0.0290455357428
0.22930889214
0.0305809515004
0.22582097956
0.0320182415801
0.222210632149
0.0333621457786
0.218486340843
0.0346172294786
0.214656158165
0.0357878866254
0.210727718256
0.0368783435144
0.206708255816
0.0378926635479
0.202604623691
0.0388347522625
0.198423309571
0.039708362979
0.194170451432
0.0405171023386
0.189851852289
0.0412644362403
0.185472993789
0.0419536953903
0.181039049295
0.0425880811287
0.176554895909