/*--------------------------------*- C++ -*----------------------------------*\
| =========                 |                                                 |
| \\      /  F ield         | OpenFOAM: The Open Source CFD Toolbox           |
|  \\    /   O peration     | Version:  v1906                                 |
|   \\  /    A nd           | Web:      www.OpenFOAM.com                      |
|    \\/     M anipulation  |                                                 |
\*---------------------------------------------------------------------------*/
FoamFile
{
    version     2.0;
    format      ascii;
    class       volVectorField;
    location    "436";
    object      Ua;
}
// * * * * * * * * * * * * * * * * * * * * * * * * * * * * * * * * * * * * * //

dimensions      [0 1 -1 0 0 0 0];


internalField   nonuniform List<vector> 
9216
(
(-0.0103630155043 0.010371675682 0)
(-0.0109359175064 0.0334732305794 3.91320672348e-27)
(-0.0109320548115 0.0569311938962 -7.07920920928e-31)
(-0.0108294514538 0.080396294339 0)
(-0.010683432368 0.103471339007 0)
(-0.0104978296861 0.126062158983 0)
(-0.0102775930816 0.148067208031 0)
(-0.0100255730501 0.169394555148 0)
(-0.00974515421401 0.18996132621 0)
(-0.00943883211436 0.209694362459 0)
(-0.00911009749439 0.228529869029 0)
(-0.00876140843192 0.246414036577 0)
(-0.00839632164105 0.263302471159 0)
(-0.00801711781968 0.279160485786 0)
(-0.00762725394052 0.293962246893 0)
(-0.00722868531019 0.307690788881 0)
(-0.00682464193552 0.320336965227 0)
(-0.00641666228349 0.331899284697 0)
(-0.00600768018866 0.342382778143 0)
(-0.005598784211 0.351798759421 0)
(-0.00519260035501 0.36016369876 0)
(-0.00478978566567 0.367498983047 0)
(-0.0043926843469 0.373829866811 0)
(-0.00400156817 0.379185282514 0)
(-0.00361854601442 0.383596900146 0)
(-0.00324356155423 0.387098999561 0)
(-0.0028785320339 0.389727650617 0)
(-0.00252312194507 0.391520645474 0)
(-0.00217909344692 0.392516788044 0)
(-0.00184587768333 0.392755873771 0)
(-0.00152512262715 0.392278041498 0)
(-0.00121599484734 0.391123987977 0)
(-0.000919930537285 0.389334022913 0)
(-0.000635961241564 0.386948203166 0)
(-0.000365498919623 0.384006168648 0)
(-0.000107396834295 0.380546983659 0)
(0.000137064623833 0.376608820227 0)
(0.000369191004812 0.372228957862 0)
(0.000587803652684 0.36744352138 0)
(0.000794339146917 0.36228748533 0)
(0.000987708511901 0.356794486892 0)
(0.00116945499438 0.350996819267 0)
(0.00133857070633 0.344925320798 0)
(0.0014966827363 0.338609356936 0)
(0.00164285205399 0.332076778387 0)
(0.00177876281133 0.325353884207 0)
(0.00190353358018 0.318465452762 0)
(0.00201887957519 0.311434687368 0)
(0.00212396236283 0.304283313345 0)
(0.0022204994533 0.297031499487 0)
(0.00230768323738 0.28969802389 0)
(0.00238720765709 0.282300171916 0)
(0.00245828311027 0.274853962079 0)
(0.00252255461964 0.267374012917 0)
(0.00257924308559 0.259873828355 0)
(0.00262992529227 0.25236563269 0)
(0.0026738275088 0.244860703802 0)
(0.00271244255737 0.237369168575 0)
(0.00274500399939 0.229900380246 0)
(0.002772912586 0.222462673892 0)
(0.00279541430774 0.215063774879 0)
(0.00281381399813 0.207710509538 0)
(0.00282738112186 0.200409239873 0)
(0.0028373270977 0.193165532443 0)
(0.00284295713408 0.185984607328 0)
(0.00284539407009 0.178870965606 0)
(0.0028439935638 0.17182884869 0)
(0.00283979785373 0.164861832118 0)
(0.00283222565156 0.15797328596 0)
(0.00282224598239 0.151165940634 0)
(0.00280935191193 0.1444423463 0)
(0.00279444657026 0.137804421865 0)
(0.00277710400714 0.131253907015 0)
(0.00275816607683 0.124791903081 0)
(0.00273729096935 0.118419317166 0)
(0.00271526204119 0.112136406378 0)
(0.0026918195591 0.105943210097 0)
(0.00266768803402 0.0998391057627 0)
(0.0026426842665 0.093823229699 0)
(0.00261747159927 0.0878940531673 0)
(0.00259193383554 0.0820497897672 0)
(0.00256666828597 0.0762879969408 0)
(0.00254161354562 0.0706059717971 0)
(0.00251729329632 0.0650003832451 0)
(0.00249368363851 0.0594676591235 0)
(0.00247121833397 0.0540036566468 0)
(0.00244987604789 0.0486040584024 0)
(0.00242994309008 0.0432641190109 0)
(0.00241126408635 0.0379791555545 0)
(0.00239365889454 0.0327445882705 0)
(0.00237600020205 0.0275570235906 0)
(0.00235545757201 0.0224161722399 0)
(0.00232405597778 0.0173315240793 0)
(0.00224567015861 0.0123801376575 0)
(0.00209979843865 0.00702444314845 0)
(0.00345068774254 0.00345174042264 0)
(-0.0335476854145 0.011031135519 0)
(-0.0370841945494 0.0373764797389 0)
(-0.0369967825914 0.0636493289019 -4.10792474055e-27)
(-0.0364939512299 0.089954296886 0)
(-0.0357956378011 0.115787515197 0)
(-0.0349281212603 0.141064169359 0)
(-0.0339068067557 0.165676434717 0)
(-0.0327454522204 0.189523023125 0)
(-0.0314595499617 0.212511759483 0)
(-0.0300638397835 0.234560907505 0)
(-0.0285748208155 0.255599413069 0)
(-0.0270074990066 0.275567329826 0)
(-0.0253783220543 0.294415546004 0)
(-0.0237014720064 0.312105752133 0)
(-0.0219923348532 0.32860980184 0)
(-0.0202634122761 0.3439093649 0)
(-0.018528334757 0.357995056412 0)
(-0.0167974157588 0.370865905622 0)
(-0.0150821839099 0.38252838116 0)
(-0.0133905880483 0.392995793327 0)
(-0.0117320108552 0.402287322571 0)
(-0.0101121223005 0.410427446246 0)
(-0.00853832486839 0.417445045496 0)
(-0.00701425366691 0.423372910147 0)
(-0.00554560443853 0.428246959531 0)
(-0.0041342818948 0.432105842123 0)
(-0.00278456425452 0.434990274276 0)
(-0.00149691673366 0.436942724998 0)
(-0.000274459214667 0.438006856488 0)
(0.000883527305185 0.438227269155 0)
(0.00197485233148 0.437649052724 0)
(0.00300123391779 0.436317405464 0)
(0.00396133905332 0.434277608345 0)
(0.00485769239337 0.431574804148 0)
(0.00568949919815 0.42825339812 0)
(0.00645990573657 0.424357087807 0)
(0.0071686220724 0.419928578107 0)
(0.00781929657519 0.415009511563 0)
(0.0084120091609 0.409640254421 0)
(0.00895077437529 0.403859843118 0)
(0.00943593489661 0.397705824945 0)
(0.00987175282774 0.391214220948 0)
(0.0102587432618 0.384419420457 0)
(0.0106013108893 0.377354156946 0)
(0.0109000614868 0.370049453084 0)
(0.0111594443083 0.362534606236 0)
(0.0113800839256 0.354837183444 0)
(0.0115663852548 0.346983014352 0)
(0.0117189257349 0.338996233114 0)
(0.0118419834363 0.330899275674 0)
(0.0119360335855 0.322712967143 0)
(0.0120051569753 0.314456520339 0)
(0.0120496818726 0.306147663401 0)
(0.0120734335869 0.297802634606 0)
(0.0120765654919 0.289436345779 0)
(0.0120626078137 0.281062368286 0)
(0.0120315273581 0.272693123959 0)
(0.0119865374944 0.264339855807 0)
(0.0119274269582 0.25601283967 0)
(0.0118570913987 0.247721334433 0)
(0.0117751661294 0.239473805166 0)
(0.01168424464 0.23127784784 0)
(0.0115838489535 0.223140417656 0)
(0.0114763010665 0.215067726104 0)
(0.0113610579049 0.207065467286 0)
(0.0112402084105 0.199138686551 0)
(0.0111131971182 0.191292001389 0)
(0.0109819226158 0.183529444269 0)
(0.0108458663432 0.175854674516 0)
(0.0107067763202 0.168270799251 0)
(0.0105642135559 0.160780576215 0)
(0.010419809679 0.153386219289 0)
(0.0102732358592 0.146089591875 0)
(0.0101260314152 0.138892003633 0)
(0.00997799556227 0.13179439653 0)
(0.00983058914071 0.12479714048 0)
(0.00968374291266 0.117900213234 0)
(0.00953884173736 0.111103001342 0)
(0.00939593921288 0.104404476467 0)
(0.00925633740702 0.0978030077466 0)
(0.00912019280628 0.0912965358304 0)
(0.00898870903699 0.0848824006513 0)
(0.00886211635856 0.0785575154054 0)
(0.00874149508403 0.0723182130304 0)
(0.00862710672977 0.0661604216811 0)
(0.00851986200088 0.0600795322162 0)
(0.00841997122328 0.0540705780181 0)
(0.00832804607218 0.0481281232631 0)
(0.00824397940709 0.0422464286536 0)
(0.00816753729694 0.036419275138 0)
(0.00809704216479 0.0306397811093 0)
(0.0080285331034 0.0248991138693 0)
(0.00795152345315 0.0191818026874 0)
(0.00783716539537 0.0134522774975 0)
(0.00753989083048 0.00752518095933 0)
(0.00701797325558 0.00209475582156 0)
(-0.0574339136293 0.0111783661534 0)
(-0.0635838376644 0.0379933142957 0)
(-0.0633652366132 0.0645982400001 -4.11166557445e-27)
(-0.0624935237931 0.0912865411597 0)
(-0.0613113157153 0.117491868239 0)
(-0.0598525021953 0.143123994087 0)
(-0.0581380609222 0.168071284323 0)
(-0.0561902009861 0.192230110035 0)
(-0.0540335125627 0.215506638445 0)
(-0.0516932787138 0.237817904393 0)
(-0.0491960702767 0.259092179276 0)
(-0.0465679016256 0.279269225447 0)
(-0.0438351250018 0.298300134052 0)
(-0.041022498675 0.316147096994 0)
(-0.038154419515 0.332782853023 0)
(-0.0352529432537 0.34819013922 0)
(-0.0323393643868 0.362360895753 0)
(-0.0294321973684 0.37529554097 0)
(-0.0265490839834 0.38700207413 0)
(-0.023704721766 0.397495302489 0)
(-0.0209130581282 0.406795955179 0)
(-0.0181851355954 0.41492995825 0)
(-0.0155315181363 0.421927638387 0)
(-0.0129600171037 0.427823101583 0)
(-0.0104782944342 0.43265355824 0)
(-0.00809144054986 0.436458816607 0)
(-0.00580471170216 0.439280726898 0)
(-0.00362095102676 0.441162774282 0)
(-0.0015434366592 0.442149618371 0)
(0.000426845705992 0.442286760191 0)
(0.00228826173954 0.44162016807 0)
(0.00404137332755 0.440195990023 0)
(0.00568584395481 0.4380602337 0)
(0.00722346676089 0.435258581886 0)
(0.00865503907818 0.431836099578 0)
(0.00998338009668 0.42783706056 0)
(0.0112101397207 0.423304738098 0)
(0.0123389238571 0.418281269463 0)
(0.0133720436811 0.41280749818 0)
(0.0143136962447 0.406922872326 0)
(0.0151666755469 0.400665329533 0)
(0.0159355926486 0.39407122374 0)
(0.0166235650557 0.387175251541 0)
(0.0172354574275 0.380010405062 0)
(0.0177745652397 0.372607934995 0)
(0.0182458581208 0.364997326117 0)
(0.0186526753673 0.357206297328 0)
(0.0189999535202 0.349260798946 0)
(0.0192909517152 0.341185045887 0)
(0.0195304467559 0.333001533474 0)
(0.0197215078631 0.324731103262 0)
(0.0198686421037 0.31639297511 0)
(0.0199746378455 0.308004839602 0)
(0.0200436446605 0.299582900771 0)
(0.0200781052364 0.291141991449 0)
(0.0200817529264 0.282695621532 0)
(0.0200566502223 0.274256107283 0)
(0.0200060878894 0.265834617411 0)
(0.0199317471625 0.257441310423 0)
(0.0198364834317 0.249085372476 0)
(0.0197216265988 0.240775153384 0)
(0.0195896334568 0.232518189569 0)
(0.0194415389467 0.224321333836 0)
(0.0192794614511 0.216190759916 0)
(0.0191042146556 0.208132079589 0)
(0.018917652389 0.200150326177 0)
(0.0187204489618 0.192250057757 0)
(0.0185142717706 0.184435320556 0)
(0.0182997350968 0.176709736306 0)
(0.0180783922866 0.169076447568 0)
(0.0178508662687 0.161538191802 0)
(0.0176186557793 0.154097233311 0)
(0.0173824432769 0.146755425717 0)
(0.0171437136945 0.139514135435 0)
(0.0169032389041 0.132374297201 0)
(0.0166625102926 0.125336335097 0)
(0.0164223967533 0.118400214185 0)
(0.0161843958004 0.111565364143 0)
(0.0159494608114 0.104830731407 0)
(0.0157190773168 0.0981947101365 0)
(0.0154942534327 0.0916551971799 0)
(0.0152764297027 0.0852095333225 0)
(0.0150666254029 0.0788545634873 0)
(0.0148661898382 0.0725865898177 0)
(0.0146760945761 0.0664014364914 0)
(0.0144975310191 0.0602944125711 0)
(0.0143313327615 0.0542603759421 0)
(0.0141784140209 0.0482936896118 0)
(0.0140392916278 0.0423882446757 0)
(0.0139143483023 0.0365373078958 0)
(0.0138034527375 0.0307332619651 0)
(0.0137062769355 0.0249668312318 0)
(0.0136227531617 0.0192251716548 0)
(0.0135542726942 0.0134859646343 0)
(0.0134514182233 0.00778083432926 0)
(0.0123464671577 0.00223124812202 0)
(-0.0818785708988 0.0113081170975 0)
(-0.090716772678 0.0385736744765 0)
(-0.0903959042366 0.065525160979 4.10975276125e-27)
(-0.0891369364742 0.0925808641691 0)
(-0.087432214665 0.119137427434 0)
(-0.0853317916401 0.145099584106 0)
(-0.0828655712516 0.170351377815 0)
(-0.0800658049721 0.194786169879 0)
(-0.0769677412146 0.218308079197 0)
(-0.0736083084864 0.240832882037 0)
(-0.0700256103989 0.262288352124 0)
(-0.0662576364458 0.282614388533 0)
(-0.0623420053821 0.301762826271 0)
(-0.0583148072397 0.319697068578 0)
(-0.0542106343018 0.336391489696 0)
(-0.0500615844687 0.351830741333 0)
(-0.0458975884001 0.366008913396 0)
(-0.0417455711122 0.378928674585 0)
(-0.0376300513017 0.390600342291 0)
(-0.0335724295681 0.401040996588 0)
(-0.029591808798 0.410273583945 0)
(-0.0257043522223 0.418326110013 0)
(-0.0219242534513 0.425230858709 0)
(-0.01826309739 0.431023718514 0)
(-0.0147309080092 0.435743545407 0)
(-0.0113354554414 0.439431626723 0)
(-0.00808333094638 0.442131172066 0)
(-0.00497917501083 0.4438868857 0)
(-0.0020267618026 0.444744552052 0)
(0.000771848841675 0.444750685285 0)
(0.00341521679957 0.443952181841 0)
(0.00590343126353 0.442396059385 0)
(0.00823693544625 0.440129070819 0)
(0.010417551179 0.437197567868 0)
(0.0124473209151 0.433647233271 0)
(0.014329480335 0.429522877256 0)
(0.0160673027517 0.424868256854 0)
(0.0176651178189 0.419725925995 0)
(0.0191271434028 0.414137094498 0)
(0.0204585287512 0.408141516838 0)
(0.0216641795657 0.401777390433 0)
(0.0227498195251 0.395081277444 0)
(0.0237208131086 0.388088038218 0)
(0.0245832368005 0.380830782363 0)
(0.0253427035859 0.373340834706 0)
(0.0260054371451 0.365647714083 0)
(0.0265771038094 0.357779130613 0)
(0.0270638826823 0.34976099059 0)
(0.0274713115102 0.341617423531 0)
(0.0278053483979 0.33337081177 0)
(0.0280712399854 0.32504184531 0)
(0.028274569904 0.316649572876 0)
(0.0284201576137 0.308211480452 0)
(0.0285130905556 0.299743559295 0)
(0.0285576625197 0.291260402681 0)
(0.0285583847205 0.282775284167 0)
(0.0285189709406 0.274300264939 0)
(0.0284433232267 0.265846274888 0)
(0.0283345700457 0.257423222751 0)
(0.0281960198886 0.249040072047 0)
(0.0280302562043 0.240704945891 0)
(0.0278400524814 0.232425191036 0)
(0.0276275264206 0.224207471115 0)
(0.0273950084099 0.216057813584 0)
(0.0271442553708 0.207981686575 0)
(0.0268772657884 0.199984026093 0)
(0.0265955530245 0.192069294674 0)
(0.0263008998709 0.184241488547 0)
(0.0259946900511 0.176504178122 0)
(0.0256785975805 0.168860497263 0)
(0.0253539752674 0.161313168271 0)
(0.0250224751147 0.153864477175 0)
(0.0246854922905 0.146516286866 0)
(0.02434471554 0.139270003503 0)
(0.0240016255425 0.132126582798 0)
(0.0236579756012 0.125086493036 0)
(0.0233153432445 0.118149719162 0)
(0.022975543772 0.111315727567 0)
(0.0226402342864 0.104583472557 0)
(0.0223112634466 0.0979513671721 0)
(0.021990326828 0.0914172951421 0)
(0.0216792572933 0.0849785904721 0)
(0.0213797302404 0.0786320566881 0)
(0.0210934983783 0.072373955837 0)
(0.0208221442885 0.066200033574 0)
(0.0205672624542 0.0601055140049 0)
(0.020330255687 0.054085123369 0)
(0.0201124679772 0.048133075964 0)
(0.0199150291887 0.0422430679 0)
(0.0197389733909 0.0364081992713 0)
(0.0195852262012 0.0306208622434 0)
(0.0194549766928 0.0248724969306 0)
(0.0193501895487 0.0191533313729 0)
(0.0192711095457 0.0134481288954 0)
(0.0191300015806 0.00783150285872 0)
(0.0172384839758 0.00229512802213 0)
(-0.106723988624 0.0114749735644 0)
(-0.118258063187 0.0393347939442 0)
(-0.11782855444 0.0667657360747 0)
(-0.11616694738 0.0943141441162 0)
(-0.113917956301 0.121339062497 0)
(-0.111148921264 0.147739704219 0)
(-0.107900072895 0.173394849759 0)
(-0.104214734117 0.198193893281 0)
(-0.100139924772 0.222038194505 0)
(-0.0957250029625 0.244841893079 0)
(-0.0910205561009 0.266532167198 0)
(-0.0860771258546 0.287049236174 0)
(-0.0809443687475 0.306346066695 0)
(-0.075670045602 0.324387858313 0)
(-0.0702995109409 0.341151327639 0)
(-0.0648749970931 0.356623864333 0)
(-0.0594354382361 0.370802576631 0)
(-0.0540160371911 0.383693294557 0)
(-0.0486483922047 0.395309544798 0)
(-0.0433602985065 0.405671556856 0)
(-0.0381761101179 0.414805305872 0)
(-0.0331166943508 0.422741638121 0)
(-0.0281999322815 0.429515470847 0)
(-0.0234407261091 0.435165093339 0)
(-0.0188515389336 0.439731545073 0)
(-0.0144423710474 0.443258082112 0)
(-0.0102212738903 0.445789699682 0)
(-0.00619425811834 0.447372715786 0)
(-0.00236576667505 0.448054386414 0)
(0.00126147790259 0.447882561307 0)
(0.00468602589604 0.446905352563 0)
(0.00790791249059 0.445170895288 0)
(0.0109281203748 0.442726915229 0)
(0.0137489037162 0.439620677124 0)
(0.0163733028762 0.435898666907 0)
(0.0188053736935 0.431606402934 0)
(0.0210497472578 0.426788267106 0)
(0.0231118786178 0.42148735491 0)
(0.0249976126645 0.415745343535 0)
(0.026713449428 0.409602381815 0)
(0.0282661161884 0.403096995087 0)
(0.0296628451243 0.3962660081 0)
(0.0309109504609 0.389144482593 0)
(0.0320181134507 0.381765670233 0)
(0.0329919639569 0.374160980215 0)
(0.0338403689655 0.366359960628 0)
(0.0345710193999 0.358390296006 0)
(0.0351917199013 0.350277816952 0)
(0.0357099837614 0.342046526486 0)
(0.036133323762 0.333718636609 0)
(0.0364688596504 0.325314622413 0)
(0.0367236109597 0.316853283322 0)
(0.0369041225457 0.308351820704 0)
(0.0370167610444 0.299825918696 0)
(0.0370673637496 0.291289839915 0)
(0.0370615395272 0.282756519138 0)
(0.0370043452013 0.274237668598 0)
(0.0369005905273 0.26574387579 0)
(0.0367545441901 0.257284710024 0)
(0.0365702402715 0.24886881585 0)
(0.0363512138097 0.240504011753 0)
(0.0361008046487 0.232197371217 0)
(0.0358219204734 0.223955307024 0)
(0.0355173324003 0.215783634413 0)
(0.0351894620529 0.207687635815 0)
(0.0348406629761 0.199672102827 0)
(0.0344730276348 0.191741379919 0)
(0.0340886487713 0.183899385102 0)
(0.0336894422689 0.176149632997 0)
(0.033277383755 0.168495236297 0)
(0.0328543438871 0.160938911709 0)
(0.0324222967337 0.153482966587 0)
(0.0319831650303 0.146129292163 0)
(0.0315389987745 0.138879340701 0)
(0.0310918292005 0.131734111975 0)
(0.0306438175773 0.124694126899 0)
(0.0301971177891 0.117759412623 0)
(0.0297539970302 0.110929478017 0)
(0.0293167078496 0.104203302578 0)
(0.0288875834033 0.0975793181954 0)
(0.0284689203394 0.0910554052295 0)
(0.028063051961 0.084628883187 0)
(0.0276722434619 0.0782965157635 0)
(0.0272987462608 0.072054510841 0)
(0.0269447069844 0.0658985329389 0)
(0.0266122066774 0.059823709594 0)
(0.02630318669 0.0538246464565 0)
(0.0260194814901 0.0478954315995 0)
(0.0257627777144 0.0420296443381 0)
(0.0255346792129 0.0362203462469 0)
(0.0253367762827 0.030460091605 0)
(0.0251708768733 0.0247409627838 0)
(0.0250390510871 0.0190547962967 0)
(0.0249379053485 0.01338844012 0)
(0.024744118797 0.00782264864716 0)
(0.0222166883959 0.00230704050128 0)
(-0.13211037779 0.0116832823458 0)
(-0.14638282019 0.0403043950673 0)
(-0.145832136234 0.068354852517 0)
(-0.143744268892 0.0965358339341 0)
(-0.140919765992 0.124160121756 0)
(-0.137444378281 0.151120334979 0)
(-0.133370045244 0.177288865996 0)
(-0.128752498385 0.202550200676 0)
(-0.123651901046 0.226802291928 0)
(-0.118131234163 0.249957330881 0)
(-0.112254746242 0.271941896069 0)
(-0.106086466311 0.292696806524 0)
(-0.0996889913296 0.312176668237 0)
(-0.0931223765018 0.330349178479 0)
(-0.086443336165 0.347194234147 0)
(-0.0797045412473 0.362702903878 0)
(-0.0729542339203 0.376876305828 0)
(-0.0662359106942 0.389724445395 0)
(-0.0595883085863 0.401265049795 0)
(-0.0530454111211 0.411522446739 0)
(-0.0466367192879 0.420526514629 0)
(-0.040387470592 0.428311736439 0)
(-0.0343190646786 0.434916365521 0)
(-0.0284493557883 0.440381712495 0)
(-0.0227930959306 0.444751539011 0)
(-0.0173621828959 0.448071547438 0)
(-0.0121660346215 0.450388939902 0)
(-0.00721174669485 0.45175203161 0)
(-0.00250438896544 0.452209897005 0)
(0.00195290714657 0.451812043231 0)
(0.00615869490066 0.450608092971 0)
(0.0101131963944 0.448647576511 0)
(0.0138179209239 0.445979425183 0)
(0.0172757925272 0.442652048575 0)
(0.0204908338071 0.438712927923 0)
(0.0234681470442 0.434208464231 0)
(0.0262136884281 0.42918381401 0)
(0.028734254592 0.423682745184 0)
(0.0310372714749 0.41774751281 0)
(0.0331307976018 0.411418753936 0)
(0.035023325286 0.404735398398 0)
(0.0367237962988 0.397734595508 0)
(0.0382414115017 0.390451654989 0)
(0.0395856536087 0.382920002323 0)
(0.0407661019274 0.375171148411 0)
(0.0417924590874 0.36723467342 0)
(0.0426743700837 0.359138225502 0)
(0.043421451911 0.350907533632 0)
(0.0440431184882 0.342566435888 0)
(0.0445486151222 0.334136921416 0)
(0.0449468534006 0.325639187436 0)
(0.0452464538515 0.317091708181 0)
(0.0454555960157 0.308511317243 0)
(0.0455820737954 0.299913298757 0)
(0.0456331660073 0.291311488761 0)
(0.045615707625 0.282718380808 0)
(0.0455359843346 0.274145237516 0)
(0.0453998212112 0.265602201105 0)
(0.0452125024099 0.257098405172 0)
(0.0449788756791 0.248642080035 0)
(0.0447032953259 0.240240655071 0)
(0.0443897387883 0.231900850084 0)
(0.0440417687667 0.223628760423 0)
(0.0436626557961 0.215429927821 0)
(0.0432553537413 0.207309403214 0)
(0.0428226217683 0.199271793713 0)
(0.0423670069914 0.191321301339 0)
(0.0418909590196 0.183461745926 0)
(0.0413968138253 0.175696580971 0)
(0.0408868953382 0.168028895218 0)
(0.040363495846 0.160461409529 0)
(0.0398289604177 0.152996462041 0)
(0.039285660656 0.145635991624 0)
(0.0387360599295 0.1383815129 0)
(0.0381826791998 0.131234092844 0)
(0.0376281428057 0.124194322304 0)
(0.037075136783 0.117262292093 0)
(0.036526436939 0.110437567144 0)
(0.0359848616035 0.103719167631 0)
(0.0354532848692 0.0971055505434 0)
(0.034934586602 0.0905945996405 0)
(0.0344316546043 0.0841836173064 0)
(0.0339473351419 0.0778693250457 0)
(0.0334844279288 0.0716478661616 0)
(0.0330456407035 0.0655148157863 0)
(0.0326335818239 0.0594651925669 0)
(0.0322507245073 0.0534934760109 0)
(0.0318994062558 0.047593625527 0)
(0.0315818172161 0.0417591065308 0)
(0.0313000314026 0.0359829239466 0)
(0.0310560545847 0.0302576974217 0)
(0.0308519052183 0.0245757597275 0)
(0.0306892786889 0.0189293962601 0)
(0.0305616494495 0.0133055615328 0)
(0.0303141475672 0.0077832316035 0)
(0.027190554177 0.00230311505038 0)
(-0.158171992812 0.0119382473041 0)
(-0.175244090117 0.0415004287678 0)
(-0.174554680426 0.0703171972583 4.13326282002e-27)
(-0.172008877249 0.099279306585 0)
(-0.168567827819 0.127641953978 0)
(-0.164337177134 0.155289596123 0)
(-0.159382195726 0.18208686035 0)
(-0.153772715125 0.207912333713 0)
(-0.147583741358 0.232659965679 0)
(-0.140893447441 0.256239789802 0)
(-0.133781196168 0.27857792235 0)
(-0.12632574075 0.299616220921 0)
(-0.118603696647 0.319311614077 0)
(-0.11068824533 0.337635174266 0)
(-0.102648131856 0.354570995384 0)
(-0.0945468903182 0.370114935197 0)
(-0.0864423548593 0.384273275047 0)
(-0.0783863742639 0.397061351183 0)
(-0.0704247844682 0.408502206171 0)
(-0.0625975364095 0.418625309694 0)
(-0.0549390231626 0.427465387745 0)
(-0.0474784797573 0.435061393008 0)
(-0.0402404918606 0.441455630891 0)
(-0.0332454754105 0.44669304283 0)
(-0.0265101762187 0.450820628701 0)
(-0.0200480660364 0.453886981974 0)
(-0.0138697185949 0.455941902765 0)
(-0.00798306862698 0.457036059236 0)
(-0.00239366869005 0.457220672897 0)
(0.0028951428244 0.456547214998 0)
(0.00788203116427 0.455067105427 0)
(0.0125675935596 0.452831545539 0)
(0.01695396673 0.44989090052 0)
(0.0210449179868 0.446294947812 0)
(0.0248455429023 0.442092352229 0)
(0.0283621556176 0.437330565191 0)
(0.0316021113985 0.432055662305 0)
(0.0345736987649 0.426312208133 0)
(0.0372859827838 0.420143141094 0)
(0.0397487177161 0.413589675748 0)
(0.0419722073059 0.40669122008 0)
(0.0439672315248 0.399485306822 0)
(0.0457449170049 0.392007538148 0)
(0.047316671193 0.384291543708 0)
(0.0486940578326 0.376368952218 0)
(0.0498887345905 0.368269377105 0)
(0.05091233168 0.360020416993 0)
(0.0517763924802 0.35164767119 0)
(0.0524922569841 0.34317477088 0)
(0.0530710082962 0.334623425647 0)
(0.0535233655605 0.326013485791 0)
(0.0538596417715 0.317363018734 0)
(0.0540896527717 0.308688399337 0)
(0.054222692771 0.300004411173 0)
(0.054267465806 0.291324358158 0)
(0.0542320841897 0.282660182197 0)
(0.0541240267904 0.274022585931 0)
(0.0539501628207 0.265421155643 0)
(0.0537167378197 0.256864483666 0)
(0.053429421522 0.248360285047 0)
(0.0530933188011 0.239915508315 0)
(0.0527130369981 0.231536435679 0)
(0.0522927159797 0.223228773346 0)
(0.0518361077971 0.214997728008 0)
(0.0513466181737 0.206848070998 0)
(0.0508273902536 0.198784187385 0)
(0.050281349253 0.190810112281 0)
(0.0497112821431 0.182929552704 0)
(0.0491198778923 0.175145897711 0)
(0.0485097961952 0.167462216379 0)
(0.0478836972878 0.159881246597 0)
(0.0472442947325 0.152405375029 0)
(0.0465943709571 0.145036611186 0)
(0.0459368115152 0.137776556627 0)
(0.045274604888 0.130626372027 0)
(0.044610858035 0.12358674327 0)
(0.0439487813325 0.116657848873 0)
(0.0432916874759 0.109839329876 0)
(0.0426429643663 0.103130263942 0)
(0.0420060610225 0.0965291443658 0)
(0.0413844524871 0.0900338650955 0)
(0.0407816173485 0.0836417119107 0)
(0.0402009992843 0.0773493603038 0)
(0.0396459810458 0.0711528795141 0)
(0.0391198474805 0.0650477426027 0)
(0.0386257613284 0.0590288424849 0)
(0.0381667336595 0.0530905138696 0)
(0.0377456088849 0.0472265616807 0)
(0.0373650519407 0.0414303017704 0)
(0.0370275533171 0.0356946129093 0)
(0.0367354399296 0.0300120225037 0)
(0.0364908628668 0.0243748080091 0)
(0.0362952453816 0.0187751482211 0)
(0.0361397684656 0.0131995120363 0)
(0.0358402118895 0.00772363256811 0)
(0.0321368101391 0.00229125831929 0)
(-0.185055352585 0.0122441232671 0)
(-0.205003926096 0.0429428453873 0)
(-0.204153552778 0.0726831798627 -4.13105885124e-27)
(-0.201109529238 0.102585711471 0)
(-0.196999931755 0.131835134993 0)
(-0.191952400208 0.160305841492 0)
(-0.186047636731 0.18785311748 0)
(-0.179371740004 0.214348615795 0)
(-0.172016688512 0.239681753746 0)
(-0.164077825187 0.263760338995 0)
(-0.155651410838 0.286510351556 0)
(-0.146832455248 0.307875340192 0)
(-0.13771288024 0.327815466839 0)
(-0.128380007111 0.346306286362 0)
(-0.118915380409 0.363337333889 0)
(-0.109393901018 0.378910583701 0)
(-0.0998832760635 0.39303883761 0)
(-0.0904437524242 0.405744100651 0)
(-0.0811281347334 0.417056001654 0)
(-0.0719820363894 0.42701031652 0)
(-0.0630443417446 0.435647645702 0)
(-0.0543477982443 0.443012285934 0)
(-0.0459196940272 0.44915131575 0)
(-0.0377825267968 0.454113891161 0)
(-0.0299546290992 0.457950722803 0)
(-0.0224506842325 0.460713689137 0)
(-0.0152821452124 0.462455532516 0)
(-0.00845753977152 0.463229591771 0)
(-0.00198271538358 0.463089539277 0)
(0.00413897475373 0.462089098319 0)
(0.00990646604147 0.460281782742 0)
(0.015320899343 0.457720689436 0)
(0.0203852108923 0.454457891712 0)
(0.025104173601 0.450544730087 0)
(0.0294841016142 0.446031239711 0)
(0.0335326818139 0.440966081014 0)
(0.0372587931645 0.43539638411 0)
(0.0406723560975 0.429367625893 0)
(0.0437841795324 0.422923526335 0)
(0.0466058365437 0.416105960363 0)
(0.049149533004 0.408954882768 0)
(0.0514279997171 0.401508265044 0)
(0.0534543723247 0.39380204374 0)
(0.0552420904906 0.385870080865 0)
(0.0568047818319 0.377744137016 0)
(0.0581561632161 0.369453858381 0)
(0.0593099262104 0.36102677845 0)
(0.0602796400599 0.352488335676 0)
(0.061078640577 0.343861907646 0)
(0.0617199388414 0.335168862521 0)
(0.062216119559 0.326428627358 0)
(0.0625792628759 0.317658773116 0)
(0.0628208606969 0.308875114709 0)
(0.062951760434 0.300091824642 0)
(0.0629821077238 0.2913215573 0)
(0.0629213192933 0.282575581363 0)
(0.0627780576338 0.273863916693 0)
(0.0625602364573 0.265195472552 0)
(0.0622750284433 0.256578183459 0)
(0.0619289018445 0.248019139473 0)
(0.061527657617 0.239524707984 0)
(0.0610764914222 0.231100644183 0)
(0.0605800526648 0.222752188502 0)
(0.0600425229206 0.214484148877 0)
(0.0594676871031 0.206300967641 0)
(0.0588590180419 0.198206771666 0)
(0.0582197494956 0.19020540702 0)
(0.0575529567629 0.182300457462 0)
(0.0568616221836 0.174495249337 0)
(0.0561487033313 0.166792842734 0)
(0.0554171837229 0.159196012417 0)
(0.0546701225197 0.151707218707 0)
(0.0539106858407 0.14432857242 0)
(0.0531421749072 0.137061794156 0)
(0.0523680363743 0.129908172194 0)
(0.0515918688137 0.122868519153 0)
(0.0508174133768 0.115943131445 0)
(0.0500485413154 0.109131751381 0)
(0.0492892287491 0.102433535303 0)
(0.0485435299167 0.0958470271887 0)
(0.0478155413764 0.0893701402138 0)
(0.0471093667917 0.083000145249 0)
(0.0464290764634 0.0767336678221 0)
(0.0457786695659 0.0705666922734 0)
(0.0451620347576 0.0644945736017 0)
(0.0445829155612 0.058512056565 0)
(0.0440448775939 0.0526133022415 0)
(0.0435512825287 0.0467919238236 0)
(0.0431052667168 0.0410410328356 0)
(0.0427097262723 0.0353532980384 0)
(0.0423673010133 0.0297210336175 0)
(0.0420803159345 0.0241362661457 0)
(0.041850110055 0.0185908143324 0)
(0.0416660957999 0.013070601127 0)
(0.0413157498826 0.00764789137763 0)
(0.0370418767491 0.00227436531377 0)
(-0.212920973765 0.012605570935 0)
(-0.235837906689 0.0446558147704 0)
(-0.234798714311 0.0754907721315 0)
(-0.231206197621 0.106506551486 0)
(-0.226363323586 0.136802748746 0)
(-0.220422565044 0.1662415046 0)
(-0.213482802741 0.194667025878 0)
(-0.205649173645 0.221942992258 0)
(-0.197033293075 0.247953879201 0)
(-0.187750115938 0.27260540398 0)
(-0.177914960246 0.295823991659 0)
(-0.167640929484 0.317555815438 0)
(-0.157036764101 0.337765471468 0)
(-0.146205107843 0.356434392616 0)
(-0.135241174099 0.373559081256 0)
(-0.124231789005 0.389149225759 0)
(-0.11325480323 0.403225759417 0)
(-0.102378855311 0.415818922902 0)
(-0.0916634758382 0.426966397171 0)
(-0.0811594952229 0.436711579032 0)
(-0.0709097091341 0.445102068224 0)
(-0.0609497181856 0.452188421597 0)
(-0.0513088537488 0.458023201832 0)
(-0.0420110818123 0.462660312706 0)
(-0.0330758052621 0.466154574295 0)
(-0.0245185011808 0.468561464384 0)
(-0.016351187609 0.469936942468 0)
(-0.00858273698016 0.470337285124 0)
(-0.00121909405016 0.469818889928 0)
(0.00573655978597 0.468438004107 0)
(0.0122836444848 0.466250574093 0)
(0.0184239590658 0.463311696355 0)
(0.0241614823827 0.459675537396 0)
(0.0295021781143 0.455395155627 0)
(0.0344537578182 0.450522138463 0)
(0.0390254573746 0.445106501848 0)
(0.0432278343337 0.439196554062 0)
(0.0470725901662 0.432838788687 0)
(0.050572406768 0.426077795849 0)
(0.0537408036275 0.418956186158 0)
(0.0565920014299 0.411514524462 0)
(0.0591407980122 0.403791272455 0)
(0.0614024433196 0.395822740425 0)
(0.0633925211219 0.387643049314 0)
(0.0651268258183 0.379284104438 0)
(0.0666212437139 0.370775582642 0)
(0.0678916285574 0.362144934488 0)
(0.0689536820661 0.353417403168 0)
(0.0698228307256 0.344616061444 0)
(0.0705141107392 0.335761867627 0)