/*--------------------------------*- C++ -*----------------------------------*\
| =========                 |                                                 |
| \\      /  F ield         | OpenFOAM: The Open Source CFD Toolbox           |
|  \\    /   O peration     | Version:  v1906                                 |
|   \\  /    A nd           | Web:      www.OpenFOAM.com                      |
|    \\/     M anipulation  |                                                 |
\*---------------------------------------------------------------------------*/
FoamFile
{
    version     2.0;
    format      ascii;
    class       volScalarField;
    location    "400";
    object      nut;
}
// * * * * * * * * * * * * * * * * * * * * * * * * * * * * * * * * * * * * * //

dimensions      [0 2 -1 0 0 0 0];


internalField   nonuniform List<scalar> 
24444
(
0.00145386554031
0.00042796346221
0.000548242567731
0.000917643729687
0.000915177245294
0.000900184785072
0.000873566266593
0.00155404612633
0.000567556332022
0.000106577674486
0.000913125057412
0.000286054957306
0.000288130220254
0.000409684053348
0.000309127985798
0.000217390012743
0.000524915321466
0.00033779101146
0.00039802828913
0.00081424382942
0.000450100298674
0.00119569571994
0.00132419393323
0.000388651562229
0.000401745102354
0.000497909096384
0.000525903460828
0.000494957263888
0.000522773493231
0.000915804269059
0.000257258017841
0.000331699700374
0.000897442430791
5.85919792966e-05
0.000268993089048
0.000916744593507
0.000262241872181
0.000609270003675
0.000529647287791
0.000370902099955
0.000522104731167
0.000349995759763
0.000704158113144
0.000692572317473
0.000263053897152
0.000637877275834
0.000821247791493
0.000901953115611
0.000760376291887
0.000392011960195
5.17358090034e-05
0.000824515341542
0.000465233304174
0.000626774391939
0.000874092148777
0.000846178353487
0.000429574984339
0.00087830264307
6.5534062539e-05
0.000635271703763
0.000349357290028
0.000359505940841
0.000907562224454
0.000526250196492
0.000901042054227
0.000913130759429
0.000914824116242
0.000871360471199
0.000819147357788
0.000770263112286
0.000613849197433
0.000414096078148
0.000357272170607
0.000570373027807
0.00062177456673
0.000311865714901
0.0004465365361
0.000517427954032
0.000332911452662
0.000915215866483
0.000737110344299
0.000762075599443
0.000993333691283
0.000877587557084
0.000301835206311
0.000866716418689
0.00243857191864
0.000498712146677
0.00078304281753
0.000817472590831
0.000410140173335
0.000310882948098
0.000211862846795
0.000528271225387
0.000408636241382
0.000415787496953
0.00010624748729
0.000618606920391
0.000684139780699
0.000914668368314
0.000908464521527
0.000857238450372
0.00084754808932
0.000476617925596
0.000907732615578
0.000409389162278
0.000377880085999
0.000305702241589
0.000306750178016
0.000915210434274
0.000372779567781
0.000900617453255
7.35028186454e-05
0.000586128012176
0.000438887436962
0.00013471165713
0.000604124949891
0.0010779773779
0.00088781949043
0.000467799139938
0.000426520458495
0.000416822157974
0.000387676148384
0.000372188042025
0.000394837049743
0.000477409148234
0.00033451734749
0.0008153948619
0.00033435216202
0.000336714301663
0.000898743704604
0.00037808762299
0.000792551525908
0.000412743010596
0.000406862388855
0.000720456314407
0.000723550890189
0.000775833985266
0.000573970551578
0.000521351917561
0.00039162755937
0.000367828441098
0.00034468378794
0.00069302865046
0.000615570695821
0.000350245676767
0.00079375114684
2.39412822881e-05
0.000862244781637
0.000744150907423
0.000916562617776
5.82501834106e-05
6.37933108747e-05
0.000552998219069
0.000897323004167
0.000421607789576
0.000400356876184
0.000917870991426
0.000917749791015
0.000541436212876
0.000505867059377
0.000916911626107
0.000752508610623
0.000881918003307
0.000791313232123
0.000880911361953
0.000602225199815
0.000578127338851
0.000565001100317
0.000310498363652
0.000844499116176
0.000913124834244
0.000913320249955
0.000369845269191
0.000380139525268
0.000463480933232
0.000457914549403
0.000651676619504
0.000655018975532
0.000611431516634
0.000607248652635
0.000139346158739
0.000909441156022
0.000763467445479
0.00066875444875
0.000917248209399
0.000351728598159
0.000335621703925
0.000697416516718
0.000893628652727
0.000897042701144
0.000568339332374
0.000514623411545
0.00086621033655
0.000916719843561
0.00036765336598
0.000754321546949
0.000917353882484
0.00035242061491
0.000446328812239
0.00039045872736
0.000690967783262
0.000417524199018
0.00172304754238
0.000588118404984
0.000647750780165
0.00062001655723
0.000849926715554
0.000841178563906
0.000328528428459
0.000906759087934
0.000432774873604
0.000235546443515
0.000867864290878
0.000534814756526
0.000368980353008
0.000335631083046
0.000339221805438
0.00177683737022
0.000614861579488
0.000220621829582
0.0003604192783
0.000366870891387
0.000917759506081
0.000335354687266
0.000351366723772
0.000450546204177
0.00083773140107
0.000520025115565
0.000523469411715
0.000794279603807
0.000798706458813
0.000319744203334
0.000317736079405
0.000284422564647
0.000377379054952
0.000357466481273
0.000902791706965
0.000501107152466
0.000916875491257
4.39484713644e-05
0.00091644873236
0.000387635590901
0.000626377132443
0.000373295393216
0.000907214375854
0.00090847003056
0.000677254174155
0.000916582695845
0.00069354916346
0.000649577930751
0.000861222866672
0.000509829742922
0.000518859751818
0.000364065405347
0.000297107130842
0.000293205656567
0.000816272508773
0.000441600352081
0.000916127250818
0.000168364495714
0.000543761199264
0.000201938935799
0.000488598547848
0.000387881701911
0.000127328708355
0.000315591956378
0.00037273348579
0.00042825385385
0.000350223964625
0.000363541730678
0.000417800590815
0.000406567531214
0.000338794934814
0.000554247990534
0.000605903521102
0.000895299427812
0.000369944926016
0.000909054519322
0.00090990653316
0.000219168778892
0.000212217198685
0.000471649055481
0.000305267050407
0.000309620100655
0.000294184795939
0.000315644578344
5.18117712676e-05
0.000278507804634
0.000908617972879
0.000909022963965
0.00026455651228
0.000291222865589
0.000293402142644
0.000685627274593
0.000454700263972
0.000915781331986
0.00032611417907
0.000327171190861
0.000358284091355
0.000397300709605
0.000347487256347
3.83347794245e-05
3.57854215742e-05
0.00090776688886
0.000348601663248
0.000350107663994
0.000580864242714
0.000913778219791
0.000884014848399
0.000321398723721
0.000883361319875
0.000915705402853
0.000852704286327
0.000903726550758
0.000518144380055
0.000323208886247
0.000365729040053
0.000376335636397
0.000913940856143
0.000328979009697
0.000440820177451
0.000360097351525
0.000348998678952
0.000915931631292
0.000377215978484
0.000410552032131
0.000913193198855
0.000913594292983
0.00090958816959
0.000911310322654
0.000918202107864
0.000419788404317
0.000880148387072
0.000447089492863
0.000460608043022
0.000459478516718
0.000443798825928
0.000685226444276
0.000697658926943
0.000916984078899
0.000804693212118
7.25428290885e-05
0.000865200083317
0.000916636701743
0.000916055532551
0.000916259237398
0.000414733511278
0.000694036866512
0.000751082007201
0.000815349500778
0.00091712576027
0.000560426548804
0.000873360313464
0.000915934935539
0.000249326101775
0.000892479861395
0.000529108481943
0.000322323782341
0.000525340874639
0.000861422676064
0.000867272081319
0.000615990362584
0.000325260294646
0.000348835640729
0.000319161325096
0.000350715745301
0.00076511903666
0.000914990412483
0.000878526649202
0.000874786096151
0.000914180903573
0.000594583951136
0.000816080409002
0.000828878405949
0.000895771938732
0.000311392071075
0.00091388130495
0.000914714871594
0.000903334849608
0.000905176671864
0.000912599082741
0.000671534143265
0.00108281088948
0.000901412925867
0.000161316736414
0.000444410294154
0.000914800744663
0.000914865257527
0.000916660262889
0.000904491536201
0.000916248630456
0.000355476781779
0.000916763509112
0.000917164903399
0.000377273074042
0.000910168724209
0.000225775538541
0.000382141844552
0.000385199816425
0.000344213487824
0.000901407674989
0.000900725993373
4.71474896851e-05
0.000545084372349
0.000837138383155
0.00091647054997
0.000383131369967
0.0003724008725
0.000728767026461
0.000730483295604
0.000913210219739
0.000183371241253
0.000852722324036
0.000843470017655
0.000268139670926
0.000915083061115
0.000906089220078
0.000755309584861
0.000496666179221
0.000917693509679
0.000914081111655
0.000382256039742
0.000399249993987
0.000907665175881
0.000908339433707
0.000166852776804
0.000882625202981
0.000907893963841
0.000890417847678
0.000909911410273
0.000590087371685
0.000377573654259
0.000172002804735
0.000145055847165
0.000314149472669
0.000840422814977
0.000844137282393
0.000666363268321
0.00108822833537
0.000279289918026
0.000377248553585
0.000904333766415
0.000440733510889
0.000457687223751
0.000911131678697
0.000458261334197
0.000585960663329
0.000758873538009
0.000322238081219
0.000363056679375
0.000916708567336
0.000803341097035
0.000523202013086
0.000527476951938
0.0032897008637
0.00334412619987
0.000860274855048
0.000842983731455
0.000754244605199
0.000757601524005
0.000892002972758
0.000650725480892
0.000913248346013
0.000330769386271
0.00052717599961
0.000804613711125
0.000780073829409
0.000914294639233
0.000897656319415
0.000327929032218
0.000193982623216
0.000167832643588
0.000422408277283
0.000405904944129
0.000278566786856
0.000278945888672
0.000390754097678
0.000370447434457
0.000736259926157
0.000916385101528
0.000912804084124
0.000852502883057
0.000849196359569
0.000914634833024
0.00100896749103
0.000914446187994
0.000914076735052
0.000913544264493
0.00091353084163
0.000914582471708
0.000745348508677
0.000904623539792
0.000865558517744
0.00086065895646
0.000745033747014
0.000741079635888
0.000349537855755
0.000354538787932
0.000907293426307
0.000629847045692
0.000475633973403
0.000342073591181
0.000914722590115
0.000904368514636
0.000812689582802
0.000185893917986
0.000916261867891
0.000871138528579
4.88092939835e-05
0.000885205953854
0.000912277519701
0.000455637934964
0.000389198658816
0.000481224199907
0.00040926294234
0.000296749430982
0.000303297287861
0.000557696839661
0.000542911516241
0.000533646574239
0.000538136044548
0.000759502192139
0.000757673414236
0.000904866493602
0.000844395516005
0.00078000507557
0.000878583652404
0.000842895570739
0.000863222151991
0.000763278090713
0.000882230383037
0.000459801380689
0.000916748492719
0.000124253710315
0.00028174096119
0.000360591364965
0.000346618567219
0.000916562698631
0.000537141721979
0.000914071434126
0.00089526002491
0.000917302370292
0.000800616346396
0.000519035332041
0.00087728600272
0.00110701221004
0.000423988140987
0.000479512494194
0.000405579840295
0.000464167005679
0.000602131623899
0.000303761681828
0.000325624246464
0.00089811584073
0.000668736827007
0.000989140045093
0.000910930286285
0.000916678877517
0.00090140007574
0.000907026045336
0.000914760465981
0.000338454748956
0.000336593941476
0.000345468155415
0.000339090681375
0.000450621992987
0.000698407825185
0.00123786088999
0.000442406683122
0.000503165991494
0.000420154863114
0.000915511405877
0.000917881640679
0.000677605015394
0.000672642874562
0.000490191385309
0.000478161727946
0.000605398796229
0.000629599664911
0.000734163559448
0.000923050666614
0.000818744468253
0.000354667983385
0.000142112429136
0.000917160903358
0.000569990690931
0.000910256588653
0.000876465045893
0.000206365196383
0.000375782702027
0.000686879050238
0.00091612221353
0.000533486295204
0.000884044439291
0.000853177529823
0.000907054466839
0.000918055507435
6.21266653915e-05
0.000323071826344
0.000897523468176
0.000335412870299
0.000917722422136
0.000815075349128
0.000824796148872
0.000635517914618
0.000366368412343
2.59311823674e-05
0.000891093155718
0.00089035508946
0.000251241178819
0.000384925499258
0.000494834834054
4.43562045557e-05
5.7167339323e-05
0.000901572552286
0.000320846994393
0.000484756845723
0.000375422526665
0.000362798703572
0.00034267337138
0.000909642904088
0.000132597438815
0.000407303058686
0.000321570258827
0.000323510148374
0.000825276653467
0.000903540152197
0.000903906585061
0.00084682616628
0.000259760065804
0.000916636324102
0.000772974728113
0.000182293796355
0.000150564838334
0.000336856421546
0.000707200469888
0.000807180906873
0.000621914793881
0.000837807645787
0.00055855601927
0.000562729983817
0.000839875804506
0.000152179292645
0.000152862941664
0.000431915315953
0.000408281661736
0.000912314424859
0.000898438901974
0.000437936921839
0.000683622203828
0.000553641358311
0.000392032376722
0.000323633798623
0.000346750994965
0.000401229961157
0.00089524341614
0.000191155267817
0.000468554340989
0.000880223170485
0.000914070033508
0.000367219927644
0.000794190038887
0.000722079814137
0.000713774591551
0.00033127276371
0.000329280559239
0.000340403525896
0.000336670865892
0.000235698611548
0.000915096936625
0.000135627184624
0.000917932463957
0.000595863846004
0.00031664601518
0.000911880287215
0.000735842617745
0.00051457792508
0.000744674730463
0.000316571580257
0.000914752021211
0.000896808906369
0.000391898406065
0.000910718042454
0.000540782291779
0.000914804831391
0.000696569104086
0.000853018540298
0.00050371638751
0.000384288777756
0.00079955384717
0.00083628118451
0.00027584643646
0.000341326574223
0.000341439570082
0.000599136727486
0.000378306654435
0.000585812180744
0.000483219624806
0.000915658944038
0.000525403088359
0.000629188832387
0.000222229631119
0.000418954049198
0.000523137062042
0.000462161009719
0.000328290849283
0.000823342522806
0.000757732712531
0.000835634070893
0.000787242959488
0.000908424553756
0.00018973026619
0.000411896232192
0.000902030685894
0.00090008590121
0.000278648526563
0.000335957641007
0.000338906534222
0.0007550168553
0.000598721028136
0.000912095890042
0.000585538209104
0.000323121537766
0.00019836220521
0.00037572781026
0.000250477045504
0.000271106427069
0.000365023681412
0.00035358314442
0.000906625004157
0.000907440052263
0.000232260335106
0.000210671799431
0.000352852981422
0.000355415244455
0.000810454138836
0.000571751705553
0.000882868725332
0.000908209812846
0.000909450325339
0.000881398415444
0.000885226461296
0.000913635395301
0.000605833203623
0.000503428098635
0.00058879920763
0.00090061535512
0.000218577631442
0.000437086203426
0.000544405678353
0.00080573384259
0.000907196242192
0.00033497872613
0.00088237720512
0.000902487671008
5.66999808889e-05
0.00042639867456
0.000154325206104
0.00032017699979
0.000243830288422
0.000742407016028
5.16750435859e-05
0.000396049067571
0.00035320847596
0.000288000364394
0.000378637656591
0.000557844101389
0.000916719509907
0.000913269097214
0.000512274572018
0.00065059923949
0.000479446502261
0.00087536072359
0.00032932523731
0.000695556958014
0.000547938242347
0.000914225795321
0.000483025981479
0.000913610942286
0.000896684582769
0.000916911507548
0.000841219967952
2.51866970896e-05
0.000262864649228
0.000367537774739
0.000475787929778
0.000910758361796
0.000170925806976
0.000561472843365
0.000478989851202
0.000752797229815
0.000717820971856
0.00033648949319
0.000334776458283
0.000401474142828
0.000911398900201
0.00039400954489
0.000437977493935
0.000911728685292
0.000895478476946
0.000898114631227
0.000916654182077
0.000439401561919
0.000339736068801
0.000914575944297
0.000887843631224
0.000913533585919
0.000915862026843
0.00091542192086
0.000102357954648
9.42038046967e-05
0.000493844986143
0.00026642411603
0.0008487021896
0.000842555006523
6.30309545254e-05
0.000575412764807
0.00036963302204
0.000369606490896
0.000326826195972
0.000859088213233
0.000856705627657
0.000844850679491
0.000841842517798
0.000308659494491
0.00031193347906
0.000916481438127
0.000716397356076
0.000368879522561
0.000380702336909
0.000917190453526
0.000862556560623
0.000709380732146
0.000878959552226
0.000433407056116
0.000815648483792
0.000915063935622
0.000874146386312
0.000320879257114
0.000897366773712
0.00091406177178
0.000913361520437
0.000913235420934
0.000898574234607
0.000906123294401
0.000869299691312
0.000353248006122
0.000348842070115
0.00032721029213
0.000915969775585
0.000916117386375
2.4402192093e-05
0.000390509204158
0.000356985612345
0.000679718524517
0.000701863995436
0.000801014869514
0.000489534933017
0.000502882455967
0.00028146827971
0.000278537618457
0.000367780940058
0.000353176868037
0.000906338317195
0.000758844847874
0.00077536098723
0.000656366558848
0.000646925892139
0.00065755493144
0.000916322936163
0.000640876713452
0.000327128269456
0.000903211373914
0.000845410294978
0.000905551040774
0.00091558281832
0.000910298121518
0.000711916501015
0.000917363960302
0.000917441600274
0.00043363737488
0.000907511447679
0.00032666578883
0.000319182490474
0.000452280135429
0.00043342402884
0.000200324245715
0.000228400015034
0.000319368729176
0.000422017940082
0.000406615557954
0.000926787843823
0.000447949722635
0.000384270974437
0.000411111434604
0.000212117055964
0.000239844091933
0.000133627523184
0.000463505181926
0.000838303150821
0.000804049812801
0.000877942407661
0.000296061378097
0.000346369753532
0.000405314164626
0.000592263414641
0.000213654550646
0.00091094853458
0.000917619581377
0.0003550171134
0.000335999606182
0.000395078863711
0.00031539818485
0.000378029780559
0.000410227265139
0.000899416567962
0.000518627401078
0.000713807027811
0.000788721428419
0.000485102686527
0.000910302535112
0.000453347518329
0.000913145353005
0.000674787668605
0.000379544375316
0.000368796768217
0.000329786657912
0.000375167653544
0.000508264026894
0.000888068423177
3.19643382957e-05
0.000539109573004
0.000452315282572
0.000894601126664
0.000162307483235
0.000323804909573
0.000438482621122
0.000704444136251
0.000526635338112
0.000310116529132
0.000889520034795
0.000913158691752
0.000830263998019
0.000902687770399
0.000370423871331
0.00042473388172
0.000794831225867
0.000805848937236
0.000578992052965
0.000606288131373
0.000672779883003
0.000703827909172
0.000621629163936
0.000912662704429
0.000866782078967
0.000752873366552
0.000362769242958
0.000863365040368
0.000299630492654
0.000700997689934
0.000887508358841
0.002091120059
0.000631431944741
0.000438182011238
0.000845289410835
0.000347264356211
0.000329650079384
0.000716009358488
0.000704540852891
0.000880321705863
0.000778196820554
0.00035452682803
0.000421780879548
0.000431250366272
0.000491162402353
0.000634716667212
0.000794102010617
0.000887762066706
0.00616484185302
0.000747395950266
0.00147742241913
0.00121101456481
0.000324959585356
0.000466804746587
0.000631208154007
0.000729737769727
0.000719771568967
0.000429366314607
0.000647934030965
0.00062660567678
0.0003118403835
0.000917019927281
0.000869486629392
0.000760757847086
0.000916797232404
0.000601771546052
0.000895333455082
0.000883184321756
0.000821554724752
0.000828581118594
0.00091791968484
0.000913118510758
0.000605332850345
0.004664915085
0.00116080954105
0.000952679077911
0.000915214744291
0.000914579237323
0.000916184432736
0.00068071314468
0.000913568650573
0.000910030273214
0.000340642497041
0.000917986799528
0.000918051140774
0.000882703571341
0.000845986804193
0.000707731183525
0.000897120478972
0.000787320845695
0.000892817810092
0.000902533314941
0.000903753823577
0.000773246006636
0.000915848315653
0.000810182022075
0.000143757321175
8.14003157166e-05
0.000332651562192
0.000351988030798
0.000505821441776
0.000888997340438
0.000913938080275
0.000645657759077
0.00087205321026
0.000917918012315
0.00091578954497
0.000914201726033
0.000910500544614
0.000385149444113
0.000374122222922
0.000915534262691
0.000347439272483
0.00027421386709
0.000292683350422
0.000356158437737
0.000871381944014
0.000880500841652
0.000876547438353
0.000760150022538
0.00078649019194
0.000780618687
0.000279136011466
0.000372332392016
0.000169842144479
0.000915320829943
0.000380157521047
0.000461317367728
0.000562250632762
0.000314558321372
0.000905242296875
0.000356598777792
0.000862744582838
0.000159705143748
0.000899314046303
0.000867659960228
0.000906176796225
0.000460175977814
0.000671625882454
0.000916040475616
0.000908218639671
0.000899154896031
0.000536106124514
0.000855260970579
0.000341397570998
0.000541084882248
0.000490812243779
0.000887937798521
0.000894206179795
0.000893898495346
0.000916276350546
0.000910456013838
0.000910026904108
0.000768697063658
0.000906980571525
0.000495995816725
0.000632568751346
0.000637978619742
0.000502727940926
0.000500264151509
0.00045560100676
0.000592579214325
0.000563576664151
0.000732423049447
0.000724544963924
0.000440966903273
0.000897761185913
0.000586129937573
9.51642141453e-05
0.000423690491698
0.000345991914011
0.000649671757179
0.000917130666476
0.000362417682974
0.000328493256706
0.000882026949137
0.000255767337919
0.000516916427065
0.000766727674971
0.000356947959226
0.00010009990369
0.000657322391077
0.000145673077187
0.000336445779707
0.000332422880927
0.000350006047461
0.000343168107623
0.000855378599352
0.000839669618054
0.000833841907122
0.000829542083722
0.000192341318797
0.000521213949209
0.000612164952852
0.000472137353054
0.0007270600358
0.000916701293986
0.000889743432355
0.000139297049334
0.000575158291738
0.000706241780349
0.000482231024482
0.00079507769161
0.000915638905755
0.000908954269158
0.000884425737089
0.000904153826294
5.86542512043e-05
0.000837868986603
5.85246805443e-05
0.000550275888552
0.00091410716932
0.000891965890473
0.000856642474839
0.000376796165529
0.000540634506896
0.000286729304328
0.000831628603513
0.000836321599242
0.000882305754468
0.000855209399985
0.000355847809827
0.000707346937893
0.000860905657488
0.000893477956864
0.000891233992031
0.000141017931965
0.000486073941032
0.000850052895398
0.000848021786997
0.000902930863755
0.000355371469668
0.000471458692173
0.000354099924745
0.000361139537214
0.000891804310091
0.000282558501513
0.000362102004523
0.000499859586144
0.00033051308622
0.000671045325088
0.000824918895778
0.000917873293056
0.000786872076391
0.000913471570573
0.00090681320478
0.000548529320248
0.000432477640874
0.000298413802703
0.000315021481524
0.00033978493303
0.000364971886475
0.00036862872445
0.000344549852907
0.000334232083505
0.000345842989588
0.000269409455631
0.000341162973637
0.00011138607113
0.000911007360306
0.000305515196766
0.000343884968533
0.000403467935587
0.000725856394076
0.000741289441901
0.000776013499635
0.000382201832521
4.212970411e-05
0.000288495379447
0.000390250663956
0.000637451810416
0.000888703836669
0.000165662045014
0.000235808961029
0.000616042052425
0.00071832964729
0.000697632122331
0.000286675534077
0.000427848726044
0.000341267454459
0.000326091403047
0.000606146645359
0.00018909459752
0.000212545084506
0.000149450184172
0.000802186055039
0.000849376050799
0.000853435452761
0.000791049638411
0.000659874740578
0.000591530661252
0.000528300046936
0.000650438645478
0.000347490659386
0.000484513145065
0.000501586226627
0.000914688209405
0.000914780618543
0.000850224146024
0.000462691010339
0.000360820571062
0.000900392126928
0.000917771631201
3.89859973681e-05
0.000916093755239
0.000917658953417
0.000461466202925
9.09871778649e-05
0.000422113197712
6.91947248479e-05
0.000850284879039
0.000341557886498
0.000362251604314
0.000406858649035
0.000909511163741
0.000688764448495
0.00063041382652
0.00037850716116
0.000917916524987
0.000910198309797
0.000910666190506
0.000891109156563
0.000337421139957
4.54804379019e-05
4.12832864831e-05
0.000314258638854
0.000314076547204
0.000911362048036
0.000356420427528
0.000319388271329
0.000907016037639
0.000700380745957
0.000337631008007
0.000563721580719
0.000496110966526
0.000757649768106
0.000810163470746
0.000822078398362
0.000290487642065
0.000636230333018
0.000417556804999
0.000630102791318
0.000915598072912
0.000910972121806
0.00091193059691
0.00091083116809
0.000899757370411
0.000898150845593
0.000643926235502
0.000623809516865
0.000912442092606
0.000916374579838
0.000894069421482
0.000108760940695
0.000671007589555
0.000471328140288
0.000911259239338
0.000262819936957
0.000914859126331
0.00030569297688
0.00069090808714
0.000610275558844
0.000366082762668
0.000539406410615
0.000898477567096
0.000678199386532
0.00091711112852
0.000901249156338
0.000897189951234
0.000907470574118
0.000908409616669
0.000530313729819
0.000328923671058
0.000333026518203
0.000913397177161
0.000484174120681
0.000434135580084
0.000843893179629
0.000739343170332
0.000737090704502
0.000915093783257
0.000650609687909
0.000632859329814
0.000329763001703
0.0009164452734
0.000317518536711
0.00087753105163
0.000403178455803
0.00091616618749
0.000915896801603
0.000354587319697
0.000350663059795
0.000369993752431
0.000822947586993
0.000345046398419
0.000367121237298
0.000497040939621
0.000892973761094
4.07853102961e-05
0.00090842747379
0.000906518749474
0.000903594491459
0.000858500393841
0.000761678673946
0.000740582054605
0.000334808541085
0.00028647210359
0.000325621597526
0.000895464245258
0.000915943749161
3.6102080261e-05
0.000567963080061
0.000449019098236
0.000300243717877
0.000317543460527
0.000486071078156
0.000885593202379
0.000846691588477
0.000463840072615
0.000911324205628
0.000525835487636
0.000886284019849
0.000814960666901
0.000772920879167
0.000788518536723
0.00041133007015
0.000391127037112
0.000532619525513
0.000914005459427
0.000903926891431
0.000908282886905
0.000348733099668
0.000909379607296
0.00089943061357
0.00045771817782
0.000912382078839
0.000331240134323
0.000324476707227
0.000286837483805
0.000942098281071
0.000455101156929
0.000917727243277
0.000914427488508
0.000407869560783
0.000426594844907
0.000908780776357
0.000253565072497
0.000397071121204
0.000405767557367
0.00041054385771
0.000423912741361
0.000541818357049
0.00213543405136
0.000708818836628
0.000806639405425
0.000627445972074
0.000917240319671
0.000914791837466
0.000763034699347
0.000917363026327
0.000917803981665
0.000279787930803
0.000886588978805
0.000359536781731
0.000759237973156
0.000598356123292
0.000234026899602
0.000309705098192
0.000694006827923
0.000318015149595
0.000904328590381
0.000402968977739
0.00038630031955
0.000370374139834
0.000364706026392
0.000917701195588
0.000552748815704
0.000383794333173
0.000901070379945
0.000899618181705
0.000897551502629
0.000619169519392
0.000430708880757
0.000915386947896
0.000915601252162
0.000813230923003
0.000413298294556
0.000917901684683
0.000393352581097
0.000916077635462
0.000319003237093
0.000228797038268
0.000875838626397
0.000209622551272
0.000340601573662
0.000384291123633
0.000359641339643
0.000330400643168
0.000558990881589
0.000548824715548
0.000625261450914
0.000470968962689
0.00026516848489
0.000519812172332
0.00112969572685
0.000372733915454
0.000430034899914
0.000357357195196
0.000767355447039
0.000663401317081
0.000917982383366
0.00088390907006
0.000854886489514
0.000138780691485
0.000499704448397
0.000298450145395
0.000390869242417
0.000347880731036
0.000398023683184
0.000364314840829
0.000346563463944
0.000714064212535
0.000307071846202
0.000889955523731
0.000906081744116
0.000632313998613
0.000905668310546
0.00082177220109
0.000142146077337
0.000401429528516
0.00090865740268
0.000902866601319
0.00023595627046
0.00027422803722
0.000352453407642
0.000445462636284
0.000887016026852
0.000698329814157
0.000803997670321
0.000902838862387
0.000900691499827
0.000897671591434
0.000126915725574
0.000422849610948
0.000660670809233
0.000914780827405
0.000915069859675
0.000915282127558
0.000795623991053
0.000802896533342
0.000683498660526
0.000702613847544
0.000850872296035
0.000317429888258
0.000417763555924
0.00088230813579
3.24291702163e-05
0.000358531557422
0.000775429690585
0.000776372862602
0.000268871489571
0.000293571286385
0.000338940162401
0.000330564044701
0.000287677292076
0.000531603066031
0.000807739891642
0.0005222769887
0.000493371262005
0.000907789531278
0.000691218045676
0.000915493930174
0.000607042492129
0.00091298347207
0.000872201270326
0.000872097442336
0.000636228155944
0.000639403588372
0.000614211822626
0.000624771469046
0.000710567672628
0.000917393535962
0.000270635904654
0.000266432165066
0.00029318855468
0.00029042321427
0.000360907341161
0.000345938930959
0.000906632156408
0.000735870866353
0.000604981429025
0.000496966067301
0.000379676594391
0.000914326492975
0.000860877340523
0.000585551851593
0.000905806216199
0.000307679928783
0.000686648469261
0.000543278522263
0.000916175495199
0.000323958147219
0.000904797524582
0.000824266926808
0.000143996952534
0.00090991281368
0.000911073187102
0.000907572242506
0.000831494716356
0.00082272135042
0.000917171421139
0.00027789420855
0.000351137654243
0.000439185538255
0.000859237615195
0.000853035648338
4.17253661641e-05
0.000906434321897
0.000323848538171
0.000911066827753
0.000910233394071
0.00065132794937
0.000435748094747
0.000916760026841
0.00041707934969
0.000917132701342
0.000915554620829
0.000714008123332
0.000299751454342
0.000289673321221
0.00037823664374
0.000364440169825
0.000821027402066
0.000915267711042
0.000877118188628
0.000120186431427
0.000420669360665
0.000420386152809
0.00047365872281
0.000327722188208
0.00052687695354
0.00080143835253
0.000881999579114
0.000742548381694
0.000888308551113
0.000788251587436
0.000902374208076
0.00018169474306
0.000906194906043
0.000826552818969
0.000271139924907
0.000353177409489
0.000453654362035
0.000186638430106
0.000431124689259
0.000191936153429
0.000216303021334
0.000132404459247
0.000881527305864
0.00082753517102
0.000499611446791
0.000916412028828
0.000367892105932
0.000609835241107
0.000909841561853
0.000401862782497
0.000397178542464
0.000901427369746
0.000636529434589
0.000650258885563
0.000203234887513
0.000917607036652
0.000153647779215
0.000518526651348
0.000791418507737
0.000917096468403
0.000614761622051
0.000721055952051
0.000377967524588
0.00064284370732
0.000675466641242
0.000317683042595
0.000917876916245
0.000843718667731
0.000918040442689
0.000286842876258
0.000895203701542
4.3831551255e-05
0.000547406584575
0.000881972877845
0.000877272307174
0.000776082403357
0.000468685517143
3.32831534927e-05
0.000913032124795
0.00046115307934
0.000883203563198
0.000453648397984
0.000914735476654