/*--------------------------------*- C++ -*----------------------------------*\
| =========                 |                                                 |
| \\      /  F ield         | OpenFOAM: The Open Source CFD Toolbox           |
|  \\    /   O peration     | Version:  v1906                                 |
|   \\  /    A nd           | Web:      www.OpenFOAM.com                      |
|    \\/     M anipulation  |                                                 |
\*---------------------------------------------------------------------------*/
FoamFile
{
    version     2.0;
    format      ascii;
    class       volScalarField;
    location    "400";
    object      p;
}
// * * * * * * * * * * * * * * * * * * * * * * * * * * * * * * * * * * * * * //

dimensions      [0 2 -2 0 0 0 0];


internalField   nonuniform List<scalar> 
24444
(
-1.43778691342
-0.00808819232498
-0.0781217432802
-0.168343483404
-0.104576028206
-0.0895448678338
-0.197304231378
-1.79828651526
-0.286394616172
-6.93429979694
-0.264075749075
0.369904850226
0.427898092047
-0.0296904331687
0.0305435707721
-4.85047113171
-0.237972499492
-0.10417507908
-0.872250662881
0.00279629407591
-0.842897903177
-2.26925770572
-2.52184152717
-0.0147689881987
-0.0144334614034
-0.285824392071
-0.285442559601
0.0645119422698
0.0666548391114
-0.0953368776675
-0.792464326563
-0.245440163082
-0.0886731635029
-8.08869772868
-1.44826358527
-0.229176564124
0.00881596458145
-0.000930103818122
-0.388999383546
-1.42568405898
-0.382324579903
-1.43136927276
-0.0925310843828
-0.0936996136233
-0.808263378542
0.00307849448689
0.0110385604014
-0.346915581944
-0.207242617784
-0.0958030040003
-5.00152907375
0.00129685712538
-0.0941573706015
-0.0016635014306
-0.0863703304271
-0.433213768009
0.00708374288773
-0.417255540284
-7.80595961351
-0.0633712076869
-0.0585339725093
-0.0582932260404
-0.102068001744
-0.0859394973342
-0.385280498592
-0.266603784651
-0.0864876591125
-0.111817811917
0.000329731821693
-0.114559394362
-0.114170035106
-0.590552376986
-0.484310745159
0.00371485511744
-0.0955510687679
-0.0328549890373
-0.168794722213
-0.0865168603802
0.0245957299972
-0.230157290471
-0.120918141957
-6.94646523664
-0.136780271283
-0.0719461972517
-0.00562404332274
0.112561775089
-1.37466754276
-0.0142679709952
-0.285553322909
-0.015618547208
-0.0281419783907
0.0231191122977
-4.52394541872
-0.240790599736
0.00134402931475
-0.0565627215137
-8.34731564496
0.00823538388657
-0.0289114798726
-0.0907977067784
-0.0338430861308
0.00283523514016
0.00621915493825
-0.165660768201
-0.311388749257
-0.329705477964
-0.326866529049
-0.0929712015995
-0.0931073517169
-0.0782966545408
-0.0755714056963
-0.0237253329316
-4.15721917599
-0.0210414040889
-0.0569225526635
-8.68835841999
0.00701390291451
-0.876401742667
-0.874030883345
0.00160925424967
0.00275678244702
-0.101704055446
-0.101374995989
-0.0893229228811
-0.0899533787506
-0.0918008508981
-0.347558400494
0.00729981423378
-0.102507937807
-0.209783371319
-0.434236027556
-0.102085210216
-0.131102475799
-1.46101478361
-1.46540411698
-0.341994985175
-0.337012305451
-0.211497645424
-0.100652739711
0.00730026627766
-2.78942885922
-0.00907472254445
-0.29751616772
-1.02375948356
-0.116537546946
-0.024256537297
-0.131625630572
-8.39166556313
-0.0948800087837
-0.0504614946169
-0.23311892567
-7.85345220192
-7.83849211628
-0.126474178536
-0.0954122051947
-0.149247742117
-0.152408856508
-0.19479936808
-0.181891980462
-0.442724700434
-0.44266990189
-0.148247244368
-0.115957006685
-0.102605420467
-0.053444935445
-0.177410853081
-0.203462977337
-0.133873886996
-0.128361466132
-0.0893487829718
-0.229500396791
-0.197131294594
-0.19698536658
-0.550331344801
-0.519519569907
-0.726481249401
-0.74550426944
-0.0998639687508
-0.0997845003812
0.00724141404293
0.0061110214472
-1.68179069142
-0.114646928712
-0.164193486374
-0.0392375313108
-0.141440529594
-0.093265031701
-0.0936523368869
-0.49344281222
-0.206262263054
-0.208451000833
-0.0997067841516
0.00811144519621
-0.532142899599
-0.155504866468
-0.0826531875828
-0.0109103134765
-0.150174178753
-0.0484809869753
0.00294294955406
-0.0867777968038
0.00864271985587
-0.0448553283056
-2.19823459031
-0.272556016514
-0.581483663329
-0.61503204249
-0.29850097212
-0.297196649547
0.00432659486937
-0.504056626441
-0.117223821259
-2.22809516874
-0.189833401812
-0.410998001263
-0.0762438688439
0.0322681679302
-0.147283452559
-1.93527877288
-0.289672036642
-1.61726226043
-0.109941012638
-0.290601480382
-0.157747803075
-0.0944955105603
-0.0938136805263
-0.357602839586
-0.0609602221614
-1.12651402498
-1.07987022142
-0.327815029609
-0.318855935283
0.000775445493246
-0.00196918253385
0.0079110131637
-0.364924265814
0.55834261517
-0.0906730249408
-0.0346833814962
-0.218055521582
-7.79608138102
-0.117517046179
-0.000723133476337
-0.316624688376
-0.0950105155205
-0.306166533656
-0.0338687310139
-0.101569729084
-0.109260749099
-0.998241746086
-0.0152953699445
-0.188823311563
-0.0856481681135
-0.0640874390635
-0.0259900512878
-0.0934789436536
-0.0933943397744
-0.188674230987
-0.0946084505587
-0.171082321357
-3.04899518984
-0.520772265176
-2.94089659059
-0.0136580360422
-0.291794769524
-3.75780826603
-0.002549893976
-0.0781561322928
-0.0944382264532
-0.0916656587535
-0.0963349860468
0.00370054412084
-0.532230593279
-0.498903383622
0.00494782500558
-0.0968568766189
-0.0116340644072
-0.631174989643
-0.310842164459
-0.307190325298
-0.823403985094
-0.858088264464
-0.268743590388
-0.0933852247626
-0.328444314886
0.00756124265299
0.512015393218
-4.82470963872
-0.0925017464299
-0.308885538345
-0.306789294089
-1.33436032418
-1.25129705825
-1.72979052922
-0.0894791803073
0.00552722752181
-0.218339273431
0.00556633295615
0.00722242373154
-0.0193652155288
-0.0148361108586
-0.283557635726
-10.8283484654
-9.29181023194
-0.303085281055
-0.122227884853
-0.122344430611
-0.207579893577
-0.206689705847
-0.18032440931
-0.314701186521
-0.00546013685357
-0.186198022593
-0.449767012689
-0.333697839906
-0.082749199603
-0.00711069680831
-0.111326883963
-0.152664045661
-0.412841850092
0.00269824227126
-2.87442869689
-0.0120481975634
-0.29376201598
-0.0987662936383
-0.0837448840263
-0.046057034534
-0.0555639903747
-0.0546584322636
-0.501931255585
-0.474658036512
-0.234389567223
-0.0784387373565
-0.181682829918
-0.440674077065
-0.447388723862
-0.961798057078
-0.925320036214
-0.0964201986187
-0.0972766651351
-0.152278242109
-0.187752095148
-5.05012229016
-0.0541163035134
-0.153540322838
-0.0979622717757
-0.10549528242
-0.0662020916036
-0.0992825525669
-0.104964478598
0.000801620732283
-0.139313950081
-0.732365032106
-0.121265432189
-0.368117266918
-2.03846598512
-0.205366536004
-0.680780745394
-0.0993715031128
-0.0847854325883
-0.433970133737
-0.419692526583
0.0072080869379
0.00908117113772
-0.0240416439881
0.0314572170942
-0.025728422564
-0.0856348513235
-0.114183885911
-0.00246001608663
-0.00704250690882
-0.255986877736
-0.103292724277
-0.00655207646258
-0.0437469403574
-0.0833442772805
-0.090357539087
-0.268630921169
-0.26366407074
-0.0583543865475
-0.0608180642265
-0.392090872723
0.426461122713
-0.186854698414
-0.348535798275
-2.86569247373
-0.282651530699
-0.2221640026
-0.21597087382
-0.11228135907
-0.164717465058
-0.0971126432254
-0.0640154416107
-0.355607493826
-0.343339675403
-0.576133498072
-0.474281079703
-1.12404216556
-0.107633099473
-0.0150862098225
-0.283559423799
-0.0182359397902
-0.0202415703023
-5.14623192932
-0.403222900163
-0.433272683943
-0.0985637245171
-0.0657425288093
-0.0636727928521
0.00433054829712
0.00434813904197
-0.442150897972
-2.09259001381
-0.422607160907
-0.428029115997
-0.0927806542634
-0.0987970717485
-0.0686787198348
-0.978450017939
-0.821210934294
-0.194560710775
-0.368449007947
-0.269861142734
-0.548051833492
-0.313122382999
-0.30349874165
-1.58413109766
-0.395165492917
-0.118155603253
-0.256444151586
-0.0773665971855
-0.218220353183
-0.645137491719
-2.96654982572
-3.29568512612
-0.0301736630104
-0.378479983172
-0.372709712762
0.445240416655
-0.334681469276
-0.105414771319
0.00309700507084
-0.333003371257
-0.0430379245567
-0.0419135925134
-0.42217466345
-1.36599478212
-0.413298728018
-0.0962352750794
-0.0369972936762
-0.153872183998
-0.118548444142
0.0146778589165
-0.0199777808478
-0.0186640009524
-0.688039828382
-0.378364178761
-0.0104346134618
0.00181413868158
-0.268993934154
-0.265047736039
-0.00955775750583
0.00833593635434
-0.245861130945
0.0144317224273
-0.97992494345
-0.311562244622
-0.117461616627
-0.0889284571818
-0.366082714769
0.00765234009251
-1.24138917893
-1.45908447412
-0.0879521527633
0.00764481984194
-0.0922014009069
0.00595867869607
-0.334651457886
0.601019260671
-0.011234642956
-0.110717985577
-0.094160253661
-0.152482700669
-0.155400027348
-0.0767646586653
-0.56744976628
-0.15094751479
-0.153839502916
-0.207519637632
-0.202687250951
-0.115424994431
-0.528951912058
-0.105989379331
-0.0112175757889
0.00340340100669
-0.0669296546326
-0.0692482295998
-0.210057322358
-0.0471725795357
-0.30692672336
-0.0003137456959
0.265024521369
-0.144387021763
-0.117713226789
-0.162304454082
-0.0114201424949
-2.39913949212
-0.244944292732
-0.0191989971637
-6.01000425378
-0.102707615586
-0.233401005964
-0.44334820901
0.537001481767
-0.428058804056
0.542038046875
0.00620175884918
0.00688128461012
-1.06936022741
-1.11920370584
-0.499699447262
-0.488785172806
-0.100106372019
-0.0985435020124
-0.0643004110688
-0.069973687467
-0.120542499075
-0.0865831005417
0.00466059914142
-0.0684189457077
-0.572544531966
-0.302083882903
0.236336154171
-0.123033544058
-3.82256926127
0.00630964064081
-0.353530535347
0.589228387721
-0.100926907659
-0.0884316710888
-0.0776065248214
-0.373803164916
-0.159136809758
-0.0848799068843
-0.0173316371805
-0.404676057466
-1.07713329562
-0.102311475953
0.000927643963481
-0.0893276988175
0.541838477046
-0.459902124568
-0.0946640352881
0.00393633213276
-0.0352049267842
0.00324961215025
-0.552490290234
-0.0710343002123
-0.0995141263925
-0.105316648377
-0.284795326381
-0.215382542578
-0.14918946429
-0.0676826945214
-0.148068519573
-0.0679996875053
-1.40442683177
-0.364271129054
-1.14002700149
-0.101843623285
0.000218345068805
-0.0897911686938
-0.229141568558
-0.165691970746
-0.0694040639851
-0.0599753592454
-0.404742186177
-0.0933598108878
-0.111364707995
-0.110367877244
-8.38077418453
-0.138787587626
-0.0720098298383
-0.00718232077651
-2.5050298372
-0.137121945872
0.00332644191048
-0.140550462996
-0.123448961432
-3.08700119705
-0.288977696442
-0.516743669655
-0.203883286153
-0.0897939123344
-0.00675815165503
-0.147868873343
-0.483017058138
-0.173125028884
-5.58202142841
-0.239973907486
-0.0682518266771
-0.0474296020738
-0.172554560061
-0.490175576911
-0.483786259255
-0.427045428625
-0.0766790727631
-8.53141200664
-0.164601445176
-0.161994279538
-2.13199656352
-0.323167528505
-0.0073615811668
-5.83021283335
-5.32495725036
-0.340875530362
-0.0284252255912
-0.0175200510915
-0.00743062686311
-2.66892049085
-0.301079392003
-0.341094810218
-8.33119557712
-0.0894198059998
-0.0635071668422
-0.0978878947677
-0.194147565131
-0.336281239883
-0.335674459684
-0.11685273814
0.00885791462984
-0.108213535376
-0.174985013695
-4.42656858042
-4.5890358633
-0.198873194187
-0.200702217048
-0.00853679926339
0.0118078490325
-0.437308467855
0.01045449981
0.00789282989029
-0.016817874006
-3.16881795314
-3.00039541145
-0.279836692429
-0.274847368878
-0.259794722238
-0.0198547388196
-1.43660305741
-0.370492475504
0.00509437275416
-0.103473954399
-0.944805573614
-0.103145206522
0.000198289052055
-0.0666717589934
-1.70999995019
-0.171485584367
-0.00741232888399
-0.165439002646
-0.18510264766
-0.42594893797
0.0124355833248
0.0159021801054
-0.18138958348
-0.181667192655
-0.0535866072204
-0.0535517146814
-4.35910867386
-0.0715546896054
-8.57516852347
-0.17123011757
-0.133211444334
-0.0399275464037
-0.255889901336
-0.984292558057
-1.2897195747
-0.370259445667
-0.00301652164758
-0.403315245483
-0.0181762922648
-0.0597021027914
-0.419783565867
-0.662060547968
-0.0869092880877
-0.190873453973
-0.227728516456
-0.0961985973817
-0.105288760962
0.00450520884404
-1.00576456347
-0.0928937040636
-0.33289899179
0.535495958944
-0.245678334389
-0.0594059590418
-0.428287019573
-0.0983436938612
-0.373527966812
-0.698381015562
0.00403572279552
-2.32425468816
-0.304916691389
-0.00921431167608
-0.092165168551
-0.347287517281
-0.237079873893
-0.0385978386146
-0.273076278509
-0.0397471728278
-0.495164544321
-1.26928776513
-0.106720854105
-0.0758420068144
-0.075930347204
-0.0922807157716
-0.32516260894
0.547918829498
-0.977343060112
-0.223539055006
-0.0919806338347
-0.670559120958
-0.100168346534
-2.59601199572
-0.0784967899119
-2.66881505236
-2.71024151816
-0.305038208414
-0.295337276523
-0.314288248292
-0.0679382935484
-1.81195090104
-2.04701593265
-0.110460344775
-0.112417171088
-1.08216738083
-0.0781084703901
-0.406231585308
-0.146504897532
-0.141875148686
-0.0632123041298
-0.0644636859337
-0.307091264297
-0.42598754172
-0.0819696648054
-1.04191399332
-0.351616653423
-2.25557413617
-0.307661582514
-0.00891487151649
-0.740307523866
-0.422662140239
-0.0472850297947
-0.0785189480644
-0.402878617151
-8.90320098275
-0.0760673131844
-2.94871207925
-0.253684572374
-1.03792013023
-0.426817139201
-7.70574404961
-0.446240606459
0.524065946927
0.00668245287671
-0.113751461288
-0.803280260477
-0.118814099517
-0.0784174419302
-0.102752884463
0.0254537261477
-0.407213519676
-0.604931097429
0.00266361735375
-0.484258553128
-0.465812171647
-0.36629673281
0.00829441217002
-0.25465496019
-0.367383401154
-0.126909648786
-0.796766299825
-9.10419192999
-1.8566133118
-0.319453399268
-0.00705200226863
-0.0753141231492
-1.83812016803
-0.419772937025
-1.2432397538
-0.0952876848565
-0.162403952353
-0.0586192064342
-0.0570664635935
-0.0825753938055
-0.0905716550034
-0.081866779717
-0.0382042456985
-0.36351400496
-0.0888053479759
-0.0913588934526
-0.120515879348
-0.911096890117
0.00425848847064
-0.0672314328197
-0.39486168081
-0.0835245939721
-0.135822481162
-0.13701348624
-3.50492125807
-4.09279445118
0.000904846062015
0.00819059885391
-0.0845773567347
-0.0845689362834
-5.51399257977
-0.405317344389
-1.82420928073
-0.00511812275255
-0.317168088168
-0.426096254019
-0.428371920086
-0.176572670341
-0.160112591168
-0.0924537193695
-0.0927847632361
-0.116726858795
-0.0372375333988
-0.840381491089
-0.0404211423415
-0.167310096145
-0.645767097914
-0.104127766072
-0.192841962457
-0.301770955518
-0.0869224463227
-0.0856038393147
-0.421769664471
-0.323770878881
-0.0200884712546
-0.232975279953
-0.0778165894017
-0.366929372529
-0.0335198467358
-0.0612882097665
-0.0694841247399
-0.0933867344097
-0.0929140947124
-0.00467146922463
-0.157833126321
-0.155150854995
-8.56597221558
-1.51434870596
-1.59494301412
-0.339547636064
-0.339239792116
-0.0415679776466
-0.809772483483
-0.901792414186
-0.0919921420554
0.0062327562984
-0.336627380348
0.594834268094
-0.101055000811
-0.143623839405
-0.113625938238
-0.041630450789
-0.0400736516724
-0.617708266579
-0.107162214572
0.00750021937128
-0.244296409433
-0.0902146975112
-0.172434421551
-0.333680305502
-0.37809467932
-0.092432058731
-0.123873364709
-0.113704779235
-0.154774172101
-0.0671451041431
-0.487355593537
-0.33841330898
-0.339943448916
-0.091193894336
-0.0916305010426
-2.34664808916
-2.00097805026
-0.716450654288
-0.0948748073926
-0.0885850596943
-2.01715271569
-0.285895621766
-0.363232236005
-0.836611241831
-1.4794207741
-1.45540386877
-3.0354560048
-0.262855478136
-0.810218466432
-0.997430754044
-1.06415652223
-2.68061299702
-0.297423717464
-0.00991966896076
-0.103525824451
-2.24395470767
-0.274565126399
-0.129544858082
-0.39888148621
0.534525909164
-0.963805621222
-0.000540883846406
-0.10486467459
-0.0209511364307
-0.103976261673
-0.122512619848
-0.199084371429
-0.00980296364319
-0.0507433488002
-0.117280387273
-0.315401098973
-0.0951881835176
-0.139030809781
-1.94086073843
-0.00596663666312
-0.313048136217
-0.0396490271607
0.00856441186179
-0.00877280161568
-7.86465702415
0.00869528245648
-0.852724292728
-0.370892382398
-3.17643451682
-0.10552263209
-0.331728666127
-0.673425434282
0.157811392772
0.00800540710726
-0.387039574326
-0.0487215193988
-0.0602250796691
-0.103185994245
-0.213664647017
-0.0378725263587
-0.672512475908
-0.667982596139
0.0572818485271
0.0018338818334
-7.95081249819
-0.167427052632
-0.0568470478393
-0.0422024162204
-0.0748723330584
-0.259051842718
-0.0646880868306
-0.43485251932
-1.71264946771
-0.0904386369013
-0.00888030452478
-2.2993159707
-0.270559396724
-0.573611728036
-0.825575862817
-1.51293011356
-1.57433954756
-0.289447136296
-0.281342063299
-0.0883386540831
-0.0524688091741
-0.0644704045618
-0.01272650706
0.00473788122463
-0.0625846181682
-0.0090264010619
-0.268407218172
-0.25758921323
-1.80371756223
-0.0141759307274
0.0817379301744
-0.282261056691
-0.0347195079713
-0.0630060244633
-0.00934437609585
-0.895058021107
-0.879398393722
0.00340306049995
-0.537543329849
-0.536344402851
-0.325109398247
-0.121380967708
-0.084401020342
-0.0508789859253
-0.10295636456
-0.643607991074
-0.196345218398
-0.077151187556
-0.0822755396069
-0.0823285470201
-0.117402003078
-0.0449487363073
-0.0171915328884
-1.4916687806
0.0140153584284
-0.269623591085
-0.16207638326
-0.296037613077
-0.21955670855
0.0101706588969
-0.253471406561
-0.0693755148274
-0.0918444953724
-0.256741863357
-0.246199136548
-0.0944343835583
-0.0163107865894
0.0199506187942
-0.030258142068
-0.181894011372
-0.238952679696
-0.353057861173
-0.345841741744
-0.470930914741
-0.318648276611
-0.0139065691231
-3.14887722034
-3.96168284408
-0.410714690687
-0.267920747275
0.00540934637751
-0.390914641384
-0.0789268659284
-0.0862708217168
-0.381493278433
-0.19670821284
-0.104903271242
-0.0701182164723
-0.0671746078603
-0.131098791266
-0.0738853176208
-0.107857518593
-0.142556988694
-0.363137415129
0.447165406112
0.00585985127825
-0.0156423229703
-0.0170768698792
0.00712562539138
-0.0682109014043
-0.0680194552086
-0.0697018365417
0.0861694510523
0.00518804994383
-2.37885619571
-0.116287044769
-2.55902068786e-05
-0.321060401402
0.222567590541
0.00603651571721
-0.324034540286
-0.246442538496
-0.0920283998542
-3.21512749654
-0.283151614895
-0.00442408233659
-0.332191537305
0.0913019253215
-0.0285438653459
-0.159639000144
-0.0325864617595
-0.353498407066
-0.0167432684839
-0.0897551203736
-0.0074762925881
-0.124588877713
-0.0784708941748
-0.649014052196
-0.00943903625695
-0.538400761325
-0.340870701771
-0.0611944049603
-0.062842268273
-0.531549184291
-0.244749980583
-0.287743529888
-0.242033924791
-0.236772716774
-0.153199741015
-0.0272543804708
-0.0773649024266
-1.22095844751
-1.23913899273
-0.412905686234
-0.402312083319
-0.28054948793
-0.372211326364
-0.0813232196204
-3.60397068784
-0.124706441322
-1.61982862573
-0.354974826268
-0.128458540362
-0.00252875700524
-0.028703989779
-0.148027861884
-1.8883698703
-0.336757905657
-0.0888509577938
-0.0186551223147
-4.41875150215
-0.0894033362175
-1.79327126493
-0.162793381264
-0.162921785241
-0.0613861637011
-0.062353008149
-0.670679420987
-0.0981874837848
-0.0976242968305
-0.108472842344
-8.48271212489
-0.163231158594
0.00533204186673
-0.0567384884009
-0.989265184785
-0.205899981428
-0.223153702427
-2.09612450852
-0.243642210162
-0.107139425994
-0.0522083439189
0.000958196434097
-0.122223438378
-0.29144780283
-0.39312394754
-0.33318448998
-6.7756731489
-0.638833137934
-8.93533826697
0.00729171990934
-0.229323368589
-0.0975932589393
-0.446071909504
-0.110959948617
-0.121125511669
0.358014319187
-0.187159208894
-0.186793063032
-0.0296312469618
-0.20844152874
-0.170524810516
-0.106777726316
-0.21070167821
-0.00931001289287
-0.639002759374
-2.90613550484
-0.264188280984
-0.461600107791
-0.456361155905
-0.16408270846
-0.085855500139
-3.20587944124
-0.0149588198609
-0.286427484532
-0.0068363474743
0.0659659900158
0.00488064983602
-0.364947836103
-1.4373531646
-0.0917437397423
-0.429197755611
-0.16626006655
-0.0848420695361
-0.1187943225
-0.252362729383
-0.490888686765
0.511253071169
-0.0965855883927
0.00518680360945
-0.158705711928
-3.11338014123
-0.0154214077551
-0.281099846643
-0.159848269215
-0.0636263526399
0.0081142977323
0.00242296203455
-4.40131877897
-0.435000262418
-2.5136467757
-0.304628503301
-0.00876172803733
-0.454682587843
-0.45484621193
-0.181318924588
-0.113761761925
-6.93685923092
-0.0937323420411
-0.116556464313
-0.0807846042877
-0.00588300240482
-2.09261234355
-2.04503358124
-0.293784097617
-0.0261116031633
-0.0239661236854
-1.92270613806
-0.00454964692394
-0.318058674366
0.00398816897388
0.00674856869048
-4.49804774156
-4.4554435733
-1.97033756784
-0.0265986763954
-0.0717647681632
-0.0715747305538
-0.0254800397805
-0.00429410664176
-0.133207033598
-0.0734588190191
-0.00962010081062
-0.14030272637
-0.144319664577
-0.137289393633
-0.0697706665422
-0.0705505009433
-0.419642630909
-0.166198136775
-0.120739127072
-0.349421953215
-0.157455596414
-8.1998792301
-0.100561945279
-0.297362080144
-0.351701679335
-3.53996617829
-0.125739624542
-4.98632348461
0.00931433247406
-9.49603938171e-05
0.0191045805054
0.00517593240377
-0.137341507712
0.0113284382706
0.0121323114384
-0.205864284648
-0.198764355947
-0.0349353312204
-0.0397346705499
-0.390744521316
-0.185474618875
-5.95356762695
-6.1266203016
-0.23464231827
-0.224276703375
-0.367278546965
-0.0868106030117
-0.0429728954935
-0.0271063180719
0.022856416112
-0.198294192542
-0.443049315584
-1.24065007115
-0.0973269463488
0.00793839819304
0.00591117015815
0.379528207654
-1.14836138197
-0.0123048282497
-0.0664172914184
-0.0825364299996
-0.0952852115673
-0.270860187156
-0.280982419486
-0.0582214211826
-0.0573985309787
0.00512823934144
0.00448476432386
-0.231622855491
-0.120965517646
-0.0920306370905
-3.63785190369
-0.10115843185
-0.177461052473
-0.272558829124
-1.65332078953
-0.0792761240217
-1.67915269382
-0.090994071641
-0.430817151654
-3.52053345755
-0.0845826406303
-0.390940793787
-0.947257766932
-0.138370248442
-0.0256190471228
-0.427605250561
-0.0323849208465
-0.0334300599967
-0.417183161798
0.00359185131504
0.00325605595176
-0.243574807291
-0.430171149368
-0.0687966615603
-0.00574902897966
-0.0670002011246
-0.0650128543
-0.160661138948
-0.484102763369
-0.487629362677
-0.145542329816
-0.231412677308
-0.226091780021
-0.0287664447708
-0.0667996057471
-0.099393040325
-0.100400240177
-0.0162830943784
-0.0196970880046
-0.798474008468
-0.424593178416
0.539438574283
-0.398165643979
-0.163475191296
-0.099252080981
-5.6438535519
-0.0542328450758
-0.062604485128
-0.19459044687
-0.128640566862
-0.111376294652
-0.113765469398
-1.23081802319
0.0067273580096
0.431929349067
-0.0943282252676
-0.101063624134
-8.46139121713
-0.463921736329
0.532794711609
-0.0957910204866
0.00574132369808
-0.774787769568
-0.398643664022
-0.0684582957973
-0.180205587475
-0.0961438618552
-0.790361930909
-0.0169038759751
-0.0208817876665
-0.0487901215603
-0.0487394985935
-0.00177040364547
-0.128928120146
0.000946214050998
-0.211454330724
-0.286778027958
-0.263563764041
-0.0236397266927
-0.322562969719
-0.0432519851918
-0.116943207235
-0.373978682598
-0.348808360551
0.60023989227
0.00550593587419
-1.99709392814
-0.291299207215
-0.132559290864
-0.224165839196
-0.113643693998
-0.11555796031
-0.0322215711018
-0.0923716384584
-0.310829717994
0.474805968877
0.0033482269563
0.00273430896271
-0.771644198166
-1.8052554086
-0.290962933054
-1.30969944066
-0.0644367429617
-0.130842006003
-0.072949572701
-0.65989736563
-0.139099053856
-0.189484225954
-0.0928522671395
-0.389374791974
-0.00400868697286
-0.12146500325
0.0979902644438
-7.75020790842
-0.0125920125035
-0.0147193117158
-0.253086415416
-0.263505990233
-0.132642525844
-0.0738573039154
-0.13424026612
-0.134213854776
-0.174377529638
-0.0139700920672
-0.0922873985313
-0.0863961043169
-0.0338670959563
-0.0243564064252
-0.249881246694
-0.0765312202227
-0.0965771706509
-0.0954556624754
-0.10648290846
-0.0774643942934
-0.174788991956
-0.00297305331773
-0.370729070275
0.00445286932542
-2.34262045749
-0.110517306561
-2.12095652294
-0.0956331300337
0.00390993748499
0.00146243000331
-0.0924515971723
-0.322195136779
-0.0945594456839
-0.124695264074
0.139786201016
-1.84185176615
-0.335243714999
-0.499444274103
-0.0964054762694
0.0035409175669
-0.0914774936865
-0.754936160924
-0.0884700843047
-0.172385338895
-0.00136391715437
-0.214154489756
-3.53580805316
-0.413001339896
-4.28940317373
0.000823062485565
0.00893953072885
-3.15025125297
-0.0159079391232
-0.280891525221
-0.0979252380163
-0.331153180694
-0.407234406616
-0.241182354148
-0.634372150296
-0.0974596569427
-0.0869036573352
-3.29646927397
-0.273413533193
-0.0782434367852
-0.553358605234
-7.78761855568
-2.01321546676
-0.321888038474
-0.00421988426315
-0.141106464363
-0.0983674208602
-0.0933450966251
-0.399107614282
-0.0733744736808
-0.0739163210293
-3.27164785638
-0.266309868987
-0.956557598703
-0.0862179915454
-0.0862332908075
-0.0917760163283
-0.154571904841
-0.166958724645
-0.0397207584866
-0.0390742274695
0.0158094584888
-0.335394044902
-0.0919533709492
-0.399231616574
-7.02657933982
-0.0748134764865
-0.110460342779
-0.107522269773
-1.85038997279
0.568051364817
0.00453957101574
0.00850271707126
-0.885882004252
-0.92174181765
-0.307638622258
-0.0879169987358
-0.0883850881633
-0.0340097842885
0.00355307646085
-0.0928926583343
-0.0206988844757
-0.450647230752
-0.0983367816387
-0.0981247720039
-0.114841388647
-0.116592940466
-0.0370716637215
-0.0371264498538
-0.106196257497
-0.161843680755
-0.371504037161
-0.381774770375
0.385751416061
0.42676947332
0.00607831222971
0.00653235806834
-0.0643482385884
0.00247278426239
-0.186577460101
-0.0487671756971
-0.272910264939
-0.225200969797
-0.227098911154
0.00784422691055
-0.234961877204
-1.6933351507
-0.289126310374
-0.0858711239154
-0.3760682935
-0.224732149042
-0.242893570017
-0.00494618920212
-2.93077933937
-0.105529117347
-0.106167449516
-0.310631305363
-0.000953934432499
0.00512046772288
-0.127590962859
-2.06112987913
-0.322239116061
-0.00570919054929
-0.750633253269
-0.77974905375
-5.44473514651
-0.189369152541
-0.0958217772127
-0.210073187965
-0.208051979174
0.0198340623385
-0.574856480064
-0.28451758799
-0.0484229210349
-0.130207109172
-0.0923410186731
-0.122227855493
-0.351329981366
0.366331881168
0.0086220684974
-0.111555700178
-0.434532953064
-0.105261645037
-0.100498008202
-3.34710892754
-0.262781205357
-0.00838050896851
-0.0679664923997
-8.62155254626
-0.146242222971
-0.109731526734
-0.399098876365
-0.439153199008
-0.178799956305
-0.0843409186219
-0.34249802749
-1.65918751039
-0.269867299199
-0.647149516543
-1.74583244237
-0.31967176502
-0.0025659081269
-1.22625905511
-0.106349399833
-2.45794362695
-2.23833881073
-6.08257442451
-0.0133634069497
-0.487099143296
-0.670131250886
-0.102814284513
-0.0212058909842
-0.0261259910939
-0.298624374044
-0.116282462701
-0.122065783365
-0.34609826425
-0.514470899609
-0.516067742593
-1.1031274713
-0.294684432668
-2.73544382744
-0.263630770976
-0.512337402638
-0.172319469796
-7.81367013411
-0.146518944307
-0.000107704858197
-0.06780780249
0.00872295808938
-3.59612466297
-0.116749661167
-0.386266780674
-0.197499727234
-0.0927626991325
-0.0935472842923
-5.12861569288
-0.0822950608875
-0.101745181115
-0.100471201805
0.141122620994
-0.0107540148889
-5.81995756143
-0.0745549599754
-0.221323410525
-0.0954554260446
-0.360999130438
-0.0855211715454
-0.0939217990476
-0.413756207111
-0.0866933951128
-0.0954730671017
-1.39452244242
-0.386619523456
-0.0922940414483
-7.09138969748
0.00544140787238
-0.075623882662
-0.0763683084498
-0.439048321235
-0.259560146137
-0.243386816207
-0.831030809592
-0.807158795388
-0.496470237444
-0.401844901457
-0.189038362468
0.00579264422003
-0.0119437129154
-0.0137168185141
-0.0934005219225
-0.093803833115
-0.293375552831
-0.158160465918
-0.0827396855308
-0.0813288664778
-1.02105315744
0.311719135291
-0.00568925322347
-1.12657230213
0.00752018234596
0.0049891170352
-0.0908251059166
-0.40992081475
-0.0856116508398
-3.46749511678
-0.0722744310658
-0.0734587158995
-0.147205771109
-0.41648974344
-0.0147906073076
-0.11756336102
-0.0946833761963
-0.0553422386165
-0.122015244331
-0.0657484854746
-0.0658635673749
-0.173917340138
-0.270436483911
-0.279940894111
-1.01348938366
-0.510116040013
-0.170083083479
-0.0571111388237
-0.0941624601683
-8.73619261396
-0.00798913702825
-0.0712575040031
-0.142241941967
-0.0181992345637
-0.0947344971624
-0.0670490656234
-0.0694123188626
-0.460194363614
-0.648132832334
-0.282225234037
-0.27909923718
-0.0811902866405
-8.43709650875
-0.162004081987
-0.00254590547639
-0.0593025504374
0.0111664054945
-0.139850862313
-0.136799508781
-0.128987298056
-0.0932949577709
-0.316286095466
0.439241968358
-0.135299154809
-0.0267612292931
-0.423136047047
-0.0473124614538
-0.0529024813537
-3.22504756116
-3.39784107143
0.0848668859807
-0.542255072862
-0.012758544172
-8.49058936576
0.487969121729
-0.170097893237
-8.41408543574
-0.0683766701589
-0.146560394117
-0.144739897199
-0.441193197217
-8.49277784995
-0.154420718942
0.00631682677663
-0.54827141657
-0.301274246896
-0.11292786685
-0.437520658376
-0.135006095869
0.00865617123987
0.387928748515
-0.422241781473
-0.0762350839414
0.00158666363774
-0.0826108886927
-0.42191203156
-2.613099628
-2.04378677486
-0.282238726074
-0.287913177933
-0.323388248223
-0.0174314670318
-0.276695956261
-0.14436258272
-2.63457163362
-0.0932070965887
-0.0916663325636
-0.316292538994
-0.311962525887
0.00695810845157
0.00848200278743
0.537553612127
0.45885972387
-1.3031581997
-0.37496354433
-0.160428631755
-5.63379189278
-0.0961951662429
-0.724712091293
0.31661957382
-0.948694937454
-0.00598280479037
-0.304867860919
-0.193998017732
-0.0547744780929
-0.134255382604
-0.145262015168
-0.0229493770062
-0.590178089225
0.00377831534086
-0.096910510514
-0.0908939297655
-0.0876403464475
-6.12711103185
-0.223835843314
-0.194891079684
-0.020446316081
0.00679961097114
0.429609458216
0.00545581631169
-0.363181831252
0.631381218387
-0.106990151779
-3.70628810844
-0.793878102054
0.012450819198
-0.00981347959747
-0.0102114361498
-0.0159300584211
-0.373003563094
0.538705568513
-0.311673643881
-0.0917775183697
0.00843460967458