/*--------------------------------*- C++ -*----------------------------------*\
| =========                 |                                                 |
| \\      /  F ield         | OpenFOAM: The Open Source CFD Toolbox           |
|  \\    /   O peration     | Version:  v1906                                 |
|   \\  /    A nd           | Web:      www.OpenFOAM.com                      |
|    \\/     M anipulation  |                                                 |
\*---------------------------------------------------------------------------*/
FoamFile
{
    version     2.0;
    format      ascii;
    class       volVectorField;
    location    "870";
    object      U;
}
// * * * * * * * * * * * * * * * * * * * * * * * * * * * * * * * * * * * * * //

dimensions      [0 1 -1 0 0 0 0];


internalField   nonuniform List<vector> 
9216
(
(0.00156795950548 -0.00156941216085 0)
(0.0016080200673 -0.00489088622513 6.54476846916e-28)
(0.00159670299447 -0.00822054604531 1.08884136425e-31)
(0.00157356680198 -0.011530224727 0)
(0.00154246147952 -0.014781247312 0)
(0.00150418308322 -0.0179596360292 0)
(0.00145959505463 -0.0210513491332 0)
(0.00140947871312 -0.0240440681097 0)
(0.00135464113863 -0.0269271035798 0)
(0.00129585568511 -0.0296914304405 0)
(0.00123390534841 -0.0323296388823 0)
(0.00116949742797 -0.0348358925034 0)
(0.00110332343642 -0.0372058030997 0)
(0.00103596501136 -0.0394363283844 0)
(0.000967978721643 -0.0415255977109 0)
(0.000899792593588 -0.0434727848585 0)
(0.000831816858191 -0.0452779180329 0)
(0.000764326468974 -0.0469417579638 0)
(0.000697597277685 -0.0484656164054 0)
(0.000631769312346 -0.0498512586491 0)
(0.000567008537867 -0.0511007427787 0)
(0.000503345855988 -0.0522163543643 0)
(0.000440865371118 -0.0532004700857 0)
(0.00037951513533 -0.0540555255107 0)
(0.000319324181605 -0.0547839011761 0)
(0.000260181599976 -0.0553879202897 0)
(0.000202084958771 -0.055869754482 0)
(0.00014488528849 -0.0562314484378 0)
(8.85702223504e-05 -0.0564748430578 0)
(3.29729210549e-05 -0.056601623687 0)
(-2.19088462501e-05 -0.0566132649994 0)
(-7.62437929596e-05 -0.0565110983967 0)
(-0.000130003243427 -0.0562962648557 0)
(-0.000183330303253 -0.0559698273809 0)
(-0.000236142103686 -0.0555327447057 0)
(-0.000288539103062 -0.0549859927499 0)
(-0.000340365256451 -0.0543305670655 0)
(-0.000391659916425 -0.0535676197563 0)
(-0.000442181215998 -0.0526984785252 0)
(-0.000491900442522 -0.0517247878517 0)
(-0.000540492169423 -0.0506485304359 0)
(-0.000587870259 -0.0494721507912 0)
(-0.000633649106865 -0.0481985601879 0)
(-0.000677716321737 -0.0468312188146 0)
(-0.000719667052386 -0.0453741068794 0)
(-0.000759403115827 -0.0438317511242 0)
(-0.00079653933871 -0.0422091670057 0)
(-0.000831011826104 -0.0405118483074 0)
(-0.000862452513562 -0.0387457252044 0)
(-0.000890788107492 -0.0369171812699 0)
(-0.000915586374953 -0.0350331152985 0)
(-0.000936639351951 -0.0331010744816 0)
(-0.000953309980295 -0.031129488473 0)
(-0.00096512812786 -0.0291279273565 0)
(-0.000971207040946 -0.0271074127721 0)
(-0.000970909576161 -0.0250805704056 0)
(-0.000963389842149 -0.0230616453699 0)
(-0.000948301082604 -0.0210661450008 0)
(-0.000925333174051 -0.0191102959474 0)
(-0.000894709361003 -0.0172103806285 0)
(-0.000856614733308 -0.015382241673 0)
(-0.000811561148291 -0.0136409740383 0)
(-0.00076001008666 -0.0120006908592 0)
(-0.000702880589679 -0.0104740906864 0)
(-0.000641371132915 -0.0090717566078 0)
(-0.000577638751636 -0.00780076396437 0)
(-0.000514039554817 -0.00666336797722 0)
(-0.000453040108797 -0.00565659446917 0)
(-0.000396181209037 -0.00477313331988 0)
(-0.000344190776621 -0.00400326192045 0)
(-0.00029676424725 -0.00333693139413 0)
(-0.000253530947452 -0.00276496097443 0)
(-0.000214013582604 -0.0022791921172 0)
(-0.000178305795365 -0.00187188304201 0)
(-0.000146628920948 -0.00153491256207 0)
(-0.000119461116915 -0.00125928538938 0)
(-9.67572077236e-05 -0.00103552199786 0)
(-7.82326478103e-05 -0.000854473931423 0)
(-6.30992066267e-05 -0.000708225315382 0)
(-5.07069980423e-05 -0.000590416971563 0)
(-4.04368803375e-05 -0.000496072728132 0)
(-3.20222752581e-05 -0.000421068674342 0)
(-2.50729858495e-05 -0.000361942500372 0)
(-1.9226718804e-05 -0.000316217779281 0)
(-1.3692406207e-05 -0.000277815382558 0)
(-1.11143479845e-05 -0.000255199079711 0)
(-1.00067684206e-05 -0.000233237118651 0)
(-8.34938913857e-06 -0.000214740152724 0)
(-8.33250146842e-06 -0.000199669659892 0)
(-9.2724804228e-06 -0.000181935498234 0)
(-9.59289585057e-06 -0.000163720684789 0)
(-1.02720806067e-05 -0.000143334473677 0)
(-1.23940622707e-05 -0.000119823058804 0)
(-1.48060061167e-05 -9.26366967475e-05 0)
(-1.7404307245e-05 -5.80972165679e-05 0)
(-1.91279850982e-05 -1.87109510931e-05 0)
(0.00490278573108 -0.00162593167467 0)
(0.00516560620144 -0.00520531296865 0)
(0.00512638989378 -0.00875338536769 -6.7297694956e-28)
(0.00505043941033 -0.0122825482514 0)
(0.00494941972296 -0.0157458013088 0)
(0.00482586351141 -0.0191300285169 0)
(0.0046821688858 -0.0224206117204 0)
(0.00452078775471 -0.0256045332019 0)
(0.00434427699577 -0.0286704694396 0)
(0.00415515461891 -0.0316088777695 0)
(0.00395591737951 -0.034411973294 0)
(0.0037488794153 -0.0370736663751 0)
(0.00353623142681 -0.0395894395956 0)
(0.0033198839174 -0.041956212369 0)
(0.00310157929654 -0.0441721664346 0)
(0.002882736756 -0.046236582996 0)
(0.00266461502615 -0.0481496564047 0)
(0.00244814740027 -0.0499123375785 0)
(0.00223414914876 -0.051526162204 0)
(0.00202312978073 -0.0529931199926 0)
(0.0018155405002 -0.0543155101673 0)
(0.00161155254891 -0.0554958439773 0)
(0.00141134306641 -0.0565367301622 0)
(0.00121483151002 -0.0574408102542 0)
(0.00102200574039 -0.0582106713779 0)
(0.000832611072999 -0.0588488106009 0)
(0.000646520481474 -0.0593575710549 0)
(0.000463373065808 -0.0597391314205 0)
(0.000282993671384 -0.0599954624349 0)
(0.000104978673242 -0.0601283398215 0)
(-7.08311102671e-05 -0.0601393179696 0)
(-0.000244820907138 -0.0600297707421 0)
(-0.000417067095965 -0.0598008960368 0)
(-0.000587863216684 -0.0594537636904 0)
(-0.000757131489475 -0.0589893443395 0)
(-0.000925007609074 -0.0584085945235 0)
(-0.00109119475919 -0.0577125041 0)
(-0.00125561253064 -0.0569022028928 0)
(-0.00141770221228 -0.0559790254801 0)
(-0.00157714376849 -0.0549446261628 0)
(-0.00173312156089 -0.0538010453936 0)
(-0.00188511117789 -0.0525508107091 0)
(-0.00203211363892 -0.0511969804245 0)
(-0.00217350457707 -0.0497432026637 0)
(-0.00230823597759 -0.0481937122991 0)
(-0.00243572413239 -0.0465533296979 0)
(-0.00255500346988 -0.0448274086254 0)
(-0.00266560957006 -0.0430217916518 0)
(-0.00276665772551 -0.0411427553337 0)
(-0.00285767222812 -0.0391969982774 0)
(-0.00293757913285 -0.0371916898115 0)
(-0.00300547371369 -0.0351346117073 0)
(-0.00305959714302 -0.0330344203858 0)
(-0.00309815381352 -0.0309009950068 0)
(-0.00311848636955 -0.028745842918 0)
(-0.00311817766655 -0.0265823944273 0)
(-0.00309463264208 -0.024426063738 0)
(-0.00304641353763 -0.022293864095 0)
(-0.00297279305625 -0.0202036096871 0)
(-0.00287430110896 -0.0181730936929 0)
(-0.00275187182498 -0.0162194260718 0)
(-0.00260682949536 -0.0143589102362 0)
(-0.00244083108754 -0.0126069474422 0)
(-0.0022563229684 -0.0109777904347 0)
(-0.00205723340314 -0.00948397345249 0)
(-0.00185052084235 -0.00813422795338 0)
(-0.00164445465129 -0.00693127709524 0)
(-0.00144729008544 -0.00587110263497 0)
(-0.00126445823149 -0.00494410622898 0)
(-0.00109790645021 -0.00413801377885 0)
(-0.000946395389478 -0.00344099162206 0)
(-0.000808145999934 -0.00284311399621 0)
(-0.000681605208129 -0.00233622221774 0)
(-0.000566882873359 -0.00191284721698 0)
(-0.00046514379754 -0.0015647796446 0)
(-0.000378052702847 -0.00128219275276 0)
(-0.000305762118919 -0.00105422266416 0)
(-0.000247071827804 -0.000870380395931 0)
(-0.000199371064984 -0.000721888327524 0)
(-0.000160206187606 -0.000602186204978 0)
(-0.000127735382706 -0.000506406187734 0)
(-0.000101109637872 -0.000430418355214 0)
(-7.93419354642e-05 -0.000370509375883 0)
(-6.16379404723e-05 -0.000323472944089 0)
(-4.67241205899e-05 -0.000284902044134 0)
(-3.66650631351e-05 -0.000249988755224 0)
(-3.0183289766e-05 -0.000228280898616 0)
(-2.50028848869e-05 -0.000210854508392 0)
(-2.43380992353e-05 -0.000193391206387 0)
(-2.66621817966e-05 -0.000179605262483 0)
(-2.85892405369e-05 -0.000164515390214 0)
(-3.1906149258e-05 -0.000143150624626 0)
(-3.72775949193e-05 -0.00011885585191 0)
(-4.83874219726e-05 -9.56195776969e-05 0)
(-6.14877481412e-05 -6.19026607515e-05 0)
(-5.67537526952e-05 -1.70186660078e-05 0)
(0.00829698591386 -0.00164719739897 0)
(0.0087462138257 -0.00527046798908 0)
(0.00867228633708 -0.00885524328825 -6.72025197938e-28)
(0.00854050834449 -0.0124236152131 0)
(0.00836736488364 -0.0159239051311 0)
(0.00815641253849 -0.0193423375196 0)
(0.00791145900746 -0.0226638462317 0)
(0.00763665163403 -0.0258751828159 0)
(0.00733633108102 -0.0289649288536 0)
(0.00701484300887 -0.0319235598416 0)
(0.00667643103239 -0.034743411615 0)
(0.00632508696727 -0.0374185933297 0)
(0.00596450288429 -0.0399448506969 0)
(0.00559796711694 -0.0423194033245 0)
(0.00522837819963 -0.0445407588359 0)
(0.00485817938053 -0.04660852596 0)
(0.00448942354047 -0.0485232235465 0)
(0.00412372908144 -0.0502861052882 0)
(0.00376238007286 -0.051898990773 0)
(0.00340628535967 -0.0533641207279 0)
(0.00305610058842 -0.054684021392 0)
(0.00271217658064 -0.0558613955336 0)
(0.00237469544431 -0.0568990207953 0)
(0.00204359996655 -0.0577996739679 0)
(0.00171874155798 -0.0585660587133 0)
(0.00139978724419 -0.0592007576677 0)
(0.0010863812029 -0.0597061843244 0)
(0.000778029155883 -0.0600845583714 0)
(0.000474277384159 -0.0603378781993 0)
(0.000174575628562 -0.0604679171547 0)
(-0.000121521430189 -0.0604762174592 0)
(-0.000414511177375 -0.0603641071275 0)
(-0.000704717947833 -0.0601327146033 0)
(-0.000992470994976 -0.0597830141689 0)
(-0.00127785388207 -0.0593158658924 0)
(-0.00156090590265 -0.0587320860011 0)
(-0.00184135376095 -0.0580325151142 0)
(-0.00211884426855 -0.0572181135591 0)
(-0.00239266762351 -0.0562900510775 0)
(-0.00266203246363 -0.0552498159404 0)
(-0.00292579411089 -0.0540993088855 0)
(-0.00318278135132 -0.052840941779 0)
(-0.00343153861248 -0.0514777063254 0)
(-0.00367070183656 -0.0500132279387 0)
(-0.00389874622006 -0.0484517746322 0)
(-0.0041143822977 -0.0467982365044 0)
(-0.0043162701916 -0.045058059771 0)
(-0.00450337201092 -0.0432371598413 0)
(-0.00467456461644 -0.0413418229761 0)
(-0.00482886832527 -0.0393786382092 0)
(-0.00496490565573 -0.0373545008033 0)
(-0.00508098889412 -0.0352767379091 0)
(-0.00517450716579 -0.033153406865 0)
(-0.00524207520551 -0.0309937690595 0)
(-0.00527923508052 -0.0288089054709 0)
(-0.00528118298762 -0.0266122879442 0)
(-0.00524330663082 -0.0244200286706 0)
(-0.00516258884331 -0.022250472798 0)
(-0.00503821469172 -0.0201228297205 0)
(-0.00487101610939 -0.0180560612762 0)
(-0.00466334453837 -0.016067792085 0)
(-0.00441677220324 -0.0141747808573 0)
(-0.00413429411233 -0.0123931434382 0)
(-0.00381852777198 -0.0107386457529 0)
(-0.00347568670027 -0.00922705367496 0)
(-0.00311826469943 -0.00787023853111 0)
(-0.00276248280098 -0.00667189898907 0)
(-0.00242415577689 -0.00562603095713 0)
(-0.0021139142228 -0.00471854198082 0)
(-0.00183390203571 -0.00393241078588 0)
(-0.00158038128113 -0.00325322076589 0)
(-0.00134865507065 -0.0026709029109 0)
(-0.00113550324298 -0.00217868567693 0)
(-0.000940895483888 -0.00177107161568 0)
(-0.000768066436387 -0.00144099079098 0)
(-0.000620989615976 -0.00117786953225 0)
(-0.000500572000909 -0.0009687625514 0)
(-0.000404153127052 -0.000801181541301 0)
(-0.000326484116648 -0.000665463915483 0)
(-0.000262376740486 -0.000555630807608 0)
(-0.000208879182431 -0.000468009299718 0)
(-0.000165001946028 -0.000399079216573 0)
(-0.00012944213821 -0.000345218509839 0)
(-0.00010101619408 -0.000303468113294 0)
(-7.91409209183e-05 -0.000269437655008 0)
(-6.28668021815e-05 -0.00023951446895 0)
(-5.20375232252e-05 -0.000224552078403 0)
(-4.30400561207e-05 -0.000201299245599 0)
(-3.85023765147e-05 -0.000181577499648 0)
(-4.05596182535e-05 -0.000170515667178 0)
(-4.87687079244e-05 -0.000161404777251 0)
(-5.34410518456e-05 -0.00013259604013 0)
(-6.45166200488e-05 -0.000111606928228 0)
(-7.95691306177e-05 -8.2832983407e-05 0)
(-9.30850657576e-05 -5.03434142401e-05 0)
(-9.2120041969e-05 -1.55091308704e-05 0)
(0.011756522633 -0.00167348116303 0)
(0.0123979800896 -0.00535275874875 0)
(0.0122913014594 -0.0089899807643 6.71935823443e-28)
(0.0121016372597 -0.0126095835827 0)
(0.0118527464125 -0.0161576613957 0)
(0.011549931642 -0.0196196474149 0)
(0.0111987446222 -0.0229798823749 0)
(0.0108052386281 -0.0262247796107 0)
(0.0103757239742 -0.0293427968189 0)
(0.00991651979076 -0.0323244714724 0)
(0.0094337543378 -0.0351623587478 0)
(0.00893318838099 -0.0378509097772 0)
(0.00842009983008 -0.0403863026419 0)
(0.00789918939256 -0.0427662448465 0)
(0.00737454816492 -0.0449897600119 0)
(0.00684963220655 -0.0470569737369 0)
(0.00632729238264 -0.0489689055852 0)
(0.00580979176585 -0.0507272769878 0)
(0.00529887135273 -0.0523343359351 0)
(0.0047957844444 -0.0537927041105 0)
(0.00430137662276 -0.0551052428634 0)
(0.00381611865454 -0.0562749414564 0)
(0.00334018789703 -0.0573048213182 0)
(0.00287349022306 -0.0581978593858 0)
(0.00241573835358 -0.0589569231652 0)
(0.00196646038374 -0.0595847214118 0)
(0.00152507630762 -0.060083762755 0)
(0.00109089526556 -0.0604563276717 0)
(0.000663194691707 -0.0607044464292 0)
(0.000241210251846 -0.0608298896093 0)
(-0.000175776886261 -0.0608341669556 0)
(-0.000588454143535 -0.0607185362655 0)
(-0.000997378913984 -0.0604840215009 0)
(-0.00140299529158 -0.0601314536505 0)
(-0.00180552535142 -0.0596615151859 0)
(-0.00220499200162 -0.0590748075786 0)
(-0.00260110790169 -0.0583719300595 0)
(-0.00299331632775 -0.0575535780662 0)
(-0.00338069239154 -0.0566206504724 0)
(-0.00376201973759 -0.0555743697471 0)
(-0.00413572407614 -0.0544164001817 0)
(-0.00450000419193 -0.0531489629682 0)
(-0.0048528126732 -0.0517749290041 0)
(-0.0051920449935 -0.0502978836437 0)
(-0.00551555699962 -0.0487221437755 0)
(-0.00582137766917 -0.0470527231577 0)
(-0.0061077035828 -0.0452952364791 0)
(-0.00637304292208 -0.0434557533165 0)
(-0.00661607000202 -0.0415406194616 0)
(-0.00683556654558 -0.0395562910787 0)
(-0.00703001549703 -0.0375092422481 0)
(-0.00719727072786 -0.0354060353754 0)
(-0.00733394327058 -0.0332536449233 0)
(-0.00743506953704 -0.0310601207877 0)
(-0.007493880236 -0.0288355722404 0)
(-0.00750244049237 -0.0265932988245 0)
(-0.00745302000553 -0.0243505280281 0)
(-0.00734037591372 -0.0221280996329 0)
(-0.00716405389552 -0.019947707546 0)
(-0.00692548182732 -0.0178303419263 0)
(-0.00663002457932 -0.0157938829158 0)
(-0.00627820044677 -0.0138553056603 0)
(-0.00587518169605 -0.0120310832908 0)
(-0.00542038543343 -0.0103387106887 0)
(-0.00492048287887 -0.00880061837439 0)
(-0.00439558243225 -0.00743555905541 0)
(-0.00387387370819 -0.0062495813253 0)
(-0.00338310584721 -0.00523307089899 0)
(-0.00294193644398 -0.00436274444402 0)
(-0.00255037423865 -0.00361194066704 0)
(-0.00219810323743 -0.00296196587755 0)
(-0.00187492181502 -0.00240339475127 0)
(-0.00157452039014 -0.00193271994398 0)
(-0.00129656362053 -0.00154891278292 0)
(-0.00104864384401 -0.00124775232702 0)
(-0.000840184080134 -0.00101706694879 0)
(-0.000673677040879 -0.000839340697374 0)
(-0.0005439580303 -0.00069791150923 0)
(-0.000440907974736 -0.000581459281683 0)
(-0.000354624725454 -0.00048570923138 0)
(-0.000281211514784 -0.000409983209898 0)
(-0.000221167050966 -0.000351792646637 0)
(-0.000172816717482 -0.000307222139309 0)
(-0.000134255365757 -0.000273728856881 0)
(-0.000104981193073 -0.000245560333468 0)
(-8.48352391536e-05 -0.000225600480084 0)
(-7.05537356321e-05 -0.000209803172005 0)
(-6.00818239091e-05 -0.000189479481859 0)
(-5.62475450728e-05 -0.000176735235317 0)
(-5.56368718101e-05 -0.000157121669268 0)
(-6.34818979169e-05 -0.000139560431797 0)
(-8.00061809184e-05 -0.000126766617238 0)
(-8.97846504071e-05 -9.50321787328e-05 0)
(-0.000106805722639 -6.78067101984e-05 0)
(-0.000123312778374 -4.16187988505e-05 0)
(-0.000124627056657 -1.35895648799e-05 0)
(0.0152779675216 -0.00170866393405 0)
(0.0161114511915 -0.00546392889227 0)
(0.0159697866498 -0.00917396389679 0)
(0.0157186713793 -0.0128634879042 0)
(0.0153894156438 -0.0164764742097 0)
(0.0149893198177 -0.0199973643462 0)
(0.014525966615 -0.0234097393708 0)
(0.014007577356 -0.0266995733873 0)
(0.0134426747524 -0.0298551809671 0)
(0.0128397522478 -0.0328672191368 0)
(0.0122069936626 -0.0357285816838 0)
(0.0115520475132 -0.0384342277975 0)
(0.0108818663372 -0.0409809630151 0)
(0.010202601444 -0.0433671936055 0)
(0.00951955579449 -0.0455926717551 0)
(0.00883717629625 -0.0476582464 0)
(0.00815908678473 -0.0495656293999 0)
(0.00748813900586 -0.0513171843814 0)
(0.00682648675481 -0.0529157407989 0)
(0.00617565952143 -0.0543644349136 0)
(0.00553664753893 -0.0556665756334 0)
(0.00490997411684 -0.0568255340969 0)
(0.00429577465411 -0.0578446529901 0)
(0.00369385656817 -0.0587271738906 0)
(0.00310376683455 -0.0594761783849 0)
(0.00252483808144 -0.0600945419767 0)
(0.00195624688841 -0.0605848972469 0)
(0.00139705033446 -0.0609496065658 0)
(0.000846241239445 -0.0611907419072 0)
(0.000302781883702 -0.0613100729035 0)
(-0.000234336336358 -0.061309065905 0)
(-0.00076605649291 -0.0611888875852 0)
(-0.00129318676043 -0.0609504221139 0)
(-0.00181635780705 -0.0605943086409 0)
(-0.00233594533773 -0.060120986105 0)
(-0.00285202547583 -0.0595307613727 0)
(-0.00336429814196 -0.0588238954862 0)
(-0.00387205589023 -0.0580007112902 0)
(-0.00437412855026 -0.0570617189666 0)
(-0.00486889140567 -0.0560077574779 0)
(-0.00535426095917 -0.0548401428089 0)
(-0.00582777294907 -0.0535608138415 0)
(-0.00628665589782 -0.0521724591257 0)
(-0.00672799403882 -0.050678607529 0)
(-0.007148873752 -0.0490836607828 0)
(-0.00754659517848 -0.0473928499753 0)
(-0.00791881444969 -0.0456121007974 0)
(-0.00826367685518 -0.0437478067049 0)
(-0.00857977887897 -0.0418065278235 0)
(-0.00886600547172 -0.0397946621825 0)
(-0.00912108283038 -0.0377181775734 0)
(-0.00934292578941 -0.0355825296722 0)
(-0.0095277246551 -0.0333929588249 0)
(-0.00966903329939 -0.0311553466443 0)
(-0.00975717285891 -0.0288778034098 0)
(-0.00977967512653 -0.0265728406173 0)
(-0.00972363837793 -0.0242592632095 0)
(-0.00957990046636 -0.0219626930547 0)
(-0.00935010714931 -0.0197090115839 0)
(-0.00903593895155 -0.0175230004341 0)
(-0.00865112952159 -0.0154213761538 0)
(-0.00819005121527 -0.0134207050784 0)
(-0.00766571388194 -0.0115360032726 0)
(-0.00706417471594 -0.00978453563438 0)
(-0.00638789734701 -0.00820276010482 0)
(-0.00566881113589 -0.00682406718199 0)
(-0.00495500880271 -0.00565979633632 0)
(-0.00429463810317 -0.00469441095543 0)
(-0.00372163549838 -0.00388607722105 0)
(-0.00322717699519 -0.00318880055524 0)
(-0.00278544522299 -0.00257795373657 0)
(-0.00237671389271 -0.00204747358345 0)
(-0.00198945136852 -0.00160045433747 0)
(-0.001621831836 -0.0012452999596 0)
(-0.00129070959242 -0.000984697896538 0)
(-0.00101847572456 -0.000802974221226 0)
(-0.000810575814567 -0.000672595559161 0)
(-0.000656812269312 -0.000568461417811 0)
(-0.000537491643223 -0.000476171361995 0)
(-0.000433286494027 -0.000395968498362 0)
(-0.000340342776471 -0.000334580466557 0)
(-0.00026561305164 -0.000290708862601 0)
(-0.000206210149746 -0.000258323188906 0)
(-0.000158527100342 -0.000235493204821 0)
(-0.000122211926169 -0.000215016790177 0)
(-0.000101995787626 -0.000207571625054 0)
(-8.81383516496e-05 -0.000196335507717 0)
(-7.78558793789e-05 -0.00018066756712 0)
(-7.08493012921e-05 -0.000158966870762 0)
(-7.33689171649e-05 -0.000145651122428 0)
(-7.99577443321e-05 -0.000124069720337 0)
(-9.97320620976e-05 -0.000109944532757 0)
(-0.000122261596088 -8.90048313849e-05 0)
(-0.000133112987837 -5.85903189798e-05 0)
(-0.000145219647276 -3.47178306582e-05 0)
(-0.000146747166012 -1.14567872078e-05 0)
(0.0188826144886 -0.00175370862179 0)
(0.0199106030051 -0.00560695706792 0)
(0.0197305554773 -0.00941124623405 0)
(0.0194128719978 -0.0131908327996 0)
(0.0189967866538 -0.0168870660468 0)
(0.018491918654 -0.0204831300815 0)
(0.0179082444644 -0.0239616630855 0)
(0.0172565092371 -0.0273081148657 0)
(0.0165477759688 -0.030510670274 0)
(0.0157929911371 -0.033560205642 0)
(0.015002618845 -0.0364501210621 0)
(0.0141863567135 -0.0391760989414 0)
(0.0133529378472 -0.041735814561 0)
(0.0125100134838 -0.0441286249975 0)
(0.0116641073488 -0.0463552582702 0)
(0.0108206269431 -0.0484175191022 0)
(0.0099839188268 -0.0503180222188 0)
(0.00915735195723 -0.052059959093 0)
(0.00834341901319 -0.0536468999742 0)
(0.00754384309284 -0.0550826301114 0)
(0.00675968536717 -0.0563710170387 0)
(0.00599144515525 -0.0575159048578 0)
(0.00523915351086 -0.0585210308945 0)
(0.00450245459441 -0.0593899605142 0)
(0.00378068012927 -0.0601260360172 0)
(0.00307291229481 -0.0607323365594 0)
(0.00237804337088 -0.0612116463236 0)
(0.00169482721999 -0.0615664295505 0)
(0.00102193312518 -0.0617988113043 0)
(0.000357995728047 -0.0619105634844 0)
(-0.000298326509977 -0.0619031018673 0)
(-0.000948294314962 -0.0617774833042 0)
(-0.00159301644385 -0.061534419194 0)
(-0.00223337958532 -0.0611743081908 0)
(-0.00286996490066 -0.060697278225 0)
(-0.00350296890506 -0.0601032549856 0)
(-0.00413211763393 -0.0593920541355 0)
(-0.00475659730494 -0.058563501023 0)
(-0.00537499279977 -0.0576175772525 0)
(-0.00598526346769 -0.0565545919682 0)
(-0.00658474880192 -0.0553753699168 0)
(-0.00717023668618 -0.0540814443121 0)
(-0.00773808214666 -0.052675234547 0)
(-0.00828440310052 -0.0511601838352 0)
(-0.00880532374935 -0.0495408249725 0)
(-0.00929726898686 -0.0478227414717 0)
(-0.00975724507028 -0.046012393171 0)
(-0.0101830709464 -0.0441167900062 0)
(-0.0105734501068 -0.0421430174363 0)
(-0.0109278099654 -0.0400976613525 0)
(-0.0112457703042 -0.0379862257352 0)
(-0.0115261788388 -0.0358127371259 0)
(-0.0117656405 -0.0335798090599 0)
(-0.0119567108135 -0.0312896223013 0)
(-0.0120862018187 -0.02894626406 0)
(-0.0121347969968 -0.0265598109234 0)
(-0.0120803533979 -0.0241507963773 0)
(-0.0119051875582 -0.0217546071062 0)
(-0.0116190876182 -0.019403781064 0)
(-0.0112194171391 -0.0171313949 0)
(-0.0107464641001 -0.0149480226054 0)
(-0.0101680406712 -0.0128699131934 0)
(-0.00953134354405 -0.0109052257305 0)
(-0.00877765259833 -0.00906090775827 0)
(-0.00789476528305 -0.00740526372837 0)
(-0.00693622576751 -0.00600267593088 0)
(-0.0059850044208 -0.00487540939149 0)
(-0.00512552254042 -0.00399968709359 0)
(-0.00442712266962 -0.00329524471119 0)
(-0.00385183604336 -0.00267569081053 0)
(-0.00333878902012 -0.00211143677426 0)
(-0.00285505762334 -0.00160734174051 0)
(-0.00238194124413 -0.00117779682519 0)
(-0.00191048403221 -0.000850152467424 0)
(-0.0014768097215 -0.000644388921795 0)
(-0.0011350573881 -0.000536929228097 0)
(-0.000894855736475 -0.000477674566488 0)
(-0.000734940237517 -0.000424825570332 0)
(-0.000616553915854 -0.000357932835617 0)
(-0.000499275425349 -0.000288560875205 0)
(-0.000382487982531 -0.000242310514471 0)
(-0.000294887334286 -0.00021766036828 0)
(-0.000227524972085 -0.000200126440468 0)
(-0.000171706448658 -0.000189419872901 0)
(-0.000131066742597 -0.000180011930226 0)
(-0.00010992212594 -0.00018025799997 0)
(-9.52910241815e-05 -0.00017176386848 0)
(-9.009612895e-05 -0.000165829761431 0)
(-9.00558354568e-05 -0.000155585730969 0)
(-9.60864148491e-05 -0.000142063301911 0)
(-9.93262490093e-05 -0.000114192095602 0)
(-0.000115168185382 -9.35241331442e-05 0)
(-0.000143885488828 -7.89675009137e-05 0)
(-0.000159352500311 -5.51724295428e-05 0)
(-0.000167173783438 -3.18643352904e-05 0)
(-0.000169297218325 -1.05534775606e-05 0)
(0.0225921829696 -0.0018097852326 0)
(0.0238182911712 -0.0057851476645 0)
(0.0235952521301 -0.0097068821409 6.67168810922e-28)
(0.0232041441275 -0.0135983178335 0)
(0.0226926529031 -0.0173974621021 0)
(0.0220731578908 -0.0210859103763 0)
(0.021358508872 -0.0246451518544 0)
(0.0205624472575 -0.028060045059 0)
(0.0196990067828 -0.0313187023688 0)
(0.0187819501192 -0.0344123796828 0)
(0.0178243051229 -0.037335219646 0)
(0.0168380171771 -0.0400839124466 0)
(0.0158337192503 -0.0426573100036 0)
(0.0148206105082 -0.045056027963 0)
(0.0138064269628 -0.0472820622452 0)
(0.0127974839741 -0.0493384389498 0)
(0.0117987698695 -0.0512289084783 0)
(0.0108140713503 -0.0529576883372 0)
(0.00984611470935 -0.0545292538392 0)
(0.00889671001086 -0.055948172753 0)
(0.0079668897717 -0.0572189777656 0)
(0.00705703609719 -0.0583460701329 0)
(0.00616699412407 -0.0593336476999 0)
(0.0052961703498 -0.0601856513751 0)
(0.00444361769021 -0.0609057247262 0)
(0.00360810819336 -0.061497182701 0)
(0.0027881974202 -0.0619629861973 0)
(0.00198228227338 -0.0623057205825 0)
(0.00118865743605 -0.0625275770448 0)
(0.000405572119024 -0.0626303359158 0)
(-0.000368707026698 -0.0626153597765 0)
(-0.00113582763229 -0.0624835815769 0)
(-0.00189727046693 -0.0622355115596 0)
(-0.00265425990235 -0.0618712613947 0)
(-0.00340766208604 -0.0613905798488 0)
(-0.00415787699907 -0.0607929186627 0)
(-0.00490472598949 -0.060077528581 0)
(-0.00564734667916 -0.0592435912945 0)
(-0.00638410273789 -0.0582903901168 0)
(-0.00711252771486 -0.0572175186209 0)
(-0.0078293162586 -0.0560251213247 0)
(-0.00853038677798 -0.0547141526409 0)
(-0.00921102869604 -0.0532866311486 0)
(-0.00986615220389 -0.0517458548855 0)
(-0.0104906354979 -0.0500965325519 0)
(-0.011079756954 -0.0483447772835 0)
(-0.0116296608385 -0.0464979088158 0)
(-0.012137783816 -0.0445640178329 0)
(-0.0126031208254 -0.0425512729233 0)
(-0.0130261831173 -0.040466988409 0)
(-0.0134084582874 -0.0383165523893 0)
(-0.0137511547549 -0.0361024057104 0)
(-0.0140530087975 -0.033823496567 0)
(-0.0143070299155 -0.0314759137547 0)
(-0.0144965388081 -0.0290558955916 0)
(-0.0145919338339 -0.0265669983726 0)
(-0.0145538532978 -0.0240296601351 0)
(-0.0143422078768 -0.0215014313202 0)
(-0.0139965940776 -0.0190232452022 0)
(-0.0134847379255 -0.0166503771404 0)
(-0.0129378484875 -0.0143699961042 0)
(-0.0122163233616 -0.0122055662726 0)
(-0.0115126164235 -0.0101455311153 0)
(-0.0106137981181 -0.00814779760406 0)
(-0.00947508427812 -0.00636112173415 0)
(-0.00819827122526 -0.00491405098411 0)
(-0.00692722056462 -0.00384874325789 0)
(-0.00580890043666 -0.00313581564089 0)
(-0.00501109174344 -0.00261076871483 0)
(-0.00440573363685 -0.00209819727889 0)
(-0.00385513497195 -0.00157873426903 0)
(-0.00331644830028 -0.00108845328566 0)
(-0.00276543897717 -0.000654359179313 0)
(-0.00216026945101 -0.00033944517544 0)
(-0.00157744762671 -0.000208942517447 0)
(-0.00115422508639 -0.000220812951077 0)
(-0.000900820801826 -0.000272326567603 0)
(-0.000770263027299 -0.000290049079172 0)
(-0.000687744296327 -0.000240442083431 0)
(-0.000561128363582 -0.000161886687693 0)
(-0.000400349254484 -0.000130187538943 0)
(-0.000304219431491 -0.000135742144103 0)
(-0.000235948679563 -0.000135095134577 0)
(-0.000170736750867 -0.000137592672736 0)
(-0.000131372610878 -0.000144785505103 0)
(-0.000109929854173 -0.000152967008598 0)
(-9.95522231909e-05 -0.000155780386742 0)
(-9.55562144545e-05 -0.000152110929941 0)
(-0.000102093553016 -0.00014710965657 0)
(-0.000111079676834 -0.000130012966701 0)
(-0.000126777720831 -0.000114479697985 0)
(-0.000136002762567 -8.73698277428e-05 0)
(-0.000156568850163 -6.88498850011e-05 0)
(-0.000180494390832 -5.23470141686e-05 0)
(-0.000187662650332 -3.03205680158e-05 0)
(-0.000190295437802 -1.00772099279e-05 0)
(0.0264309814415 -0.00187824725808 0)
(0.0278596875394 -0.00600265553166 0)
(0.0275876556179 -0.0100674896672 -6.67065912913e-28)
(0.0271141964018 -0.0140947007243 0)
(0.0264961837548 -0.0180180926131 0)
(0.0257493707984 -0.0218172774602 0)
(0.0248901257391 -0.0254723759043 0)
(0.0239358107365 -0.0289676190484 0)
(0.022903988547 -0.0322911694488 0)
(0.0218116986815 -0.0354349092919 0)
(0.0206748800295 -0.0383940559593 0)
(0.019507957212 -0.041166686745 0)
(0.0183235875313 -0.043753223145 0)
(0.0171325510929 -0.0461559191884 0)
(0.0159437576447 -0.0483783866961 0)
(0.0147643403312 -0.0504251780726 0)
(0.0135998069614 -0.0523014366988 0)
(0.0124542231133 -0.0540126160806 0)
(0.0113304062485 -0.0555642631033 0)
(0.0102301157669 -0.0569618567913 0)
(0.00915422895916 -0.0582106926374 0)
(0.00810289743051 -0.0593158021236 0)
(0.00707568188488 -0.0602818981839 0)
(0.00607166577222 -0.0611133384049 0)
(0.00508954991219 -0.0618140995367 0)
(0.0041277313336 -0.0623877580903 0)
(0.00318437027731 -0.0628374733943 0)
(0.00225744972062 -0.063165970567 0)
(0.00134483218152 -0.0633755223566 0)
(0.000444318497566 -0.0634679285595 0)
(-0.000446286198167 -0.0634445028994 0)
(-0.00132909664726 -0.0633060482371 0)
(-0.00220605559576 -0.0630528530798 0)
(-0.00307882606216 -0.0626847015604 0)
(-0.0039486664303 -0.0622008972185 0)
(-0.00481629066209 -0.0616003209436 0)
(-0.00568171865557 -0.0608815260399 0)
(-0.00654412640843 -0.0600428801776 0)
(-0.0074017096276 -0.0590827608887 0)
(-0.00825158082249 -0.0579998082963 0)
(-0.00908972425598 -0.056793232006 0)
(-0.00991103893181 -0.0554631600045 0)
(-0.0107094999766 -0.0540110034628 0)
(-0.0114784661255 -0.0524397943614 0)
(-0.012211147394 -0.0507544336712 0)
(-0.0129012250726 -0.0489617709625 0)
(-0.013543577977 -0.0470704243495 0)
(-0.0141350232516 -0.0450902544299 0)
(-0.0146749232373 -0.0430314212417 0)
(-0.0151654539527 -0.040903003331 0)
(-0.0156112595217 -0.0387112018515 0)
(-0.0160181122538 -0.0364572920394 0)
(-0.0163900380289 -0.0341356885647 0)
(-0.0167241407315 -0.0317331567534 0)
(-0.0170025513575 -0.0292311730458 0)
(-0.0171816527253 -0.0266171312321 0)
(-0.0171902498636 -0.0239010783166 0)
(-0.0169200978045 -0.0211973480205 0)
(-0.0165209322192 -0.0185463074331 0)
(-0.0158182019221 -0.0160726118877 0)
(-0.0152692697926 -0.0136794120048 0)
(-0.0142878153789 -0.0114441126623 0)
(-0.0136585513032 -0.00929981767354 0)
(-0.0126378439664 -0.00701804664925 0)
(-0.011156947216 -0.00498277844189 0)
(-0.00943444771894 -0.0034464306766 0)
(-0.00772065196809 -0.00247447720864 0)
(-0.00626650401044 -0.00205865639219 0)
(-0.00553097747979 -0.00183533002202 0)