/*--------------------------------*- C++ -*----------------------------------*\
| =========                 |                                                 |
| \\      /  F ield         | OpenFOAM: The Open Source CFD Toolbox           |
|  \\    /   O peration     | Version:  v1906                                 |
|   \\  /    A nd           | Web:      www.OpenFOAM.com                      |
|    \\/     M anipulation  |                                                 |
\*---------------------------------------------------------------------------*/
FoamFile
{
    version     2.0;
    format      ascii;
    class       surfaceScalarField;
    location    "796";
    object      phi;
}
// * * * * * * * * * * * * * * * * * * * * * * * * * * * * * * * * * * * * * //

dimensions      [0 3 -1 0 0 0 0];
oriented        oriented;


internalField   nonuniform List<scalar> 
18240
(
-0.000352221252704
0.000352258257467
-0.000737878834609
0.000385701768129
-0.00112319169837
0.000385350493661
-0.00150353524747
0.000380389232308
-0.00187684507452
0.000373345746168
-0.00224136923947
0.000364571141391
-0.00259560245387
0.000354267403645
-0.00293817281698
0.000342618553342
-0.00326793154175
0.00032979111804
-0.00358384816834
0.000315965920917
-0.00388512205624
0.000301304359376
-0.00417105196542
0.000285980182861
-0.0044411621427
0.000270138642239
-0.00469504609409
0.000253935059129
-0.00493250916343
0.000237489399644
-0.00515338963956
0.000220932253693
-0.00535772044648
0.000204354928627
-0.00554553060659
0.000187862419766
-0.00571702756846
0.000171518755163
-0.00587238124666
0.000155406218781
-0.00601192744511
0.000139565613675
-0.00613593591194
0.000124061072518
-0.00624483412461
0.000108915155903
-0.00633896028074
9.41786094657e-05
-0.00641880616281
7.98603429203e-05
-0.00648475576515
6.60016816615e-05
-0.00653734538933
5.260154694e-05
-0.00657698865642
3.96947597874e-05
-0.0066042520558
2.7272818948e-05
-0.00661956739837
1.53660397192e-05
-0.00662352136418
3.96086712762e-06
-0.0066165543888
-6.91726891496e-06
-0.00659926006441
-1.72898643078e-05
-0.00657207792764
-2.71336130137e-05
-0.00653560424308
-3.64716442434e-05
-0.00649027335607
-4.5283718873e-05
-0.00643667602381
-5.35975971849e-05
-0.00637523431336
-6.1396060677e-05
-0.00630652642242
-6.87104052037e-05
-0.0062309564505
-7.55259824199e-05
-0.00614908401723
-8.18770516673e-05
-0.00606129061814
-8.77512011113e-05
-0.00596811225096
-9.31850071981e-05
-0.00586990409333
-9.81678616433e-05
-0.00576717457776
-0.000102738010378
-0.00566025006395
-0.000106886220009
-0.00554960861461
-0.000110651696816
-0.00543554629593
-0.000114026107134
-0.00531850913805
-0.000117048977209
-0.0051987626037
-0.000119712475637
-0.00507672005179
-0.000122055827178
-0.00495261686172
-0.000124071335868
-0.00482683396204
-0.00012579744269
-0.0046995779949
-0.0001272263608
-0.0045711983348
-0.00012839534612
-0.0044418746244
-0.000129296378143
-0.00431192596049
-0.000129965303273
-0.00418150703224
-0.000130393889555
-0.00405090804824
-0.000130616448202
-0.00392026066377
-0.000130624644314
-0.00378982748274
-0.000130451285367
-0.0036597188713
-0.000130088170447
-0.00353017080066
-0.000129566689135
-0.00340127360922
-0.000128879039214
-0.00327323721261
-0.000128055357377
-0.00314613279142
-0.000127088545873
-0.00302014435401
-0.000126007624219
-0.00289532428817
-0.000124806447733
-0.00277183050525
-0.000123513043471
-0.00264969669828
-0.000122122425516
-0.00252905426875
-0.000120661659785
-0.00240991807765
-0.000119127016049
-0.00229239256683
-0.000117544573591
-0.00217647367851
-0.000115911881029
-0.00206223856089
-0.000114253906028
-0.00194966426337
-0.000112569398774
-0.00183880058756
-0.000110882043868
-0.00172960605392
-0.000109191663111
-0.00162210344059
-0.000107520423924
-0.00151623345866
-0.000105869031918
-0.00141199265168
-0.000104257887237
-0.00130930513388
-0.000102688368203
-0.0012081425124
-0.000101178821097
-0.00110841402686
-9.97310376938e-05
-0.00101006828226
-9.83609635463e-05
-0.000913002132791
-9.70703927788e-05
-0.000817144212916
-9.58721803539e-05
-0.000722383312604
-9.47669030979e-05
-0.000628635000686
-9.37616800143e-05
-0.000535792905221
-9.28496825618e-05
-0.00044378831474
-9.20167731495e-05
-0.000352589245158
-9.12077583797e-05
-0.000262324023424
-9.02752841111e-05
-0.000173639045109
-8.86947610055e-05
-8.92729714913e-05
-8.43779790988e-05
-8.92790376769e-05
-0.00038932478289
0.000741623515586
-0.000823977141978
0.000820398871887
-0.00125615932998
0.000817575378437
-0.00168203508306
0.000806309919288
-0.00209968353845
0.0007910363723
-0.00250731718035
0.000772249848458
-0.00290328553978
0.000750277325813
-0.00328608737444
0.000725465540132
-0.00365442718758
0.000698171770553
-0.00400718127238
0.00066876513793
-0.0043434415472
0.000637604641762
-0.00466246047807
0.000605044102512
-0.00496369344341
0.00057141064847
-0.00524672896284
0.00053701528497
-0.00551133435645
0.000502132747335
-0.00575737558012
0.000467017751558
-0.00598486969554
0.000431885762639
-0.00619389755053
0.000396933952624
-0.0063846652777
0.000362321837783
-0.0065574118526
0.000328195707304
-0.00671248051311
0.000294668117776
-0.00685022214486
0.000261844681353
-0.00697107645445
0.000229801680806
-0.00707547141836
0.000198614448894
-0.0071639133835
0.000168332765923
-0.00723688245143
0.000139010363666
-0.00729493036019
0.00011067806698
-0.00733857162417
8.33742319779e-05
-0.00736838797835
5.71158410718e-05
-0.00738491505381
3.19297831793e-05
-0.00738875155252
7.82203512384e-06
-0.00738044405512
-1.51897547508e-05
-0.00736060292882
-3.7108384104e-05
-0.0073297789238
-5.79243703273e-05
-0.00728858116925
-7.76488767187e-05
-0.00723755376263
-9.62797268477e-05
-0.00717729756227
-0.000113835387489
-0.00710834369579
-0.00013032044961
-0.00703127772813
-0.000145760061851
-0.0069466113567
-0.000160164849457
-0.00685490848513
-0.000173565705957
-0.00675665584072
-0.000185978354278
-0.00665239034142
-0.000197438340995
-0.00654256933585
-0.00020796541088
-0.00642769865992
-0.000217598539452
-0.00630820314833
-0.000226360321542
-0.00618455474208
-0.000234291909286
-0.00605714389607
-0.00024141758447
-0.00592640712139
-0.000247779455195
-0.00579269985574
-0.0002534024004
-0.00565642279666
-0.000258328402579
-0.00551789677399
-0.000262582017768
-0.00537748726464
-0.000266204207203
-0.0052354817506
-0.00026921849958
-0.00509221178923
-0.000271664203806
-0.00494793331782
-0.000273563393509
-0.00480294570343
-0.000274953367493
-0.00465747541061
-0.000275854594373
-0.00451179145576
-0.00027630230035
-0.00436609284603
-0.00027631547421
-0.00422061993394
-0.000275927446786
-0.00407554600897
-0.00027515606182
-0.00393108406912
-0.00027403312258
-0.003787382952
-0.0002725758022
-0.00364462912609
-0.000270814825183
-0.00350294773139
-0.000268767200385
-0.00336249902243
-0.000266463021388
-0.00322338469219
-0.000263919584838
-0.003085738682
-0.000261166697872
-0.00294963913717
-0.00025822225949
-0.00281519331893
-0.000255115984299
-0.00268245552581
-0.000251866512339
-0.00255150590818
-0.000248503469575
-0.00242237464726
-0.000245046184829
-0.0022951144766
-0.000241524025564
-0.00216973137925
-0.000237956788712
-0.00204625066773
-0.000234373260197
-0.00192465441117
-0.000230793351809
-0.00180494091804
-0.0002272448416
-0.00168706907309
-0.000223747314335
-0.00157101110445
-0.000220327044598
-0.00145670397433
-0.0002170027945
-0.00134409530386
-0.000213798795411
-0.00123310194445
-0.000210732433546
-0.00112364897196
-0.000207825268004
-0.00101563553751
-0.000205092585655
-0.000908966818419
-0.000202552299825
-0.000803527098085
-0.000200216160478
-0.000699204228081
-0.000198096080731
-0.000595868108707
-0.000196196100994
-0.000493381062849
-0.000194514797577
-0.000391561378664
-0.000193037553539
-0.00029011420332
-0.000191733436005
-0.000188291577139
-0.000190528053817
-8.41196898723e-05
-0.000188560676979
-0.00017340443417
-0.000396282261788
0.00113794689025
-0.000836579279235
0.00126073983953
-0.00127501662818
0.00125605663063
-0.00170707843255
0.0012384159761
-0.00213063652657
0.00121463805139
-0.00254382000211
0.00118547748044
-0.00294492748074
0.00115142803995
-0.0033324374232
0.00111301944735
-0.00370503292064
0.00107081008316
-0.00406159506735
0.00102537094558
-0.00440121354394
0.000977265392185
-0.00472316465378
0.000927038445676
-0.00502691427659
0.000875201885527
-0.00531208667736
0.000822230353667
-0.00557846517622
0.000768552052722
-0.00582595653371
0.0007145510646
-0.0060545933644
0.000660562454651
-0.00626449745094
0.00060687912322
-0.00645588632289
0.000553749461317
-0.00662903733287
0.00050138677025
-0.00678429940065
0.00044996768623
-0.0069220584291
0.000399642569822
-0.00704275410247
0.000350533443915
-0.00714684642909
0.000302744291998
-0.00723483691899
0.000256357810481
-0.00730723565892
0.000211445132242
-0.00736458592305
0.000168061213647
-0.00740743115163
0.00012625387652
-0.00743634214046
8.60579467238e-05
-0.00745188343589
4.75037665809e-05
-0.00745464248544
1.06103295032e-05
-0.00744519519257
-2.46061820375e-05
-0.007424136519
-5.81397473376e-05
-0.00739204515296
-8.99867790453e-05
-0.00734951506973
-0.000120153657253
-0.00729711949168
-0.000148648315043
-0.00723544343063
-0.000175488178284
-0.00716504716212
-0.000200691744196
-0.00708649952361
-0.000224286500421
-0.00700034109195
-0.000246300348848
-0.00690711815383
-0.000266769506709
-0.00680734582421
-0.000285729810097
-0.0067015425355
-0.000303224562186
-0.00659019332953
-0.00031929579734
-0.00647378475187
-0.000333992083788
-0.00635276850035
-0.000347359796965
-0.00622759652925
-0.000359450862189
-0.00609868522745
-0.00037031412387
-0.00596645057892
-0.000380003041942
-0.0058312729935
-0.000388567202833
-0.00569353229413
-0.000396059955585
-0.00555357331734
-0.000402530140169
-0.0054117405442
-0.000408029672487
-0.00526834454256
-0.000412605522168
-0.00512369599408
-0.0004163072244
-0.00497807305269
-0.000419179163865
-0.00483175457576
-0.000421268006345
-0.00468498844159
-0.000422615297959
-0.00453802374798
-0.000423264774472
-0.00439108015133
-0.000423255302191
-0.00424437886822
-0.00042262803141
-0.00409811308802
-0.00042141965928
-0.00395247759278
-0.00041966936269
-0.00380764033243
-0.000417412382723
-0.00366377056247
-0.000414686685645
-0.00352101167228
-0.000411526836433
-0.00337950773172
-0.000407970321111
-0.00323937770024
-0.000404051707197
-0.00310074034873
-0.000399808585394
-0.00296368997013
-0.000395275999782
-0.00282831962648
-0.000390491966393
-0.00269469849991
-0.000385492191785
-0.00256289346535
-0.000380315153687
-0.00243294819487
-0.00037499711766
-0.00230490302651
-0.000369576766785
-0.00217877593372
-0.000364090554012
-0.00205458068885
-0.000358576885672
-0.00193230977391
-0.000353071833619
-0.00181195080299
-0.000347612872996
-0.00169347144412
-0.000342234992383
-0.00157683408295
-0.000336973990453
-0.00146198279405
-0.00033186300333
-0.0013488562002
-0.000326935352927
-0.00123737652156
-0.000322221508873
-0.0011274605835
-0.000317751466496
-0.00101901090236
-0.000313552123599
-0.000911924665979
-0.000309649131286
-0.000806086591572
-0.00030606463749
-0.000701375100303
-0.00030281851667
-0.00059765527584
-0.000299926662288
-0.000494778720774
-0.000297402458327
-0.00039256875992
-0.000295257936534
-0.000290801363299
-0.000293510767663
-0.000189194589145
-0.000292146274287
-8.79331887136e-05
-0.000289833813004
-0.000261342872724
-0.000402486523994
0.00154047473923
-0.00084890152567
0.00170719934657
-0.00129344087999
0.00170064015957
-0.00173136218518
0.00167638163426
-0.002160400514
0.00164372041965
-0.00257859566028
0.0016037167492
-0.00298418731331
0.00155706349682
-0.00337562336409
0.00150449936148
-0.00375157243605
0.00144680261901
-0.0041109229653
0.00138476498044
-0.00445278117244
0.00131916661061
-0.00477645654382
0.00125075684292
-0.00508145030778
0.00118023807122
-0.00536743347154
0.00110825592556
-0.00563423181073
0.00103539208623
-0.00588180185019
0.000962162745074
-0.00611021685625
0.000889018266652
-0.00631964430158
0.000816347282313
-0.0065103353973
0.000744480320575
-0.00668260570661
0.00067369670406
-0.00683682904419
0.00060422957755
-0.00697342147761
0.000536273377089
-0.00709283930185
0.000469988464187
-0.00719556584607
0.000405507807852
-0.00728211265026
0.000342940301554
-0.00735300816258
0.000282376072478
-0.00740880112088
0.000223888226534
-0.0074500502631
0.000167536778841
-0.00747732905078
0.000113369035825
-0.0074912157518
6.14224485957e-05
-0.00749229898397
1.17240178471e-05
-0.00748116750562
-3.57075511863e-05
-0.00745841624722
-8.08624862513e-05
-0.00742463621913
-0.000123738650103
-0.00738042073975
-0.000164342610398
-0.00732635514855
-0.00020268775703
-0.00726302322233
-0.000238795623256
-0.00719099692218
-0.000272693943829
-0.0071108431221
-0.000304417885041
-0.00702311346413
-0.000334007976948
-0.00692835141883
-0.000361511221091
-0.00682708235725
-0.000386978921446
-0.0067198209657
-0.000410467697675
-0.00660706163165
-0.000432037252818
-0.00648928620333
-0.000451751320575
-0.00636695474603
-0.000469675428558
-0.00624051361583
-0.000485877829692
-0.00611038662479
-0.000500427308641
-0.00597698336775
-0.000513394130222
-0.00584069079832
-0.000524847943441
-0.00570188173136
-0.000534858790881
-0.00556090681824
-0.000543495147755
-0.00541810312553
-0.000550825015858
-0.00527378646779
-0.000556914137205
-0.00512825995232
-0.000561827199705
-0.00498180662284
-0.000565626243376
-0.00483469785001
-0.000568371978324
-0.0046871862239
-0.000570122392827
-0.00453951367437
-0.000570934178172
-0.00439190456445
-0.000570861518888
-0.00424457343866
-0.000569957586972
-0.00409771827767
-0.00056827348341
-0.00395152779896
-0.000565859757695
-0.00380617486851
-0.000562765448043
-0.00366182331188
-0.000559039563013
-0.00351862150166
-0.000554730171016
-0.00337670867019
-0.000549885790958
-0.00323620872745
-0.000544554481821
-0.00309723609675
-0.000538785093035
-0.00295988983049
-0.000532626326758
-0.00282425900564
-0.000526127823974
-0.00269041721941
-0.000519339186685
-0.00255842758991
-0.000512310889877
-0.00242833770377
-0.000505093274532
-0.00230018425933
-0.000497737297266
-0.00217398853111
-0.000490293514504
-0.00204976068504
-0.000482812687932
-0.00192749580253
-0.000475344790211
-0.00180717787815
-0.000467939490645
-0.00168877643294
-0.000460645209783
-0.00157225019603
-0.000453509505176
-0.00145754431549
-0.000446578199037
-0.0013445937053
-0.000439895677865
-0.00123332084097
-0.000433504107086
-0.00112363872817
-0.000427443650035
-0.00101544920757
-0.000421751779938
-0.000908645388573
-0.00041646342717
-0.000803110189221
-0.000411610431587
-0.000698717821076
-0.000407221809336
-0.00059533186903
-0.000403323654821
-0.000492804486337
-0.000399940434396
-0.000390974772712
-0.000397098077523
-0.000289672665109
-0.000394824124768
-0.000188769542194
-0.000393060209905
-8.874232664e-05
-0.000389872126872
-0.000350091156626
-0.000410485882452
0.00195100230357
-0.000865391200122
0.00216214884772
-0.00131819552268
0.00215348914022
-0.00176396504534
0.00212219563601
-0.00220029947157
0.00208009926531
-0.00262513363636
0.00202859524009
-0.00303663379223
0.00196860782481
-0.00343320631843
0.00190111596907
-0.00381350522746
0.0018271453905
-0.00417642978279
0.00174773326617
-0.00452111569846
0.00166389596527
-0.00484691866733
0.00157660306498
-0.00515339536186
0.0014867576526
-0.00544028024322
0.00139518344143
-0.00570746347371
0.00130261750004
-0.00595496727629
0.00120970840772
-0.00618292582183
0.00111701813595
-0.00639156491731
0.00102502729865
-0.00658118637378
0.000934142070531
-0.00675215244512
0.000844702588829
-0.00690487517779
0.000756991411278
-0.00703980541021
0.00067124215088
-0.00715742639004
0.000587647187619
-0.00725824631733
0.000506364848609
-0.00734279502618
0.000427525252064
-0.00741161881955
0.000351235408747
-0.00746527898018
0.000277582987428
-0.00750434779414
0.000206639439084
-0.00752940794031
0.000138462028341
-0.00754104894518
7.30954920542e-05
-0.00753986689384
1.05729509592e-05
-0.00752646061652
-4.90836927301e-05
-0.00750143171176
-0.000105862351168
-0.0074653807623
-0.000159761445516
-0.00741890707414
-0.000210789274444
-0.00736260499083
-0.000258963723129
-0.00729706361534
-0.000304312030912
-0.00722286322119
-0.000346870295664
-0.00714057514783
-0.000386683081237
-0.0070507584121
-0.000423802766253
-0.00695395987432
-0.000458288979824
-0.00685071114291
-0.000490207808235
-0.00674152906755
-0.000519631095162
-0.00662691300283
-0.000546635565355
-0.00650734566896
-0.000571302056129
-0.00638329080121
-0.000593714614471
-0.00625519436887
-0.000613959719247
-0.00612348261197
-0.000632125418934
-0.00598856359905
-0.000648300610059
-0.00585082562114
-0.000662574264696
-0.0057106390282
-0.000675034814255
-0.00556835493251
-0.000685769520922
-0.00542430725965
-0.000694864017729
-0.00527881168828
-0.000702401856808
-0.00513216781608
-0.000708464236097
-0.0049846582526
-0.000713129754386
-0.00483655080702
-0.000716474344398
-0.00468809763801
-0.000718571232287
-0.00453953735347
-0.000719491064051
-0.004391094134
-0.000719302049993
-0.00424297966443
-0.000718070251545
-0.00409539216264
-0.000715859854487
-0.00394851807582
-0.000712733551815
-0.0038025309848
-0.000708752880475
-0.00365759304923
-0.000703978629557
-0.00351385378979
-0.000698471160183
-0.00337145129089
-0.000692290763947
-0.00323051090367
-0.000685497904107
-0.00309114625833
-0.000678153470941
-0.00295345794933
-0.000670318895848
-0.00281753441529
-0.000662056270715
-0.00268345068292
-0.000653428321908
-0.00255126918656
-0.000644498392431
-0.00242103863768
-0.000635330281379
-0.0022927948365
-0.000625988106033
-0.00216655972471
-0.000616536037156
-0.00204234223399
-0.000607038074417
-0.00192013755569
-0.000597557710525
-0.0017999280434
-0.000588157654194
-0.00168168271907
-0.000578899461532
-0.00156535823657
-0.000569843239104
-0.00145089862134
-0.000561047270504
-0.00133823627827
-0.000552567724144
-0.00122729194321
-0.000544458301383
-0.00111797569824
-0.000536769970575
-0.00101018706315
-0.000529550662316
-0.000903815904538
-0.000522845074205
-0.000798742565905
-0.000516694506948
-0.000694838416324
-0.000511136852522
-0.000591965986913
-0.000506207000389
-0.000489979945842
-0.000501937687358
-0.000388728416334
-0.000498360188862
-0.000288061778338
-0.000495500571354
-0.000187879364607
-0.000493254365707
-8.86370022679e-05
-0.000489126612215
-0.000438733445319
-0.000420657473526
0.00237170163183
-0.000886590187011
0.00262812663178
-0.00135007475691
0.0026170185007
-0.00180593616595
0.00257810192933
-0.00225161106591
0.00252581887772
-0.0026849064295
0.00246193525964
-0.0031038996852
0.0023876456124
-0.00350694802689
0.00230420872725
-0.0038926927702
0.00221293438964
-0.00426005273666
0.00211513731713
-0.00460820889583
0.00201209598812
-0.00493658209117
0.00190501988793
-0.00524480693994
0.0017950258331
-0.00553270351873
0.00168312304552
-0.00580024943721
0.00157020606617
-0.0060475529644
0.00145705419711
-0.00627482902414
0.00134433598924
-0.00648237773503
0.00123261733706
-0.00667056668734
0.00112237179084
-0.00683981589693
0.00101399201706
-0.00699058630645
0.000907801387261
-0.00712337034398
0.000804065127375
-0.00723868534636
0.000703000391603
-0.00733706814262
0.000604785143676
-0.00741907170355
0.000509565493091
-0.00748526208372
0.000417461700675
-0.00753621675184
0.00032857267919
-0.00757252254182
0.000242979424906
-0.00759477454356
0.00016074727466
-0.00760357420561
8.19275199156e-05
-0.00759952830381
6.55841146996e-06
-0.007583246434
-6.53351241411e-05
-0.00755534005683
-0.000133739341644
-0.00751641999466
-0.000198653077395
-0.00746709487273
-0.000260087048462
-0.00740796863222
-0.000318063596633
-0.00733963895378
-0.00037261644902
-0.00726269482388
-0.000423790159902
-0.00717771511013
-0.000471639648159
-0.00708526633594
-0.000516229396624
-0.00698590153266
-0.000557632764864
-0.00688015833291
-0.000595930991336
-0.00676855818509
-0.00063121234753
-0.00665160483286
-0.000663571017741
-0.00652978392907
-0.000693106172446
-0.0064035619253
-0.000719920811884
-0.00627338608994
-0.000744120842094
-0.00613968380088
-0.000765813958601
-0.00600286293891
-0.000785108794685
-0.00586331154733
-0.000802113917004
-0.00572139855145
-0.000816937113083
-0.0055774737276
-0.000829684558381
-0.00543186867307
-0.000840460296152
-0.005284897002
-0.00084936562946
-0.00513685547278
-0.000856498838906
-0.00498802431176
-0.00086195483239
-0.00483866838644
-0.000865825119436
-0.00468903754684
-0.00086819772665
-0.00453936773379
-0.000869157420674
-0.0043898812349
-0.000868785858957
-0.00424078763039
-0.000867162011251
-0.00409228388281
-0.000864362482946
-0.0039445550569
-0.000860462057342
-0.00379777420338
-0.000855534099655
-0.00365210283159
-0.000849651120975
-0.00350769059141
-0.000842885166023
-0.00336467552372
-0.00083530830564
-0.00322318358813
-0.000826992921782
-0.00308332875155
-0.000818012054342
-0.00294521243561
-0.000808439528668
-0.00280892352335
-0.000798350119567
-0.00267453781215
-0.000787819501464
-0.00254211801941
-0.000776924226631
-0.00241171331749
-0.000765741513625
-0.00228335940568
-0.000754349067742
-0.00215707818632
-0.000742824744958
-0.00203287794864
-0.000731246257517
-0.00191075322046
-0.000719690761052
-0.00179068508578
-0.000708234493497
-0.00167264122525
-0.0006969523308
-0.00155657637095
-0.000685917401336
-0.00144243252839
-0.000675200649046
-0.00133013955469
-0.00066487045847
-0.00121961553657
-0.000654992256441
-0.00111076745995
-0.000645628179315
-0.00100349169362
-0.000636836750414
-0.000897674691677
-0.000628672634752
-0.000793193504775
-0.000621186454853
-0.000689916575429
-0.000614424809136
-0.000587704512232
-0.000608430270086
-0.00048641106502
-0.000603241725099
-0.000385886659048
-0.000598895111974
-0.000285985002399
-0.000595413785263
-0.000186597215737
-0.000592653015112
-8.81398208519e-05
-0.000587595180405
-0.000526879377138
-0.000433264651576
0.00280500860227
-0.000912930370454
0.00310783712279
-0.00138968870506
0.00309382218523
-0.00185804975501
0.003046508113
-0.00231524259227
0.00298305685168
-0.00275891694357
0.00290565463516
-0.00318704444632
0.0028158180527
-0.00359792816049
0.00271513726957
-0.00399020283087
0.00260525374467
-0.00436282168231
0.0024878006968
-0.00471503266124
0.00236435128703
-0.00504634736909
0.00223637869319
-0.00535650624171
0.00210522852246
-0.00564544260098
0.0019721029192
-0.00591324811521
0.00183805473234
-0.00616014101667
0.00170398986005
-0.00638643832125
0.00157067560717
-0.00659253226234
0.0014387531067
-0.00677887120921
0.00130875202922
-0.00694594461266
0.00118110613328
-0.0070942717208
0.00105616858573
-0.00722439335824
0.000934226184523
-0.0073368663126
0.000815512061018
-0.0074322596369
0.000700216428089
-0.00751115239668
0.00058849543496
-0.00757413231899
0.000480477972907
-0.00762179495602
0.000376270821614
-0.00765474303822
0.000275962114876
-0.00767358575962
0.000179623703025
-0.00767893786494
8.73123746055e-05
-0.00767141867735
-9.28978417699e-07
-0.00765165031063
-8.5072701322e-05
-0.00762025607329
-0.000165103782666
-0.00757785885327
-0.000241021548425
-0.00752507880926
-0.000312839366292
-0.00746253131395
-0.000380584439222
-0.00739082477564
-0.000444297376121
-0.00731055859159
-0.000504031824779
-0.00722232109508
-0.000559853679125
-0.00712668774008
-0.000611840386366
-0.00702421934528
-0.000660079850332
-0.00691546064008
-0.000704669489045
-0.00680093890276
-0.000745714929813
-0.00668116293705
-0.000783328922457
-0.00655662215127
-0.000817629937543
-0.00642778598527
-0.00084874103788
-0.00629510343085
-0.000876788480097
-0.00615900289362
-0.000901900638771
-0.00601989212926
-0.000924206701697
-0.00587815849769
-0.00094383572515
-0.00573416926065
-0.000960915499291
-0.00558827216242
-0.000975571807914
-0.00544079601416
-0.000987927535621
-0.00529205150944
-0.000998102193115
-0.00514233199093
-0.00100621132155
-0.00499191438646
-0.00101236632953
-0.0048410600377
-0.00101667422722
-0.00469001562765
-0.00101923778377
-0.00453901394118
-0.00102015558092
-0.0043882746606
-0.00101952245763
-0.00423800494815
-0.00101742982628
-0.00408840001318
-0.00101396632125
-0.00393964344081
-0.00100921827585
-0.00379190748276
-0.00100327045954
-0.00364535311366
-0.000996206592254
-0.00350013005233
-0.000988110041687
-0.00335637657882
-0.000979064253117
-0.00321421934488
-0.000969153298025
-0.00307377303139
-0.000958462129095
-0.00293514003872
-0.000947076908388
-0.00279841008269
-0.000935085041528
-0.00266365986645
-0.000922575264634
-0.00253095271442
-0.000909637461205
-0.00240033831421
-0.000896362528989
-0.00227185246557
-0.0008828420183
-0.00214551695687
-0.000869167830987
-0.00202133948003
-0.000855431739505
-0.0018993136755
-0.000841724978555
-0.00177941923333
-0.000828137705982
-0.0016616221169
-0.000814758545991
-0.00154587484965
-0.000801674045171
-0.00143211690728
-0.000788968214728
-0.00132027517291
-0.000776722023064
-0.00121026447272
-0.000765012976246
-0.00110198817408
-0.000753914681976
-0.000995338823482
-0.000743496501986
-0.000890198845896
-0.000733823229659
-0.00078644132053
-0.000724954874365
-0.000683930704258
-0.000716946437484
-0.000582523971479
-0.000709848013457
-0.000482072352925
-0.00070370476157
-0.000382422690186
-0.000698555496612
-0.00028342299558
-0.000694423196725
-0.000184954159362
-0.000691133822517
-8.74008931046e-05
-0.000685160822495
-0.000614285543325
-0.000448586215736
0.00325363733352
-0.000944947480803
0.00360424421674
-0.00143780974004
0.00358672996369
-0.00192127923574
0.00353002325606
-0.00239232389032
0.0034541470049
-0.00284840102278
0.00336177723089
-0.00328735927324
0.00325482168255
-0.00370744630197
0.00313526958319
-0.00410730275518
0.00300515536938
-0.00448593930474
0.00286648226466
-0.00484270114952
0.00272115797577
-0.00517722488855
0.00257094705305
-0.00548939215433
0.00241744015621
-0.0057792837384
0.00226203856839
-0.00604713687443
0.00210595159102
-0.00629330746254
0.00195020377964
-0.00651823813639
0.00179564917203
-0.00672243238243
0.0016429897611
-0.00690643450224
0.00149279601734
-0.0070708147647
0.00134552768948
-0.00721615911001
0.00120155358627
-0.00734306244854
0.00106116951667
-0.00745212490626
0.000924613782101
-0.00754395003972
0.000792080082164
-0.00761914455094
0.000663727651972
-0.00767831863426
0.000539688947631
-0.00772208675107
0.000420074941541
-0.00775106814259
0.000304978632304
-0.00776588717816
0.000194476912016
-0.00776717303761
8.86314748377e-05
-0.00775555879712
-1.25109875664e-05
-0.00773168068778
-0.000108919560533
-0.00769617623142
-0.000200578046615
-0.00764968213911
-0.000287486463935
-0.00759283235276
-0.000369661065675
-0.00752625562916
-0.000447134115872
-0.00745057335791
-0.000519953713529
-0.00736639716428
-0.000588183139429
-0.00727432688431
-0.000651900206246
-0.00717494842133
-0.0007111961587
-0.00706883206852
-0.000766174643843
-0.00695653076982
-0.000816950289226
-0.00683857889833
-0.000863647429952
-0.00671549099561
-0.000906398506533
-0.00658776104554
-0.000945342685174
-0.00645586170927
-0.000980624208824
-0.00632024408949
-0.00101239103178
-0.00618133744139
-0.00104079323503
-0.00603954939068
-0.00106598177357
-0.0058952660754
-0.00108810705108
-0.00574885276023
-0.00110731786769
-0.0056006543409
-0.00112376023949
-0.00545099626992
-0.0011375766274
-0.005300185326
-0.00114890508206
-0.00514851073704
-0.00115787882561
-0.00499624508658
-0.0011646257822
-0.00484364549131
-0.00116926855408
-0.00469095449497
-0.00117192435884
-0.00453840114845
-0.00117270539196
-0.00438620174468
-0.00117171913202
-0.00423456066518
-0.0011690690178
-0.00408367084116
-0.00116485502104
-0.0039337142779
-0.00115917451056
-0.00378486218583
-0.00115212294483
-0.0036372751593
-0.00114379476254
-0.00349110299095
-0.00113428403381
-0.00334648455089
-0.00112368522234
-0.00320354736101
-0.00111209365657
-0.00306240727269
-0.00109960604725
-0.0029231679169
-0.00108632069311
-0.0027859203037
-0.00107233769966
-0.00265074227293
-0.00105775889794
-0.00251769813314
-0.00104268777171
-0.00238683821916
-0.00102722912515
-0.00225819865988
-0.00101148877352
-0.00213180111481
-0.000995573029412
-0.00200765272334
-0.000979588234036
-0.00188574605478
-0.000963640142214
-0.00176605925746
-0.000947833372086
-0.00164855622672
-0.000932270760769
-0.00153318694808
-0.000917052797207
-0.00141988786692
-0.000902277004884
-0.00130858240643
-0.000888037407059
-0.00119918151003
-0.000874423977474
-0.00109158430745
-0.000861522174846
-0.00098567879669
-0.000849412495809
-0.00088134263452
-0.000838170105544
-0.000778443912829
-0.000827864505024
-0.000676842184377
-0.000818559351352
-0.000576389510569
-0.000810312070289
-0.000476931307356
-0.000803173599107
-0.000378309201477
-0.000797188228662
-0.000280364454379
-0.000792379833166
-0.000182963913485
-0.000788545254794
-8.64713551722e-05
-0.000781664569091
-0.000700763140975
-0.000466960425395
0.00372064083781
-0.000983324387099
0.00412065369676
-0.00149542677301
0.00409887851758
-0.00199686764955
0.00403151008903
-0.00248428880748
0.00394161416164
-0.00295491581129
0.00383245014981
-0.00340645803648
0.00370640977529
-0.00383711253489
0.00356596987744
-0.00424554777144
0.00341363629847
-0.00463086624621
0.00325184631411
-0.0049925526011
0.00308288973503
-0.00533041392589
0.00290885359238
-0.0056445183543
0.00273158954938
-0.00593513642254
0.00255270132262
-0.00620268851503
0.00237354802959
-0.00644770005276
0.00219525928482
-0.00667076521488
0.002018757866
-0.00687251891309
0.00184478650699
-0.00705361636119
0.00167393598014
-0.00721471916503
0.00150667241894
-0.00735648677923
0.00134336249943
-0.0074795722034
0.00118429555035
-0.00758462075191
0.00102970222558
-0.00767227101091
0.000879769454616
-0.00774315696127
0.000734651922418
-0.00779791070882
0.000594480151211
-0.00783716501891
0.000459365844535
-0.00786155548342
0.00032940475548
-0.00787172179062
0.000204677955487
-0.00786830828839
8.5251711001e-05
-0.0078519631853
-2.88233294695e-05
-0.00782333849554
-0.000137512542694
-0.00778308756905
-0.000240798285641
-0.00773186325536
-0.000338681183641
-0.0076703154506
-0.000431180326081
-0.0075990886953
-0.000518333448187
-0.00751881950356
-0.00060019655144
-0.00743013399002