/*--------------------------------*- C++ -*----------------------------------*\
| =========                 |                                                 |
| \\      /  F ield         | OpenFOAM: The Open Source CFD Toolbox           |
|  \\    /   O peration     | Version:  v1906                                 |
|   \\  /    A nd           | Web:      www.OpenFOAM.com                      |
|    \\/     M anipulation  |                                                 |
\*---------------------------------------------------------------------------*/
FoamFile
{
    version     2.0;
    format      ascii;
    class       volScalarField;
    location    "992";
    object      p;
}
// * * * * * * * * * * * * * * * * * * * * * * * * * * * * * * * * * * * * * //

dimensions      [0 2 -2 0 0 0 0];


internalField   nonuniform List<scalar> 
9216
(
273.721483609
273.801241233
273.966277864
274.217997686
274.554981606
274.975641775
275.478011768
276.05978033
276.718337296
277.45080582
278.254088456
279.124897247
280.059799217
281.055241938
282.107595763
283.21317286
284.368264705
285.569153903
286.81214668
288.093577878
289.409839031
290.757377519
292.132721183
293.532472834
294.953332401
296.3920879
297.845635935
299.310970013
300.785199983
302.265538339
303.749319011
305.23398157
306.717089484
308.196314032
309.669451573
311.134405539
312.58920354
314.031978562
315.460985459
316.874581297
318.271241296
319.649538512
321.008159246
322.345882251
323.661593674
324.954265967
326.222972413
327.466865952
328.68519335
329.877274129
331.042514422
332.180386194
333.290440825
334.372288763
335.425612853
336.450148551
337.445696995
338.41210586
339.349282135
340.257173686
341.135781675
341.985142856
342.805341554
343.596492706
344.358753309
345.092306196
345.797370859
346.474187954
347.123029418
347.744183701
348.337965101
348.90469975
349.444734115
349.958421766
350.446131013
350.908232517
351.345106054
351.757129017
352.144682332
352.508139919
352.847873776
353.164244478
353.457605457
353.728294613
353.976637838
354.202941815
354.407496849
354.590571004
354.752412425
354.893245253
355.013272432
355.11267557
355.191624179
355.250302179
355.289203887
355.306396374
273.641775865
273.721895922
273.887276321
274.139998198
274.478417632
274.900872607
275.405351267
275.989505936
276.650689497
277.385990804
278.192276332
279.066225872
280.004373168
281.00313778
282.058861437
283.167833812
284.326323126
285.53059517
286.776938045
288.061674865
289.381183369
290.73190334
292.110352176
293.513128224
294.936923412
296.378523575
297.834819044
299.302802801
300.77957965
302.262362741
303.748481644
305.235377896
306.720612264
308.20185855
309.676910362
311.143674477
312.600176627
314.044553895
315.475059883
316.890056369
318.288017858
319.667522619
321.027256685
322.366004408
323.68265201
324.976177797
326.245655364
327.490243638
328.709189834
329.901819469
331.067539174
332.205826817
333.316234249
334.39837765
335.451940263
336.476663051
337.47234745
338.438846391
339.376067071
340.28396236
341.162533562
342.011822203
342.831912732
343.622924663
344.385015146
345.118371435
345.823213257
346.499785566
347.148360657
347.769231178
348.362711935
348.929133163
349.468841994
349.982195992
350.469564284
350.931321388
351.367848021
351.77952526
352.166735062
352.529854807
352.869257571
353.185307117
353.47835795
353.748750829
353.996812655
354.222852554
354.427161654
354.610009808
354.771645304
354.912292212
355.032149784
355.13138934
355.210149643
355.268517329
355.306424266
355.323591317
273.475992954
273.557261344
273.724174354
273.979201039
274.320665299
274.746860564
275.255713398
275.844808667
276.511427352
277.252586056
278.065078664
278.945515862
279.890364865
280.895984764
281.958660925
283.074633882
284.240127071
285.451368747
286.704613181
287.996156246
289.322351054
290.679618417
292.064458201
293.473455979
294.903291317
296.350741728
297.812688858
299.286120564
300.768135635
302.255944506
303.746872882
305.238361439
306.727968577
308.213369032
309.692355836
311.16283821
312.622842684
314.070510169
315.504096358
316.921968084
318.322603069
319.704585666
321.066606044
322.407455441
323.726024903
325.021300179
326.292360142
327.538371472
328.758586885
329.952339732
331.119042166
332.258179776
333.369309787
334.452055836
335.506106275
336.531209167
337.527170732
338.493850604
339.431160431
340.339059405
341.217552998
342.066688732
342.886555021
343.677277134
344.439016083
345.171964729
345.876346652
346.552412351
347.200438039
347.820721901
348.413582772
348.979356438
349.518394179
350.031059108
350.51772459
350.97877064
351.414582244
351.825545852
352.212047638
352.57447014
352.913190506
353.228577338
353.52098897
353.790770571
354.03825251
354.263747756
354.467550374
354.649933253
354.811146696
354.951416371
355.070941644
355.169892891
355.248407745
355.30658103
355.344381885
355.362440272
273.221107336
273.303662656
273.472972971
273.731603907
274.077818104
274.509833373
275.02548232
275.622245007
276.297291006
277.047523482
277.869623671
278.760093896
279.715298814
280.731503107
281.8049061
282.93167195
284.107956528
285.32992992
286.593796072
287.895808626
289.232284671
290.599615421
291.994275627
293.412830595
294.851942637
296.30837563
297.778999511
299.260793216
300.750847844
302.246368446
303.744676201
305.243209203
306.739523849
308.231294904
309.716315939
311.192498516
312.657871896
314.110581446
315.548887593
316.971163511
318.375893396
319.761669523
321.127189954
322.471255087
323.792764915
325.090715209
326.364194469
327.612379883
328.83453411
330.03000115
331.198203087
332.338636002
333.450866781
334.53452916
335.5893207
336.614999029
337.611379022
338.57832929
339.515769579
340.423667497
341.30203612
342.150930932
342.97044758
343.760718979
344.521913158
345.25423046
345.957901416
346.633183975
347.280361353
347.899739245
348.491643609
349.056417839
349.594420461
350.106022274
350.591603965
351.051553236
351.486262377
351.89612541
352.281535668
352.642883005
352.980551435
353.294916468
353.586342853
353.855182101
354.10177038
354.326426264
354.529448819
354.711115585
354.871680837
355.011373716
355.130396444
355.228922366
355.307093676
355.365017445
355.402687412
355.420897843
272.876038133
272.96024224
273.132841796
273.396426263
273.749164823
274.189164538
274.714125924
275.321382493
276.007948824
276.770570424
277.605772905
278.509909164
279.479203523
280.509791759
281.597756778
282.739159553
283.930065655
285.166567411
286.444802367
287.76096825
289.111335215
290.492255563
291.900171692
293.331622336
294.78324778
296.251793947
297.734115938
299.227180794
300.728069961
302.233981137
303.742229917
305.250250728
306.755597809
308.255945685
309.74908907
311.232942378
312.705539004
314.165030032
315.609682745
317.037878586
318.448110971
319.838982601
321.209202677
322.557583697
323.88303822
325.184575279
326.461296847
327.712394025
328.937143349
330.134902905
331.305108619
332.447270416
333.560968623
334.645850279
335.701625724
336.728065148
337.72499542
338.692296897
339.629900524
340.537784891
341.415973577
342.264532426
343.08356707
343.873220366
344.633670025
345.365126131
346.067828806
346.742045729
347.388069777
348.0062165
348.596821679
349.160238731
349.696836181
350.20699499
350.691105948
351.149566952
351.582780366
351.991150281
352.375079894
352.734968813
353.071210501
353.384189698
353.674279981
353.941841356
354.187217991
354.41073602
354.612701488
354.793398381
354.953086797
355.092001192
355.210348729
355.308307788
355.386026784
355.443622332
355.481099743
355.499285335
272.439002844
272.525298425
272.702133475
272.97210443
273.33325144
273.783530661
274.320466012
274.941196632
275.642532884
276.421013636
277.272961823
278.194536887
279.181782785
280.230670689
281.337136065
282.497110087
283.706545734
284.961439012
286.257845972
287.591896092
288.959802763
290.35787138
291.782505658
293.230212539
294.697606138
296.181410903
297.678464307
299.185719076
300.700245141
302.219231252
303.73998634
305.25994034
306.776645061
308.287774753
309.791125773
311.284616134
312.766284654
314.234289653
315.686907298
317.12252952
318.539661627
319.936919542
321.313026801
322.666811252
323.997201585
325.303223647
326.583996674
327.838729378
329.066716048
330.267332569
331.440032525
332.584343307
333.699862342
334.786253395
335.843243027
336.870617164
337.868217848
338.835940101
339.773728986
340.681576759
341.559520201
342.407638018
343.226048374
344.014906456
344.774402126
345.504757564
346.206224939
346.879084045
347.523639929
348.140220441
348.729173772
349.290865899
349.825678005
350.334003821
350.816246951
351.272818137
351.704132531
352.110606935
352.492657076
352.850694885
353.18512584
353.496346349
353.784741221
354.050681215
354.2945207
354.51659541
354.717220344
354.896687764
355.055265361
355.193194541
355.310688892
355.407933007
355.485081537
355.54225768
355.579472674
355.597553923
271.907724491
271.99661072
272.178709733
272.456618308
272.828207625
273.291236614
273.843000391
274.480388128
275.199949415
275.997961153
276.870491326
277.813457992
278.822682034
279.893932877
281.022967013
282.205559575
283.437529565
284.714759511
286.033210421
287.388932932
288.778075458
290.196890096
291.6417369
293.109087049
294.595525283
296.097751903
297.612584514
299.1369596
300.667933984
302.202686146
303.73851734
305.272852345
306.803240283
308.327355208
309.84299561
311.348083981
312.840665871
314.318908517
315.781099045
317.225642281
318.651058176
320.055978895
321.439145598
322.79940496
324.135705473
325.447093578
326.732709658
327.991783964
329.223632479
330.427652801
331.60332005
332.750182851
333.867859424
334.9560338
336.014452184
337.042919495
338.041296069
339.00949455
339.94747695
340.855251876
341.732871904
342.58043108
343.398062526
344.185936123
344.944256238
345.673259475
346.37321242
347.044409358
347.687169941
348.301836797
348.888773069
349.448359877
349.980993708
350.487083746
350.967049127
351.421316172
351.850315567
352.254479552
352.634239094
352.990021107
353.32224569
353.631323446
353.917652861
354.181617786
354.42358502
354.64390201
354.842894687
355.020865439
355.178091247
355.314821996
355.431278991
355.527653781
355.604107347
355.660768414
355.697652154
355.715579984
271.279380763
271.371415236
271.559913902
271.847466281
272.231727299
272.710203201
273.279897941
273.937384894
274.678886848
275.500355253
276.397544339
277.3660781
278.401508573
279.49936479
280.655192517
281.864585412
283.123208637
284.426816071
285.771262363
287.152510991
288.566639373
290.009841925
291.478431819
292.968841978
294.477625763
296.001457581
297.537133611
299.081572661
300.631817167
302.18503424
303.738516496
305.289683011
306.836080062
308.375381555
309.905388671
311.42402934
312.929357237
314.419550308
315.892908855
317.347853166
318.782920761
320.196763255
321.588142918
322.955928942
324.299093496
325.6167076
326.907936875
328.172037216
329.408350434
330.616299912
331.795386321
332.945183425
334.065334021
335.155546027
336.215588764
337.245289426
338.244529762
339.21324297
340.151410796
341.059060818
341.936263915
342.783131867
343.599815083
344.386500405
345.143408965
345.870794045
346.568938938
347.238154745
347.878778124
348.491168933
349.075707806
349.632793607
350.162840807
350.666276763
351.143538926
351.595071991
352.021325003
352.422748441
352.799791309
353.152898239
353.482506645
353.789043929
354.072924773
354.334548531
354.574296723
354.792530668
354.989589252
355.165786849
355.321411426
355.456722819
355.571951237
355.667296136
355.742925174
355.798972282
355.835456876
355.853192893
270.550541691
270.646352425
270.842523315
271.141624817
271.54103713
272.037945686
272.62898721
273.310340033
274.077821908
274.926985074
275.85320323
276.851748051
277.917853671
279.046768788
280.233797002
281.474326609
282.763851427
284.097984371
285.472465443
286.883165666
288.326088248
289.797368073
291.29327035
292.810189039
294.344645485
295.893287504
297.452889011
299.02035019
300.592698084
302.167087481
303.740801556
305.311253089
306.875985268
308.432672033
309.979117819
311.513257019
313.033152912
314.536996099
316.023102416
317.489910386
318.935978223
320.359980449
321.760704159
323.137045012
324.488002972
325.812677886
327.110264929
328.380049995
329.621405054
330.833783559
332.016715914
333.169805083
334.292722335
335.385203202
336.447043639
337.478096434
338.478267856
339.447514564
340.385840746
341.293295499
342.169970398
343.015997243
343.831545928
344.616822412
345.372066721
346.097550978
346.793577371
347.460476088
348.098603128
348.708338023
349.290081426
349.844252575
350.371286633
350.871631921
351.345747049
351.794097975
352.217155006
352.615389774
352.989272201
353.339267488
353.665833141
353.969416069
354.250449757
354.509351551
354.746520063
354.962332706
355.157143389
355.331280376
355.485044323
355.61870653
355.732507393
355.826655136
355.901324805
355.956656177
355.992673344
356.010182266
269.717094006
269.817397209
270.02268755
270.335497148
270.752857803
271.271548494
271.887744381
272.597131888
273.395029893
274.276504877
275.236473693
276.269791184
277.371321251
278.53599159
279.75883346
281.035008561
282.359825413
283.728747638
285.137396387
286.58154883
288.057134312
289.56022942
291.087052902
292.633961091
294.197444241
295.774123965
297.360751806
298.954208786
300.551505758
302.149784278
303.746317245
305.338510476
306.923903822
308.500171367
310.065121387
311.616695814
313.152969133
314.672146677
316.172562384
317.652676002
319.111069831
320.546445019
321.957617511
323.343513671
324.703165684
326.03570676
327.340366247
328.616464655
329.863408714
331.080686455
332.267862417
333.424572993
334.550521977
335.645476336
336.709262258
337.741761466
338.74290785
339.712684381
340.651120327
341.55828873
342.434304131
343.279320477
344.093529197
344.877157355
345.630465873
346.353747723
347.047326085
347.711552401
348.346804307
348.953483411
349.532012923
350.082835103
350.606408577
351.103205486
351.573708537
352.018407939
352.437798284
352.832375378
353.202633072
353.549060097
353.872136956
354.172332877
354.450102861
354.705884839
354.940096964
355.153135047
355.345370157
355.5171464
355.668778893
355.800551935
355.912717396
356.005493467
356.079063399
356.133573299
356.169053117
356.186300212
268.774145946
268.879770438
269.095850215
269.424849804
269.863357603
270.407636831
271.053282231
271.795368472
272.628601823
273.547460755
274.546317808
275.619539766
276.761565182
277.966960467
279.230457096
280.54697325
281.911623368
283.319718937
284.766763421
286.248443731
287.760620091
289.299315758
290.86070753
292.441117765
294.037008203
295.644975754
297.261750092
298.884192831
300.509297863
302.134192501
303.756138354
305.372533439
306.980913884
308.578953944
310.164466291
311.735401536
313.289847066
314.826025222
316.342290825
317.837128121
319.309147184
320.757079854
322.179775277
323.576195132
324.945408595
326.286587144
327.598999235
328.882004959
330.135050691
331.357663839
332.549447714
333.710076589
334.839290995
335.936893297
337.002743579
338.036755884
339.038894796
340.009172394
340.947645548
341.85441354
342.729615963
343.573430863
344.38607304
345.167792474
345.918872777
346.639629636
347.330409166
347.99158614
348.623562044
349.226762943
349.801637137
350.348652606
350.868294264
351.361061031
351.827462753
352.268017011
352.683245833
353.073672373
353.439817555
353.78219675
354.101316496
354.397671288
354.671740474
354.923985276
355.154845944
355.364739078
355.554055125
355.723156061
355.87237328
356.002005709
356.112318125
356.203539732
356.275863011
356.329441464
356.364311474
356.381261025
267.715905885
267.827825011
268.056650219
268.404733911
268.868097071
269.442345357
270.122341524
270.902398549
271.776471195
272.738328592
273.781698853
274.900382795
276.088336895
277.339728292
278.64896625
280.01071513
281.419893863
282.871666355
284.361426528
285.88478086
287.437530571
289.015654935
290.615296763
292.2327506
293.864453958
295.506981518
297.157042042
298.8114775
300.467263842
302.121512746
303.771473168
305.414534165
307.048227509
308.670227479
310.278351657
311.8705605
313.444956145
314.999780404
316.533412052
318.044363422
319.531276422
320.992918032
322.428175377
323.836050463
325.21565466
326.566203008
327.887008429
329.177475909
330.437096729
331.665442786
332.862161094
334.0269685
335.159646694
336.260037535
337.328038776
338.363600181
339.366720087
340.337442385
341.275853937
342.182082367
343.056294204
343.898693291
344.709519403
345.48904698
346.237583906
346.95547023
347.643076785
348.300803619
348.929078208
349.528353414
350.099105177
350.641829937
351.157041818
351.645269583
352.107053409
352.542941515
352.953486694
353.339242775
353.700761083
354.038586902
354.353255999
354.645291237
354.915199289
355.163467497
355.390560884
355.596919338
355.782954992
355.949049801
356.095553348
356.222780854
356.331011428
356.420486683
356.491409323
356.543940856
356.578125355
356.594740414
266.535526405
266.654901168
266.898797024
267.26938837
267.761963815
268.37128521
269.091287673
269.915333281
270.83645468
271.847567571
272.941641722
274.111828307
275.351545685
276.654529111
278.014851544
279.426923082
280.885475934
282.385540778
283.922419004
285.491654184
287.089005015
288.710421239
290.352023433
292.010087158
293.681031583
295.361412393
297.047918456
298.737371521
300.426727991
302.113081808
303.793667202
305.465862767
307.127194799
308.77533724
310.408112992
312.023493591
313.619597908
315.194689966
316.747175877
318.275600053
319.778640724
321.255104931
322.703923028
324.124142863
325.514923674
326.875529847
328.205324568
329.503763491
330.770388453
332.00482134
333.206758131
334.37596324
335.51226416
336.615546532
337.685749641
338.722862423
339.726919973
340.698000599
341.636223361
342.541746109
343.414763903
344.255507789
345.064243793
345.841272068
346.586926048
347.30157155
347.985605693
348.639455597
349.263576771
349.858451181
350.424584971
350.96250586
351.47276021
351.955909844
352.412528627
352.843198881
353.248507676
353.629043065
353.985390288
354.31812801
354.627824614
354.915034603
355.180295111
355.424122585
355.647009622
355.849422017
356.031796001
356.194535713
356.338010894
356.462554836
356.568462561
356.655989245
356.725348975
356.776712451
356.810131945
356.826373573
265.224902451
265.353139398
265.614912851
266.012120703
266.539096959
267.18951164
267.956117166
268.831084146
269.806312877
270.873694978
272.025313908
273.253584109
274.551334481
275.911845903
277.328854074
278.796528575
280.309437575
281.862505569
283.450969494
285.070336779
286.716347532
288.384942105
290.07223472
291.774493412
293.488126255
295.20967346
296.935804561
298.663319532
300.38915255
302.110376208
303.824207253
305.528011808
307.219308694
308.895770912
310.555227028
312.19566093
313.81521044
315.412164822
316.984961336
318.532180915
320.052543139
321.544900566
323.008232611
324.441639031
325.844333184
327.215635118
328.554964621
329.861834271
331.1358426
332.376667401
333.584059291
334.757835566
335.897874466
337.004109889
338.076526653
339.11515634
340.120073774
341.091394125
342.029270652
342.933893002
343.805486031
344.644309001
345.450655084
346.224850991
346.967256643
347.678264704
348.358299908
349.007818054
349.62730462
350.217272949
350.778261997
351.310833663
351.815569733
352.293068489
352.743941057
353.168807551
353.568293082
353.943023699
354.293622318
354.620704676
354.924875371
355.206724014
355.466821524
355.705716594
355.923932355
356.121963252
356.300272145
356.459287655
356.599401761
356.720967641
356.824297771
356.909662429
356.977288157
357.027355464
357.059926135
357.075753536
263.774407324
263.91323892
264.196331795
264.625160981
265.192801177
265.891496413
266.712480656
267.646425484
268.683839647
269.815390094
271.032133418
272.32566164
273.688174157
275.112492234
276.592033184
278.120759772
279.693117246
281.303967069
282.948523237
284.622294637
286.321035122
288.040702038
289.777423372
291.527473556
293.287257686
295.053303613
296.822260738
298.590903877
300.356140247
302.115016194
303.864726563
305.602621648
307.326210531
309.033164271
310.721317308
312.388667289
314.033373452
315.653753759
317.248280902
318.815577379
320.35440974
321.863682195
323.342429693
324.789810648
326.205099413
327.587678657
328.937031685
330.252734843
331.534450018
332.781917353
333.994948207
335.173418498
336.317262465
337.426467004
338.501066605
339.541139025
340.5468017
341.518208949
342.455549928
343.359047305
344.228956536
345.065565648
345.869195336
346.640199251
347.37896427
348.085910614
348.76149164
349.406193225
350.020532628
350.605056817
351.160340219
351.686981961
352.185602617
352.65684057
353.101348046
353.519786923
353.912824396
354.281128578
354.625364082
354.946187674
355.244244005
355.520161493
355.774548362
356.007988885
356.221039843
356.414227221
356.588043159
356.742943168
356.879343605
356.997619461
357.09810238
357.181078967
357.246789465
357.29542546
357.327058715
357.34242854
262.172543419
262.324140217
262.632842835
263.09948282
263.715451842
264.471112048
265.355733452
266.358093908
267.466991973
268.67163749
269.961911667
271.328508499
272.762979617
274.257709083
275.805843742
277.401200559
279.038166897
280.711604168
282.416760775
284.14919689
285.904721633
287.679342257
289.469224849
291.270666202
293.080076666
294.893973328
296.708982079
298.521846097
300.329437881
302.12877033
303.917009926
305.69148648
307.449696516
309.189307756
310.908160693
312.604268309
314.275814128
315.921148768
317.53878528
319.127393438
320.685793153
322.212947171
323.707953242
325.170035927
326.598538208
327.99291301
329.352714769
330.677591062
331.967274421
333.221574335
334.440369571
335.62360086
336.771264112
337.88340424
338.960109741
340.00150812
341.007762235
341.9790676
342.915650627
343.817767742
344.685705275
345.519779934
346.320339705
347.087764933
347.822469378
348.524901035
349.195542533
349.83491096
350.443557047
351.022063607
351.571043301
352.091135704
352.58300381
353.047330037
353.484811882
353.896157304
354.282079971
354.643294447
354.980511394
355.294432852
355.585747641
355.855126933
356.103220009
356.330650255
356.538011396
356.725864003
356.894732277
357.045101128
357.177413557
357.292068317
357.389417875
357.469766813
357.5333702
357.58043131
357.611033282
357.625899871
260.405473536
260.572605574
260.912358446
261.424585347
262.098395334
262.921639921
263.881029935
264.962942437
266.154076949
267.441923429
268.815041314
270.263175888
271.777250624
273.349277386
274.972221762
276.639852435
278.346594008
280.08739444
281.857611724
283.652920323
285.469235639
287.302654321
289.149408822
291.005835699
292.868357748
294.733479832
296.597796505
298.458008002
300.310939858
302.15356067
303.983000145
305.796561622
307.591725393
309.366154231
311.117694912
312.844377704
314.544413805
316.216191135
317.858268783
319.46937037
321.048376433
322.594316064
324.106357974
325.583801253
327.026065952
328.432683703
329.8032884
331.137607053
332.435450797
333.696706153
334.921326557
336.109324334
337.260763198
338.375751488
339.454436261
340.496998421
341.503648947
342.474626326
343.410195126
344.310645695
345.176294785
346.007486953
346.804596435
347.568029264
348.298225302
348.995659958
349.660845312
350.294330515
350.896701298
351.468578576
352.010616129
352.523497469
353.007931961
353.464650395
353.894400113
354.297939891
354.676034664
355.029450231
355.358948007
355.665279893
355.9491833
356.211376379
356.452553474
356.673380836
356.874492624
357.056487198
357.21992374
357.365319188
357.493145499
357.60382726
357.697739586
357.775206319
357.836498656
357.881832899
357.911304011
357.92561866
258.456382007
258.642654628
259.020484816
259.588229671
260.331853982
261.235822277
262.283487326
263.458175328
264.744018884
266.126503176
267.592740982
269.13152739
270.733239431
272.389645183
274.093675466
275.839195512
277.62079885
279.433633309
281.273260546
283.135545451
285.016569879
286.912565561
288.819863159
290.734857016
292.65398707
294.573739128
296.490661478
298.401392717
300.302692294
302.19146929
304.064806347
305.919972453
307.754427661
309.56582812
311.352027409
313.111075557
314.841215616
316.540878305
318.208675384
319.843391889
321.443977327
323.009536013
324.539316852
326.032702827
327.489200454
328.908429354
330.290112045
331.634063931
332.940183499
334.208442718
335.438877718
336.63157986
337.786687407
338.904377986
339.984862079
341.02837773
342.035186632
343.005571664
343.93983591
344.838303038
345.701318903
346.529254079
347.322507017
348.08150745
348.806719696
349.498645471
350.157825958
350.784842853
351.380318293
351.944913578
352.479326738
352.984289041
353.460560639
353.908925505
354.330185934
354.725156755
355.094659447
355.439516272
355.760544521
356.058550913
356.334326218
356.5886401
356.82223624
357.035827753
357.230092921
357.405671277
357.563160039
357.703110905
357.826027225
357.932361498
358.022513226
358.096827248
358.15559205
358.199037545
358.227272007
358.240983271
256.304587479
256.514796929
256.939960812
257.576126354
258.404854467
259.405991367
260.558457724
261.841701264
263.236737945
264.726761973
266.29737051
267.936494846
269.634144985
271.382065499
273.173376051
275.002242561
276.863601346
278.752941572
280.666140535
282.599341113
284.548859527
286.511113824
288.482568011
290.459692277
292.438943974
294.416774444
296.389659524
298.354146081
300.306899213
302.244747866
304.164714503
306.064025437
307.940116641
309.790636248
311.613445609
313.406617875
315.168433174
316.897371649
318.592105461
320.25148985
321.874552894
323.46048431
325.008623654
326.518448333
327.989561722
329.421681662
330.814629296
332.168318235
333.482743894
334.757972999
335.994133245
337.191403327
338.350003535
339.470187259
340.552233657
341.59644182
342.603126601
343.572616296
344.505252143
345.40138961
346.261401183
347.085680388
347.874646557
348.628749921
349.348476485
350.034352282
350.686946556
351.30687365
351.894793371
352.451409816
352.977468703
353.473753389
353.941079794
354.380290553
354.792248648
355.177830819
355.53792093
355.87340345
356.18515712
356.474048862
356.740927939
356.9866204
357.211923841
357.417602491
357.604382672
357.772948644
357.923938862
358.057942631
358.175497163
358.277085057
358.363132108
358.434005453
358.4900122
358.531397263
358.558282647
358.571335558
253.924284854
254.164968902
254.649923731
255.371577019
256.305216159
257.424330062
258.701967721
260.112659012
261.633682914
263.245697858
264.932831083
266.682384443
268.484329287
270.330736332
272.215238298
274.13257675
276.078249849
278.048255412
280.038911771
282.046734323
284.068346475
286.100408595
288.139557106
290.182356346
292.22527486
294.264700768
296.296993668
298.318560874
300.3259332
302.315830956
304.285201079
306.23122164
308.151301752
310.0430806
311.904428886
313.733447489
315.528460408
317.288005153
319.010823306
320.695850483
322.342204488
323.949172139
325.516195595
327.042858502
328.528872628
329.974065186
331.378366827
332.74180002
334.06446762
335.346541389
336.588250529
337.789870386
338.951711729
340.074110956
341.15742171
342.202008252
343.208240936
344.176493971
345.107145545
346.000580184
346.85719311
347.677396121
348.461624471
349.210344094
349.924058547
350.603315029
351.248709026
351.860887156
352.440548063
352.988441266
353.505364109
353.992157029
354.449697517
354.878893157
355.280674172
355.655985801
356.005780795
356.331012144
356.63262613
356.911555699
357.168714154
357.404989167
357.621237146
357.818277965
357.996890131
358.157806378
358.301709734
358.429230044
358.540940967
358.637357358
358.718933086
358.786059363
358.839063064
358.878204637
358.903621369
358.915957792
251.282716857
251.563040801
252.124949757
252.955092108
254.01966683
255.283352245
256.711415025
258.272192565
259.938574487
261.688559744
263.505062847
265.375230218
267.289543745
269.240926773
271.223974963
273.234359472
275.268401541
277.322792052
279.394418801
281.480262589
283.577326967
285.682575223
287.792862233
289.904867812
292.015056911
294.11970534
296.214984774
298.29708802
300.362351742
302.407352957
304.42895018
306.424273023
308.390704198
310.325873349
312.227662363
314.094206435
315.923882544
317.715295131
319.467265418
321.178821205
322.84918302
324.47774841
326.064075839
327.607868547
329.108959353
330.567296934
331.982933096
333.35601066
334.686751378
335.975443495
337.222428909
338.42809028
339.592838526
340.717101376
341.801313498
342.845908817
343.851315407
344.817953307
345.74623534
346.63657086
347.489372053
348.305062267
349.084085591
349.826916878
350.534071303
351.206112703
351.843659978
352.447391164
353.01804485
353.556418982
354.063367172
354.539792896
354.986642071
355.404894615
355.795555538
356.159646064
356.498195067
356.812231006
357.102774324
357.370830297
357.617382244
357.843385089
358.049759296
358.237385225
358.407097954
358.559682619
358.695870294
358.816334399
358.921687607
359.012479275
359.089193264
359.152246116
359.201985778
359.238689623
359.26251058
359.274068388
248.337439763
248.670681236
249.333815658
250.304047756
251.534208392
252.976744156
254.586655393
256.324583762
258.158432263
260.063677417
262.022646126
264.023180411
266.057140586
268.119061861
270.205100504
272.312289222
274.438061727
276.579983859
278.735624964
280.902507509
283.078081002
285.259678576
287.44443522
289.629179522
291.810348076
293.984023806
296.146073312
298.292354479
300.418923891
302.522175556
304.598875773
306.646121475
308.661275232
310.641954516
312.586052843
314.491749707
316.357488269
318.18195101
319.964049716
321.702917972
323.397894494
325.048503516
326.654435797
328.215529248
329.731751568
331.203185703
332.630016863
334.012520375
335.351049353
336.646021273
337.897903544
339.107198475
340.274428486
341.400122353
342.484803383
343.528980188
344.533140742
345.497750108
346.423252098
347.310074706
348.158638943
348.969370304
349.742711907
350.479138125
351.179167595
351.843374462
352.472397062
353.066943404
353.627793204
354.155796434
354.651868668
355.116983701
355.552164203
355.95847121
356.336993338
356.688836299
357.01511317
357.316935466
357.595404961
357.851606047
358.086598487
358.301410511
358.497032274