/*--------------------------------*- C++ -*----------------------------------*\
| =========                 |                                                 |
| \\      /  F ield         | OpenFOAM: The Open Source CFD Toolbox           |
|  \\    /   O peration     | Version:  v1906                                 |
|   \\  /    A nd           | Web:      www.OpenFOAM.com                      |
|    \\/     M anipulation  |                                                 |
\*---------------------------------------------------------------------------*/
FoamFile
{
    version     2.0;
    format      ascii;
    class       surfaceScalarField;
    location    "992";
    object      phi;
}
// * * * * * * * * * * * * * * * * * * * * * * * * * * * * * * * * * * * * * //

dimensions      [0 3 -1 0 0 0 0];
oriented        oriented;


internalField   nonuniform List<scalar> 
18240
(
-0.000352125083737
0.000352085952067
-0.000737696231762
0.000385523493866
-0.00112291098507
0.000385175086476
-0.00150317268769
0.000380212224029
-0.00187638277226
0.000373172414081
-0.00224082949323
0.000364395638715
-0.00259496198526
0.000354096857771
-0.00293745994953
0.000342445368516
-0.00326711765761
0.000329624176203
-0.00358296756495
0.000315795916223
-0.00388414077426
0.000301141904756
-0.00417001027545
0.000285814241032
-0.00444002081734
0.000269981532857
-0.00469385126666
0.000253774062927
-0.00493121637161
0.000237338508824
-0.00515205078432
0.000220777057438
-0.00535628596079
0.000204211043576
-0.00554405792647
0.000187713822273
-0.00571546211457
0.000171382625631
-0.0058707857873
0.000155264934272
-0.00601024259921
0.000139437844962
-0.0061342294324
0.000123927711045
-0.00624304199789
0.000108796278078
-0.00633715494957
9.40536609098e-05
-0.00641691927981
7.97507107762e-05
-0.00648286402488
6.5885511761e-05
-0.00653537635801
5.25014322974e-05
-0.0065750229208
3.95876079628e-05
-0.00660221347163
2.71823154294e-05
-0.00661753994148
1.52680191516e-05
-0.00662142547557
3.87997876134e-06
-0.00661447705261
-7.00615321565e-06
-0.00659711882974
-1.73611910196e-05
-0.00656996230181
-2.72133152527e-05
-0.00653342923238
-3.6533469834e-05
-0.006488130551
-4.53543190543e-05
-0.00643447837724
-5.36501367505e-05
-0.00637307494868
-6.14577130237e-05
-0.00630431664168
-6.87538874991e-05
-0.00622879049152
-7.55788972765e-05
-0.00614687204957
-8.19118037376e-05
-0.00605912745463
-8.77956261788e-05
-0.00596590734765
-9.32113350361e-05
-0.00586775243564
-9.82040704016e-05
-0.00576498543035
-0.000102756289425
-0.00565811806636
-0.000106914499937
-0.00554744325491
-0.000110662261461
-0.00543344148864
-0.000114046753259
-0.00531637510106
-0.000117052212485
-0.00519669203823
-0.000119725783123
-0.00507462430096
-0.000122052066615
-0.00495058706393
-0.000124077596711
-0.00482478306142
-0.000125787057745
-0.00469759511691
-0.000127225859347
-0.00456919838917
-0.000128378652809
-0.00443994440849
-0.000129289389986
-0.00430998278296
-0.000129942647101
-0.00417963495601
-0.000130380679582
-0.00404902710496
-0.00013058812082
-0.00391845190361
-0.000130605467839
-0.00378801404045
-0.000130417603832
-0.00365797842482
-0.000130063274053
-0.00352842986246
-0.00012952792403
-0.0033996062443
-0.000128848664225
-0.00327157362893
-0.000128011805211
-0.00314454313065
-0.000127052931682
-0.00301856273879
-0.000125959547407
-0.00289381673552
-0.000124765836698
-0.00277033530425
-0.000123460733814
-0.00264827548545
-0.000122077067315
-0.00252764966559
-0.000120605389453
-0.00240858718572
-0.000119077172341
-0.00229108253358
-0.000117484647538
-0.0021752368797
-0.000115857829343
-0.00206102679571
-0.000114190623499
-0.00194852508165
-0.000112511436661
-0.00183769058728
-0.000110815740253
-0.00172856783118
-0.000109130114097
-0.00162109848181
-0.000107451448021
-0.00151529933816
-0.000105804257096
-0.00141109582879
-0.000104186645636
-0.00130847803305
-0.000102620796502
-0.0012073565494
-0.00010110580984
-0.00110769628774
-9.96612514018e-05
-0.00100939496221
-9.82869300634e-05
-0.000912394535763
-9.69993955836e-05
-0.000816582739223
-9.57986207077e-05
-0.000721882448836
-9.46971296845e-05
-0.000628177354756
-9.36930226777e-05
-0.000535382198927
-9.27900321585e-05
-0.000443399340544
-9.19721967268e-05
-0.000352189347582
-9.12034265842e-05
-0.000261813434485
-9.0367536884e-05
-0.000172743044254
-8.90619575337e-05
-8.7145716108e-05
-8.55871957645e-05
-8.71407789284e-05
-0.000389227062396
0.000741269898518
-0.000823787737289
0.00082003627151
-0.00125587387031
0.00081721570049
-0.00168166055632
0.000805950693589
-0.00209921321752
0.000790680168332
-0.00250676054378
0.000771894534357
-0.00290263408777
0.000749926189328
-0.00328535312586
0.000725115817146
-0.00365359979801
0.000697827448567
-0.00400627529574
0.000668422777019
-0.00434244479573
0.000637268920669
-0.00466139002631
0.000604710908064
-0.00496253526572
0.000571085332506
-0.00524550260938
0.000536693047839
-0.00551002397716
0.000501819585955
-0.00575600312747
0.000466708192274
-0.00598341750342
0.000431586414279
-0.00619238986382
0.000396638662304
-0.00638308263669
0.000362037787895
-0.0065557806651
0.000327916092641
-0.00671077955367
0.00029440065441
-0.00684847982278
0.000261581922526
-0.00696926982641
0.000229551834938
-0.00707363072699
0.000198369473555
-0.00716201402818
0.000168101320343
-0.00723495631485
0.000138783837353
-0.00729295126673
0.00011046552803
-0.00733657290985
8.31665625473e-05
-0.0073663419909
5.69224739641e-05
-0.0073828563764
3.17411303927e-05
-0.00738665118271
7.64785047992e-06
-0.00737833764487
-1.53594235818e-05
-0.00735846025865
-3.72634508886e-05
-0.00732763652125
-5.80751185693e-05
-0.00728640777993
-7.77849967601e-05
-0.00723538660171
-9.64117914552e-05
-0.00717510448663
-0.000113952908226
-0.0071061623963
-0.000130434229918
-0.00702907534039
-0.00014585947521
-0.00694442586802
-0.000160260851823
-0.00685270649014
-0.000173647579331
-0.00675447542894
-0.000186057158335
-0.00665019774895
-0.000197503312333
-0.0065404025906
-0.000208027640811
-0.00642552382895
-0.000217647268142
-0.00630605801728
-0.000226406627227
-0.0061824053934
-0.000234325082184
-0.00605502772375
-0.000241448623291
-0.00592429041147
-0.000247797748802
-0.00579061944374
-0.000253418827188
-0.00565434534994
-0.000258332494906
-0.00551585843478
-0.000262584473255
-0.00537545526093
-0.000266194748182
-0.00523349137911
-0.000269207606101
-0.00509023100319
-0.000271641830136
-0.00494599644829
-0.000273539748207
-0.00480102159318
-0.000274918680209
-0.00465559728748
-0.000275818769758
-0.00450992919766
-0.000276255882004
-0.00436427847094
-0.000276268016269
-0.00421882449789
-0.00027586984685
-0.00407380019574
-0.000275097495961
-0.00392936023336
-0.000273964877267
-0.00378571034787
-0.000272506636658
-0.00364298152274
-0.000270736450845
-0.00350135284092
-0.000268687936975
-0.00336093211981
-0.000266375035708
-0.00322187186307
-0.000263830725972
-0.00308425679454
-0.000261069619046
-0.00294821255318
-0.000258124320869
-0.00281380056533
-0.000255010350391
-0.00268111917424
-0.000251760030318
-0.00255020621181
-0.000248389840274
-0.00242113231614
-0.000244931728061
-0.00229391154241
-0.000241402997569
-0.0021685866521
-0.000237834965092
-0.00204514801561
-0.000234245472759
-0.00192361070064
-0.000230664822902
-0.00180394189278
-0.000227110995621
-0.00168612963057
-0.000223612815602
-0.00157011889156
-0.000220187935487
-0.00145587185315
-0.000216863191415
-0.00134331277932
-0.000213655400253
-0.00123237970484
-0.000210588861545
-0.00112297821024
-0.000207678983265
-0.00101502446229
-0.000204946853137
-0.000908407966085
-0.000202405636084
-0.000803025863153
-0.000200072016609
-0.000698754265357
-0.000197954994116
-0.000595472506334
-0.000196063633985
-0.000493038405268
-0.000194397276327
-0.000391285432577
-0.000192948342394
-0.000289950486234
-0.000191693253583
-0.00018843763467
-0.000190565703501
-8.53405227904e-05
-0.00018867495805
-0.000172476307497
-0.000396185502624
0.0011374116058
-0.000836388664724
0.00126019240665
-0.0012747320447
0.00125551223035
-0.00170670222577
0.00123787353571
-0.00213016726128
0.00121409868557
-0.00254326110423
0.00118494113144
-0.0029442772246
0.00115089616756
-0.00333170025972
0.00111249179249
-0.00370420683902
0.00107028833508
-0.00406068549734
0.00102485467386
-0.00440021818926
0.000976756490246
-0.00472208991973
0.000926536294153
-0.0050257575889
0.000874708558484
-0.00531085538013
0.00082174504023
-0.00557715639841
0.000768076978344
-0.00582457852275
0.000714085196839
-0.00605314293686
0.000660108140506
-0.00626298367791
0.000606435107669
-0.00645430567025
0.000553318182042
-0.00662739962906
0.000500966724608
-0.00678260073701
0.000449561378133
-0.00692030928463
0.000399248262073
-0.00704095015408
0.00035015368487
-0.0071449987274
0.000302377098274
-0.00723294071102
0.000256005761999
-0.00730530245183
0.000211106028875
-0.0073626105076
0.000167737655191
-0.00740542541698
0.000125943445641
-0.00743430042534
8.57632579261e-05
-0.00744981790102
4.72222234694e-05
-0.00745254701186
1.03445556287e-05
-0.00744308217548
-2.48588963292e-05
-0.00742199944377
-5.83767012694e-05
-0.00738989654503
-9.02108069492e-05
-0.00734734801315
-0.000120362071093
-0.00729494659076
-0.000148844081901
-0.00723325741422
-0.000175668614705
-0.0071628606257
-0.000200859896526
-0.00708430487083
-0.000224439689443
-0.00699815087469
-0.000246441690893
-0.00690492451105
-0.000266896325586
-0.00680516119056
-0.000285845247739
-0.0066993588287
-0.000303325951845
-0.00658802284551
-0.000319386303303
-0.00647161925719
-0.000334069051815
-0.00635062008942
-0.000347426374837
-0.00622545686738
-0.00035950441786
-0.00609656619478
-0.000370357789075
-0.00596434381262
-0.000380034212209
-0.00582919010453
-0.000388588959518
-0.0056914649427
-0.000396069733099
-0.00555153283824
-0.000402530972236
-0.00540971869216
-0.000408019038871
-0.00526635232741
-0.00041258637865
-0.00512172531404
-0.000416277108111
-0.00497613458901
-0.00041914095697
-0.0048298404362
-0.000421219310563
-0.00468310893443
-0.000422558895816
-0.00453617123345
-0.000423198344966
-0.00438926456133
-0.000423181534154
-0.00424259287162
-0.000422544689349
-0.00409636619722
-0.000421329317164
-0.00395076281765
-0.000419569883992
-0.00380596675876
-0.000417306233999
-0.00366213158276
-0.000414571838394
-0.00351941590117
-0.000411405633341
-0.00337794896313
-0.000407840855184
-0.00323786406532
-0.000403916205204
-0.00309926606943
-0.000399665270648
-0.00296226265052
-0.00039512697033
-0.00282693392582
-0.000390335587938
-0.00269336148417
-0.000385330440709
-0.00256160025169
-0.000380146545412
-0.00243170527989
-0.000374823496898
-0.00230370599748
-0.000369396808821
-0.0021776307195
-0.000363905977916
-0.00205348337139
-0.000358386533253
-0.00193126570014
-0.00035287729309
-0.00181095656557
-0.000347413164833
-0.00169253181354
-0.000342031585374
-0.00157594617359
-0.000336766100827
-0.00146115076695
-0.000331651996631
-0.00134807765293
-0.000326720681706
-0.00123665492575
-0.000322004492382
-0.00112679390441
-0.000317531885076
-0.00101840176598
-0.000313331391148
-0.000911371327704
-0.000309427591582
-0.000805590951736
-0.000305844153924
-0.00070093643932
-0.000302600604841
-0.0005972769301
-0.000299714471237
-0.000494465735
-0.00029719934488
-0.000392336802819
-0.000295068902014
-0.000290683973925
-0.000293338040724
-0.000189262778155
-0.000291976947715
-8.83099858758e-05
-0.000289617481078
-0.000260781834198
-0.000402389465262
0.00153975705777
-0.000848709798455
0.00170646533244
-0.0012931550521
0.00169991036471
-0.00173098348904
0.00167565467242
-0.00215992902066
0.0016429972613
-0.00257803296691
0.00160299801096
-0.00298353376038
0.00155635026267
-0.00337488105184
0.00150379228548
-0.00375074190788
0.00144610285391
-0.00411000683347
0.00138407316906
-0.00445178017993
0.00131848396879
-0.0047753738144
0.00125008398325
-0.00508028677491
0.00117957625008
-0.00536619275735
0.00110760568992
-0.00563291502444
0.00103475469895
-0.00588041307439
0.000961538661678
-0.00610875733424
0.000888408723031
-0.00631811852483
0.000815752605053
-0.00650874470021
0.000743901685286
-0.00668095492226
0.000673134291277
-0.00683511953704
0.000603684479547
-0.00697165835088
0.000535745605825
-0.00709102389845
0.000469479011323
-0.00719370346377
0.000405016519381
-0.00728020455019
0.000342468063828
-0.00735105976623
0.000281922561855
-0.00740681356569
0.000223454223728
-0.00744802902915
0.000167121809437
-0.00747527510782
0.00011297378268
-0.00748913457905
6.10462938155e-05
-0.00749019135916
1.13675549223e-05
-0.00747903889372
-3.60449633973e-05
-0.00745626725108
-8.11802481255e-05
-0.00742247222642
-0.000124037540329
-0.00737824213586
-0.000164622120655
-0.00732416720762
-0.000202948754954
-0.00726082610736
-0.000239037658808
-0.00718879576954
-0.000272917955983
-0.00710863788333
-0.000304623467066
-0.00702090912163
-0.000334196109831
-0.00692614771968
-0.000361681526813
-0.00682488411793
-0.000387132412919
-0.00671762775157
-0.000410604017535
-0.0066048780893
-0.000432157423718
-0.00648711173359
-0.000451854997136
-0.00636479382261
-0.000469763638493
-0.00623836550443
-0.000485950236328
-0.00610825562973
-0.000500484927918
-0.00597486864196
-0.000513436629542
-0.00583859647857
-0.000524876325767
-0.00569980688947
-0.000534872727352
-0.00555885543096
-0.000543495615336
-0.00541607420771
-0.000550811687334
-0.00527178384027
-0.000556887964446
-0.00512628260401
-0.000561787858721
-0.00497985822781
-0.000565574651163
-0.00483277739446
-0.000568307814241
-0.00468529723886
-0.000570046541857
-0.00453765517056
-0.000570846326724
-0.0043900799373
-0.000570762513846
-0.00424278174187
-0.000569847124646
-0.00409596277058
-0.000568152377761
-0.00394980759717
-0.000565727721112
-0.00380449309667
-0.000562623259334
-0.00366017915698
-0.000558886956082
-0.00351701794537
-0.000554567896449
-0.00337514497848
-0.000549713611955
-0.0032346877326
-0.000544373121197
-0.00309575714387
-0.000538594349774
-0.00295845558829
-0.000532426902812
-0.00282286889869
-0.000525919561544
-0.00268907374545
-0.000519122768111
-0.00255713025317
-0.000512086206268
-0.00242708882261
-0.000504860993969
-0.00229898342356
-0.000497497365635
-0.00217283788377
-0.000490046587156
-0.0020486599126
-0.000482558770742
-0.00192644687729
-0.000475084531348
-0.00180618059783
-0.000467672963997
-0.00168783261107
-0.000460373064575
-0.00157135975151
-0.000453231897936
-0.00145670889556
-0.000446295800196
-0.001343813329
-0.000439608757755
-0.0012325969455
-0.000433213402331
-0.00112297136938
-0.000427149612108
-0.00101483955367
-0.000421455302854
-0.000908093574061
-0.000416165269497
-0.00080261747101
-0.000411311820586
-0.000698285320804
-0.000406923919306
-0.000594962719349
-0.000403028086403
-0.000492504859755
-0.000399648699924
-0.000390755585119
-0.000396809794934
-0.000289549090967
-0.000394535086102
-0.000188759400557
-0.000392757475843
-8.88438700666e-05
-0.00038952348786
-0.000349620503993
-0.000410388401365
0.00195010124073
-0.000865197795999
0.00216122768201
-0.00131790765344
0.00215257275354
-0.00176358324907
0.00212128295177
-0.00219982435865
0.00207919114529
-0.0026245662214
0.00202769273554
-0.0030359749695
0.0019677120484
-0.00343245753741
0.00190022797947
-0.00381266769612
0.00182626637876
-0.00417550535523
0.00174686432299
-0.00452010590848
0.00166303832898
-0.0048458257758
0.00157575783405
-0.00515222123351
0.00148592607466
-0.00543902753101
0.00139436658893
-0.00570613435208
0.00130181658493
-0.00595356475913
0.00120892442787
-0.00618145235621
0.00111625222106
-0.00639002382247
0.00102428033467
-0.0065795803111
0.000933415064264
-0.00675048497734
0.000843996275274
-0.00690314911844
0.000756306644322
-0.00703802448975
0.000670579497956
-0.00715559350255
0.000587007332736
-0.00725636529284
0.000505748177068
-0.00734086877639
0.000426932274104
-0.00740965120179
0.000350666336397
-0.00746327286164
0.000277038163714
-0.00750230700633
0.000206118908598
-0.00752733526005
0.000137965981512
-0.00753894812179
7.26238300262e-05
-0.00753774057026
1.01257283597e-05
-0.00752431246894
-4.95065672004e-05
-0.00749926427132
-0.000106260849098
-0.00746319755685
-0.000160135842124
-0.00741671044863
-0.000211139673935
-0.00736039830617
-0.000259290498781
-0.00729484902632
-0.000304615369248
-0.00722064390485
-0.000347150636376
-0.00713835306257
-0.000386940670858
-0.00704853655245
-0.000424038095715
-0.00695174000953
-0.000458502335987
-0.00684849607987
-0.000490399708717
-0.00673932039185
-0.000519801852138
-0.00662471334632
-0.000546785715233
-0.00650515645029
-0.000571431923656
-0.00638111448045
-0.00059382473721
-0.00625303221037
-0.000614050425738
-0.00612133692276
-0.000632197245531
-0.00598643551051
-0.000648353881387
-0.00584871729477
-0.000662609503151
-0.00570855147817
-0.000675052335831
-0.0055662901962
-0.000685769834988
-0.00542226625695
-0.000694847427089
-0.00527679634166
-0.000702368848398
-0.00513017896789
-0.000708415097653
-0.00498269773209
-0.000713064953713
-0.00483461940112
-0.000716394152424
-0.00468619709137
-0.000718476091772
-0.00453766841241
-0.000719381230465
-0.00438925847719
-0.000719177947293
-0.00424117801508
-0.000717932121588
-0.00409362613737
-0.000715708100818
-0.00394678838311
-0.000712568407795
-0.00380083919008
-0.000708574738615
-0.00365593985451
-0.00070378772004
-0.00351224070461
-0.000698267866653
-0.00336987900947
-0.000692075321176
-0.00322898088053
-0.000685270697719
-0.00308965917847
-0.000677914747069
-0.0029520152006
-0.000670069045667
-0.00281613666656
-0.00066179555952
-0.00268209925313
-0.000653157155958
-0.00254996472698
-0.000644217061796
-0.0024197823918
-0.000635039209948
-0.00229158743903
-0.000625687614504
-0.0021654023517
-0.000616226573895
-0.00204123551428
-0.000606719994924
-0.00191908260579
-0.00059723149021
-0.00179892550099
-0.000587823690097
-0.00168073365959
-0.000578558265041
-0.0015644633219
-0.000569495258783
-0.00145005888999
-0.000560693066554
-0.00133745240943
-0.000552207817877
-0.00122656491704
-0.000544093329479
-0.00111730617118
-0.000536400560204
-0.00100957592965
-0.000529177566083
-0.000903263881302
-0.000522469062097
-0.000798250726215
-0.000516316430513
-0.000694408313632
-0.000510757587322
-0.000591600424006
-0.000505827179863
-0.000489682904851
-0.000501557066244
-0.000388506319391
-0.000497977917183
-0.00028792097849
-0.00049511261606
-0.000187818399766
-0.000492849892327
-8.86405026808e-05
-0.00048869082741
-0.000438256573606
-0.0004205589908
0.00237061590504
-0.000886395182682
0.00262701616725
-0.00134978412079
0.00261591419365
-0.001805550652
0.00257700192525
-0.00225113123911
0.00252472434661
-0.00268433320629
0.00246084738712
-0.00310323404955
0.00238656571324
-0.0035061912429
0.0023031381179
-0.00389184619037
0.00221187444906
-0.00425911800383
0.00211408943589
-0.00460718773758
0.0020110615984
-0.00493547654531
0.00190400041424
-0.00524361911116
0.00179402271886
-0.00553143583645
0.00168213769205
-0.00579890436605
0.00156923987101
-0.00604613329249
0.00145610848032
-0.00627333753032
0.00134341204432
-0.00648081751382
0.00123171634348
-0.00666894077184
0.00112149488662
-0.00683812761741
0.00101314019904
-0.0069888388748
0.000906975601789
-0.00712156725082
0.000803266157484
-0.00723682990784
0.000702228971743
-0.00733516393123
0.000604041835275
-0.00741712206387
0.000508850816147
-0.00748327060035
0.000416775996716
-0.00753418673553
0.000327916263688
-0.00757045752807
0.000242352439213
-0.00759267775396
0.000160149850504
-0.00760144907729
8.1359622761e-05
-0.00759737793311
6.02001381587e-06
-0.00758107417368
-6.58440209177e-05
-0.00755314889006
-0.000134218811858
-0.00751421310399
-0.000199103392299
-0.00746487504922
-0.00026050843945
-0.00740573886891
-0.000318456441963
-0.00733740184108
-0.000372981072406
-0.00726045315894
-0.000424127023285
-0.00717547128242
-0.000471949142386
-0.00708302294485
-0.000516512039151
-0.00698366076833
-0.000557888990573
-0.00687792260253
-0.000596161355094
-0.00676632949077
-0.000631417310574
-0.00664938539859
-0.000663751152505
-0.00652757557991
-0.000693261951623
-0.00640136671537
-0.000720052815089
-0.00627120568494
-0.000744229543113
-0.00613752009969
-0.000765899931311
-0.00600071746326
-0.000785172505121
-0.00586118605758
-0.000802155928097
-0.00571929444549
-0.000816957877367
-0.00557539264429
-0.000829684619301
-0.0054298119037
-0.000840440087549
-0.00528286608178
-0.000849325673243
-0.00513485160708
-0.000856439547574
-0.00498604894984
-0.000861876701301
-0.00483672266493
-0.00086572853791
-0.00468712284588
-0.000868083164805
-0.00453748513992
-0.000869025245836
-0.00438803207424
-0.000868636515542
-0.00423897295275
-0.0008669958473
-0.00409050497178
-0.000864179922923
-0.0039428129373
-0.000860263435925
-0.00379607012377
-0.000855319825953
-0.0036504377964
-0.000849421523556
-0.00350606581568
-0.000842640648123
-0.00336309199253
-0.000835049199027
-0.00322164248036
-0.000826719631448
-0.00308183102786
-0.000817724924383
-0.00294375923174
-0.000808138975874
-0.00280751576994
-0.000798036509495
-0.00267317659596
-0.000787493269683
-0.00254080423622
-0.000776585767397
-0.00241044800213
-0.000765391288458
-0.00228214342082
-0.000753987505479
-0.0021559125204
-0.000742452337142
-0.00203176344021
-0.000730863471555
-0.00190969082378
-0.000719298122682
-0.00178967563208
-0.000707832512529
-0.00167168565423
-0.000696541571231
-0.00155567552466
-0.000685498420534
-0.00144158734456
-0.00067477405633
-0.0013293508855
-0.000664436866826
-0.0012188843009
-0.000654552329366
-0.00111009448438
-0.000645182592187
-0.00100287784418
-0.000636386214716
-0.00089712078875
-0.000628217856242
-0.000792700587809
-0.000620728132287
-0.000689485932573
-0.000613963421919
-0.000587337952201
-0.000607966113055
-0.000486111847904
-0.000602774798477
-0.000385657988556
-0.000598423415122
-0.000285826990609
-0.000594933945348
-0.000186506346415
-0.000592161456623
-8.81038761796e-05
-0.000587083827043
-0.000526355144889
-0.000433165361116
0.00280373669468
-0.000912733011433
0.00310653647883
-0.00138939485295
0.00309252817501
-0.0018576597511
0.0030452191606
-0.00231475712704
0.00298177408501
-0.00275833679417
0.00290437953667
-0.00318637060057
0.00281455210465
-0.00359716179969
0.00271388202645
-0.00398934530344
0.00260401081908
-0.00436187456585
0.00248657173707
-0.00471399770132
0.00236313799099
-0.00504522655813
0.00223518276235
-0.0053553017401
0.00210405167618
-0.00564415681313
0.00197094684578
-0.00591188360065
0.00183692109604
-0.00615870055916
0.00170288025797
-0.00638492483508
0.00156959157115
-0.00659094885065
0.00143769607279
-0.00677722107188
0.00130772333171
-0.00694423109567
0.0011801069902
-0.00709249822887
0.00105520008795
-0.00722256339408
0.000933289299638
-0.00733498339888
0.000814607613703
-0.00743032734908
0.000699345121861
-0.00750917429492
0.000587657826604
-0.0075721119738
0.000479674511159
-0.00761973589291
0.000375501810983
-0.00765264876027
0.000275227768649
-0.00767145969833
0.00017892410027
-0.00767678339318
8.66475249313e-05
-0.00766923912473
-1.5591429643e-06
-0.00764944898739
-8.56680964326e-05
-0.00761803616038
-0.00016566462497
-0.00757562344411
-0.000241548098117
-0.00752283089073
-0.000313331992652
-0.00746027377392
-0.000381043527389
-0.00738856039287
-0.000444723404574
-0.00730829003994
-0.000504425267167
-0.00722005094176
-0.000560215091477
-0.00712441844824
-0.000612170304315
-0.00702195327678
-0.00066037888096
-0.00691320005403
-0.00070493820448
-0.00679868596473
-0.000745953966568
-0.00667891971615
-0.00078353887245
-0.00655439063185
-0.000817811449746
-0.00642556806046
-0.000848894707717
-0.00629290091881
-0.000876914955928
-0.00615681753027
-0.000902000510518
-0.00601772558515
-0.000924280607025
-0.00587601236831
-0.000943884238306
-0.00573204508623
-0.000960939239458
-0.00558617141845
-0.000975571329042
-0.00543872013044
-0.000987903432307
-0.00529000185929
-0.00099805499252
-0.00514030991199
-0.00100614158945
-0.00498992117079
-0.00101227456506
-0.00483909695069
-0.00101656096504
-0.00468808389733
-0.00101910349275
-0.0045371147776
-0.00102000076507
-0.00438640924608
-0.00101934755926
-0.00423617445346
-0.00101723532196
-0.00408660558699
-0.0010137526305
-0.00393788622498
-0.00100898585431
-0.00379018860246
-0.00100301971343
-0.00364367368833
-0.000995937965169
-0.00349849118538
-0.000987823935673
-0.0033547793666
-0.000978761110611
-0.0032126648678
-0.000968833529581
-0.00307226235834
-0.00095812618715
-0.00293367421954
-0.000946725222335
-0.00279699015097
-0.000934718084472
-0.0026622868358
-0.000922193495666
-0.0025296275781
-0.000909241382575
-0.00239906204557
-0.000895952636173
-0.00227062601744
-0.000882418848874
-0.00214434126773
-0.00086873192216
-0.00202021547133
-0.000854983667295
-0.00189824226284
-0.00084126532336
-0.00177840132386
-0.000827667083737
-0.00166065862391
-0.000814277581189
-0.00154496668584
-0.00080118339357
-0.00143126499706
-0.000788468543315
-0.00131948043413
-0.000776214025174
-0.00120952782095
-0.000764497354631
-0.00110131048172
-0.000753392151469
-0.000994720933872
-0.000742967772341
-0.000889641571829
-0.000733288981342
-0.00078594545517
-0.000724415688329
-0.000683497324462
-0.000716402837993
-0.000582154562127
-0.000709300133647
-0.000481768187833
-0.00070315194636
-0.000382185658573
-0.000697997485509
-0.000283253415366
-0.000693858633372
-0.000184845990517
-0.000690558610861
-8.73466684305e-05
-0.00068457245738
-0.000613697467364
-0.000448485569552
0.00325217758101
-0.000944747925741
0.00360275070671
-0.00143751209074
0.00358524444794
-0.00192088417028
0.00352854326268
-0.00239183190554
0.00345267399335
-0.00284781289441
0.00336031275544
-0.00328667591436
0.00325336745569
-0.00370666882496
0.00313382737915
-0.00410643246964
0.00300372704116
-0.00448497772693
0.00286506973931
-0.0048416500189
0.00271976322192
-0.00517608616742
0.0025695720821
-0.005488168033
0.00241608697785
-0.00577797663297
0.0022607091848
-0.00604574941207
0.00210464795656
-0.00629184248013
0.00194892778725
-0.00651669864635
0.00179440262444
-0.00672082157781
0.00164177434978
-0.00690475570332
0.00149161331279
-0.00706907143311
0.00134437911358
-0.00721435477979
0.00120044042266
-0.00734120075402
0.0010600928761
-0.00745020949893
0.00092357463524
-0.00754198463079
0.000791079217719
-0.00761713281791
0.000662765728545
-0.00767626428102
0.000538766443097
-0.00771999340512
0.000419192223492
-0.00774893943088
0.000304135898187
-0.00776372661569
0.000193674272024
-0.00776498411486
8.78688840281e-05
-0.00775334491749
-1.32335375517e-05
-0.00772944526326
-0.000109602021569
-0.00769392249897
-0.000201220662763
-0.00764741328903
-0.000288089613643
-0.0075905514007
-0.000370225149013
-0.00752396554306
-0.000447659651795
-0.00744827692453
-0.000520441218884
-0.00736409712588
-0.000588633235417
-0.00727202580047
-0.000652313491349
-0.00717264881217
-0.000711573322539
-0.00706653627375
-0.000766516337035
-0.0069542410981
-0.000817257243764
-0.00683629748337
-0.000863920325167
-0.00671321994857
-0.000906638094368
-0.00658550230995
-0.000945549655254
-0.00645361721608
-0.000980799317434
-0.00631801561105
-0.00101253496517
-0.00617912674628
-0.00104090674024
-0.00603735809861
-0.00106606552281
-0.00589309581182
-0.00108816177314
-0.00574670501249
-0.00110734421263
-0.00559853061043
-0.00112375890918
-0.00544889793126
-0.00113754824313
-0.00529811377674
-0.00114885031346
-0.00514646726002
-0.00115779826065
-0.00499423099549
-0.00116452005349
-0.00484166199735
-0.00116913821377
-0.00468900284791
-0.00117177000185
-0.00453648250788
-0.00117252753538
-0.00438431731438
-0.0011715183345
-0.00423271156976
-0.00116884576555
-0.00408185825328
-0.00116460984285
-0.00393193930043
-0.00115890786999
-0.00378312596991
-0.00115183534979
-0.00363557879282
-0.00114348666526
-0.00348944760704
-0.00113395593412
-0.00334487122349
-0.00112333757491
-0.00320197720254
-0.00111172696648
-0.00306088133792
-0.00109922078577
-0.00292168729033
-0.00108591738448
-0.00278448601323
-0.00107191684496
-0.00264935536708
-0.00105732105186
-0.00251635960609
-0.00104223347547
-0.00238554907898
-0.0010267589725
-0.00225695986606
-0.00101100335237
-0.00213061363803
-0.000995072976699
-0.00200651749581
-0.000979074186557
-0.00188466402185
-0.000963112780592
-0.00176503134041
-0.00094729338043
-0.00164758336505
-0.000931718859979
-0.00153227007034
-0.000916489713014
-0.00141902791925
-0.000901703490575
-0.00130778031932
-0.000887454217825
-0.00119843820605
-0.000873831881822
-0.00109090065429
-0.000860921931536
-0.000985055601225
-0.000848804843453
-0.000880780604472
-0.000837555734477
-0.000777943773433
-0.000827244045836
-0.000676404620364
-0.000817933184116
-0.000576015208733
-0.000809680489537
-0.000476621940689
-0.000802536982729
-0.000378065678927
-0.000796545444415
-0.000280184661469
-0.000791729788981
-0.000182845294014
-0.000787889042161
-8.64094130912e-05
-0.00078099901025
-0.000700101505815
-0.000466858751787
0.00371899134491
-0.000983121902647
0.0041189661292
-0.0014951250333
0.00409719926572
-0.00199646687093
0.0040298369841
-0.00248378956892
0.00393994856688
-0.00295431873166
0.00383079389257
-0.00340576396114
0.00370476472928
-0.00383632248954
0.00356433804861
-0.00424466298557
0.0034120198017
-0.0046298881863
0.00325024734967
-0.00499148295822
0.00308131058988
-0.00532925465607
0.00290729658796
-0.0056432716506
0.00273005703766
-0.00593380474147
0.0025511956307
-0.00620127454157
0.00237207144689
-0.0064462067074
0.00219381401725
-0.00666919561884
0.00201734601651
-0.00687087637468
0.00184341004789
-0.00705190434807
0.00167259672759
-0.00721294127221
0.00150537202793
-0.0073546467135
0.00134210243349
-0.00747767373511
0.00118307710087
-0.0075826677155
0.00102852647525
-0.00767026724428
0.000878637319793
-0.00774110632459
0.000733564109936
-0.00779581701353
0.000593437221589
-0.00783503206553
0.000458368158824
-0.00785938698417
0.000328452555157
-0.00786952142135
0.000203771300444
-0.00786607959896
8.4390572528e-05
-0.00784970974885
-2.96389654287e-05
-0.00782106376327
-0.000138282605392
-0.00778079491946
-0.000241523144225
-0.00772955589759
-0.000339361246226
-0.00766799652248
-0.000431816136363
-0.0075967611594
-0.000518925562741