/*--------------------------------*- C++ -*----------------------------------*\
| =========                 |                                                 |
| \\      /  F ield         | OpenFOAM: The Open Source CFD Toolbox           |
|  \\    /   O peration     | Version:  v1906                                 |
|   \\  /    A nd           | Web:      www.OpenFOAM.com                      |
|    \\/     M anipulation  |                                                 |
\*---------------------------------------------------------------------------*/
FoamFile
{
    version     2.0;
    format      ascii;
    class       volVectorField;
    location    "83";
    object      Ua;
}
// * * * * * * * * * * * * * * * * * * * * * * * * * * * * * * * * * * * * * //

dimensions      [0 1 -1 0 0 0 0];


internalField   nonuniform List<vector> 
9216
(
(-0.0085705871039 0.00850810145389 0)
(-0.00906457739952 0.0275031158786 4.07130993083e-27)
(-0.0090961246231 0.046860250425 -5.72263619568e-31)
(-0.00906542780143 0.0663116766111 0)
(-0.00901231765784 0.0855720468655 0)
(-0.00894564120643 0.104588729212 0)
(-0.00886182875559 0.123319345237 0)
(-0.00877199570376 0.141711742969 0)
(-0.0086660858439 0.159730834481 0)
(-0.00855716815606 0.177333315721 0)
(-0.008432529133 0.194493858372 0)
(-0.00830708190844 0.211176416372 0)
(-0.00816242863212 0.227362358379 0)
(-0.00801785874425 0.243012371301 0)
(-0.00785789269591 0.258122402292 0)
(-0.00770609613483 0.272669361285 0)
(-0.0075343888684 0.286649466142 0)
(-0.00736731132822 0.300039138711 0)
(-0.00717453699593 0.312832108182 0)
(-0.00699085905708 0.325008133319 0)
(-0.00678066158765 0.336565476502 0)
(-0.0065817011734 0.347487134787 0)
(-0.00635498896106 0.357773768658 0)
(-0.00613996655463 0.367409397493 0)
(-0.00589200977823 0.37639390097 0)
(-0.00565836671809 0.384702788138 0)
(-0.00538519165757 0.392356127046 0)
(-0.00512742699474 0.399310952524 0)
(-0.00483593572403 0.40558343152 0)
(-0.00456670655931 0.411165748152 0)
(-0.00426661100621 0.416051025398 0)
(-0.003981358977 0.420289801761 0)
(-0.00363976881036 0.423796809903 0)
(-0.00333722937191 0.426585233815 0)
(-0.00300539213385 0.428714751596 0)
(-0.00271270633818 0.430178125612 0)
(-0.00237869440947 0.430993453338 0)
(-0.00208872973807 0.431184071252 0)
(-0.00175823844859 0.430767904739 0)
(-0.00148401553694 0.429774528403 0)
(-0.0011781008036 0.4282414513 0)
(-0.000930186372292 0.426222944586 0)
(-0.000637980026749 0.423722794814 0)
(-0.000413724212651 0.420792818798 0)
(-0.000144504923147 0.417472248345 0)
(5.34068447353e-05 0.413785824496 0)
(0.000301664895019 0.409774857847 0)
(0.000486362412642 0.40544825751 0)
(0.000731393667025 0.400829359597 0)
(0.000915070659529 0.395914560923 0)
(0.00117191157344 0.390706157359 0)
(0.00136885948314 0.385184989177 0)
(0.00164527770121 0.379341403295 0)
(0.0018658792301 0.373145939079 0)
(0.00216896821307 0.366575020691 0)
(0.0024144315579 0.35960005311 0)
(0.00274225715022 0.35219917841 0)
(0.00300575918962 0.344334921996 0)
(0.00333521256309 0.336018158295 0)
(0.00359252235638 0.327242019898 0)
(0.00391219234181 0.318005160036 0)
(0.0041528159818 0.308329697061 0)
(0.00443898068477 0.298231205735 0)
(0.00463636905273 0.287755902111 0)
(0.00487428671055 0.276937622913 0)
(0.00502603204547 0.265843647492 0)
(0.00519455634781 0.25450030251 0)
(0.00527006714779 0.242998461157 0)
(0.0053580073509 0.231413674368 0)
(0.00536369201137 0.219812144362 0)
(0.00538652086203 0.208243653308 0)
(0.00533432616522 0.196776222482 0)
(0.00529263882776 0.185453371111 0)
(0.00518831973523 0.174339535508 0)
(0.0051005116618 0.16346001161 0)
(0.00495811705827 0.152865096776 0)
(0.00482999151939 0.142575522115 0)
(0.0046573287622 0.132635666298 0)
(0.00450110551199 0.123053337616 0)
(0.00431495053596 0.113855976662 0)
(0.00414374354352 0.105037160595 0)
(0.00394830312832 0.0966203897201 0)
(0.00376868302742 0.0885957896927 0)
(0.00356382518744 0.0809846617955 0)
(0.0033644697708 0.073790836703 0)
(0.0031319454838 0.0670730085053 0)
(0.00285256271849 0.0608422340446 0)
(0.00241264699103 0.0552323596144 0)
(0.00186755125211 0.0495773024657 0)
(0.00195636448239 0.0462228281006 0)
(0.00259982265391 0.0430954669266 0)
(0.00303510582346 0.0380418225274 0)
(0.00357342191396 0.03213529411 0)
(0.00451180049641 0.0254973428529 0)
(0.00529842729988 0.0161079739963 0)
(0.00554800680987 0.00546485631707 0)
(-0.0277370216538 0.00902645254357 0)
(-0.0307394975024 0.0306753786221 0)
(-0.0307831366631 0.0523293648238 -4.27396993378e-27)
(-0.0305428191087 0.0741134210309 0)
(-0.0301912269791 0.0956513839452 0)
(-0.0297576174706 0.116910797363 0)
(-0.0292403116344 0.137843941456 0)
(-0.0286595219064 0.158396048144 0)
(-0.0280065824368 0.178522231836 0)
(-0.0273062236238 0.198180294245 0)
(-0.0265453918961 0.217334904561 0)
(-0.0257520495435 0.235951502637 0)
(-0.0249036802558 0.254007298386 0)
(-0.0240366367886 0.271470586659 0)
(-0.0231269912231 0.288347204669 0)
(-0.0222093881304 0.304574502831 0)
(-0.0212504578985 0.320167892498 0)
(-0.0202943230065 0.335077322097 0)
(-0.0193027352323 0.34934191723 0)
(-0.0183192438267 0.362918925499 0)
(-0.0172952603236 0.37581167678 0)
(-0.0162851575598 0.38800252314 0)
(-0.0152323054309 0.399477159359 0)
(-0.0141994451499 0.410217382145 0)
(-0.013123165895 0.420224933351 0)
(-0.012072082998 0.429482629871 0)
(-0.0109738969355 0.437982213862 0)
(-0.00991088225374 0.445747188727 0)
(-0.00880133273067 0.452733466715 0)
(-0.00773817874308 0.458942275328 0)
(-0.00663948427248 0.46438641537 0)
(-0.00557498444881 0.46900963227 0)
(-0.00444674929641 0.472886870533 0)
(-0.00339116339973 0.475970171391 0)
(-0.00232142727011 0.478288420056 0)
(-0.00134052049748 0.479841501981 0)
(-0.000327963862835 0.480656865658 0)
(0.000583733331855 0.480754956829 0)
(0.00151291261185 0.48016962414 0)
(0.00232089060325 0.478950177342 0)
(0.00314046839227 0.47711669465 0)
(0.00383367667765 0.474692464788 0)
(0.00454588683842 0.471744840062 0)
(0.00511425089991 0.468314652875 0)
(0.00570645305309 0.46444446127 0)
(0.00616433975753 0.460203053865 0)
(0.00668164659078 0.455568485156 0)
(0.00708373889951 0.450592539444 0)
(0.00755799417093 0.445293176695 0)
(0.00794508496708 0.439677300628 0)
(0.00845309773574 0.433741911585 0)
(0.0088833579585 0.427471323094 0)
(0.00945402463523 0.420850566817 0)
(0.00997337109284 0.413850370752 0)
(0.0106425513995 0.406440841311 0)
(0.0112552709366 0.398593910426 0)
(0.0120148162198 0.390280437501 0)
(0.0127003873618 0.381482539154 0)
(0.0135037712945 0.372191594975 0)
(0.0142082426662 0.36236007873 0)
(0.0149983710066 0.352021467872 0)
(0.0156585529945 0.341191881293 0)
(0.0163650464402 0.329895565425 0)
(0.0169152400479 0.318183253895 0)
(0.0174752999687 0.306042932375 0)
(0.0178615840273 0.293672802931 0)
(0.0182226848483 0.281026484652 0)
(0.0183914844804 0.268227747308 0)
(0.0185262402105 0.255340450187 0)
(0.0184803490302 0.242417038273 0)
(0.0184144907373 0.229562997293 0)
(0.0181957726287 0.216826291139 0)
(0.0179418021132 0.204264177164 0)
(0.0175655139683 0.191937689374 0)
(0.0171858506298 0.179885943184 0)
(0.0166914484549 0.168150136506 0)
(0.0161917751582 0.156763091566 0)
(0.015609583271 0.145772352938 0)
(0.0150263487216 0.135164277101 0)
(0.0144019879876 0.125009320694 0)
(0.0138063037741 0.115286638987 0)
(0.0131569785984 0.105955866819 0)
(0.0125299410489 0.0971022977021 0)
(0.0118525285275 0.0886648383539 0)
(0.0111717906075 0.0807033305121 0)
(0.0104337765441 0.0732066428678 0)
(0.00957959308153 0.0661735292374 0)
(0.00843376038561 0.0596490361627 0)
(0.00702001785129 0.0529941924395 0)
(0.00671514215978 0.0465200553408 0)
(0.00801938471067 0.0430217630051 0)
(0.00916268476611 0.0378723716369 0)
(0.0106944070923 0.0316749736935 0)
(0.0136310981875 0.025220276186 0)
(0.0174160744318 0.0171150173649 0)
(0.0164601260237 0.00524891244168 0)
(-0.0474445625694 0.0091133144364 0)
(-0.0526586605651 0.0310724634472 0)
(-0.0526789876096 0.052922427647 -4.27660580675e-27)
(-0.0522585502222 0.0749500103739 0)
(-0.05167442879 0.0967246225627 0)
(-0.0509552322092 0.118213644987 0)
(-0.050107076102 0.139361946907 0)
(-0.0491474510954 0.16012272615 0)
(-0.0480785394128 0.180444622754 0)
(-0.0469213438501 0.200288215559 0)
(-0.0456776202887 0.219620997822 0)
(-0.0443653395783 0.238401506552 0)
(-0.0429837030204 0.256608560843 0)
(-0.0415565694252 0.274216568763 0)
(-0.0400739386679 0.291207040929 0)
(-0.0385549356445 0.307571125223 0)
(-0.0369883887987 0.323281439402 0)
(-0.0354044335254 0.338340878538 0)
(-0.0337846671515 0.352712852878 0)
(-0.0321464567877 0.366395297992 0)
(-0.0304700999696 0.379377373153 0)
(-0.0287755793782 0.39164721714 0)
(-0.027040678317 0.40319780548 0)
(-0.0252969470192 0.414017468774 0)
(-0.0235191925888 0.42410191091 0)
(-0.0217426688224 0.433432574121 0)
(-0.0199337459188 0.442041075886 0)
(-0.01811824941 0.449873472475 0)
(-0.0162640621576 0.456912617059 0)
(-0.0144176084722 0.46318842084 0)
(-0.0125451868258 0.468638917783 0)
(-0.0106900408621 0.473312390621 0)
(-0.00880782691526 0.477179523895 0)
(-0.0069659089775 0.480257513842 0)
(-0.00513681887426 0.482584883758 0)
(-0.00337131553443 0.484106862705 0)
(-0.00162846076036 0.484876311601 0)
(1.82727486017e-05 0.484910267704 0)
(0.00160730614705 0.484244225081 0)
(0.00308507311146 0.482914878607 0)
(0.00450529159547 0.480963875277 0)
(0.00580207768406 0.478432541279 0)
(0.00701953356025 0.47537379769 0)
(0.0080790907135 0.47182996093 0)
(0.00908502516514 0.467889577247 0)
(0.00997482345743 0.463527167129 0)
(0.0108374378733 0.458812071025 0)
(0.0116175359104 0.453812090064 0)
(0.0124147744657 0.448503518827 0)
(0.0131742092127 0.442859086605 0)
(0.0140047455397 0.436942325971 0)
(0.014845011562 0.430714869856 0)
(0.0157997642528 0.424095192303 0)
(0.0167829795164 0.417099301906 0)
(0.0178817999926 0.409685579836 0)
(0.0190146017518 0.401828693753 0)
(0.0202615412319 0.393491984754 0)
(0.0215152502179 0.384643990921 0)
(0.0228453861901 0.375265453422 0)
(0.0241356436092 0.365351802429 0)
(0.0254386456804 0.35490714283 0)
(0.0266406567066 0.343948992151 0)
(0.0277972041087 0.332508015185 0)
(0.0288038560841 0.32062524918 0)
(0.0297016030829 0.308362994613 0)
(0.0303985606218 0.295808770219 0)
(0.0309545551333 0.283005204709 0)
(0.0312941230482 0.270023861143 0)
(0.0314852164585 0.256947695023 0)
(0.0314690536868 0.243854018217 0)
(0.0313044110386 0.230744683992 0)
(0.030958087203 0.217813481195 0)
(0.0304945841367 0.20507170608 0)
(0.0298699660895 0.192502228558 0)
(0.0291630799201 0.180303872247 0)
(0.0283403068484 0.16844625658 0)
(0.0274572221235 0.156956821439 0)
(0.0264969924198 0.145865916416 0)
(0.0255061489997 0.135207381638 0)
(0.0244386371509 0.12485714759 0)
(0.0233880704212 0.115075832232 0)
(0.0222964981506 0.105690288125 0)
(0.0212171122173 0.0967900004596 0)
(0.0201049241624 0.0883297197257 0)
(0.018984415258 0.080303900558 0)
(0.0178097411708 0.0726634144339 0)
(0.0165070548136 0.0654806089898 0)
(0.0150318084437 0.058690925697 0)
(0.0133309343559 0.051858695825 0)
(0.0120538540077 0.0439143998017 0)
(0.0136415799823 0.0411471264891 0)
(0.0162316583507 0.0364893646339 0)
(0.0181183793034 0.0284943589802 0)
(0.0213530105647 0.0209160611818 0)
(0.0252789195526 0.0133578458663 0)
(0.0253600194967 0.004419467323 0)
(-0.067517339335 0.00916628421245 0)
(-0.0750006374653 0.0313759871894 0)
(-0.0750244606632 0.0533900093137 4.27467806418e-27)
(-0.0744123559503 0.0756006004002 0)
(-0.0735692606788 0.0975516343656 0)
(-0.0725313030911 0.119206605762 0)
(-0.0713137415351 0.140512115344 0)
(-0.0699305243872 0.161409655817 0)
(-0.0683998936682 0.181861540077 0)
(-0.0667371612552 0.201818344732 0)
(-0.0649554366403 0.221247200702 0)
(-0.0630725948782 0.24011606412 0)
(-0.0611014540143 0.258399763552 0)
(-0.0590611972182 0.276081860252 0)
(-0.0569536591366 0.29314282328 0)
(-0.0547858857968 0.309554011572 0)
(-0.052564557847 0.325311391604 0)
(-0.0503020819973 0.340400321178 0)
(-0.0479960955066 0.354809746796 0)
(-0.0456551685583 0.368528722591 0)
(-0.0432748581925 0.381548776837 0)
(-0.0408628886036 0.393856246896 0)
(-0.0384069244596 0.405459273703 0)
(-0.0359239271232 0.416313348771 0)
(-0.033414084495 0.426451148672 0)
(-0.0308884176661 0.435841595984 0)
(-0.0283199692968 0.444464638477 0)
(-0.0257153502591 0.452318853552 0)
(-0.0230809211975 0.459379537421 0)
(-0.0204320408579 0.46564560958 0)
(-0.0177623247586 0.471134900513 0)
(-0.0150926012261 0.475788217768 0)
(-0.01241588618 0.479641290072 0)
(-0.00977933893804 0.482690484805 0)
(-0.00717477952687 0.484943153472 0)
(-0.00462543440238 0.486412921062 0)
(-0.00214405399874 0.487109469625 0)
(0.000239068365989 0.487092948627 0)
(0.00251444402514 0.486329031781 0)
(0.0046550973882 0.484892969022 0)
(0.00666121863879 0.48283378622 0)
(0.00849963907256 0.480180654734 0)
(0.0102003528456 0.477084293012 0)
(0.0117289440805 0.473466719684 0)
(0.0131354985735 0.469387195079 0)
(0.0144104683546 0.46498364019 0)
(0.0155955616518 0.46018747559 0)
(0.0166893281489 0.455092894611 0)
(0.0177671934148 0.449716416642 0)
(0.0188342349264 0.444073295785 0)
(0.0199504350586 0.438153903905 0)
(0.0211377862849 0.431944573453 0)
(0.0224452366512 0.425406162504 0)
(0.0238598934993 0.418552696152 0)
(0.0253991273656 0.411230441839 0)
(0.0270294596899 0.403460516973 0)
(0.0287858110692 0.395194263628 0)
(0.0306091553713 0.386390488991 0)
(0.0324931688747 0.377024122989 0)
(0.0343642450971 0.367088239972 0)
(0.0362133247825 0.356584983578 0)
(0.0379608246223 0.345531549332 0)
(0.039598749881 0.333961720885 0)
(0.0410578469844 0.321912545334 0)
(0.0422984379694 0.309450529132 0)
(0.0432839848931 0.296714324766 0)
(0.0440429465714 0.28372064562 0)
(0.0445450229663 0.270532240641 0)
(0.0447934469878 0.257248845235 0)
(0.0447917880693 0.243943490123 0)
(0.0445576268247 0.230680469199 0)
(0.0440684491442 0.217545178537 0)
(0.0433648463629 0.204570913419 0)
(0.0424710630844 0.191922086517 0)
(0.041418664585 0.179580840271 0)
(0.0402327287728 0.167595717968 0)
(0.0389443702429 0.156008024964 0)
(0.0375651905717 0.144852995938 0)
(0.0361437370512 0.134152210087 0)
(0.0346604741649 0.123912648095 0)
(0.0331453968535 0.114128729105 0)
(0.0316334344866 0.104794994533 0)
(0.0300934817149 0.0958231656058 0)
(0.0285569626415 0.0873629566994 0)
(0.0269681853647 0.079169200888 0)
(0.0253928261375 0.071498909234 0)
(0.0237573250923 0.0642494310911 0)
(0.0219072697146 0.057023149634 0)
(0.0200935011845 0.0501148348099 0)
(0.0181383326354 0.0422202493767 0)
(0.0193923831919 0.0376296414412 0)
(0.0225479479939 0.0318289554164 0)
(0.0265891311714 0.0258217421877 0)
(0.0286803100012 0.0173557382234 0)
(0.0322847815316 0.010673349981 0)
(0.0331220368182 0.00370525015724 0)
(-0.0877879425053 0.00923098830761 0)
(-0.0975309071202 0.0317629506048 0)
(-0.0975550561331 0.0540047607193 0)
(-0.0967457724871 0.0764587511581 0)
(-0.0956332395549 0.0986404835947 0)
(-0.0942646140128 0.120512172816 0)
(-0.0926596134463 0.142013425517 0)
(-0.0908437779274 0.163098175 0)
(-0.0888311429207 0.183707077938 0)
(-0.0866483431817 0.203806948391 0)
(-0.084315473836 0.223360878209 0)
(-0.0818538560774 0.242337838041 0)
(-0.0792856532701 0.260720778635 0)
(-0.0766255440263 0.278488123082 0)
(-0.0738751683373 0.295610178426 0)
(-0.0710520587023 0.312082567888 0)
(-0.0681664619938 0.327892589271 0)
(-0.0652267353641 0.343028725746 0)
(-0.0622375053048 0.357484649053 0)
(-0.0592033472805 0.371247642839 0)
(-0.0561219363931 0.384325115175 0)
(-0.0529932519179 0.396677819793 0)
(-0.0498128843548 0.408305991286 0)
(-0.046601687927 0.419220877214 0)
(-0.0433622152038 0.4293978292 0)
(-0.0400745033945 0.438845559412 0)
(-0.0367300124379 0.447488097692 0)
(-0.0333437579691 0.455388251833 0)
(-0.0299137778937 0.46247213498 0)
(-0.0264614329084 0.468757984661 0)
(-0.0229801231055 0.474227013154 0)
(-0.0194941960279 0.478882334813 0)
(-0.0160186947034 0.482717161805 0)
(-0.0125704773314 0.48576972547 0)
(-0.00916119967152 0.487970880101 0)
(-0.00581989629922 0.489367880931 0)
(-0.00258227581308 0.489973924214 0)
(0.000538045095241 0.489804886338 0)
(0.00351004961626 0.488955710546 0)
(0.00630005760299 0.487364273728 0)
(0.00890853931199 0.485235684533 0)
(0.0112975682357 0.482403479265 0)
(0.0134972662132 0.479100697199 0)
(0.0155055100003 0.475260751334 0)
(0.0173058705644 0.471017182348 0)
(0.0189208331365 0.466421986894 0)
(0.0204058390952 0.461520283511 0)
(0.0217839480351 0.456417226769 0)
(0.0231243387781 0.451020350957 0)
(0.0244548744943 0.445404747449 0)
(0.0258383761808 0.439549062929 0)
(0.027328414297 0.433437868344 0)
(0.0289623062882 0.427031263342 0)
(0.0307752899064 0.420263562437 0)
(0.0327723483037 0.413143186072 0)
(0.034916481898 0.405500123168 0)
(0.0372214631247 0.397348278705 0)
(0.0396433757252 0.388618868965 0)
(0.0421302202794 0.379281918519 0)
(0.0446146364107 0.369325263473 0)
(0.0470641957945 0.358752751442 0)
(0.0493912016612 0.347577163454 0)
(0.0515655534895 0.335842255344 0)
(0.0534667332383 0.32358224539 0)
(0.0550269800324 0.310950682331 0)
(0.0563198491741 0.298083429709 0)
(0.0573413962172 0.284828398697 0)
(0.0580258266664 0.271370871827 0)
(0.0583403263564 0.257785467647 0)
(0.0583368897169 0.24415615919 0)
(0.0580215694771 0.230578868058 0)
(0.0573597832451 0.217139914076 0)
(0.0563986971867 0.203942695839 0)
(0.0552035371284 0.191045877744 0)
(0.0538099278037 0.17849115544 0)
(0.0522238457324 0.166285389512 0)
(0.0504913043042 0.154535533011 0)
(0.0486606410464 0.143262761048 0)
(0.0467670184853 0.132464370824 0)
(0.0448100979602 0.122148258256 0)
(0.0428245498961 0.112300177323 0)
(0.0408408608533 0.102898351937 0)
(0.0388866586107 0.0940309681454 0)
(0.0369367005307 0.0855757021524 0)
(0.0349961472387 0.0775281585627 0)
(0.033040427392 0.0698338966559 0)
(0.0311167781581 0.0625136985121 0)
(0.0290440810146 0.0554258673071 0)
(0.0268764445153 0.047957289507 0)
(0.0257730902793 0.0414640412642 0)
(0.0258027935424 0.0336765534953 0)
(0.0285701577571 0.0273268434429 0)
(0.0323090052309 0.0214877982815 0)
(0.0363367817718 0.0153855260681 0)
(0.0372759856031 0.0085502123023 0)
(0.0387685276538 0.00301348457593 0)
(-0.108326025043 0.00930910021328 0)
(-0.120349176508 0.0322541849442 0)
(-0.12036721687 0.0547925757527 0)
(-0.119348481965 0.0775588460314 0)
(-0.117950109803 0.100035342163 0)
(-0.11623209253 0.12218147428 0)
(-0.11422383246 0.143938896405 0)
(-0.111945334058 0.165243592674 0)
(-0.109432789439 0.186058176947 0)
(-0.106709652609 0.206334799886 0)
(-0.103805114025 0.226042730678 0)
(-0.100749540409 0.245152443984 0)
(-0.0975694849139 0.263658946272 0)
(-0.0942671868207 0.281513969406 0)
(-0.0908658499569 0.298720722818 0)
(-0.0873815257976 0.315265834058 0)
(-0.0838249353819 0.331140277921 0)
(-0.0802071459433 0.34633476255 0)
(-0.0765349194088 0.360858188371 0)
(-0.0728033966089 0.374674372633 0)
(-0.0690131321891 0.387789941246 0)
(-0.0651643720712 0.400193966688 0)
(-0.0612686503822 0.411869151614 0)
(-0.0573382758424 0.422856039328 0)
(-0.0533571345882 0.433100581742 0)
(-0.0493014619391 0.442561327523 0)
(-0.0451825737903 0.451286348057 0)
(-0.0410024069819 0.459198354304 0)
(-0.0367703542307 0.466320628629 0)
(-0.0325011187084 0.472635061388 0)
(-0.0282062943149 0.478121572448 0)
(-0.0239033305975 0.482813169451 0)
(-0.0196007692995 0.486632714009 0)
(-0.0153199890141 0.48961585389 0)
(-0.0110803955356 0.49175853578 0)
(-0.00692914686392 0.493062694179 0)
(-0.00290607104277 0.493594320727 0)
(0.000957076474669 0.493277907536 0)
(0.00463697167743 0.492311230032 0)
(0.00810176599588 0.49051980291 0)
(0.011344146034 0.488130919109 0)
(0.0143341101115 0.48506456118 0)
(0.0170462610743 0.481469058177 0)
(0.0194840404775 0.477391073519 0)
(0.0216572865604 0.472985768795 0)
(0.0235918448823 0.468198350156 0)
(0.0253209063197 0.46315945476 0)
(0.0269104038224 0.457914297802 0)
(0.0284492470369 0.452491500534 0)
(0.0299930855964 0.446971244856 0)
(0.0316165788882 0.441209806397 0)
(0.0333745644034 0.435247741509 0)
(0.0353219498093 0.429024088125 0)
(0.0375129106312 0.422457529213 0)
(0.0399620254524 0.415549398216 0)
(0.0426474501553 0.408094323171 0)
(0.0455345896471 0.400106505914 0)
(0.0485843224912 0.391483626792 0)
(0.0517374513384 0.382267124971 0)
(0.0548857423715 0.372296712614 0)
(0.0580310956069 0.36172509813 0)
(0.0609488064839 0.350434755525 0)
(0.0635594000573 0.338470516284 0)
(0.065967467151 0.326410732226 0)
(0.0679717308954 0.313604454774 0)
(0.06965503311 0.300373593551 0)
(0.0709682406859 0.28668959843 0)
(0.0718537519581 0.27291482664 0)
(0.0722589815109 0.25893039636 0)
(0.0722601397744 0.244898436375 0)
(0.0718691713606 0.230970285338 0)
(0.0710447882969 0.21722623602 0)
(0.0698029025847 0.203611904447 0)
(0.0682292339671 0.190293633283 0)
(0.0664617563043 0.177477262764 0)
(0.0644885005126 0.165072198006 0)
(0.0622960878042 0.1530964089 0)
(0.0599177990439 0.141536025797 0)
(0.0575125093339 0.130578509114 0)
(0.0550722213764 0.12017017863 0)
(0.0525704281005 0.110198499778 0)
(0.0501264687617 0.100809213782 0)
(0.0476931361098 0.0918664374074 0)
(0.0452792179487 0.0833255613005 0)
(0.0429334234713 0.0752275196183 0)
(0.0406721029201 0.0675370096353 0)
(0.0383908387686 0.0600804642838 0)
(0.0360730805399 0.0529813808865 0)
(0.0337179344363 0.0454609894957 0)
(0.0336423363767 0.0394112912201 0)
(0.0343548101141 0.0321301996283 0)
(0.0349379879147 0.0241540152454 0)
(0.0375374243882 0.0181036547806 0)
(0.0423337241508 0.013553844891 0)
(0.0427220733709 0.00760459848956 0)
(0.0436191637561 0.00250581931394 0)
(-0.129202004902 0.0094055279616 0)
(-0.143532161074 0.0328605354742 0)
(-0.143534182099 0.0557662094862 4.29245568305e-27)
(-0.142289409131 0.0789188711332 0)
(-0.14058444174 0.101758004222 0)
(-0.138494729778 0.124243324974 0)
(-0.136048948865 0.146304622348 0)
(-0.133284752938 0.167884589605 0)
(-0.13024328937 0.188942462249 0)
(-0.126952077167 0.209430330033 0)
(-0.123452753135 0.229318911026 0)
(-0.119786685424 0.248598621421 0)
(-0.115960534137 0.267221514708 0)
(-0.112004160227 0.285188921692 0)
(-0.107940410402 0.302490815436 0)
(-0.103784113041 0.319118514955 0)
(-0.0995514401074 0.335064571091 0)
(-0.0952556907637 0.350338999154 0)
(-0.0908870725862 0.36491023919 0)
(-0.0864528298446 0.378787153323 0)
(-0.0819559947038 0.391962601206 0)
(-0.0773957962359 0.404423157758 0)
(-0.0727994694449 0.416181545048 0)
(-0.0681499075774 0.42724846121 0)
(-0.0634032995991 0.437548365971 0)
(-0.0585782257021 0.447076199745 0)
(-0.0536751678963 0.455835686239 0)
(-0.0486968927542 0.463803308924 0)
(-0.0436637710868 0.470975878903 0)
(-0.0385838242006 0.477327084224 0)
(-0.0334637509311 0.482877690321 0)
(-0.0283079426112 0.487543285843 0)
(-0.0231415015989 0.491351728631 0)
(-0.0180076121815 0.494296758426 0)
(-0.0129312219811 0.496369334354 0)
(-0.00795516818966 0.497611862878 0)
(-0.00311913366107 0.498001235009 0)
(0.00152702694907 0.497560817579 0)
(0.00597178631524 0.496336746545 0)
(0.0101773242742 0.494300603481 0)
(0.0140766901152 0.491574895256 0)
(0.0176442992688 0.488205157007 0)
(0.0208652513536 0.484350679853 0)
(0.023727424575 0.479964311477 0)
(0.0262364281869 0.475219515736 0)
(0.0284289972062 0.470182184768 0)
(0.0303667072441 0.465015300825 0)
(0.0321179492814 0.459647541141 0)
(0.0337753006079 0.454193243858 0)
(0.0354420393818 0.44866400047 0)
(0.0372221527141 0.443029954924 0)
(0.0391969913125 0.437334797331 0)
(0.0414365109607 0.431362297766 0)
(0.0439876104116 0.425085000429 0)
(0.0468996682095 0.418473884122 0)
(0.050136601621 0.411283090967 0)
(0.0536593428416 0.403593332319 0)
(0.0574109166851 0.395121094917 0)
(0.0613146833971 0.385993362843 0)
(0.0651506055292 0.376053958479 0)
(0.0688275179404 0.365310867863 0)
(0.0724379075763 0.354537703144 0)
(0.0756967514992 0.342598183219 0)
(0.0786919550565 0.330134739597 0)
(0.0813036218405 0.316924148464 0)
(0.0833772972274 0.303061060311 0)
(0.0850371577154 0.289037237061 0)
(0.0861553661427 0.27476677055 0)
(0.0866329993876 0.260182765296 0)
(0.0866136483007 0.245640791349 0)
(0.0860852368487 0.231227079958 0)
(0.0850548827432 0.217045156213 0)
(0.0835748109683 0.203083809964 0)
(0.081693415197 0.189522531928 0)
(0.0794028703881 0.176196965565 0)
(0.0769437982118 0.163522489479 0)
(0.0742754985373 0.15134136751 0)
(0.0714541208954 0.139725392588 0)
(0.0684695911246 0.128534155354 0)
(0.0654806012864 0.1180080433 0)
(0.0624529913072 0.107953920909 0)
(0.0594780846856 0.098461791886 0)
(0.0566127199406 0.0895111182743 0)
(0.0537677435923 0.0809372138215 0)
(0.0510091959188 0.0727876095292 0)
(0.048337321421 0.0649500384729 0)
(0.0457967767363 0.0574564249381 0)
(0.0432831293037 0.0501022644987 0)
(0.0408775116402 0.0425680813915 0)
(0.0398714677103 0.0353415416989 0)
(0.0414672645975 0.0294090295261 0)
(0.042518803496 0.0226410155065 0)
(0.0423011008089 0.0155144827486 0)
(0.046431545938 0.0114296142705 0)
(0.0479469368348 0.00694722477376 0)
(0.048217266609 0.00219878834943 0)
(-0.150486335126 0.00952082640615 0)
(-0.167160597168 0.0335927011252 0)
(-0.167134210103 0.0569427344654 -4.2901268953e-27)
(-0.165641207755 0.0805598337196 0)
(-0.163602061351 0.10383493634 0)
(-0.161106186517 0.12672152038 0)
(-0.158190781653 0.149145291997 0)
(-0.154904621719 0.171048878384 0)
(-0.151298819402 0.192390327524 0)
(-0.147407586041 0.213120901364 0)
(-0.143287154679 0.233224857297 0)
(-0.138966820374 0.252669772307 0)
(-0.134475040183 0.271437581525 0)
(-0.129846749067 0.289528136377 0)
(-0.125106074789 0.306934763203 0)
(-0.120269388085 0.323650472315 0)
(-0.115356556762 0.339687350757 0)
(-0.110363672097 0.355018510356 0)
(-0.105298787107 0.369657276165 0)
(-0.100165682639 0.38360025248 0)
(-0.0949625549852 0.396842329225 0)
(-0.0897086515598 0.409364655199 0)
(-0.0844173235776 0.421258510693 0)
(-0.0790156921883 0.432340162581 0)
(-0.0735143131942 0.442725806678 0)
(-0.067914584389 0.45233002523 0)
(-0.0622282062153 0.461168306975 0)
(-0.0564618422328 0.469210847126 0)
(-0.0506245243531 0.476481933248 0)
(-0.0447112657169 0.482889644752 0)
(-0.0387322030246 0.488449768154 0)
(-0.0327040498815 0.4931374304 0)
(-0.0266695525547 0.496937766648 0)
(-0.0206583011147 0.49988416399 0)
(-0.0147061244684 0.501880459037 0)
(-0.00886603912603 0.503011288594 0)
(-0.00317437988542 0.503236579201 0)
(0.00232285128321 0.502596111358 0)
(0.00759449996191 0.50106254522 0)
(0.0125547977933 0.498721694891 0)
(0.0171368528348 0.495696640035 0)
(0.0213042435339 0.491947181104 0)
(0.0250388753495 0.487640798606 0)
(0.028314097669 0.482856503026 0)
(0.0311296579185 0.477790088541 0)
(0.0335268497156 0.472425059786 0)
(0.0355910049818 0.466942625733 0)
(0.0374082861198 0.46142124803 0)
(0.0390797283273 0.455911745104 0)
(0.0407769473114 0.450521562898 0)
(0.0426041077866 0.44506808271 0)
(0.0447158585194 0.439663654015 0)
(0.0472006138552 0.434034531074 0)
(0.050115933766 0.42822983249 0)
(0.0534951164348 0.421926851836 0)
(0.0573288770118 0.415187194593 0)
(0.0615487453137 0.407718590836 0)
(0.0660930721664 0.399474049495 0)
(0.070649500182 0.39046038126 0)
(0.0751584617996 0.380919516835 0)
(0.0796377946853 0.370675489271 0)
(0.083974730832 0.359307302852 0)
(0.0880770130042 0.347033427805 0)
(0.0918004924348 0.334001453857 0)
(0.0950389063417 0.320328062084 0)
(0.097687075853 0.306193818937 0)
(0.0996232090726 0.291320821847 0)
(0.100972312002 0.276486525617 0)
(0.101538534043 0.261265180715 0)
(0.101445384564 0.246081464896 0)
(0.100823700594 0.231261545537 0)
(0.0994782596526 0.216397121077 0)
(0.0976480403476 0.201978869188 0)
(0.0953704880604 0.187994548634 0)
(0.0926839861408 0.174480974181 0)
(0.0896812434795 0.161483615853 0)
(0.0864644087517 0.14907979466 0)
(0.0829809363748 0.137109236231 0)
(0.0794752953688 0.125894610923 0)
(0.0759409929349 0.115272014506 0)
(0.072328910724 0.105123491017 0)
(0.0688507924647 0.095627822871 0)
(0.0654421501009 0.0866100725124 0)
(0.0621918836899 0.0781195510469 0)
(0.0590835779367 0.0700688138087 0)
(0.0561378907142 0.062332958615 0)
(0.0534703155189 0.0549480176497 0)
(0.0507810145767 0.0474755879881 0)
(0.0483692554414 0.0399917653629 0)
(0.046810326114 0.0325589733316 0)
(0.0470648294439 0.0261531715995 0)
(0.0489701733592 0.0208489738802 0)
(0.0492573202142 0.0146396242189 0)
(0.0489872308296 0.00941439370043 0)
(0.0524225250598 0.00596027478211 0)
(0.0521304476836 0.00189981032791 0)
(-0.172260864735 0.00965875143518 0)
(-0.191323592953 0.034464634425 0)
(-0.191252286679 0.0583427134428 0)
(-0.189483016212 0.0825109619938 0)
(-0.187077451056 0.106301310628 0)
(-0.184130827387 0.129655293337 0)
(-0.180702116976 0.15250083191 0)
(-0.176849216306 0.174775834963 0)
(-0.172634842752 0.196438696675 0)
(-0.168103338972 0.21744291619 0)
(-0.163316713538 0.237776081518 0)
(-0.158312531569 0.257410040324 0)
(-0.153130389944 0.276335553204 0)
(-0.147813333055 0.29456682455 0)
(-0.142374321678 0.312078923662 0)
(-0.136841961384 0.328885931036 0)
(-0.131227558199 0.344988331427 0)
(-0.125538150202 0.360391079893 0)
(-0.119779070627 0.375100077749 0)
(-0.11394855796 0.389115967777 0)
(-0.108053251744 0.402422175612 0)
(-0.102122205891 0.415087566891 0)
(-0.096095537065 0.426998360033 0)
(-0.0899579605496 0.438205980638 0)
(-0.0837039993432 0.448656649358 0)
(-0.0773384946198 0.458359315349 0)
(-0.0708770436744 0.467288440103 0)
(-0.0643229905704 0.475458975927 0)
(-0.0576532942461 0.482781151205 0)
(-0.0508825605058 0.489266857797 0)
(-0.0440309115095 0.4948852639 0)
(-0.0371253617085 0.499607075633 0)
(-0.030197363161 0.503456850094 0)
(-0.0232663258922 0.506330066698 0)
(-0.0163959897243 0.508297690927 0)
(-0.00963497142729 0.509302559723 0)
(-0.00301276571563 0.509357360338 0)
(0.00340091125871 0.508427929503 0)
(0.00952472256059 0.506584782662 0)
(0.0152817479858 0.503934224559 0)
(0.0206087885711 0.500415396338 0)
(0.0254231523132 0.496200107417 0)
(0.029666237199 0.49137587344 0)
(0.0333327022327 0.486149307422 0)
(0.0364302507301 0.4805264193 0)
(0.038977915108 0.474741962565 0)
(0.0410533884762 0.468912316262 0)
(0.0428094031708 0.463241625937 0)