/*--------------------------------*- C++ -*----------------------------------*\
| =========                 |                                                 |
| \\      /  F ield         | OpenFOAM: The Open Source CFD Toolbox           |
|  \\    /   O peration     | Version:  v1906                                 |
|   \\  /    A nd           | Web:      www.OpenFOAM.com                      |
|    \\/     M anipulation  |                                                 |
\*---------------------------------------------------------------------------*/
FoamFile
{
    version     2.0;
    format      ascii;
    class       volScalarField;
    location    "810";
    object      pa;
}
// * * * * * * * * * * * * * * * * * * * * * * * * * * * * * * * * * * * * * //

dimensions      [0 2 -2 0 0 0 0];


internalField   nonuniform List<scalar> 
9216
(
-206.772279343
-206.970153747
-207.371651897
-207.977433114
-208.783905357
-209.786658462
-210.980246967
-212.358295816
-213.913595208
-215.638201393
-217.523538907
-219.560505496
-221.739574348
-224.050895134
-226.484388412
-229.029836099
-231.676962802
-234.415511945
-237.235311697
-240.126335727
-243.078753824
-246.082978263
-249.129700761
-252.209926498
-255.314999685
-258.436627527
-261.566896574
-264.698288563
-267.823689031
-270.936396692
-274.03012616
-277.09901126
-280.137602262
-283.140864703
-286.104172022
-289.023300396
-291.894417622
-294.714074769
-297.479192111
-300.187048387
-302.83526455
-305.421791379
-307.94489173
-310.403127143
-312.795339167
-315.120635488
-317.378370784
-319.568132771
-321.689722939
-323.743142811
-325.728574833
-327.646369064
-329.49702443
-331.28117602
-332.999576924
-334.653086273
-336.242651917
-337.769299389
-339.234115783
-340.638239884
-341.982847756
-343.269144426
-344.498351868
-345.671702761
-346.790431705
-347.855771624
-348.868949016
-349.831183434
-350.743687177
-351.607667767
-352.424331685
-353.194888889
-353.920559117
-354.602576572
-355.242196466
-355.840697677
-356.399387276
-356.919599742
-357.402698553
-357.850072427
-358.263135318
-358.643322771
-358.992094689
-359.310938648
-359.601385214
-359.865033689
-360.103607774
-360.319043348
-360.514330181
-360.687047258
-360.822744458
-360.917816336
-360.980531227
-361.017453318
-361.035419517
-361.041552469
-206.574758872
-206.773767134
-207.17697064
-207.78593126
-208.596721055
-209.604804225
-210.804635487
-212.189743157
-213.752818322
-215.485815231
-217.380055635
-219.42633524
-221.615028437
-223.936190414
-226.379653503
-228.935117923
-231.592234401
-234.340679814
-237.170223873
-240.070788828
-243.03250053
-246.045733399
-249.101147737
-252.18972223
-255.302779952
-258.432010811
-261.569488485
-264.707684808
-267.839479532
-270.958167899
-274.057464085
-277.13150349
-280.174840886
-283.182447762
-286.149706023
-289.072401312
-291.946713019
-294.76920437
-297.536809548
-300.246821357
-302.896876238
-305.484940252
-308.009292684
-310.468510998
-312.861453608
-315.187244318
-317.445254714
-319.635088492
-321.756563811
-323.809697789
-325.794689087
-327.711902791
-329.561853417
-331.345190354
-333.062681481
-334.715199328
-336.303705512
-337.82923782
-339.292895765
-340.69582888
-342.039223831
-343.324294374
-344.552270651
-345.724391425
-346.841896346
-347.906021188
-348.917993881
-349.879033331
-350.790349677
-351.653146751
-352.468626196
-353.237992628
-353.962460091
-354.643257889
-355.281636869
-355.878873385
-356.436272955
-356.955170564
-357.436930656
-357.882943964
-358.294625117
-358.673408696
-359.020748354
-359.338117585
-359.627017331
-359.88898982
-360.125642413
-360.338666192
-360.530012914
-360.700577232
-360.835624771
-360.928887344
-360.989853973
-361.02492951
-361.041664828
-361.04787708
-206.171604818
-206.373378687
-206.780978772
-207.396508309
-208.215945434
-209.234629109
-210.446854286
-211.845970277
-213.424476184
-215.174126526
-217.086040746
-219.150814057
-221.358626385
-223.699347575
-226.162636551
-228.738033606
-231.415044393
-234.183215719
-237.032202446
-239.951826326
-242.932126557
-245.963403336
-249.036254411
-252.141606055
-255.270738402
-258.415306525
-261.56735699
-264.719341104
-267.864124426
-270.994993514
-274.105659512
-277.190259384
-280.243354222
-283.259925704
-286.235369938
-289.165489861
-292.046485404
-294.874942639
-297.647821096
-300.362440484
-303.016465959
-305.607893202
-308.135032348
-310.59649207
-312.991162762
-315.318200139
-317.577008129
-319.767222368
-321.888693131
-323.941469012
-325.925780122
-327.84202216
-329.690740065
-331.472612632
-333.188436772
-334.839112818
-336.425629575
-337.949050502
-339.410499792
-340.811149731
-342.152208204
-343.434907692
-344.660494818
-345.830221669
-346.945338214
-348.007086816
-349.016698445
-349.975391195
-350.884370933
-351.744834101
-352.557972577
-353.324979882
-354.047058614
-354.725427735
-355.361329634
-355.956035316
-356.510848051
-357.027104057
-357.506171288
-357.949445459
-358.358345062
-358.734305037
-359.078771324
-359.393196405
-359.679038326
-359.937763665
-360.170856784
-360.379833945
-360.566391674
-360.732192813
-360.86281166
-360.952251135
-361.009301306
-361.041955721
-361.058611643
-361.065871024
-205.557658322
-205.763042888
-206.177424896
-206.80308548
-207.635839445
-208.670825263
-209.902093244
-211.322717061
-212.924899022
-214.700084684
-216.639080683
-218.732172875
-220.969241673
-223.339872304
-225.833457979
-228.439294797
-231.14666741
-233.944925276
-236.823549385
-239.772210014
-242.780815961
-245.839556255
-248.938934981
-252.069800317
-255.223368323
-258.391242413
-261.565428799
-264.738348532
-267.902846299
-271.052196334
-274.180105572
-277.280714079
-280.348592964
-283.378740111
-286.366573607
-289.307923384
-292.199020959
-295.03648781
-297.817322293
-300.53888563
-303.198886845
-305.795367172
-308.326683761
-310.791493171
-313.188734433
-315.517612144
-317.777579326
-319.968320492
-322.089734607
-324.141918388
-326.125149587
-328.0398707
-329.886672734
-331.66627945
-333.379531733
-335.027372495
-336.61083177
-338.131012422
-339.589076171
-340.986230359
-342.323715254
-343.602792342
-344.824733505
-345.990811598
-347.102292432
-348.160428675
-349.166455804
-350.121590479
-351.027031457
-351.883963082
-352.693561227
-353.457001144
-354.175466675
-354.850159671
-355.482308789
-356.073176289
-356.624062302
-357.136305638
-357.611281417
-358.050395367
-358.455075754
-358.826763285
-359.166900155
-359.476918643
-359.758230262
-360.012215762
-360.240217124
-360.443535675
-360.623521139
-360.781726409
-360.905871546
-360.989505029
-361.042931143
-361.074698253
-361.092407973
-361.100591655
-204.729609922
-204.939782545
-205.363414214
-206.002904159
-206.853828244
-207.911040279
-209.168250274
-210.618150122
-212.252531944
-214.062415306
-216.038176671
-218.169677808
-220.446389883
-222.857510694
-225.392073116
-228.039043504
-230.787409323
-233.626255899
-236.544832514
-239.532608555
-242.579320576
-245.675011389
-248.810062241
-251.97521922
-255.161614743
-258.360784961
-261.564683582
-264.765692505
-267.956629567
-271.13075356
-274.281766641
-277.403813957
-280.491480883
-283.539787951
-286.54418357
-289.500534804
-292.40511636
-295.254598094
-298.046031192
-300.776833344
-303.44477304
-306.047953274
-308.584794731
-311.054018712
-313.45462982
-315.785898605
-318.04734416
-320.238716841
-322.359981059
-324.411298303
-326.393010315
-328.305622564
-330.14978793
-331.926290722
-333.636030945
-335.280008941
-336.859310305
-338.375091232
-339.828564219
-341.220984308
-342.553635858
-343.827820106
-345.04484361
-346.206007928
-347.312600779
-348.365889126
-349.367114556
-350.317491378
-351.218207776
-352.070430153
-352.87531064
-353.633997212
-354.347645701
-355.017432303
-355.644565245
-356.230293954
-356.775914561
-357.282770874
-357.752250706
-358.185777803
-358.584800094
-358.950774918
-359.285151939
-359.58935398
-359.86475561
-360.112658387
-360.334260296
-360.530619129
-360.702596389
-360.851649584
-360.967036082
-361.045467989
-361.096744098
-361.128872099
-361.148134496
-361.157297352
-203.682621822
-203.898898914
-204.334393531
-204.991629255
-205.865860116
-206.951560445
-208.241991305
-209.7293436
-211.404873369
-213.259045593
-215.281678952
-217.462087693
-219.789217002
-222.251769163
-224.838318536
-227.53741419
-230.337669654
-233.227839915
-236.196886239
-239.234029852
-242.328795749
-245.471048103
-248.651018725
-251.859329931
-255.087012946
-258.325522711
-261.566749664
-264.803028722
-268.027145829
-271.232341989
-274.412314789
-277.561217149
-280.673653723
-283.744674897
-286.769768557
-289.744849834
-292.666249061
-295.530698212
-298.335316083
-301.077592473
-303.755371605
-306.366834985
-308.910483895
-311.385121659
-313.789835795
-316.12398018
-318.387157263
-320.57920043
-322.700156526
-324.750268619
-326.729958983
-328.639812363
-330.480559509
-332.253061001
-333.958291346
-335.597323376
-337.17131292
-338.681483776
-340.129112983
-341.515516466
-342.842035103
-344.110021382
-345.32082681
-346.475790414
-347.576228663
-348.623427368
-349.618636059
-350.563065527
-351.457889037
-352.304247662
-353.103259792
-353.856034388
-354.563687001
-355.227356814
-355.848222683
-356.427515847
-356.966527506
-357.466610087
-357.929172054
-358.355666797
-358.747576563
-359.106392364
-359.433590548
-359.73060611
-359.998801858
-360.239430864
-360.453586639
-360.642134695
-360.805586469
-360.94457288
-361.051052942
-361.125586525
-361.175703142
-361.209705592
-361.230599661
-361.240565503
-202.41052892
-202.634353813
-203.084529342
-203.763723013
-204.666774546
-205.787670558
-207.119098414
-208.652611977
-210.378788901
-212.287395816
-214.367552634
-216.607891397
-218.996705677
-221.522087604
-224.17205059
-226.934636703
-229.798008473
-232.750525553
-235.780807278
-238.877782613
-242.03072929
-245.229304104
-248.463566306
-251.723995836
-255.001507763
-258.287463939
-261.573682381
-264.852444471
-268.116500219
-271.359071408
-274.573852113
-277.755006585
-280.897164686
-283.995414822
-287.045294533
-290.042778985
-292.98426762
-295.866569284
-298.686886132
-301.442796608
-304.132237745
-306.753487045
-309.305144082
-311.786112022
-314.195579126
-316.533000363
-318.798079171
-320.990749426
-323.111157655
-325.15964551
-327.136732535
-329.043099227
-330.879570387
-332.647098767
-334.346748987
-335.979681708
-337.547138021
-339.05042405
-340.490895724
-341.869943764
-343.188978884
-344.449417351
-345.652667066
-346.800114497
-347.893112882
-348.932972365
-349.920952799
-350.858260149
-351.746047437
-352.585420965
-353.377452323
-354.123195758
-354.82370987
-355.480081225
-356.093446923
-356.665012667
-357.196063492
-357.687965556
-358.142158913
-358.560142501
-358.943452861
-359.293638108
-359.612228157
-359.900701535
-360.160447882
-360.39272303
-360.598589648
-360.778831668
-360.933797683
-361.063404677
-361.163264024
-361.235204646
-361.285666913
-361.321033849
-361.342893048
-361.353001493
-200.905708284
-201.138668725
-201.606605606
-202.312350711
-203.250221367
-204.413589502
-205.794422838
-207.38348029
-209.170497671
-211.144380119
-213.293390893
-215.605331173
-218.067706413
-220.667876189
-223.393185717
-226.23107825
-229.169188493
-232.195417939
-235.297993706
-238.465512977
-241.686975531
-244.951807029
-248.249875638
-251.571504239
-254.907479957
-258.249062078
-261.587988836
-264.916482839
-268.227255165
-271.51350785
-274.768933426
-277.987711999
-281.164505643
-284.294450111
-287.373144032
-290.396635865
-293.361408954
-296.264365035
-299.102806581
-301.874418306
-304.577248142
-307.209687929
-309.770454002
-312.258567828
-314.673336789
-317.014335173
-319.281385427
-321.474539708
-323.59406174
-325.640409
-327.614215248
-329.516273381
-331.347518615
-333.109011968
-334.801924017
-336.427518862
-337.987138274
-339.482185923
-340.914111658
-342.284395765
-343.59453321
-344.846017903
-346.040327131
-347.178906475
-348.263155673
-349.29441623
-350.273961736
-351.202992271
-352.082634278
-352.913947396
-353.697939208
-354.435588025
-355.127872413
-355.775804389
-356.380461757
-356.943014241
-357.464738977
-357.947022849
-358.391352264
-358.799292708
-359.172460873
-359.512491702
-359.821002079
-360.099552225
-360.349604991
-360.572481131
-360.769305964
-360.940940036
-361.087872363
-361.210122168
-361.306277862
-361.378019232
-361.430181343
-361.465763957
-361.487708702
-361.496233259
-199.158938216
-199.402798765
-199.891908336
-200.629279962
-201.608578486
-202.822408701
-204.261844865
-205.916664775
-207.775572026
-209.826422803
-212.056444988
-214.45244333
-217.000985825
-219.688568257
-222.501755313
-225.427297902
-228.452227297
-231.563927612
-234.75018883
-237.999243294
-241.299789032
-244.641003488
-248.012551162
-251.404588101
-254.807765421
-258.213233025
-261.612643774
-264.998157476
-268.36244416
-271.698686413
-275.000578077
-278.262320669
-281.4786167
-284.644659992
-287.75612321
-290.809142962
-293.800302886
-296.726615184
-299.585501061
-302.374770467
-305.092601494
-307.737519692
-310.308377489
-312.804333861
-315.2248343
-317.56959115
-319.83856432
-322.031942382
-324.150124069
-326.193700166
-328.163435795
-330.060253081
-331.885214183
-333.639504649
-335.324417053
-336.941334822
-338.491716184
-339.977078099
-341.398980076
-342.759007731
-344.05875599
-345.299811921
-346.483737195
-347.612050494
-348.686210269
-349.707598806
-350.677508785
-351.597134238
-352.46756805
-353.289808411
-354.064776388
-354.793345379
-355.476381561
-356.114791042
-356.70956699
-357.261828145
-357.77284131
-358.244023949
-358.676928752
-359.073215197
-359.434612757
-359.762879325
-360.059757352
-360.326929859
-360.565978553
-360.778344092
-360.965287422
-361.127852572
-361.266835178
-361.382802483
-361.476081504
-361.548114998
-361.601328491
-361.637631573
-361.660111035
-361.668657736
-197.159223378
-197.415968845
-197.930077013
-198.704753026
-199.732849285
-201.006016992
-202.514226608
-204.246052309
-206.188941092
-208.329482631
-210.65366544
-213.147112255
-215.795289549
-218.583688399
-221.497975614
-224.524115377
-227.648462662
-230.85783062
-234.139534956
-237.481419153
-240.871865057
-244.299793663
-247.754660852
-251.22645204
-254.705678513
-258.183376653
-261.651109866
-265.100971924
-268.525590269
-271.918128878
-275.272286524
-278.582292772
-281.84290018
-285.049373004
-288.197472739
-291.283440939
-294.30397989
-297.256231727
-300.137756558
-302.946510107
-305.68082126
-308.339369816
-310.921164617
-313.42552215
-315.852045679
-318.200604889
-320.471316045
-322.664522641
-324.780776533
-326.82081953
-328.785565459
-330.676082653
-332.493576873
-334.239374585
-335.914906551
-337.521691609
-339.061320536
-340.535439805
-341.945735049
-343.293914013
-344.58168877
-345.810757013
-346.982782328
-348.09937355
-349.162063566
-350.172288515
-351.131368816
-352.040494523
-352.900718096
-353.712958624
-354.478021334
-355.196635112
-355.869507792
-356.497394002
-357.081165127
-357.62186708
-358.120753521
-358.579287029
-358.999114204
-359.382024614
-359.729901594
-360.044669439
-360.328239763
-360.582460236
-360.809071243
-361.009671683
-361.185693458
-361.33838649
-361.468822956
-361.577947751
-361.666682362
-361.736398374
-361.788877522
-361.825817956
-361.848995039
-361.859566735
-194.893577002
-195.165468021
-195.708919584
-196.527330083
-197.612539363
-198.955013319
-200.543360559
-202.364682583
-204.404902807
-206.649089984
-209.081759138
-211.687142247
-214.449423788
-217.352939081
-220.382335261
-223.52269599
-226.759631993
-230.079340336
-233.468636343
-236.91496311
-240.406384575
-243.93156876
-247.479767697
-251.040799554
-254.605036523
-258.163399688
-261.707359667
-265.22894097
-268.720726905
-272.175863689
-275.588059241
-278.951578918
-282.261236514
-285.512381065
-288.700879937
-291.823098817
-294.875879396
-297.856515496
-300.762728395
-303.592641968
-306.344758099
-309.017932681
-311.611352338
-314.124511943
-316.557192876
-318.909442009
-321.181551314
-323.37403808
-325.487625689
-327.523224931
-329.481915842
-331.364930069
-333.173633707
-334.909510578
-336.574145878
-338.169210037
-339.696442667
-341.157636332
-342.554619891
-343.889241044
-345.163347737
-346.378768006
-347.537287921
-348.640627486
-349.690414555
-350.688157619
-351.635218913
-352.532790986
-353.381880974
-354.183308858
-354.937726632
-355.645664331
-356.307605521
-356.924085953
-357.495799672
-358.023687843
-358.50898889
-358.953233739
-359.358202482
-359.725863071
-360.058304915
-360.357671691
-360.62609453
-360.865628797
-361.078207712
-361.265613418
-361.429461877
-361.571200017
-361.69212185
-361.793415381
-361.87624536
-361.941927032
-361.991908597
-362.027586116
-362.050241241
-362.060995023
-192.346748345
-192.636392567
-193.214183275
-194.083698105
-195.235509859
-196.658606992
-198.339915766
-200.264736457
-202.417148846
-204.780401787
-207.3372674
-210.07035202
-212.962360015
-215.996309896
-219.155704078
-222.424654637
-225.787968019
-229.231192317
-232.740631794
-236.303334795
-239.907062843
-243.540249968
-247.191961504
-250.85186018
-254.510184355
-258.157739411
-261.785899155
-265.386614334
-268.952421359
-272.476448887
-275.952418552
-279.374640405
-282.738002541
-286.037955546
-289.270492479
-292.432125315
-295.519858851
-298.531163134
-301.463945368
-304.316522087
-307.087592136
-309.776210748
-312.381764819
-314.903949336
-317.342744836
-319.69839576
-321.971389583
-324.162436619
-326.272450467
-328.302529052
-330.253936282
-332.128084281
-333.92651622
-335.650889671
-337.302960426
-338.884566619
-340.39761298
-341.844054899
-343.225881983
-344.545100571
-345.803714709
-347.00370485
-348.147003651
-349.235468184
-350.270848223
-351.254750879
-352.188602863
-353.073613761
-353.91074587
-354.700699911
-355.443928106
-356.140687511
-356.791141527
-357.395505344
-357.954210792
-358.468046621
-358.938238427
-359.366425253
-359.754579633
-360.104913319
-360.419788563
-360.701634496
-360.952862929
-361.175783055
-361.372550343
-361.545145428
-361.695369987
-361.824849844
-361.935052713
-362.027323367
-362.102936145
-362.16316423
-362.209270761
-362.242428546
-362.263637487
-362.273849515
-189.500880341
-189.811324743
-190.42927129
-191.358439021
-192.587804868
-194.104506472
-195.893385316
-197.93753596
-200.218808912
-202.718281004
-205.416671636
-208.294698101
-211.333368496
-214.514214435
-217.819467341
-221.232182297
-224.736313261
-228.316743611
-231.9592771
-235.650596466
-239.378199701
-243.130326536
-246.895888535
-250.664414483
-254.426017923
-258.171387347
-261.891792866
-265.579103019
-269.225801499
-272.824998463
-276.370433831
-279.856472576
-283.278092483
-286.630865488
-289.910933686
-293.114981206
-296.240203321
-299.284274223
-302.245314744
-305.12186103
-307.912834769
-310.617515257
-313.235513245
-315.766746396
-318.211416063
-320.569985148
-322.843156824
-325.031853995
-327.137199431
-329.160496555
-331.103210902
-332.966952267
-334.753457556
-336.464574309
-338.102244828
-339.668490769
-341.165397976
-342.595101224
-343.959768446
-345.261583799
-346.502728842
-347.685360788
-348.811586718
-349.883432434
-350.902804731
-351.871446418
-352.790884365
-353.662373582
-354.486843787
-355.264860939
-355.996623063
-356.682013511
-357.320734668
-357.912523926
-358.457417491
-358.955977994
-359.409434842
-359.81960784
-360.1887525
-360.519412677
-360.814307776
-361.076236097
-361.307970326
-361.512124885
-361.691100655
-361.847082427
-361.982053567
-362.097800588
-362.195929953
-362.277892415
-362.345016504
-362.398541055
-362.439612836
-362.469249556
-362.488275345
-362.497485019
-186.335077013
-186.669929741
-187.334892229
-188.333749544
-189.653450779
-191.278799183
-193.192041035
-195.373563983
-197.802523334
-200.457409641
-203.316535017
-206.358434729
-209.562187381
-212.907660742
-216.375690677
-219.948199253
-223.608256338
-227.34008816
-231.129037377
-234.961482414
-238.824728694
-242.706889314
-246.596775348
-250.483813893
-254.358004409
-258.2099126
-262.030690335
-265.812108165
-269.546586281
-273.227212881
-276.847750758
-280.402631812
-283.88694193
-287.296398131
-290.627319381
-293.876592556
-297.041635367
-300.120358219
-303.111126764
-306.012726454
-308.824329753
-311.545466186
-314.175994949
-316.716079636
-319.166164597
-321.526952491
-323.79938274
-325.98461071
-328.083987552
-330.099040726
-332.031455248
-333.883055743
-335.655789346
-337.351709466
-338.972960376
-340.521762483
-342.000398092
-343.411197265
-344.756523339
-346.038757317
-347.260280233
-348.423452095
-349.530585786
-350.583913662
-351.585544452
-352.537408004
-353.441185972
-354.298229959
-355.109471772
-355.875343058
-356.595729924
-357.270009026
-357.897211689
-358.476348168
-359.006842601
-359.488908848
-359.92383699
-360.313767193
-360.661379727
-360.969665753
-361.2418022
-361.481062702
-361.690698791
-361.873688032
-362.032685119
-362.170068636
-362.287996452
-362.388399366
-362.472998334
-362.543318646
-362.600715587
-362.646396214
-362.681424593
-362.706707652
-362.722952937
-362.730828108
-182.824852248
-183.188446477
-183.908624975
-184.989103612
-186.414226422
-188.165827622
-190.222905014
-192.562515458
-195.160556257
-197.992446894
-201.033690546
-204.260319305
-207.649235246
-211.178462271
-214.827321706
-218.576540215
-222.408293982
-226.306190379
-230.255189111
-234.24146967
-238.252260419
-242.275654133
-246.300441321
-250.315991065
-254.31219668
-258.279483116
-262.208854407
-266.091954644
-269.921121657
-273.689415078
-277.390625634
-281.019266875
-284.570555332
-288.040381967
-291.425276279
-294.722364574
-297.929324792
-301.044340725
-304.066058153
-306.993544559
-309.826253168
-312.563991194
-315.206891624
-317.755387703
-320.210189275
-322.572260332
-324.842797377
-327.023208391
-329.115092378
-331.120219571
-333.040512413
-334.878027458
-336.634938315
-338.313519709
-339.916132646
-341.44521061
-342.903246587
-344.292780575
-345.616387099
-346.876661916
-348.0762069
-349.217611393
-350.303427923
-351.336138926
-352.318110707
-353.251528923
-354.13831124
-354.979991655
-355.777580447
-356.531410838
-357.241014051
-357.905090419
-358.521686027
-359.088675828
-359.604510881
-360.068825129
-360.483137114
-360.850186207
-361.173300782
-361.456054548
-361.702182728
-361.915563983
-362.100134933
-362.259297472
-362.395928214
-362.512554782
-362.611505279
-362.694839999
-362.764378629
-362.821697623
-362.868159439
-362.904934499
-362.933017452
-362.953228782
-362.966192088
-362.972469199
-178.941419596
-179.339038797
-180.124376358
-181.30084739
-182.849405405
-184.748071789
-186.971753152
-189.493397231
-192.284966228
-195.318247391
-198.565488102
-201.999873792
-205.595875878
-209.329497152
-213.178435588
-217.122177792
-221.14202393
-225.22103981
-229.34393162
-233.496846072
-237.667113068
-241.84296626
-246.013291551
-250.167454713
-254.2952391
-258.386885688
-262.433193429
-266.425631165
-270.35642405
-274.218593693
-278.005966042
-281.713155534
-285.33553755
-288.86921254
-292.310961792
-295.658195671
-298.908897633
-302.061568394
-305.115173973
-308.069099841
-310.923111845
-313.677323234
-316.332166453
-318.888368168
-321.346926236
-323.709087659
-325.976327059
-328.150325469
-330.232949524
-332.226231223
-334.132348512
-335.953606918
-337.692422474
-339.351306067
-340.932849287
-342.439711739
-343.874609679
-345.240305692
-346.539598975
-347.775315505
-348.950297036
-350.067387202
-351.129412098
-352.139151494
-353.099294244
-354.012370631
-354.880648158
-355.705982134
-356.48960499
-357.231865755
-357.931948512
-358.587687111
-359.195668197
-359.751943763
-360.253380861
-360.698519402
-361.089584411
-361.43048897
-361.725553134
-361.979048077
-362.195313173
-362.378966965
-362.535075958
-362.667507677
-362.779220229
-362.872767869
-362.950677133
-363.015123201
-363.06802013
-363.110971196
-363.145324476
-363.172198933
-363.192517929
-363.207023495
-363.216271616
-363.220729547
-174.650764635
-175.088959597
-175.951701991
-177.241716629
-178.935477179
-181.006056028
-183.423174715
-186.154701673
-189.167856929
-192.430158298
-195.910115069
-199.577713281
-203.404744416
-207.36502409
-211.434532813
-215.591492624
-219.81637598
-224.09183142
-228.402507917
-232.734769937
-237.076319099
-241.415772153
-245.742277209
-250.045260151
-254.314361372
-258.539544937
-262.711300711
-266.820841423
-270.860234916
-274.822455906
-278.701379411
-282.491747511
-286.189130146
-289.789881246
-293.291085018
-296.690491068
-299.986443489
-303.17781144
-306.263926869
-309.244532404
-312.119739702
-314.889996525
-317.556059973
-320.118973344
-322.58004463
-324.940825414
-327.203089626
-329.368812128
-331.440147378
-333.41940852
-335.309047321
-337.111635338
-338.829846664
-340.466442513
-342.024257773
-343.506189595
-344.915187915
-346.254247766
-347.526403063
-348.734721341
-349.882298667
-350.97225307
-352.007714396
-352.99180535
-353.927608205
-354.818102349
-355.666059013
-356.473860395
-357.243217914
-357.974752784
-358.667454371
-359.318136334
-359.921219772
-360.469729533
-360.957952702
-361.381969446
-361.74609985
-362.056631491
-362.319365788
-362.539232663
-362.72101522
-362.870106585
-362.993859051
-363.09651978
-363.180700318
-363.248680286
-363.303364771
-363.34701332
-363.381657106
-363.408886698
-363.430006644
-363.446054208
-363.457866367
-363.466102007
-363.471254649
-363.473701718
-169.912412949
-170.399460178
-171.354951851
-172.780268664
-174.645863398
-176.918311822
-179.560725295
-182.53469015
-185.801738464
-189.324418246
-193.067006446
-196.995952508
-201.080143138
-205.291063043
-209.602898805
-213.992601285
-218.439892288
-222.92717954
-227.439336168
-231.963313158
-236.487590786
-241.001536238
-245.49480293
-249.956942762
-254.377356501
-258.745547967
-263.051511543
-267.286074282
-271.441091652
-275.50949268
-279.485230963
-283.363214806
-287.139253199
-290.81000739
-294.372928483
-297.826174905
-301.168519749
-304.399262289
-307.518152422
-310.525331847
-313.421291397
-316.206840568
-318.883084614
-321.45140519
-323.913441637
-326.271071365
-328.526388981
-330.681684454
-332.73942089
-334.702212571
-336.572803855
-338.354049534
-340.048897156
-341.660371692
-343.191562768
-344.645614585
-346.025718515
-347.335108363
-348.577058172
-349.754882485
-350.871938596
-351.931630287
-352.937410819
-353.892782725
-354.801285481
-355.666460838
-356.491766518
-357.280401982
-358.034968922
-358.756879839
-359.445404368
-360.096419237
-360.70114215
-361.24734888
-361.725384298
-362.124816772
-362.456190807
-362.730652037
-362.9560228
-363.13734892
-363.279133277
-363.38703
-363.474028909
-363.544091991
-363.598316589
-363.637981776
-363.66714214
-363.687985821
-363.70276549
-363.712962681
-363.71980086
-363.724179654
-363.726823053
-363.728290191
-363.729012047
-363.729279396
-164.677760974
-165.224345501
-166.29219221
-167.880229345
-169.95066494
-172.46145041
-175.367231085
-178.621838025
-182.180039087
-185.998684809
-190.037359896
-194.258698339
-198.628511997
-203.11584719
-207.693036028
-212.335757385
-217.023074667
-221.737380148
-226.464156519
-231.191476705
-235.909217141
-240.608065829
-245.278548017
-249.910396582
-254.492545937
-259.013684942
-263.462988899
-267.830704801
-272.108421362
-276.289058561
-280.366711733
-284.336510324
-288.194553748
-291.937873991
-295.564369989
-299.072699194
-302.462150518
-305.732528148
-308.884058786
-311.917326525
-314.833232661
-317.632972057
-320.318018009
-322.890109535
-325.351237013
-327.70362451
-329.949709041
-332.092117774
-334.133644318
-336.077225079
-337.925916551
-339.682874369
-341.351334831
-342.934599408
-344.436022548
-345.859002907
-347.206978062
-348.483422799
-349.691851151
-350.835822474
-351.918952137
-352.944926934
-353.917526058
-354.840645328
-355.718323292
-356.554755352
-357.354276941
-358.121256636
-358.859796605
-359.573032405
-360.261681504
-360.921569686
-361.539278637
-362.092957731
-362.568572809
-362.935621489
-363.22394696
-363.454496083
-363.637089466
-363.775000329
-363.870410457
-363.926203552
-363.971693821
-364.007484209
-364.030099072
-364.03801173
-364.039267442
-364.035145722
-364.028515887
-364.020456762
-364.012091344
-364.004072411
-363.996981872
-363.991249796
-363.987245181
-363.985180685
-158.887760664
-159.508027603
-160.713846457
-162.49977579
-164.816509519
-167.610435431
-170.825332872
-174.405513992
-178.297818258
-182.452719451
-186.82476709
-191.372628968
-196.058971877
-200.850348374
-205.717180062
-210.633848026
-215.578828349
-220.534749478
-225.488206687
-230.429164994
-235.349847828
-240.243180786
-245.101144581
-249.91366957
-254.668731993
-259.35353181
-263.955873588
-268.465148016
-272.872665286
-277.171465321
-281.355914891
-285.421435366
-289.364462853
-293.182468418
-296.873903575
-300.438046906
-303.874816784
-307.184614171
-310.368208119
-313.426666702
-316.361326753
-319.17378477
-321.865895546
-324.439770153
-326.897767655
-329.242479337
-331.476707206
-333.603439153
-335.625822766
-337.547139127
-339.370777681
-341.100213286
-342.73898642
-344.290687225
-345.758943728
-347.147414307
-348.459784425
-349.699767766
-350.871112146
-351.977611112
-353.023122407
-354.011595678
-354.947111627
-355.833937076
-356.676598156
-357.479974553
-358.249404706
-358.990767221
-359.710421574
-360.414717933
-361.108269074
-361.790032771
-362.440049651
-363.016381787
-363.509509409
-363.822665298
-364.048429464
-364.224880854
-364.360598479
-364.452413124
-364.496162221
-364.478615982
-364.479780668
-364.483819056
-364.475396774
-364.445547183
-364.416659336
-364.385065848
-364.355729369
-364.328333592
-364.304058579
-364.283064105
-364.265797913
-364.252505553
-364.243508697
-364.238966898
-152.469618098
-153.182851042
-154.560997431
-156.590822763
-159.206631995
-162.339203921
-165.918402744
-169.876994199
-174.152743234
-178.689256894
-183.435961964
-188.347645903
-193.383924506
-198.508869206
-203.690910558
-208.903017963
-214.123052058
-219.334092259
-224.524459441
-229.687105709
-234.818091354
-239.914115283
-244.969613139
-249.974636354
-254.915163057
-259.775634313
-264.541553043
-269.201097593
-273.745437931
-278.168079217
-282.463912934
-286.628716827
-290.659266138
-294.553530651
-298.31065805