/*--------------------------------*- C++ -*----------------------------------*\
| =========                 |                                                 |
| \\      /  F ield         | OpenFOAM: The Open Source CFD Toolbox           |
|  \\    /   O peration     | Version:  v1906                                 |
|   \\  /    A nd           | Web:      www.OpenFOAM.com                      |
|    \\/     M anipulation  |                                                 |
\*---------------------------------------------------------------------------*/
FoamFile
{
    version     2.0;
    format      ascii;
    class       volScalarField;
    location    "108";
    object      p;
}
// * * * * * * * * * * * * * * * * * * * * * * * * * * * * * * * * * * * * * //

dimensions      [0 2 -2 0 0 0 0];


internalField   nonuniform List<scalar> 
9216
(
283.545405622
283.625221168
283.790363151
284.04225238
284.37944967
284.800387523
285.303071836
285.885216225
286.544174276
287.277100842
288.080851743
288.952174507
289.887578451
290.883554859
291.936406589
293.042494262
294.198031682
295.399358913
296.642691237
297.924426415
299.240852216
300.588488522
301.963746587
303.363313748
304.783760196
306.221970076
307.674690286
309.139019952
310.611915918
312.090716207
313.572574584
315.055051114
316.535509735
318.011793203
319.481483406
320.942643767
322.39306481
323.831066063
325.254647772
326.662377557
328.052458507
329.423693744
330.77448365
332.103870403
333.41044033
334.693450396
335.951665108
337.184549806
338.391031355
339.570762968
340.722821649
341.84702752
342.942591705
344.00948314
345.047031706
346.055333882
347.033825917
347.982715894
348.901536749
349.790588022
350.649495104
351.478643552
352.277745
353.047260232
353.786985382
354.497440948
355.178506126
355.830779355
356.454231632
357.049511155
357.616672774
358.156409144
358.668849682
359.154724529
359.614234206
360.048127932
360.456665897
360.840606774
361.200261114
361.536383871
361.849320997
362.139805305
362.408211564
362.655244791
362.8813079
363.087089619
363.273060286
363.439982623
363.588534764
363.719198507
363.832149792
363.925957725
363.99410015
364.03539772
364.056329801
364.063908235
283.465564645
283.545741771
283.711230241
283.96411966
284.302757626
284.725489128
285.230289647
285.814818452
286.476412583
287.212170451
288.018936408
288.893399489
289.83206637
290.831368075
291.887610161
292.997092998
294.15604948
295.360761173
296.60747193
297.89251561
299.212219904
300.563039536
301.94143511
303.344026763
304.767444767
306.208498261
307.664007381
309.130988154
310.606473974
312.087716115
313.571953693
315.056660936
316.539306841
318.017610884
319.489268877
320.952231097
322.404414363
323.844008475
325.269151861
326.678268136
328.06970859
329.442128665
330.794092787
332.124474496
333.432038037
334.715861792
335.97489908
337.208431301
338.415582027
339.59580988
340.748399854
341.872967236
342.968938918
344.036073795
345.073921776
346.082363891
347.061061149
348.010000753
348.928937475
349.817952869
350.676897607
351.505936161
352.305000392
353.074332874
353.813950717
354.524161024
355.205048523
355.857008328
356.480213269
357.075119697
357.641976007
358.181289076
358.693369629
359.178778143
359.637885541
360.071281428
360.479382788
360.862804097
361.221999087
361.557595091
361.870061072
362.160018171
362.427948459
362.674453135
362.900019737
363.105239141
363.290618253
363.456767802
363.604280866
363.733611184
363.844592289
363.936225518
364.003312863
364.043860194
364.063914545
364.071498935
283.299511297
283.380836444
283.547859963
283.80305518
284.144742555
284.571216988
285.080399461
285.669874515
286.336915131
287.07853894
287.891527808
288.772490299
289.717879759
290.724051731
291.787273076
292.90377879
294.069772678
295.281477285
296.535121729
297.826996097
299.153424343
300.510819657
301.895650047
303.304494522
304.733998913
306.180935716
307.642145106
309.114604436
310.595381634
312.081682985
313.570786166
315.060124454
316.547208147
318.029711911
319.505371742
320.97209136
322.427845035
323.870767823
325.299056184
326.711079193
328.10525558
329.480178824
330.834483031
332.166976728
333.476500439
334.76206728
336.022719304
337.257659234
338.46609696
339.647422389
340.801014313
341.926403942
343.023118184
344.090836648
345.129204407
346.13801853
347.117037876
348.066162174
348.985245495
349.874279899
350.733209483
351.562109968
352.361007211
353.130056809
353.869361931
354.579142701
355.259574695
355.910968449
356.533584512
357.127798159
357.693945382
358.232459572
358.743723523
359.228240328
359.686453844
360.11888614
360.526025518
360.908433948
361.266623436
361.601184
361.912640594
362.201560432
362.468473673
362.713936005
362.938462282
363.14259864
363.326825527
363.491640486
363.637545824
363.764992774
363.873395045
363.961310781
364.025160434
364.064138495
364.084282035
364.092838995
283.044215572
283.126828189
283.296251092
283.555053469
283.90149618
284.333796942
284.84978483
285.446937724
286.122420582
286.87313366
287.695751317
288.586769991
289.542544227
290.559330266
291.633312889
292.760647229
293.93747489
295.159953563
296.424268133
297.726658848
299.063421233
300.430932198
301.825641658
303.244098862
304.68294142
306.138913949
307.608861593
309.089745128
310.578632053
312.07271392
313.569273874
315.065728879
316.559606352
318.048558836
319.530341875
321.002845316
322.464060527
323.912104708
325.345196605
326.761694424
328.160042529
329.538820711
330.896685919
332.232424882
333.544926187
334.833183158
336.096268008
337.333375061
338.543755914
339.726780043
340.881867017
342.008538806
343.106363635
344.174995469
345.214122326
346.223525228
347.203003623
348.15243377
349.071707737
349.960791502
350.819665028
351.648376199
352.446985069
353.215618942
353.954411198
354.66355418
355.343255521
355.993802851
356.615487801
357.208665756
357.773699423
358.310999082
358.820990896
359.304153295
359.76095597
360.191916839
360.597554032
360.978419082
361.335057022
361.668038068
361.97791108
362.265242142
362.530582014
362.774467043
362.997428368
363.199973054
363.382530621
363.545574359
363.689496699
363.814479666
363.919601643
364.003807673
364.064955129
364.103813657
364.125193767
364.134407732
282.698595446
282.782857658
282.955572319
283.219331978
283.572305203
284.0125985
284.537910881
285.145572552
285.832594012
286.595718673
287.431466135
288.336182927
289.306083425
290.337293215
291.425884201
292.567906789
293.759412042
294.99647791
296.275224492
297.591834604
298.942557401
300.323727508
301.731769838
303.163199256
304.614631782
306.082793911
307.564522866
309.056765377
310.556578878
312.061144343
313.567747383
315.073796551
316.576819682
318.074460558
319.564480992
321.04477116
322.513326587
323.968268356
325.407821806
326.830344497
328.234291296
329.618239994
330.980875554
332.320988408
333.637480601
334.929351532
336.19570024
337.435717536
338.648684847
339.833983264
340.991057561
342.119440171
343.218724384
344.288577739
345.328708117
346.33889593
347.318971937
348.268811603
349.188325377
350.077475143
350.936259249
351.764717425
352.56292653
353.331007931
354.069093941
354.777369926
355.456070941
356.105481345
356.725898125
357.317680631
357.881204665
358.416874356
358.925129403
359.406453031
359.86134006
360.290313009
360.693906709
361.072678392
361.427197377
361.758036122
362.065765872
362.350970329
362.614196933
362.855984012
363.076867807
363.277332943
363.457814745
363.618735319
363.760448714
363.882803172
363.985122197
364.066915647
364.127426823
364.167989016
364.191423116
364.201008298
282.260866737
282.347221639
282.524174253
282.794324812
283.155713308
283.606295709
284.143595131
284.764749164
285.466563838
286.245575434
287.098102635
288.020298058
289.008195656
290.057756502
291.164907068
292.32556575
293.535671116
294.791204013
296.088201815
297.422777247
298.791126932
300.189536806
301.614392161
303.062172134
304.529464596
306.012985195
307.509551561
309.016093305
310.529661875
312.047423807
313.566662453
315.084776692
316.599292038
318.107857426
319.608236361
321.098316286
322.576093713
324.039696316
325.487355471
326.917432427
328.328402053
329.718846503
331.087466302
332.43306562
333.754550626
335.05093781
336.321350192
337.564998211
338.781191913
339.969319737
341.128855778
342.259358766
343.360444753
344.431803518
345.473163292
346.484320637
347.465126689
348.415469124
349.335266797
350.224488347
351.083147633
351.911283572
352.70898874
353.47635324
354.213504472
354.92067801
355.598128461
356.246109733
356.864921652
357.454947366
358.016562253
358.550160338
359.05620646
359.53521079
359.987674065
360.414125532
360.815116744
361.191235735
361.543069777
361.871198382
362.176221082
362.45873151
362.71928568
362.958448204
363.176758273
363.374696894
363.552717452
363.7112086
363.850494926
363.97036079
364.070628506
364.151264575
364.212350661
364.254948966
364.280990211
364.291845602
281.728750856
281.817697562
281.999916759
282.278009336
282.649847311
283.113189728
283.665332271
284.303163639
285.023230059
285.821805898
286.694955937
287.638589576
288.648519704
289.720507514
290.850298298
292.033654341
293.266379799
294.544339389
295.863476677
297.219826255
298.609517556
300.028784052
301.473962321
302.941495349
304.427946876
305.930008988
307.444482146
308.968279703
310.498436822
312.03211181
313.56657726
315.09923074
316.62759915
318.149325006
319.662176227
321.164037832
322.652911466
324.126928416
325.584332984
327.023499033
328.44291139
329.841165744
331.21696577
332.5691311
333.896595156
335.198393801
336.4736611
337.721634542
338.941655951
340.133143668
341.295604427
342.428613536
343.53181996
344.604947006
345.647746777
346.660041335
347.6416932
348.592609692
349.512726081
350.402017031
351.260528113
352.088248244
352.885261487
353.651717331
354.387762029
355.09363519
355.769573624
356.415813473
357.032685489
357.620584899
358.179879077
358.7109661
359.21434104
359.69051171
360.140015888
360.563405312
360.961238146
361.334118308
361.682672894
362.00750469
362.309231442
362.588472843
362.845805986
363.081817639
363.297061604
363.492044266
363.667218099
363.822949915
363.959565069
364.077100154
364.17564714
364.255445861
364.316861032
364.360546999
364.38820882
364.40067471
281.099424677
281.19152047
281.380141033
281.667881108
282.052396895
282.53119689
283.101285636
283.759238002
284.50127445
285.323344971
286.221199673
287.190455372
288.226656979
289.325324665
290.481993087
291.692243031
292.951721734
294.256165605
295.601412952
296.983408453
298.39821024
299.841993455
301.311037923
302.801757326
304.310694912
305.834505572
307.369971339
308.913989772
310.463577927
312.015882745
313.568177263
315.117853355
316.662431481
318.199549732
319.726978535
321.24260873
322.744446782
324.230629209
325.699419894
327.149203495
328.57846245
329.985807553
331.369969655
332.729785602
334.064194648
335.372256924
336.653144264
337.906122364
339.130558908
340.32590563
341.491706024
342.627575183
343.733201942
344.808331389
345.852759154
346.866328878
347.84892616
348.800489622
349.720964517
350.610297562
351.468511931
352.295669972
353.091904333
353.857335674
354.592114373
355.296442319
355.970591101
356.614801609
357.229395885
357.81478748
358.371328135
358.899441025
359.399658282
359.872490658
360.318490279
360.738228229
361.132301004
361.501354396
361.846028252
362.166940293
362.46476883
362.740145394
362.993689165
363.22601223
363.437689275
363.629254101
363.801165793
363.953857654
364.08769306
364.202884858
364.299632081
364.378333101
364.439552434
364.483625117
364.511890442
364.525164766
280.369457038
280.465328983
280.661622515
280.96091386
281.360585398
281.857826708
282.449277064
283.131117485
283.899164921
284.748971246
285.675907195
286.675237048
287.74218906
288.872002266
290.059967612
291.301460836
292.591958142
293.927053501
295.302468397
296.714054448
298.157795817
299.629795456
301.126294595
302.643674346
304.178440847
305.727226797
307.28678814
308.854001228
310.425873628
311.999545101
313.572276203
315.14145517
316.704593233
318.259334612
319.803450407
321.334829987
322.851492737
324.351589463
325.833397159
327.295296766
328.735791689
330.153513957
331.547205012
332.9157144
334.258010309
335.57318445
336.860432099
338.119048491
339.348437277
340.548107018
341.717635482
342.856685805
343.964990307
345.042333355
346.088550652
347.10351602
348.087150735
349.039419365
349.960176217
350.84942308
351.707303664
352.533873441
353.329225138
354.093477065
354.826774262
355.529349218
356.201459127
356.843309447
357.45527751
358.037758765
358.591111083
359.115789339
359.612337338
360.081284465
360.523202211
360.938699239
361.328410485
361.693000829
362.033130782
362.349502217
362.642796825
362.913693035
363.162844364
363.390903536
363.598472396
363.786124606
363.954380008
364.103718568
364.234530825
364.347164943
364.441939385
364.519262669
364.579693665
364.623790022
364.65198147
364.665478034
279.534734213
279.635097618
279.840508941
280.153507649
280.571129207
281.090158166
281.706775217
282.416671367
283.215166538
284.097327669
285.058071582
286.092245724
287.194706333
288.360372898
289.58426438
290.861526754
292.187450286
293.557478821
294.96721313
296.412410293
297.888973994
299.39294942
300.920532426
302.468071997
304.032043237
305.609049859
307.195821597
308.789221973
310.386248738
311.984025443
313.579805401
315.170965466
316.755020338
318.329614101
319.892513797
321.441620284
322.974970434
324.490717765
325.987143821
327.462656185
328.915774072
330.345129555
331.749483758
333.127720503
334.478833397
335.801923356
337.096222191
338.361079595
339.595933289
340.800340768
341.973937813
343.116447459
344.227647876
345.3073788
346.35551247
347.37196945
348.356704966
349.309572616
350.230535807
351.119747875
351.977265125
352.80314832
353.597487387
354.360398243
355.092034533
355.79262517
356.462387141
357.101599812
357.710588757
358.289740501
358.839455984
359.360213809
359.852562583
360.317063151
360.754300956
361.164928446
361.549620347
361.90907373
362.24400156
362.555150592
362.843245784
363.10901091
363.353135664
363.576327498
363.779219865
363.962450509
364.126586519
364.272135935
364.399577009
364.509359205
364.601886085
364.677555579
364.736819156
364.780382656
364.80826883
364.821617419
278.590365504
278.696046873
278.912242972
279.241426217
279.680191316
280.224809428
280.870883979
281.613497027
282.447358736
283.366948009
284.366640055
285.44079698
286.583848881
287.790351911
289.05502557
290.372770254
291.738680489
293.148046149
294.596348304
296.079252297
297.592582726
299.132336589
300.694676477
302.275908876
303.872482676
305.480972344
307.098091501
308.720691113
310.345748664
311.9703781
313.591818794
315.207446888
316.814774572
318.411439926
319.995219543
321.56403046
323.115910415
324.649025481
326.161679108
327.652287287
329.119375888
330.561603461
331.977755815
333.366730731
334.727539087
336.059316776
337.361340905
338.63298701
339.873756997
341.083267771
342.261224358
343.407416242
344.521686603
345.60393345
346.654086366
347.672086995
348.6577949
349.611201759
350.532449944
351.421599821
352.278677641
353.10376926
353.89696262
354.658398329
355.388219201
356.086570628
356.753739533
357.389976389
357.995612458
358.571018385
359.116623951
359.632971304
360.120598803
360.580036474
361.011940416
361.41702812
361.796010325
362.149618139
362.47864822
362.783874218
363.066050892
363.32596597
363.564398513
363.782065306
363.979686978
364.157932978
364.317422787
364.458718363
364.582369337
364.688903349
364.778753508
364.852372236
364.910193875
364.952678078
364.98008243
364.993160792
277.530559757
277.64253189
277.871463954
278.219718809
278.68332775
279.257907643
279.93833372
280.718930144
281.593658995
282.556292715
283.600562028
284.720264324
285.909350114
287.161975906
288.472535351
289.835673338
291.246286579
292.699514806
294.1907273
295.715501696
297.269604726
298.848987265
300.449783544
302.068271269
303.700865747
305.344126173
306.994752287
308.649573781
310.305549373
311.95978024
313.609506506
315.252091566
316.885039972
318.50599732
320.112754594
321.703228835
323.275470602
324.827668826
326.358134162
327.865291474
329.347693331
330.804027738
332.23307656
333.63376092
335.005131239
336.346341617
337.656699464
338.935634455
340.182715992
341.397628564
342.580169027
343.730202356
344.847658991
345.932503132
346.984690834
348.004096402
348.990747083
349.944777968
350.866298629
351.75530557
352.611840084
353.436072386
354.228061848
354.987870534
355.715617226
356.411543702
357.075847579
357.708793014
358.31068993
358.881920489
359.423001045
359.934426876
360.416678041
360.870393503
361.29632206
361.69517961
362.067727192
362.414762104
362.737122104
363.035613475
363.311109709
363.564441327
363.796437504
364.007895553
364.19957749
364.372217654
364.526478484
364.662994755
364.782390816
364.885221197
364.971953494
365.043063622
365.099001548
365.140142253
365.166755584
365.179549842
276.348473211
276.467893995
276.711881175
277.082622874
277.575421549
278.185055631
278.905477841
279.730066446
280.651865754
281.663798389
282.758839025
283.930135997
285.171101601
286.475460812
287.83726792
289.250910714
290.711096033
292.212827351
293.751378276
295.322247945
296.921169766
298.544074081
300.187059606
301.846380735
303.518438597
305.199780905
306.88708537
308.577159163
310.266952113
311.953557446
313.634193493
315.30621816
316.9671385
318.614611843
320.246426517
321.860512501
323.454946035
325.027914067
326.57774681
328.102901338
329.601951331
331.073584967
332.516609896
333.92997473
335.312731116
336.664070637
337.983329868
339.269996339
340.523706766
341.744242395
342.931504242
344.085467056
345.206160283
346.293610152
347.347665159
348.368424966
349.35608377
350.31068357
351.232368964
352.1211695
352.977163014
353.800456502
354.591067335
355.349060264
356.074644416
356.767924626
357.429111683
358.058434677
358.656210774
359.222914711
359.758986157
360.26484465
360.741095545
361.188489124
361.607735523
361.999607612
362.364928686
362.704561766
363.019403202
363.310355542
363.578341617
363.824271061
364.049038296
364.253525154
364.438545977
364.604890525
364.753309211
364.884488543
364.99909755
365.097709208
365.180862812
365.249047312
365.302701181
365.342206832
365.36777246
365.380178324
275.036010445
275.164280029
275.426120986
275.823446741
276.350607882
277.00129967
277.768298914
278.643799121
279.619717782
280.68795844
281.840612439
283.070092478
284.369221026
285.73126728
287.14994496
288.619397512
290.134163558
291.689133742
293.279512817
294.900765174
296.548591833
298.218921452
299.907844988
301.611603489
303.32658871
305.049336574
306.776501873
308.504878976
310.231409045
311.953157812
313.667331733
315.37128669
317.062536858
318.738734367
320.397675726
322.037317918
323.655733397
325.251141889
326.821904949
328.366481905
329.883471361
331.371595993
332.82966782
334.25663828
335.651590063
337.013722126
338.342398804
339.637163801
340.897733856
342.124005626
343.316028194
344.473913826
345.597800177
346.687625464
347.743448014
348.765596365
349.754161492
350.709245405
351.631039131
352.519574545
353.374901235
354.19715703
354.986291699
355.742441731
356.465718776
357.156155291
357.813962209
358.439344839
359.032721225
359.594469012
360.124914284
360.624616349
361.09430214
361.534659203
361.946456305
362.330528965
362.687769549
363.01911658
363.325544896
363.608043394
363.86761571
364.105251283
364.321927711
364.518624258
364.69619929
364.85551143
364.997416551
365.122618844
365.231847464
365.325719828
365.404808483
365.469641176
365.520638265
365.558203533
365.582560506
365.594389387
273.583559016
273.722401417
274.005524987
274.434422231
275.002188919
275.701101828
276.522431249
277.45688037
278.494981628
279.62742198
280.845269266
282.140114672
283.504150156
284.9301828
286.411603533
287.942344044
289.516812904
291.129833758
292.776576335
294.452506876
296.153344143
297.875021881
299.6136383
301.365444025
303.126834712
304.894323429
306.664556143
308.434308638
310.200495273
311.960166875
313.710521182
315.448908002
317.172834513
318.879957728
320.568090138
322.235193096
323.879371543
325.498883338
327.092090621
328.657492062
330.193721216
331.699499566
333.173666131
334.615174177
336.023101378
337.396652452
338.735208917
340.038361902
341.305907646
342.537893273
343.734590944
344.896281685
346.023007259
347.115021667
348.172624952
349.196010491
350.18533488
351.140792856
352.062632163
352.950742249
353.805320978
354.6265274
355.414155886
356.168401069
356.8892203
357.576682599
358.230904671
358.852163697
359.44076693
359.996987368
360.521266815
361.014303034
361.476729379
361.909288166
362.312810846
362.688201993
363.03643372
363.358531518
363.65556578
363.928617855
364.178790098
364.407145977
364.614840987
364.80283959
364.97209984
365.123596413
365.258221078
365.376763082
365.480010154
365.568581628
365.643101065
365.704129373
365.752129595
365.787454957
365.810389199
365.821510542
271.979639987
272.131218294
272.439894483
272.90652586
273.522535466
274.278324203
275.163210867
276.166020817
277.275583865
278.481137808
279.772581818
281.140612371
282.576768849
284.073417519
285.62367275
287.221312264
288.860681858
290.536595196
292.244248101
293.979151181
295.737081442
297.514015067
299.306081795
301.109553315
302.920827116
304.736412186
306.552935102
308.367148744
310.175939424
311.976336407
313.765520104
315.54083237
317.29977528
319.040013663
320.759372166
322.455831743
324.127541034
325.772768791
327.389923034
328.977536692
330.534259383
332.05885262
333.550156169
335.007120661
336.428803259
337.814392772
339.163251035
340.474979758
341.749462144
342.986956864
344.188078034
345.353076435
346.482288734
347.576442531
348.635643251
349.660038966
350.649900603
351.605607333
352.527245058
353.414824979
354.268700169
355.088766745
355.87494978
356.627309055
357.345710887
358.030107623
358.680540612
359.297357877
359.880761241
360.431035918
360.948723782
361.434449219
361.888881883
362.312823763
362.707178025
363.072927449
363.411135967
363.722928036
364.00949201
364.27199995
364.51170408
364.729800639
364.927476127
365.105772858
365.265789876
365.408596129
365.535137035
365.646278201
365.742851388
365.825522721
365.894969216
365.95175362
365.996369733
366.029196264
366.05047746
366.060800162
270.210446835
270.377519376
270.717165162
271.22927006
271.902990667
272.726232598
273.685767572
274.768037471
275.959789033
277.248548842
278.622898558
280.072590465
281.588534697
283.162716371
284.788057329
286.45828026
288.167760998
289.911384118
291.684450348
293.482581005
295.301647788
297.137707396
298.986956519
300.845700969
302.71035059
304.577404269
306.443464249
308.305250579
310.159614291
312.003552794
313.834225302
315.648959526
317.44525507
319.220783008
320.973387338
322.70107662
324.402025444
326.074564613
327.71713194
329.328309055
330.906781943
332.451328527
333.960817183
335.434172253
336.870411444
338.268658521
339.628205767
340.948609337
342.229811133
343.472327857
344.677113506
345.844907782
346.976312168
348.072624018
349.133452171
350.158423299
351.148248026
352.103596318
353.024906142
353.912051486
354.765109326
355.584239652
356.369158258
357.119655685
357.835548473
358.516779167
359.163476784
359.775657646
360.35358185
360.897502482
361.407963072
361.885696744
362.331347896
362.745783815
363.129997792
363.485054852
363.812123321
364.112428934
364.387348211
364.638201907
364.866311588
365.072972749
365.259437586
365.426945854
365.576691578
365.709881864
365.827464615
365.930401112
366.019569701
366.095721576
366.159548666
366.21163757
366.252482617
366.282504739
366.301962293
366.311415242
268.259210383
268.445365228
268.822974009
269.390436849
270.133783393
271.037556289
272.085188751
273.260091122
274.546465335
275.929846567
277.397376779
278.937856773
280.541648173
282.200480575
283.907231804
285.655705459
287.44043425
289.256489401
291.099368832
292.964881728
294.849042743
296.748041173
298.658169824
300.575783911
302.497308046
304.419228981
306.338102444
308.250608104
310.153542461
312.043861689
313.91869483
315.775352309
317.611328032
319.424303374
321.212142662
322.972888571
324.704774299
326.406162899
328.075565884
329.711619656
331.313065241
332.87871521
334.407440376
335.898161622
337.349813719
338.761402526
340.132053441
341.461164268
342.74857833
343.994866957
345.202591873
346.373580841
347.506853071
348.603568785
349.662716329
350.685294138
351.674078701
352.629459404
353.55120547
354.438476084
355.292090223
356.111658111
356.896039658
357.645511954
358.359206211
359.037702592
359.680571293
360.287834192
360.859990981
361.397006563
361.89971661
362.368806495
362.804832041
363.20877166
363.581783875
363.9249953
364.23969867
364.527311562
364.78935132
365.02723237
365.242375061
365.436255527
365.610283132
365.765808572
365.904240982
366.02677658
366.134441432
366.228318494
366.309319012
366.378288367
366.435921423
366.48282304
366.519509857
366.546444653
366.563896999
366.572390346
266.105311137
266.31532101
266.740104262
267.375763231
268.203947392
269.204611363
270.356787796
271.640034927
273.035463872
274.526340509
276.098297431
277.739270327
279.439246581
281.189914269
282.984326289
284.816571101
286.681502527
288.574529367
290.491445671
292.428328808
294.381424311
296.347088737
298.321736161
300.30179647
302.283708506
304.263919347
306.238938709
308.205359146
310.159905182
312.099474131
314.021158291
315.922243578
317.800219863
319.652777734
321.477810658
323.273406458
325.037841744
326.769573477
328.467178129
330.129372845
331.754977975
333.342862529
334.891921214
336.401042868
337.869085493
339.294854044
340.677146487
342.01498301
343.307696794
344.556576689
345.767722992
346.935418041
348.059820642
349.15039894
350.207381696
351.23087156
352.221471457
353.179279359
354.103104399
354.993180612
355.849120768
356.670057727
357.454998125
358.203921566
358.9162286
359.592861811
360.232020794
360.834564852
361.400558481
361.930332252
362.424843308
362.884482904
363.309919644
363.702454434
364.063150174
364.393230857
364.694260845
364.96785377
365.215486687
365.438853326
365.639580014
365.819288066
365.979529804
366.121853172
366.24777066
366.358480593
366.455187762
366.539110989
366.611140216
366.672220864
366.723052567
366.764281641
366.796440277
366.819986131
366.835214935
366.84265552
263.723030943
263.963402949
264.447756359
265.16859123
266.101314678
267.219562888
268.49654202
269.906932877
271.428143934
273.040929543
274.729463786
276.481046595
278.285611621
280.135155945
282.023214985
283.944432427
285.894202872
287.86843281
289.863350513
291.875377161
293.901062772
295.93699148
297.979733517
300.025801831
302.071634158
304.11363281
306.148195614
308.171797394
310.181051939
312.172780061
314.144027005
316.092051852
318.014336851
319.908586388
321.772724389
323.604896692
325.403451585
327.16693035
328.894017598
330.58354525
332.234448947
333.845677565
335.416185121
336.944863728
338.430456911
339.871497422
341.266237497
342.61336941
343.911842811
345.15471972
346.348920916
347.500212042
348.620117722
349.712175685
350.77266644
351.800693454
352.795455641
353.756110957
354.683129845
355.577155146
356.436062494
357.258829875
358.044417235
358.793713564
359.50619777
360.181089578
360.817256176
361.41561335
361.975688172
362.498381478
362.984019628
363.433562695
363.84762321
364.227631062
364.574595669
364.890256141
365.176121735
365.434039061
365.665709965
365.872950545
366.057660639
366.221645486
366.366605993
366.49438012
366.606414656
366.704106562
366.788808113
366.861783384
366.9239928
366.976395164
367.019806928
367.054828455
367.082070628
367.101932996
367.114741379
367.121006321
261.07973327
261.359590689
261.920595576
262.749489482
263.812633233
265.074905354
266.501790454
268.061832933
269.728105505
271.478733655
273.296689639
275.169107925
277.086403401
279.041395701
281.028555337
283.043419299
285.082183271
287.141424042
289.217931831
291.308589373
293.410295511
295.519930118
297.634258149
299.749878807
301.863234493
303.970607329
306.068227104
308.152382477
310.219517818
312.266360507
314.289913068
316.287395202
318.256286514
320.194302868
322.099404325
323.969805343
325.803945221
327.600481424
329.358235742
331.076193817
332.753433784
334.389055788
335.982142511
337.531649769
339.036229623
340.494040395
341.903272039
343.26405778
344.550714683
345.755177341
346.928047113
348.077437749
349.202851375
350.300096827
351.366063371
352.398981318
353.398241973
354.362742387
355.294820858
356.192820879
357.054464239
357.878232026
358.665782694
359.415632738
360.128116917
360.801899808
361.435672428
362.0297618
362.584694255
363.100608322
363.577708487
364.016833269
364.418733981
364.784981502
365.116990519
365.416653894
365.685662139
365.926107735
366.140019553
366.329394688
366.496291609
366.642839685
366.770942864
366.882571223
366.979287964
367.06264578
367.134224679
367.195160797
367.246673914
367.289636421
367.324932489
367.353243657
367.375136703
367.390988362
367.401185744
367.406166873
258.13314004
258.465705459
259.127522836
260.09591757
261.323936119
262.764297043
264.372302599
266.108886182
267.942203634
269.847907012
271.808388756
273.811456992
275.848865015
277.914988818
280.005815403
282.118205099
284.249433603
286.396939587
288.558178815
290.730568847
292.91145241
295.098039959
297.287343362
299.476085225
301.660662632
303.837157624
306.00152089
308.149741048
310.278048792
312.383035859
314.461651
316.511111967
318.528894262
320.512713778
322.460571236
324.370759584
326.241838231
328.072604788
329.862056089
331.609383227
333.3138651
334.974835904
336.591607467
338.163290226
339.688523031
341.16598353
342.596551065
343.950690981
345.181241087
346.339571281
347.516202384
348.679856495
349.814101271
350.917165259
351.990492568
353.029231001
354.033840867
355.003888246
355.94019768
356.840726131
357.704665691
358.530947287
359.319662995
360.070569535
360.783731897
361.455775866
362.086735215
362.677083345
363.22751961
363.736513757
364.205278663
364.633896731
365.023243266
365.375050236
365.69096675
365.972947693
366.223348343
366.44443285
366.638478868
366.807913861
366.955057395
367.082313813
367.191836576
367.285528331
367.365376359