/*--------------------------------*- C++ -*----------------------------------*\
| =========                 |                                                 |
| \\      /  F ield         | OpenFOAM: The Open Source CFD Toolbox           |
|  \\    /   O peration     | Version:  v1906                                 |
|   \\  /    A nd           | Web:      www.OpenFOAM.com                      |
|    \\/     M anipulation  |                                                 |
\*---------------------------------------------------------------------------*/
FoamFile
{
    version     2.0;
    format      ascii;
    class       surfaceScalarField;
    location    "555";
    object      phia;
}
// * * * * * * * * * * * * * * * * * * * * * * * * * * * * * * * * * * * * * //

dimensions      [0 3 -1 0 0 0 0];
oriented        oriented;


internalField   nonuniform List<scalar> 
18240
(
0.00134747279367
-0.00134741967306
0.00282264920828
-0.00147511861569
0.0042967745334
-0.0014740683298
0.00575215516442
-0.00145532254065
0.00718078276424
-0.00142857060492
0.00857590456224
-0.00139506371069
0.0099314690349
-0.00135550791343
0.0112420147479
-0.00131048765736
0.012502660493
-0.00126058979009
0.0137091224562
-0.00120640398061
0.014857718034
-0.00114854038303
0.0159453752332
-0.00108759936423
0.0169696147928
-0.00102418528963
0.0179285436307
-0.000958871253284
0.0188208155239
-0.000892218734378
0.019645613812
-0.000824741075147
0.0204025962131
-0.000756930534355
0.0210918738812
-0.000689220966854
0.0217139464233
-0.000622022160811
0.0222696838069
-0.000555681343874
0.0227602566047
-0.000490524075603
0.0231871256146
-0.00042681379168
0.023551970657
-0.000364798157031
0.023856690665
-0.000304665769717
0.0241033324311
-0.000246596862025
0.02429410198
-0.000190716447725
0.0244312932465
-0.000137148485901
0.0245173103029
-8.59652366162e-05
0.02455459537
-3.72445093518e-05
0.0245456614824
8.98429251132e-06
0.0244930211884
5.26785330596e-05
0.0243992209468
9.38491191381e-05
0.0242667613136
0.000132495504034
0.0240981544376
0.000168654127276
0.0238958479931
0.000202339899137
0.0236622802199
0.000233613322599
0.0233997992077
0.000262512048001
0.0231107268559
0.000289116137195
0.0227972764699
0.000313478994895
0.0224616234638
0.000335694984973
0.0221058208355
0.000355828843912
0.0217318759287
0.000373985045913
0.0213416638787
0.000390235893331
0.0209370098986
0.000404692261267
0.0205196008344
0.000417430594182
0.0200910724956
0.000428564748411
0.0196529195685
0.000438172184526
0.0192065875002
0.000446366603477
0.018753380963
0.00045322359784
0.0182945597727
0.000458853848915
0.0178312461362
0.000463328554681
0.0173645240003
0.000466752923328
0.0168953452031
0.000469191660532
0.0164246315734
0.000470742549815
0.0159531801267
0.000471462319861
0.0154817671421
0.000471440046972
0.0150110524517
0.000470723670022
0.0145416846817
0.000469392981116
0.0140742047634
0.000467487077432
0.0136091514995
0.000465076634141
0.0131469644173
0.000462192524875
0.0126880888594
0.000458897092235
0.0122328784723
0.000455214193424
0.0117816990625
0.000451199114437
0.011334831083
0.000446870258219
0.0108925715805
0.000442277375486
0.0104551372608
0.000437435157092
0.0100227639003
0.000432389397999
0.00959561066485
0.000427152745056
0.00917385641136
0.000421768443252
0.00875760613661
0.000416248552681
0.00834698358804
0.000410634879093
0.0079420407757
0.00040493998382
0.00754284630322
0.000399204931093
0.00714939900887
0.00039344347744
0.00676171136783
0.000387696226947
0.00637972831719
0.000381978395996
0.00600340504811
0.000376329995107
0.00563263210767
0.000370767601667
0.00526730685446
0.000365330157623
0.00490726584918
0.000360035166627
0.00455234927081
0.000354919720548
0.00420234160117
0.000350001515913
0.00385702837957
0.000345314669285
0.00351614626701
0.000340875822618
0.00317943195099
0.000336714111582
0.00284658356992
0.000332842077616
0.00251730388735
0.000329277853742
0.00219128051572
0.000326017193786
0.00186824017987
0.000323037084732
0.00154799421
0.00032024027629
0.00123062572765
0.000317364233363
0.000916943483511
0.00031367713049
0.000610305590401
0.000306633226255
0.00032367269446
0.000286628492274
0.000323670236439
0.00148968111249
-0.00283704365191
0.0031525711862
-0.00313794853406
0.00480636834129
-0.00312780425006
0.00643636844064
-0.00308526149679
0.00803515211945
-0.00302729329646
0.00959577494857
-0.00295562543431
0.0111116489298
-0.00287132128036
0.0125767171131
-0.00277549495989
0.0139855358185
-0.00266934831798
0.0153333244128
-0.00255413201581
0.0166159809748
-0.00243113731364
0.0178300930828
-0.00230165135059
0.0189729208201
-0.00216695409079
0.0200423839193
-0.0020282748077
0.0210370216256
-0.00188679836213
0.0219559648692
-0.00174362550664
0.0227988810439
-0.00159978966854
0.0235659394213
-0.00145622143354
0.0242577483602
-0.00131377527616
0.0248753211431
-0.00117319729206
0.0254200117269
-0.00103516023942
0.0258934862725
-0.000900232755377
0.0262976613781
-0.000768920418685
0.0266346841397
-0.000641634372905
0.0269068744693
-0.000518736092819
0.0271167142819
-0.000400503686433
0.0272667936789
-0.000287178672756
0.0273598084154
-0.00017892912775
0.0273985088004
-7.58977050971e-05
0.0273857036645
2.18384187186e-05
0.0273242082691
0.000114218996431
0.0272168615689
0.000201242850824
0.0270664849817
0.000282914950388
0.0268758893797
0.000359294717939
0.0266478263102
0.000430443566144
0.0263850120243
0.00049647049581
0.0260900825585
0.000557479809172
0.0257656201781
0.000613619262703
0.025414108648
0.000665026506679
0.0250379637242
0.000711878489721
0.0246394889851
0.000754337245811
0.0242209100896
0.000792600349205
0.0237843311286
0.000826846216529
0.0233317722988
0.000857285330202
0.0228651267667
0.000884105207419
0.0223862014527
0.000907522145409
0.0218966744332
0.000927726041973
0.0213981385321
0.000944932453003
0.0208920592827
0.000959327477536
0.0203798209979
0.000971119973022
0.0198626852708
0.000980486755205
0.019341839112
0.000987624844075
0.0188183538976
0.000992697237376
0.0182932350843
0.000995885081461
0.0177673814389
0.000997334275697
0.0172416357558
0.000997207443192
0.0167167441511
0.000995631586966
0.0161934071701
0.000992749708781
0.0156722389282
0.000988669698375
0.0151538179887
0.000983515395938
0.0146386461773
0.000977376841257
0.0141271986721
0.000970360535915
0.0136198824193
0.000962541144741
0.0131170849584
0.00095401067168
0.0126191324918
0.000944831677959
0.0121263370876
0.000935085071828
0.0116389546067
0.000924824912419
0.0111572300244
0.000914124505243
0.0106813555512
0.000903032875206
0.0102115139085
0.000891618877129
0.00974783710524
0.000879929462519
0.00929044754802
0.000868031529483
0.00883941801025
0.000855972146522
0.00839481048149
0.000843817894611
0.0079566379222
0.000831617261009
0.00752490073574
0.000819437241851
0.00709955089969
0.00080732815027
0.00668052591734
0.000795357268178
0.00626771590475
0.000783576341535
0.00586099483485
0.00077205207282
0.00546019110249
0.000760836573116
0.00506511585232
0.000749994484289
0.00467553750882
0.000739576631051
0.00429120697583
0.000729643503837
0.00391183658463
0.00072024222389
0.003537121975
0.000711425901233
0.00316672581772
0.000703233569566
0.0028002957107
0.000695704078382
0.00243745075764
0.000688856940601
0.00207778661161
0.000682696545892
0.00172083389328
0.000677187615794
0.00136594744009
0.000672245587405
0.0010119134997
0.000667705806142
0.000655267850033
0.000663273652838
0.000285792243976
0.000656099571884
0.000609460555336
0.00151599214317
-0.00435297855311
0.00320016708353
-0.00482206170791
0.00487770820945
-0.00480528439666
0.00653133965692
-0.00473883148161
0.00815289978753
-0.00464879234314
0.00973512119652
-0.00453778568334
0.0112712400908
-0.00440737931547
0.0127550764483
-0.00425927045544
0.0141810967633
-0.00409530812539
0.0155444609583
-0.0039174357205
0.0168410370029
-0.00372765332384
0.0180674096163
-0.00352796396603
0.0192208611655
-0.00332034621989
0.0202993544249
-0.00310670871037
0.0213014901014
-0.0028888753958
0.0222264732971
-0.00266855015195
0.0230740568521
-0.00244731552977
0.0238445003496
-0.00222660736427
0.0245385075837
-0.0020077259496
0.0251571856762
-0.00179181898274
0.0257019832895
-0.00157990260515
0.0261746552929
-0.00137284970404
0.0265772058844
-0.00117141725706
0.0269118615056
-0.000976236459665
0.0271810202838
-0.000787842776152
0.0273872333668
-0.000606664917704
0.0275331600673
-0.000433055091523
0.0276215563205
-0.00026727535495
0.0276552341127
-0.00010952715615
0.027637055604
4.00650028577e-05
0.0275698960752
0.000181424812013
0.0274566421961
0.000314542754653
0.0273001588346
0.0004394424603
0.0271032913556
0.000556206090754
0.0268688332537
0.000664943612038
0.0265995329135
0.000765812546697
0.0262980636491
0.000858988778436
0.0259670340998
0.000944688304674
0.0256089601884
0.00102313785811
0.0252262784922
0.00109459744594
0.0248213199046
0.00115933100892
0.0243963256542
0.00121762962371
0.0239534225483
0.00126978223666
0.0234946413625
0.00131609931599
0.0230218935764
0.00135688367084
0.0225369919246
0.001392454391
0.0220416286061
0.00142311782314
0.021537397793
0.00144919168227
0.0210257752562
0.00147097630159
0.0205081426058
0.00148877889317
0.0199857682464
0.00150288526054
0.0194598330395
0.0015135842132
0.0189314123836
0.00152113994707
0.0184015029016
0.0015258166579
0.0178710053814
0.00152785179956
0.0173407519992
0.00152748089829
0.0168114897572
0.00152491183847
0.0162839077191
0.00152034984405
0.0157586205976
0.00151397288324
0.0152361954774
0.00150595668844
0.0147171352166
0.00149645127932
0.0142019042081
0.00148560584051
0.0136909113846
0.00147354630987
0.0131845346685
0.00146039985923
0.0126831034699
0.0014462734425
0.0121869216166
0.00143127761869
0.0116962494087
0.00141550595945
0.0112113249386
0.00139905793891
0.0107323458705
0.00138201911218
0.0102594891801
0.00136448284455
0.0097928929606
0.00134653122894
0.00933267467327
0.00132825545473
0.00887891332493
0.00130973747966
0.00843166636319
0.00129106890534
0.00799095262345
0.00127233348482
0.00755676798866
0.0012536244013
0.00712906947323
0.0012350277316
0.00670778974797
0.00121663807322
0.00629282271399
0.00119854312058
0.00588403693604
0.0011808375905
0.00548126298728
0.00116360907127
0.00508430579045
0.00114695020595
0.00469293395724
0.00113094595575
0.00430689095356
0.00111568395088
0.00392588651051
0.00110124322903
0.00354960631633
0.0010877025579
0.0031777050626
0.0010751305361
0.00280981318259
0.00106359151003
0.00244552821361
0.00105313690127
0.00208441034809
0.00104380928657
0.00172595383491
0.00103563884201
0.0013695343493
0.001028659843
0.00101429346295
0.00102294110645
0.000659050821261
0.00101851093349
0.000304191390168
0.00101095444971
0.000913649803858
0.00153932749806
-0.00589224871122
0.0032465273756
-0.00652920177882
0.00494721890988
-0.00650591461427
0.00662332346125
-0.0064148751448
0.0082662109437
-0.00629161878546
0.00986828985809
-0.00613980375553
0.0114225732772
-0.0059616020002
0.0129227239686
-0.00575936056047
0.0143631065116
-0.0055356302701
0.0157388257636
-0.00529309475053
0.0170457394109
-0.00503450700606
0.0182804592098
-0.00476262403496
0.0194403296772
-0.0044801572961
0.0205234018183
-0.00418972176523
0.0215283884043
-0.00389380332482
0.0224546205755
-0.00359472404938
0.0233019898525
-0.00329462706209
0.0240708973034
-0.00299545753421
0.0247621913938
-0.00269896339005
0.0253771179763
-0.00240668946205
0.025917261198
-0.00211999045981
0.026384500148
-0.0018400339128
0.026780957131
-0.00156782033468
0.0271089635486
-0.00130418967369
0.0273710165373
-0.00104984349346
0.0275697536178
-0.000805350494917
0.0277079162694
-0.000571167256988
0.0277883313123
-0.000347640738423
0.0278138793735
-0.00013502665265
0.0277874811865
6.65108815129e-05
0.0277120698353
0.000256882698127
0.0275905797955
0.000436078417709
0.0274259232586
0.000604143408851
0.0272209830623
0.000761189764311
0.0269785911097
0.000907377793787
0.0267015251737
0.00104291976367
0.026392489378
0.00116806457844
0.0260541142205
0.00128310251591
0.0256889394661
0.00138835037362
0.0252994167671
0.00148415695851
0.024887894613
0.00157088867285
0.0244566232059
0.00164893560429
0.0240077412636
0.00171869744776
0.0235432829244
0.00178059000138
0.023065166307
0.00183503133094
0.0225752023057
0.00188244853172
0.0220750848579
0.00192326411596
0.0215664015092
0.00195790299245
0.0210506253307
0.00198677915648
0.0205291271009
0.00201030293983
0.0200031687426
0.00202886816639
0.0194739168722
0.00204285979447
0.0189424375248
0.0020526417519
0.0184097107102
0.00205856511936
0.0178766260796
0.00206095684491
0.0173439980254
0.00206012858165
0.0168125618603
0.00205636642172
0.016282988948
0.0020499404158
0.0157558829429
0.00204109536345
0.0152317944411
0.00203006093164
0.0147112168749
0.00201704342799
0.0141946002572
0.0020022363332
0.013682346424
0.00198581288852
0.0131748215656
0.00196793677853
0.0126723506572
0.00194875530997
0.0121752286231
0.00192840994938
0.0116837139496
0.00190702985802
0.0111980384726
0.00188474199684
0.0107184003076
0.00186166481494
0.0102449723796
0.00183791768355
0.00977789491201
0.00181361459615
0.00931728289468
0.0017888727605
0.0088632184387
0.0017638062464
0.00841575741879
0.00173853364273
0.00797492202118
0.00171317166386
0.00754070678856
0.00168784184403
0.0071130716687
0.00166266417595
0.00669194765759
0.00163776286733
0.00627723061346
0.00161326012629
0.00586878663258
0.00158928103106
0.00546644682608
0.00156594759436
0.00507001249068
0.00154338280441
0.00467925095846
0.00152170509528
0.00429390051208
0.00150103159821
0.00391366724371
0.00148147312114
0.00353822940317
0.00146313663928
0.00316723472536
0.00144612092909
0.00280030304575
0.00143051854375
0.00243702200754
0.00141641288565
0.00207694437946
0.00140388166122
0.00171957748492
0.00139300030756
0.00136437458007
0.00138385731446
0.0010107446089
0.00137656567085
0.000658268770674
0.00137098119154
0.000308767137863
0.00136045115498
0.00122241491647
0.00156928392033
-0.00746147601355
0.00330834436134
-0.00826820084299
0.00504030328513
-0.00823781323978
0.00674645344488
-0.00812096443618
0.00841772082757
-0.00796282565754
0.0100461439507
-0.00776816632646
0.0116244481823
-0.00753984587043
0.0131460864604
-0.00728093855979
0.0146052872034
-0.00699477093449
0.0159970857325
-0.00668483334101
0.0173173320814
-0.00635469367853
0.0185626833149
-0.00600791579244
0.0197305763183
-0.0056479911671
0.0208191911505
-0.00527827773746
0.0218274001522
-0.00490195390276
0.022754713845
-0.00452197967114
0.0236012176018
-0.00414107328176
0.0243675108322
-0.00376169366683
0.0250546413322
-0.00338603742777
0.025664046969
-0.00301603916392
0.0261974957552
-0.00265338404616
0.026657036485
-0.00229952005806
0.0270449491005
-0.00195567919763
0.0273637066886
-0.00162289420661
0.0276159364752
-0.00130202114528
0.0278043917032
-0.00099375436197
0.0279319205916
-0.000698645784677
0.0280014448633
-0.000417115489056
0.028015933614
-0.000149466950097
0.0279783860226
0.000104106029694
0.0278918086302
0.00034350652324
0.0277592000088
0.000568732530045
0.0275835330954
0.00077985464429
0.0273677426578
0.000977023549491
0.0271147090504
0.00116045355026
0.0268272504449
0.0013304195245
0.0265081087579
0.00148724620491
0.0261599447976
0.0016313054101
0.0257853267138
0.00176300616574
0.0253867275569
0.00188279281557
0.0249665158437
0.00199113586065
0.0245269551775
0.00208853073838
0.0240701967061
0.00217548916601
0.023598280617
0.0022525383387
0.0231131303935
0.00232021259288
0.022616556109
0.0023790528656
0.0221102504653
0.00242959861255
0.0215957938377
0.00247238749837
0.0210746520561
0.00250794763823
0.0205481831052
0.00253679763062
0.0200176365366
0.002559439316
0.0194841616131
0.00257635835716
0.0189488080955
0.00258801777312
0.0184125354833
0.00259485931109
0.017876214787
0.0025972980093
0.017340638385
0.00259572454916
0.0168065222828
0.00259050100556
0.016274516039
0.00258196425927
0.0157452049869
0.00257042295899
0.0152191196903
0.0025561619135
0.014696737643
0.00253944013462
0.0141784918052
0.00252049599405
0.0136647714265
0.00249954609331
0.0131559293567
0.00247679086162
0.0126522817916
0.00245241392153
0.0121541142277
0.00242658776683
0.0116616801169
0.00239947328323
0.0111752055001
0.00237122515536
0.0106948867028
0.00234199124274
0.010220893824
0.00231191743674
0.00975336773058
0.00228114667949
0.00929242266231
0.00224982308086
0.00883814283769
0.00221809046835
0.00839058447608
0.00218609568268
0.00794977234888
0.0021539866487
0.00751570150414
0.00212191485326
0.00708833406146
0.00209003300564
0.0066676008823
0.00205849677364
0.0062533988564
0.00202746215636
0.00584559268847
0.00199708658957
0.00544401284044
0.00196752617818
0.00504845752378
0.00193893630012
0.00465869136692
0.00191146885238
0.00427444758493
0.00188527248246
0.00389542728452
0.00186049000825
0.00352130159911
0.00183725845168
0.00315171127427
0.00181570690666
0.00278626822493
0.00179595682408
0.00242455475897
0.00177812121012
0.00206612417063
0.001762306824
0.00171050143707
0.00174861758754
0.00135719160526
0.00173716171057
0.00100571267871
0.00172803874206
0.000655780686585
0.00172090759735
0.000309128502186
0.00170709859865
0.00153154116607
0.00160716290615
-0.00906858229674
0.00338740615161
-0.0100483854362
0.00515959818969
-0.0100099447308
0.00690425766054
-0.00986556392321
0.00861178912817
-0.00967029687007
0.0102737866188
-0.00943010379342
0.0118826215853
-0.00914862084672
0.0134314869955
-0.00882974414224
0.0149144450411
-0.00847766926125
0.0163264518596
-0.0080967806359
0.0176633584607
-0.00769154092296
0.0189218921166
-0.00726639035628
0.0200996198128
-0.00682566000891
0.0211948990317
-0.00637349845139
0.0222068171491
-0.00591381383416
0.0231351247388
-0.00545022951843
0.0239801635164
-0.00498605472585
0.0247427941587
-0.00452426751709
0.0254243241386
-0.00406751111778
0.0260264405491
-0.00361809992573
0.0265511470623
-0.00317803550709
0.0270007091608
-0.00274902784173
0.0273776052271
-0.0023325216359
0.0276844863866
-0.00192972256639
0.0279241411055
-0.00154162383626
0.0280994666158
-0.0011690287542
0.0282134424452
-0.000812571343112
0.0282691083615
-0.000472732115548
0.0282695423061
-0.000149852518447
0.0282178415032
0.000155854168834
0.0281171031911
0.000444291205569
0.0279704070432
0.000715473958055
0.0277808004523
0.000969505504616
0.0275512837049
0.00120658344445
0.0272847966484
0.0014269827168
0.0269842085454
0.00163104859524
0.0266523073047
0.00181918735793
0.0262917921826
0.00199185929268
0.0259052655266
0.00214957051859
0.0254952277708
0.00229286711388
0.0250640712192
0.00242232788861
0.0246140769641
0.00253855932047
0.024147410466
0.00264218892886
0.0236661202517
0.00273386067732
0.0231721352419
0.00281422867139
0.0226672652276
0.00288395282216
0.0221531999785
0.00294369275901
0.0216315115297
0.00299410373402
0.0211036550919
0.00303583083016
0.0205709731174
0.00306950526802
0.0200346979258
0.00309573915321
0.0194959573751
0.00311512248289
0.0189557789488
0.00312821877344
0.0184150966764
0.00313556311049
0.0178747562461
0.00313765898529
0.0173355226528
0.00313497766583
0.0167980857664
0.00312795645436
0.0162630680987
0.00311699949437
0.0157310302126
0.00310247747457
0.0152024780025
0.00308472978581
0.0146778673917
0.00306406549302
0.0141576106264
0.00304076656859
0.0136420798496
0.00301508978903
0.0131316120821
0.0029872706377
0.0126265114547
0.00295752568983
0.0121270527552
0.00292605672398
0.0116334823058
0.00289305314459
0.0111460201477
0.00285869586679
0.0106648597303
0.00282315938696
0.0101901689632
0.00278661509569
0.00972208900879
0.00274923271777
0.00926073452696
0.00271118283482
0.00880619192688
0.00267263755113
0.00835851916379
0.00263377214276
0.00791774381092
0.00259476493223
0.0074838627434
0.00255579809728
0.00705684035007
0.00251705683957
0.00663660838221
0.00247872946903
0.00622306455398
0.00244100601859
0.00581607274921
0.0024040777686
0.00541546217278
0.00236813549164
0.00502102801348
0.00233336860227
0.00463253120844
0.00229996322851
0.00424969955562
0.0022681011788
0.00387222803732
0.00223795805418
0.00349978026968
0.00220970226448
0.00313198924298
0.00218349349326
0.00276845900763
0.00215948218737
0.00240876596528
0.0021378090006
0.0020524616791
0.00211860562809
0.00169907740922
0.00210199618781
0.00134813501472
0.0020880984266
0.00099917367753
0.00207699449513
0.000651886120005
0.00206818932253
0.000307824099708
0.00205115545606
0.00183936319049
0.00165379107444
-0.0107223178642
0.00348499623243
-0.0118795300573
0.00530691650952
-0.0118318058956
0.00709907294582
-0.0116576605144
0.00885121529642
-0.0114223797731
0.0105543953021
-0.0111332242537
0.012200555426
-0.0107947215887
0.0137825793918
-0.0104117087717
0.0152943378761
-0.00998936856607
0.0167307060719
-0.00953308975633
0.0180875538747
-0.00904832986454
0.0193617142815
-0.00854049206826
0.0205509329332
-0.00801482026142
0.0216538043641
-0.00747631172561
0.0226696971473
-0.00692964884998
0.0235986730955
-0.00637914802838
0.0244414020638
-0.0058287267455
0.0251990774262
-0.00528188635284
0.0258733333483
-0.00474171110603
0.0264661686914
-0.00421087985153
0.0269798777199
-0.00369168981284
0.0274169913119
-0.00318608732083
0.0277802269266
-0.00269570392941
0.0280724491228
-0.00222189213925
0.0282966367937
-0.00176575976435
0.0284558575851
-0.00132819858139
0.0285532449185
-0.000909908671727
0.0285919784448
-0.000511416486784
0.0285752642083
-0.000133090152964
0.0285063165609
0.000224849035962
0.0283883397295
0.000562314176289
0.028224512259
0.000879346607937
0.0280179686242
0.00117609319477
0.02777178813
0.00145280700131
0.0274889807202
0.00170983203978
0.0271724771088
0.0019475931061
0.026825118965
0.00216658523749
0.0264496518141
0.00236736515355
0.0260487176829
0.00255054219025
0.0256248501433
0.00271677116392
0.0251804688501
0.00286674452468
0.0247178763131
0.00300118617117
0.0242392540968
0.003120844298
0.023746661233
0.00322648567017
0.0232420321064
0.00331888877788
0.0227271765946
0.00339883829773
0.0222037797696
0.00346711841259
0.0216734038909
0.00352450743596
0.0211374900252
0.00357177140106
0.0205973619396
0.00360965906555
0.0200542296118
0.00363889609393
0.0195091948865
0.00366018084247
0.0189632566271
0.00367417959006
0.0184173177618
0.00368152357031
0.0178721915941
0.00368280569421
0.0173286096503
0.00367857920709
0.0167872284878
0.00366935618738
0.0162486376382
0.00365560799106
0.0157133661976
0.00363776556292
0.0151818901662
0.00361622156419
0.0146546381731
0.00359133226314
0.0141319976416
0.00356342099908
0.0136143191792
0.00353278120931
0.0131019212078
0.00349968071214
0.0125950927792
0.00346436530865
0.0120940965553
0.0034270633044
0.0115991700554
0.00338798911392
0.0111105271002
0.00334734747704
0.0106283577024
0.00330533657626
0.0101528282673
0.00326215152446
0.00968408048246
0.0032179866543
0.00922223066934
0.00317303801736
0.00876736809202
0.00312750467838
0.00831955387963
0.00308159013936
0.00787881916984
0.00303550263264
0.00744516398613
0.00298945552795
0.00701855556995
0.00294366674315
0.00659892751999
0.00289835829358
0.00618617858156
0.0028537550179
0.00578017225723
0.00281008348507
0.00538073621902
0.00276757026872
0.00498766249809
0.00272644045084
0.00460070758343
0.00268691568766
0.00421959320357
0.00264921255306
0.00384400708356
0.002613540643
0.00347360428766
0.00258010102237
0.00310800860585
0.00254908465083
0.00274681455692
0.00252067125405
0.0023895897612
0.00249502843244
0.00203587841358
0.00247231129497
0.00168520672469
0.00245266219449
0.00133709144203
0.00243620803323
0.00099105717722
0.00242302256903
0.000646747381702
0.00241249330309
0.000305582841144
0.00239231510412
0.00214494366466
0.00170998393928
-0.0124322463689
0.00360265665599
-0.0137721458021
0.00548449798938
-0.0137135879577
0.00733376891912
-0.0135068728588
0.00913940809473
-0.013227959979
0.0108918069394
-0.0128855643621
0.0125823977373
-0.0124852536232
0.0142037061537
-0.0120329585567
0.015749393219
-0.0115349970491
0.017214261455
-0.0109978995673
0.0185942305554
-0.0104282406443
0.0198862881651
-0.00983249158464
0.0210884218382
-0.00921689601592
0.0221995365973
-0.00858736888309
0.0232193627471
-0.00794941765659
0.0241483571939
-0.0073080855492
0.0249876023758
-0.00666791535243
0.0257387058507
-0.00603293377479
0.0264037047634
-0.00540665441302
0.0269849780599
-0.00479209816965
0.0274851700173
-0.00419182733543
0.027907126369
-0.00360798996619
0.0282538442168
-0.00304236870727
0.0285284340134
-0.00249642968912
0.0287340919047
-0.00197136613157
0.0288740785411
-0.00146813460215
0.0289517018472
-0.000987482162089
0.0289703005228
-0.000529966329206
0.0289332275573
-9.59692213397e-05
0.0288438326991
0.000314290816656
0.028705442755
0.00070075012188
0.0285213504025
0.0010634838652
0.0282947931174
0.00140269441951
0.0280289409193
0.00171870201114
0.0277268845435
0.00201193023623
0.0273916251733
0.00228289314978
0.0270260661927
0.00253218388431
0.0266330059582
0.00276046389846
0.0262151319682
0.0029684536759
0.0257750155921
0.00315692387852
0.0253151078699
0.00332668756885
0.0248377357271
0.00347859248402
0.0243450992028
0.00361351397869
0.0238392691551
0.00373234773123
0.0233221860554
0.00383600288304
0.0227956593983
0.00392539482966
0.0222613683109
0.00400143837502
0.0217208629181
0.00406504058779
0.0211755669828
0.00411709410511
0.0206267813776
0.00415847034065
0.0200756888027
0.00419001336039
0.0195233592791
0.00421253397785
0.0189707567085
0.00422680480778
0.0184187459914
0.00423355587651
0.0178681008795
0.00423347144705
0.0173195120397
0.0042271876539
0.0167735954229
0.00421529148148
0.0162309004375
0.00419832064655
0.0156919179835
0.00417676477865
0.0151570879092
0.0041510674211
0.0146268059508
0.00412162911825
0.0141014298066
0.00408881108999
0.0135812844388
0.00405293966126
0.0130666663588
0.00401431095471
0.012557847035
0.00397319595434
0.0120550752808
0.00392984548576
0.0115585788024
0.00388449519829
0.011068564856
0.00383737015876
0.0105852202134
0.00378868914882
0.0101087104613
0.00373866835711
0.00963917882268
0.0036875245811
0.00917674458096
0.00363547771754
0.0087215012588
0.00358275267839
0.00827351466845
0.00352958059883
0.00783282092478
0.00347619947934
0.00739942456582
0.00342285420731
0.00697329679738
0.00336979608741
0.00655437402727
0.00331728189265
0.00614255662943
0.0032655725337
0.00573770811818
0.00321493141654
0.00533965460525
0.00316562254008
0.00494818472493
0.00311790845556
0.00456304984992
0.0030720480861
0.00418396478462
0.00302829457457
0.00381060872987
0.00298689310623
0.00344262672924
0.00294807891155
0.00307963139427
0.00291207535722
0.00272120521478
0.00287909234242
0.00236690331725
0.0028493248369
0.00201625720119
0.00282295167907
0.00166877931048
0.00280013411756
0.00132396940899
0.00278101194978
0.000981326642719
0.00276565952019
0.000640448259502
0.00275336554545
0.000302668072755
0.0027300898582
0.00244760960258
0.00177668986965
-0.0142088824188
0.00374230245518
-0.0157376992815
0.00569514483512
-0.0156663730369
0.00761193293897
-0.0154236027412
0.00948060864905
-0.0150965779082
0.0112907719178
-0.014695669673
0.013033257557
-0.0142276814376
0.01470018878
-0.013699831936
0.016285008807
-0.0131197593408
0.0177824705449
-0.0124953036067
0.0191885909217
-0.011834303485
0.0205005792721
-0.0111444224973
0.0217167460359
-0.0104330055882
0.0228363982668
-0.00970696409972
0.0238597254009
-0.00897268812141
0.0247876800459
-0.00823598379293
0.0256218564053
-0.00750203576158
0.0263643714444
-0.0067753932284
0.0270177520266
-0.00605997996898
0.02758483375
-0.00535912532949
0.0280686742436
-0.00467561393024
0.0284724849405
-0.00401174732258
0.0287995806593
-0.00336941185065
0.0290533466264
-0.00275014372921
0.0292372176361
-0.00215518607116
0.0293546656636
-0.00158553229116
0.0294091894534
-0.00104195655168
0.0294043038604
-0.000525032141681
0.0293435256795
-3.51434532491e-05
0.0292303574618
0.000427505754446
0.0290682666696
0.000862886569514
0.0288606751724
0.0012711200971
0.0286109365317
0.00165247668625
0.0283223240756
0.00200735714001
0.0279980191252
0.00233627672593
0.0276411021606
0.00263985067953
0.0272545450513
0.00291878041225
0.0268412053646
0.00317384201817
0.0264038208626
0.00340587546005
0.0259450054154
0.00361577561777
0.0254672447437
0.00380448338465
0.0249728934267
0.0039729779552
0.0244641717899
0.00412226862881
0.0239431641664
0.00425338738167
0.0234118172385
0.00436738070733
0.0228719399334
0.00446530205026
0.0223252036294
0.00454820347641
0.02177314409
0.0046171279507
0.0212171639019
0.00467310101323
0.0206585367303
0.00471712326682
0.0200984121467
0.00475016261194
0.0195378221884
0.00477314764905
0.018977688361
0.00478696128089
0.0184188300719
0.00479243586911
0.0178619731763
0.00479034900106
0.0173077594802
0.00478142108189
0.0167567558981
0.00476631377546
0.0162094640182
0.00474563033026
0.015666328846
0.00471991676204
0.0151277474414
0.0046896647499
0.0145940763397
0.00465531518067
0.0140656384763
0.00461726304932
0.013542728653
0.00457586264644
0.0130256182901
0.00453143363677
0.0125145586597
0.00448426699775
0.0120097833707
0.00443463136552
0.0115115094433
0.00438277883466
0.0110199377638
0.00432895074192
0.0105352523658
0.00427338258956
0.0100576193268
0.00421630864608
0.00958718480668
0.00415796550733
0.00912407297861
0.00409859516863
0.0086683834302
0.00403844702163
0.00822018872417
0.0039777793257
0.0077795317247
0.00391685968972
0.00734642329549
0.00385596508653
0.00692084000301
0.00379538104584
0.00650272233042
0.00373540049219
0.00609197307329
0.0036763219723
0.00568845630782
0.00361844766043
0.0052919966587
0.00356208097742
0.00490237913145
0.00350752411999
0.00451934931213
0.00345507542023
0.00414261407549
0.00340502673319
0.00377184269096
0.00335766084735
0.00340666838953
0.00331324902018
0.0030466903495
0.00327204868184
0.00269147617237
0.00323430130877
0.00234056486125
0.0032002305262
0.00199347027244
0.00317004028965
0.00164968548097
0.00314391295008
0.00130868729576
0.00312200415929
0.000969945245203
0.00310439496774
0.000633017702849
0.00309028698691
0.000299172049321
0.00306393043138
0.00274677914734
0.00185506881676
-0.0160638976737
0.00390629854925
-0.01778887449
0.00594233347123
-0.0177023506948
0.00793800189393
-0.0174192147114
0.00988004066111
-0.0170385597095
0.011757109909