/*--------------------------------*- C++ -*----------------------------------*\
| =========                 |                                                 |
| \\      /  F ield         | OpenFOAM: The Open Source CFD Toolbox           |
|  \\    /   O peration     | Version:  v1906                                 |
|   \\  /    A nd           | Web:      www.OpenFOAM.com                      |
|    \\/     M anipulation  |                                                 |
\*---------------------------------------------------------------------------*/
FoamFile
{
    version     2.0;
    format      ascii;
    class       volVectorField;
    location    "752";
    object      U;
}
// * * * * * * * * * * * * * * * * * * * * * * * * * * * * * * * * * * * * * //

dimensions      [0 1 -1 0 0 0 0];


internalField   nonuniform List<vector> 
9216
(
(0.00271022754721 -0.0027123656961 0)
(0.00285755311182 -0.00875316122658 1.171375036e-27)
(0.00284939133599 -0.0148879976595 1.84084271147e-31)
(0.00281211610236 -0.0210232143066 0)
(0.00276035443506 -0.0270556358633 0)
(0.00269559242524 -0.0329609837921 0)
(0.00261948601283 -0.0387134317457 0)
(0.00253341240369 -0.0442899869759 0)
(0.00243863478431 -0.0496704719177 0)
(0.00233646664961 -0.0548374654551 0)
(0.00222812719727 -0.059776316121 0)
(0.00211487053764 -0.0644750302842 0)
(0.00199780026907 -0.0689241989886 0)
(0.00187803084123 -0.0731167925806 0)
(0.00175648351551 -0.0770480142456 0)
(0.00163408699684 -0.080715043506 0)
(0.0015115548836 -0.0841168635021 0)
(0.00138962388894 -0.0872539983276 0)
(0.00126880943227 -0.0901283511434 0)
(0.00114967756341 -0.0927429652898 0)
(0.00103257487108 -0.0951018946415 0)
(0.000917930655583 -0.0972100030742 0)
(0.000805958870047 -0.0990728730673 0)
(0.000696987517237 -0.100696644939 0)
(0.000591131409717 -0.102087960564 0)
(0.000488647006517 -0.103253837214 0)
(0.000389576612385 -0.104201637474 0)
(0.00029412713241 -0.104938968981 0)
(0.000202287174126 -0.105473671993 0)
(0.000114230058521 -0.10581373941 0)
(2.99085711189e-05 -0.105967300873 0)
(-5.05430673668e-05 -0.105942622678 0)
(-0.000127235012478 -0.105747951953 0)
(-0.000200047501335 -0.10539154552 0)
(-0.000269097715757 -0.104881699882 0)
(-0.000334287646962 -0.104226662552 0)
(-0.000395770038143 -0.103434635465 0)
(-0.000453469342318 -0.1025137231 0)
(-0.000507565055091 -0.101471928989 0)
(-0.000558000069805 -0.100317112602 0)
(-0.000604976473355 -0.0990569855176 0)
(-0.00064845285959 -0.0976990768352 0)
(-0.000688649352388 -0.0962507285314 0)
(-0.000725536924036 -0.0947190694349 0)
(-0.00075934907059 -0.0931110107122 0)
(-0.000790065806888 -0.0914332292618 0)
(-0.000817928931527 -0.0896921628379 0)
(-0.000842923925854 -0.0878940023685 0)
(-0.000865296225919 -0.0860446871965 0)
(-0.000885033725143 -0.0841499064413 0)
(-0.000902381021987 -0.0822150933521 0)
(-0.000917325682576 -0.0802454345319 0)
(-0.000930107931096 -0.0782458633847 0)
(-0.000940713249919 -0.0762210766794 0)
(-0.000949374604462 -0.0741755257171 0)
(-0.000956074327479 -0.0721134385968 0)
(-0.00096103647227 -0.0700388088113 0)
(-0.000964240317068 -0.0679554223624 0)
(-0.000965900136458 -0.0658668423948 0)
(-0.000965992944976 -0.0637764395002 0)
(-0.000964723471815 -0.0616873722493 0)
(-0.000962068148909 -0.0596026199991 0)
(-0.000958222854387 -0.0575249584155 0)
(-0.000953165369917 -0.0554569936171 0)
(-0.000947083954628 -0.0534011331417 0)
(-0.0009399599209 -0.0513596213227 0)
(-0.00093197498342 -0.0493345055859 0)
(-0.000923115781148 -0.0473276726265 0)
(-0.000913558441178 -0.0453408111508 0)
(-0.000903296360819 -0.0433754493148 0)
(-0.000892500399688 -0.0414329144227 0)
(-0.000881171371867 -0.0395143716911 0)
(-0.000869474739105 -0.0376207822881 0)
(-0.000857418807988 -0.0357529440491 0)
(-0.000845162819403 -0.0339114485 0)
(-0.00083272192935 -0.0320967236466 0)
(-0.000820247963819 -0.0303089911383 0)
(-0.000807761867642 -0.0285483115438 0)
(-0.000795406423452 -0.0268145420474 0)
(-0.000783206890013 -0.0251073841668 0)
(-0.000771295232896 -0.0234263427044 0)
(-0.000759699350718 -0.0217707760934 0)
(-0.000748538348349 -0.0201398568054 0)
(-0.000737840697629 -0.018532624401 0)
(-0.000727710041071 -0.0169479482778 0)
(-0.000718172004694 -0.0153845845054 0)
(-0.000709309081335 -0.013841143562 0)
(-0.000701133268813 -0.0123161569204 0)
(-0.000693682047363 -0.0108080654009 0)
(-0.000686895833955 -0.00931533275336 0)
(-0.000680618105051 -0.00783654755776 0)
(-0.000674322165278 -0.00637087020287 0)
(-0.000666587843774 -0.00491913930482 0)
(-0.000651070759982 -0.00349361723153 0)
(-0.000622950172108 -0.00200644942957 0)
(-0.000843785554261 -0.000843552041376 0)
(0.00877398745872 -0.00288739228913 0)
(0.00970162907801 -0.00977101410704 0)
(0.00967921503483 -0.0166418063815 -1.23007961307e-27)
(0.00954977657882 -0.0235179784053 0)
(0.00937063295918 -0.0302696418394 0)
(0.00914917542388 -0.0368750353286 0)
(0.00888975951872 -0.0433067347111 0)
(0.00859664625412 -0.0495394878142 0)
(0.00827408659976 -0.0555508872427 0)
(0.00792646134985 -0.0613215788387 0)
(0.00755799186113 -0.0668353116151 0)
(0.00717287170979 -0.0720788587862 0)
(0.00677494480077 -0.0770419005969 0)
(0.00636790966719 -0.0817168160358 0)
(0.00595499498001 -0.086098475655 0)
(0.00553924535901 -0.0901839761401 0)
(0.00512319032056 -0.0939724058346 0)
(0.00470920278456 -0.0974645762309 0)
(0.00429914892313 -0.100662804037 0)
(0.00389480592168 -0.103570673441 0)
(0.00349747973096 -0.106192858104 0)
(0.00310847023474 -0.108534928715 0)
(0.00272864776219 -0.110603221098 0)
(0.00235895692272 -0.112404689345 0)
(0.00199994700661 -0.113946815189 0)
(0.00165230959638 -0.115237498913 0)
(0.00131636245008 -0.116284999705 0)
(0.000992618402263 -0.117097853637 0)
(0.000681225154158 -0.117684833745 0)
(0.000382565397549 -0.118054883475 0)
(9.66590282237e-05 -0.118217094545 0)
(-0.000176226759727 -0.118180595676 0)
(-0.00043620882441 -0.117954664307 0)
(-0.000683102698909 -0.117548602733 0)
(-0.000917103678619 -0.116971683265 0)
(-0.00113811050528 -0.116233134211 0)
(-0.00134641564506 -0.115342116995 0)
(-0.00154199612742 -0.114307689643 0)
(-0.00172522753417 -0.113138787567 0)
(-0.00189615510623 -0.111844190567 0)
(-0.00205522560737 -0.110432505247 0)
(-0.00220254191669 -0.108912137814 0)
(-0.00233860829807 -0.107291279051 0)
(-0.00246357292995 -0.105577883691 0)
(-0.00257798274219 -0.103779658603 0)
(-0.00268201813781 -0.101904049169 0)
(-0.00277625315801 -0.0999582307433 0)
(-0.00286088714712 -0.0979491019766 0)
(-0.00293650642533 -0.0958832795259 0)
(-0.00300331719146 -0.0937670979826 0)
(-0.00306190448737 -0.0916066071952 0)
(-0.00311247096682 -0.0894075780165 0)
(-0.00315558937985 -0.0871755015964 0)
(-0.00319145126944 -0.0849155999776 0)
(-0.00322060887331 -0.0826328262092 0)
(-0.00324323801021 -0.080331878507 0)
(-0.00325986574926 -0.0780172002007 0)
(-0.00327065108845 -0.0756929962026 0)
(-0.00327609446385 -0.0733632315233 0)
(-0.0032763398984 -0.0710316487359 0)
(-0.00327186288219 -0.0687017642365 0)
(-0.00326279697536 -0.066376885726 0)
(-0.00324959641384 -0.064060105417 0)
(-0.00323239017955 -0.0617543167777 0)
(-0.00321161621302 -0.0594622045607 0)
(-0.00318740534053 -0.0571862605912 0)
(-0.00316018396967 -0.0549287706601 0)
(-0.00313009032249 -0.0526918294223 0)
(-0.0030975431098 -0.0504773248304 0)
(-0.00306269200948 -0.0482869526546 0)
(-0.00302594995894 -0.0461221991509 0)
(-0.00298747988661 -0.0439843557824 0)
(-0.00294768888942 -0.041874501164 0)
(-0.0029067527776 -0.0397935167276 0)
(-0.00286507058075 -0.0377420687309 0)
(-0.00282282847774 -0.0357206254167 0)
(-0.00278041358479 -0.03372943994 0)
(-0.00273801841311 -0.03176856953 0)
(-0.00269601300264 -0.0298378597962 0)
(-0.00265459098646 -0.0279369661168 0)
(-0.00261409944809 -0.0260653397748 0)
(-0.00257472725854 -0.0242222517702 0)
(-0.00253679197445 -0.0224067809345 0)
(-0.00250047086665 -0.0206178402016 0)
(-0.00246604395122 -0.0188541669715 0)
(-0.00243366698193 -0.0171143519655 0)
(-0.00240356784199 -0.0153968318458 0)
(-0.00237585628846 -0.0136999197691 0)
(-0.00235066105026 -0.0120217968029 0)
(-0.00232794623267 -0.0103605281552 0)
(-0.00230751736086 -0.00871399318461 0)
(-0.00228867304803 -0.00707970133808 0)
(-0.00226957863243 -0.00545391002493 0)
(-0.00224482795539 -0.00382862951169 0)
(-0.00218419613567 -0.00217928859837 0)
(-0.00200511327984 -0.000620843814293 0)
(0.0150203067328 -0.00293326574403 0)
(0.0166312158394 -0.0099318070702 0)
(0.0165705118437 -0.0168928561171 -1.22804039325e-27)
(0.0163395302213 -0.0238696783484 0)
(0.0160278146285 -0.030718325777 0)
(0.0156451526073 -0.0374155307871 0)
(0.0151980288723 -0.0439328276166 0)
(0.0146933994825 -0.0502444158313 0)
(0.0141385646486 -0.0563275605479 0)
(0.0135410054282 -0.0621627745586 0)
(0.0129080864866 -0.0677338325519 0)
(0.0122469655067 -0.0730276813722 0)
(0.011564349915 -0.0780342818958 0)
(0.010866499511 -0.0827463842391 0)
(0.0101590439681 -0.0871592783234 0)
(0.00944707494455 -0.0912705158415 0)
(0.00873501060213 -0.0950796402723 0)
(0.0080267571261 -0.0985879146672 0)
(0.00732559652401 -0.101798077404 0)
(0.00663439305995 -0.104714109764 0)
(0.00595548125488 -0.107341039878 0)
(0.00529089655713 -0.109684762445 0)
(0.00464224676909 -0.111751894495 0)
(0.00401095322068 -0.113549644498 0)
(0.0033980964008 -0.115085712562 0)
(0.00280466086691 -0.116368198561 0)
(0.00223135244112 -0.117405534408 0)
(0.00167884521739 -0.118206418551 0)
(0.0011475720261 -0.118779768284 0)
(0.00063797457343 -0.119134669594 0)
(0.000150269310743 -0.119280342403 0)
(-0.000315287258198 -0.1192260958 0)
(-0.000758650285072 -0.11898129836 0)
(-0.00117973089473 -0.118555341954 0)
(-0.0015786541878 -0.11795760935 0)
(-0.00195548121344 -0.117197440545 0)
(-0.0023104837014 -0.116284103561 0)
(-0.00264386017572 -0.115226762774 0)
(-0.0029560167854 -0.114034453094 0)
(-0.00324727455389 -0.112716051638 0)
(-0.00351815602147 -0.111280255083 0)
(-0.00376908549491 -0.109735556028 0)
(-0.00400068008325 -0.10809022427 0)
(-0.00421344494032 -0.106352288559 0)
(-0.00440806744805 -0.104529522639 0)
(-0.00458510947274 -0.102629432919 0)
(-0.00474530342151 -0.100659249257 0)
(-0.00488924368814 -0.0986259184322 0)
(-0.00501768339089 -0.0965360997247 0)
(-0.00513122703283 -0.0943961639082 0)
(-0.00523062662111 -0.0922121928453 0)
(-0.00531647760324 -0.0899899831634 0)
(-0.00538951312084 -0.087735049233 0)
(-0.00545030504411 -0.0854526306027 0)
(-0.00549955497606 -0.0831476970325 0)
(-0.00553780214912 -0.0808249583485 0)
(-0.00556570980333 -0.0784888704945 0)
(-0.00558378136896 -0.0761436465752 0)
(-0.00559264065461 -0.0737932624477 0)
(-0.00559275758798 -0.071441467597 0)
(-0.00558472063267 -0.069091789364 0)
(-0.00556897298697 -0.0667475427163 0)
(-0.00554607550485 -0.0644118321228 0)
(-0.00551645413801 -0.0620875594869 0)
(-0.00548065173439 -0.0597774235004 0)
(-0.0054390872669 -0.0574839256291 0)
(-0.00539229492455 -0.055209366872 0)
(-0.0053406957179 -0.0529558519815 0)
(-0.00528482256766 -0.0507252843174 0)
(-0.00522510481012 -0.0485193689762 0)
(-0.00516207819552 -0.0463396063741 0)
(-0.00509618296637 -0.044187295027 0)
(-0.00502795804029 -0.0420635249202 0)
(-0.00495785331037 -0.0399691808315 0)
(-0.00488640748773 -0.0379049362121 0)
(-0.00481407536631 -0.0358712577343 0)
(-0.00474138906187 -0.033868400512 0)
(-0.00466880087526 -0.0318964144583 0)
(-0.00459682773335 -0.0299551412154 0)
(-0.00452591025376 -0.0280442226091 0)
(-0.00445654028497 -0.0261630996583 0)
(-0.00438913656048 -0.0243110232812 0)
(-0.00432415511105 -0.0224870553543 0)
(-0.00426198166028 -0.020690081543 0)
(-0.00420302439358 -0.0189188142209 0)
(-0.00414762249623 -0.017171806746 0)
(-0.00409611967607 -0.0154474566359 0)
(-0.00404878640706 -0.0137440178865 0)
(-0.00400587010808 -0.0120595963945 0)
(-0.00396752637603 -0.0103921412813 0)
(-0.00393384767276 -0.00873939212609 0)
(-0.00390484096097 -0.00709875524823 0)
(-0.00388054799118 -0.00546695241947 0)
(-0.00386085437669 -0.00383835863941 0)
(-0.00382960065108 -0.00222727331186 0)
(-0.0034847326536 -0.000645250392876 0)
(0.0214144545499 -0.00297860614281 0)
(0.0237293468846 -0.0100822299818 0)
(0.0236396417199 -0.0171388230805 1.22747002474e-27)
(0.0233050669982 -0.0242119042289 0)
(0.0228544179202 -0.0311514606243 0)
(0.0223021513886 -0.0379327324892 0)
(0.0216577044458 -0.0445260754601 0)
(0.0209311728768 -0.0509049853568 0)
(0.0201332070812 -0.0570463736761 0)
(0.0192746689588 -0.0629307007732 0)
(0.0183662763261 -0.0685419384939 0)
(0.0174183573455 -0.0738674363892 0)
(0.0164406088483 -0.078897709773 0)
(0.0154419796726 -0.083626170005 0)
(0.0144305447197 -0.088048825694 0)
(0.0134135035456 -0.09216396936 0)
(0.0123971441388 -0.0959718711616 0)
(0.0113869228024 -0.0994744862978 0)
(0.0103874799451 -0.102675189812 0)
(0.00940276348855 -0.10557853813 0)
(0.00843606181157 -0.108190064651 0)
(0.00749014038826 -0.110516103708 0)
(0.00656726728113 -0.11256364625 0)
(0.00566934389819 -0.114340218955 0)
(0.00479790978934 -0.115853788145 0)
(0.00395425907291 -0.117112679602 0)
(0.00313942076052 -0.118125515279 0)
(0.00235426006589 -0.118901158674 0)
(0.0015994366201 -0.119448670349 0)
(0.000875494334597 -0.119777266843 0)
(0.00018280235488 -0.1198962837 0)
(-0.000478357620495 -0.119815152018 0)
(-0.00110785869255 -0.119543334761 0)
(-0.00170565388462 -0.119090321766 0)
(-0.00227184710178 -0.118465590315 0)
(-0.00280660729057 -0.117678571976 0)
(-0.00331024667734 -0.116738621925 0)
(-0.00378313286671 -0.115654988211 0)
(-0.00422576779806 -0.114436783592 0)
(-0.00463869608885 -0.113092958075 0)
(-0.00502258435004 -0.111632274332 0)
(-0.00537812635298 -0.110063284602 0)
(-0.00570612254319 -0.108394310726 0)
(-0.00600738307699 -0.106633426356 0)
(-0.00628280766599 -0.104788442304 0)
(-0.00653328751785 -0.102866894475 0)
(-0.00675978563787 -0.100876034723 0)
(-0.00696323889498 -0.0988228245384 0)
(-0.00714463896709 -0.0967139312431 0)
(-0.00730493554035 -0.0945557269844 0)
(-0.00744511795088 -0.0923542896491 0)
(-0.00756612060209 -0.0901154064376 0)
(-0.00766890534894 -0.0878445786064 0)
(-0.00775436993114 -0.0855470285138 0)
(-0.00782343094794 -0.0832277069698 0)
(-0.00787693608065 -0.080891302477 0)
(-0.00791574739668 -0.0785422498471 0)
(-0.00794065772727 -0.0761847401916 0)
(-0.00795247373351 -0.0738227293764 0)
(-0.00795193666023 -0.0714599474292 0)
(-0.00793980441131 -0.0690999056258 0)
(-0.00791677646626 -0.0667459041929 0)
(-0.00788357394212 -0.0644010371025 0)
(-0.00784086838607 -0.0620681974142 0)
(-0.00778935876537 -0.0597500794054 0)
(-0.0077297036302 -0.0574491813796 0)
(-0.00766259396471 -0.0551678052186 0)
(-0.007588688401 -0.0529080570156 0)
(-0.00750868110616 -0.0506718446604 0)
(-0.00742323978711 -0.0484608770215 0)
(-0.00733306801963 -0.0462766604096 0)
(-0.00723884613079 -0.044120497257 0)
(-0.00714128772467 -0.0419934824807 0)
(-0.00704108364934 -0.0398965026095 0)
(-0.006938952691 -0.0378302329305 0)
(-0.00683558908253 -0.0357951378796 0)
(-0.00673170754499 -0.0337914697217 0)
(-0.00662799477136 -0.0318192707852 0)
(-0.00652514903224 -0.0298783741091 0)
(-0.00642383611812 -0.0279684078384 0)
(-0.00632472373308 -0.0260887980757 0)
(-0.00622844220448 -0.0242387755125 0)
(-0.00613561375573 -0.0224173804007 0)
(-0.00604681816328 -0.0206234711651 0)
(-0.00596261681458 -0.0188557310204 0)
(-0.00588352317466 -0.0171126776093 0)
(-0.00581002133066 -0.0153926694466 0)
(-0.00574254129943 -0.0136939132347 0)
(-0.00568147331309 -0.0120144644807 0)
(-0.00562715323469 -0.0103522227672 0)
(-0.00557989005459 -0.0087049121151 0)
(-0.00554000817516 -0.00707004758668 0)
(-0.00550792546886 -0.00544489313897 0)
(-0.00548316470541 -0.00382507450564 0)
(-0.00543963982318 -0.00223267561552 0)
(-0.00489247378053 -0.000655058575977 0)
(0.0279154327656 -0.00303814634141 0)
(0.0309361945584 -0.0102800119207 0)
(0.0308148792428 -0.0174691466274 0)
(0.0303713772734 -0.0246716086111 0)
(0.0297745133885 -0.0317325299981 0)
(0.029043869675 -0.0386254408651 0)
(0.028192319253 -0.0453192642392 0)
(0.0272335398174 -0.0517865816084 0)
(0.0261819043447 -0.058003861311 0)
(0.0250519923482 -0.0639515405415 0)
(0.023858133361 -0.06961392192 0)
(0.0226140458974 -0.0749789687987 0)
(0.0213325505739 -0.0800380179546 0)
(0.0200253883449 -0.0847854391197 0)
(0.0187031029738 -0.0892182700437 0)
(0.0173750134264 -0.0933358487865 0)
(0.0160492235763 -0.0971394621826 0)
(0.0147326967612 -0.100632021669 0)
(0.0134313372971 -0.103817775262 0)
(0.0121501134805 -0.10670205805 0)
(0.0108931625382 -0.109291082679 0)
(0.00966392106221 -0.111591766606 0)
(0.00846522073856 -0.113611593538 0)
(0.00729940183771 -0.115358503332 0)
(0.00616838320713 -0.116840806348 0)
(0.00507374906653 -0.118067116143 0)
(0.00401678939207 -0.119046296714 0)
(0.00299856067354 -0.119787419191 0)
(0.0020199009577 -0.120299725463 0)
(0.00108147099069 -0.12059259527 0)
(0.000183751744488 -0.120675512214 0)
(-0.000672927424359 -0.120558053142 0)
(-0.00148839297432 -0.120249807464 0)
(-0.00226261303986 -0.119760397763 0)
(-0.00299570753486 -0.119099425333 0)
(-0.00368792410513 -0.118276441685 0)
(-0.00433965387529 -0.11730091671 0)
(-0.0049514045227 -0.11618220766 0)
(-0.00552381465925 -0.114929529589 0)
(-0.00605762413455 -0.113551927337 0)
(-0.00655368662273 -0.112058249752 0)
(-0.00701293748898 -0.110457126178 0)
(-0.00743640500253 -0.108756945666 0)
(-0.00782517661246 -0.106965838979 0)
(-0.00818040948042 -0.105091663615 0)
(-0.00850329615197 -0.103141991837 0)
(-0.00879507519003 -0.10112410168 0)
(-0.00905699724941 -0.0990449709662 0)
(-0.00929033652395 -0.096911274115 0)
(-0.00949635813033 -0.0947293817274 0)
(-0.00967633101405 -0.0925053625105 0)
(-0.00983149747294 -0.0902449875816 0)
(-0.0099630880356 -0.0879537365817 0)
(-0.0100722937847 -0.0856368055832 0)
(-0.0101602835701 -0.0832991160357 0)
(-0.0102281796028 -0.0809453248311 0)
(-0.0102770770923 -0.0785798346337 0)
(-0.010308023239 -0.0762068045688 0)
(-0.0103220390559 -0.0738301603115 0)
(-0.0103201015338 -0.0714536038562 0)
(-0.0103031670169 -0.0690806220264 0)
(-0.0102721559139 -0.0667144941194 0)
(-0.0102279766868 -0.0643582977711 0)
(-0.0101715122406 -0.0620149137088 0)
(-0.0101036434063 -0.0596870285838 0)
(-0.0100252360269 -0.0573771367141 0)
(-0.00993716285686 -0.0550875399971 0)
(-0.00984029051158 -0.0528203470671 0)
(-0.00973549892832 -0.0505774710352 0)
(-0.00962366760984 -0.048360626969 0)
(-0.00950569215255 -0.04617132844 0)
(-0.00938246960965 -0.0440108844171 0)
(-0.00925491197625 -0.0418803957983 0)
(-0.0091239308178 -0.0397807528282 0)
(-0.00899044792021 -0.0377126325903 0)
(-0.00885537960052 -0.0356764978353 0)
(-0.00871964492523 -0.03367259624 0)
(-0.00858415020917 -0.0317009612706 0)
(-0.00844979526439 -0.0297614136266 0)
(-0.00831745860876 -0.0278535644346 0)
(-0.00818800216782 -0.0259768190719 0)
(-0.00806225760129 -0.0241303827121 0)
(-0.00794102976961 -0.0223132663723 0)
(-0.00782508449065 -0.0205242944963 0)
(-0.00771515100777 -0.0187621127185 0)
(-0.00761191147902 -0.0170251966025 0)
(-0.00751600296575 -0.0153118596873 0)
(-0.00742800990819 -0.0136202615334 0)
(-0.00734846850549 -0.0119484132992 0)
(-0.00727786881027 -0.0102941825502 0)
(-0.007216675421 -0.00865530209135 0)
(-0.00716536045489 -0.00702937852846 0)
(-0.00712437749163 -0.00541393731364 0)
(-0.00709244558363 -0.00380496666522 0)
(-0.00703406287755 -0.00222573505705 0)
(-0.00631195322693 -0.000655111679136 0)
(0.0345611442208 -0.0031135893315 0)
(0.0382987387013 -0.0105331959202 0)
(0.0381412038084 -0.0178943810553 0)
(0.0375807558153 -0.0252635748759 0)
(0.0368273062203 -0.0324802117292 0)
(0.0359060615986 -0.0395157270844 0)
(0.0348338907807 -0.0463373049504 0)
(0.0336286136857 -0.0529164254434 0)
(0.0323088375628 -0.0592290685357 0)
(0.0308933108682 -0.0652557359986 0)
(0.0294003378839 -0.0709812602706 0)
(0.0278473104742 -0.0763944995867 0)
(0.0262503602576 -0.0814879466382 0)
(0.0246241356852 -0.0862572895338 0)
(0.0229816845899 -0.0907009588004 0)
(0.0213344337315 -0.0948196868448 0)
(0.0196922366024 -0.0986160994744 0)
(0.018063479198 -0.102094351522 0)
(0.0164552149085 -0.105259813159 0)
(0.014873323195 -0.108118808034 0)
(0.0133226674681 -0.110678401385 0)
(0.0118072539949 -0.112946233254 0)
(0.0103303720828 -0.114930391079 0)
(0.00889472396212 -0.116639314564 0)
(0.00750252836434 -0.118081726269 0)
(0.00615561135591 -0.119266581046 0)
(0.00485547065345 -0.120203028772 0)
(0.00360333047637 -0.12090038508 0)
(0.00240017393133 -0.121368106456 0)
(0.00124677187307 -0.121615766457 0)
(0.00014369583346 -0.121653027948 0)
(-0.000908675028581 -0.121489645736 0)
(-0.00191013542417 -0.121135364033 0)
(-0.00286066229178 -0.120599971355 0)
(-0.0037604077397 -0.119893224421 0)
(-0.00460969190064 -0.119024826181 0)
(-0.00540900220383 -0.11800439203 0)
(-0.00615898172568 -0.116841417683 0)
(-0.0068604256446 -0.115545248251 0)
(-0.00751426627023 -0.114125048979 0)
(-0.00812156651089 -0.112589778227 0)
(-0.00868350205728 -0.110948162996 0)
(-0.0092013526452 -0.109208677375 0)
(-0.00967648247054 -0.107379524064 0)
(-0.0101103303632 -0.105468619129 0)
(-0.010504389604 -0.103483580017 0)
(-0.0108601981275 -0.10143171684 0)
(-0.0111793189082 -0.0993200268487 0)
(-0.0114633312369 -0.0971551919642 0)
(-0.0117138126814 -0.0949435792027 0)
(-0.0119323323418 -0.0926912437586 0)
(-0.0121204353161 -0.0904039345209 0)
(-0.0122796387307 -0.0880871016463 0)
(-0.0124114194383 -0.0857459059087 0)
(-0.0125172134015 -0.0833852293512 0)
(-0.0125984071408 -0.0810096869198 0)
(-0.0126563407481 -0.0786236385103 0)
(-0.0126923031612 -0.0762312011118 0)
(-0.0127075386102 -0.0738362604654 0)
(-0.0127032453418 -0.0714424819954 0)
(-0.0126805848088 -0.0690533204711 0)
(-0.0126406829252 -0.0666720282939 0)
(-0.0125846408467 -0.0643016619991 0)
(-0.0125135375235 -0.0619450870642 0)
(-0.012428440697 -0.0596049807637 0)
(-0.0123304093629 -0.0572838333656 0)
(-0.0122205036311 -0.0549839475746 0)
(-0.0120997859292 -0.0527074367009 0)
(-0.0119693286919 -0.0504562215638 0)
(-0.0118302135011 -0.0482320267177 0)
(-0.0116835360351 -0.0460363760574 0)
(-0.011530402887 -0.0438705884333 0)
(-0.0113719337257 -0.0417357733001 0)
(-0.0112092559699 -0.0396328269893 0)
(-0.0110435045143 -0.0375624295564 0)
(-0.0108758147946 -0.0355250427222 0)
(-0.0107073206782 -0.0335209087577 0)
(-0.0105391465706 -0.0315500507342 0)
(-0.0103724041247 -0.0296122738931 0)
(-0.0102081840512 -0.0277071684831 0)
(-0.0100475522454 -0.0258341137402 0)
(-0.00989154183787 -0.0239922832739 0)
(-0.00974114921926 -0.0221806514782 0)
(-0.00959732679444 -0.0203980011373 0)
(-0.00946097935015 -0.0186429317833 0)
(-0.00933295804744 -0.0169138688475 0)
(-0.00921405792561 -0.0152090730982 0)
(-0.00910501450885 -0.0135266503431 0)
(-0.00900650493396 -0.0118645616916 0)
(-0.00891915128495 -0.0102206354819 0)
(-0.00884353144372 -0.00859258457217 0)
(-0.00878019018939 -0.00697803161421 0)
(-0.00872953093213 -0.00537456077859 0)
(-0.00868955782931 -0.00377814725966 0)
(-0.00861610151647 -0.00221183543759 0)
(-0.00772662822429 -0.000651744436373 0)
(0.0413886489543 -0.00320703897496 0)
(0.045858965911 -0.0108474924841 0)
(0.0456587737227 -0.0184228423137 1.21789851522e-27)
(0.0449705236485 -0.0259989218697 0)
(0.0440466909274 -0.0334080203653 0)
(0.0429187782537 -0.0406189429243 0)
(0.0416083656928 -0.0475967651353 0)
(0.0401381373974 -0.0543116922422 0)
(0.0385316043148 -0.0607392278708 0)
(0.0368122652832 -0.066860110147 0)
(0.0350028661757 -0.0726599981703 0)
(0.0331248197853 -0.0781290279498 0)
(0.0311977947499 -0.0832612796643 0)
(0.0292394673249 -0.0880542068211 0)
(0.0272654149671 -0.0925080688455 0)
(0.02528912793 -0.0966253981284 0)
(0.0233221086198 -0.100410522258 0)
(0.0213740334335 -0.103869152769 0)
(0.0194529501634 -0.10700804421 0)
(0.0175654927642 -0.109834721651 0)
(0.0157170947234 -0.112357270936 0)
(0.013912191695 -0.114584183634 0)
(0.0121544025266 -0.116524247495 0)
(0.010446686701 -0.118186472965 0)
(0.00879147316674 -0.119580046577 0)
(0.00719076375355 -0.120714302915 0)
(0.00564620990682 -0.121598707832 0)
(0.00415916908332 -0.122242847081 0)
(0.00273074130321 -0.122656415906 0)
(0.00136179317878 -0.122849205339 0)
(5.29755742969e-05 -0.122831085345 0)
(-0.00119528818585 -0.122612016079 0)
(-0.00238276905606 -0.122201926015 0)
(-0.00350945179526 -0.12161080071 0)
(-0.00457552866692 -0.120848584718 0)
(-0.0055813947849 -0.119925164886 0)
(-0.00652764385098 -0.118850334065 0)
(-0.0074150596199 -0.117633757264 0)
(-0.00824460703217 -0.116284938784 0)
(-0.00901741912225 -0.114813191206 0)
(-0.00973478399467 -0.113227606772 0)
(-0.010398128124 -0.111537031661 0)
(-0.0110090004386 -0.109750043443 0)
(-0.0115690534557 -0.107874931983 0)
(-0.0120800259714 -0.105919683874 0)
(-0.0125437235413 -0.103891970491 0)
(-0.0129620012289 -0.101799139575 0)
(-0.0133367448098 -0.0996482103098 0)
(-0.0136698548529 -0.0974458717169 0)
(-0.0139632298572 -0.0951984842124 0)
(-0.0142187528021 -0.092912084042 0)
(-0.0144382772924 -0.0905923903544 0)
(-0.0146236175686 -0.0882448145525 0)
(-0.0147765385787 -0.0858744715489 0)
(-0.0148987502425 -0.0834861924676 0)
(-0.0149919020835 -0.0810845383331 0)
(-0.0150575821478 -0.0786738142333 0)
(-0.0150973163393 -0.0762580834338 0)
(-0.015112571825 -0.0738411809243 0)
(-0.0151047605743 -0.0714267259238 0)
(-0.0150752463986 -0.0690181329277 0)
(-0.0150253515321 -0.0666186209378 0)
(-0.0149563658667 -0.0642312206306 0)
(-0.0148695549342 -0.0618587793198 0)
(-0.0147661695643 -0.0595039637061 0)
(-0.0146474534773 -0.0571692604764 0)
(-0.0145146516462 -0.0548569749632 0)
(-0.0143690159532 -0.052569228126 0)
(-0.014211810943 -0.0503079522328 0)
(-0.0140443165369 -0.0480748855947 0)
(-0.0138678305062 -0.0458715667965 0)
(-0.0136836679222 -0.0436993287971 0)
(-0.0134931603484 -0.0415592933221 0)
(-0.0132976523154 -0.0394523658412 0)
(-0.0130984977581 -0.0373792314554 0)
(-0.0128970542244 -0.0353403518879 0)
(-0.0126946773684 -0.0333359637855 0)
(-0.0124927137571 -0.0313660783988 0)
(-0.0122924942849 -0.029430482733 0)
(-0.0120953264132 -0.0275287421552 0)
(-0.01190248727 -0.0256602044626 0)
(-0.011715216013 -0.0238240053226 0)
(-0.0115347072318 -0.0220190750259 0)
(-0.0113621040052 -0.0202441464107 0)
(-0.011198492155 -0.0184977638665 0)
(-0.0110448945923 -0.0167782932076 0)
(-0.0109022671666 -0.0150839323352 0)
(-0.0107714953371 -0.0134127229066 0)
(-0.0106533929982 -0.0117625626667 0)
(-0.0105487032565 -0.0101312204034 0)
(-0.0104581012095 -0.00851635994001 0)
(-0.0103821882587 -0.00691555863823 0)
(-0.0103213367184 -0.00532633962393 0)
(-0.0102729896795 -0.00374456696133 0)
(-0.0101847345709 -0.00219282596742 0)
(-0.00913137538223 -0.000646389882202 0)
(0.0484390664076 -0.00332060652676 0)
(0.0536620740844 -0.0112295339606 0)
(0.0534108683889 -0.0190650380917 -1.21724996873e-27)
(0.0525807380502 -0.0268916877624 0)
(0.0514687123787 -0.0345328685121 0)
(0.0501135338494 -0.0419541051071 0)
(0.0485424513981 -0.0491179494699 0)
(0.0467839591949 -0.0559931872761 0)
(0.0448673374639 -0.0625549405506 0)
(0.0428215718786 -0.0687844737306 0)
(0.0406744281947 -0.0746687051855 0)
(0.0384517525154 -0.0801995703843 0)
(0.0361770029074 -0.0853732985465 0)
(0.0338709952025 -0.0901896689449 0)
(0.0315518312336 -0.0946512980869 0)
(0.0292349712681 -0.0987629934087 0)
(0.026933410471 -0.102531194555 0)
(0.0246579226618 -0.105963510957 0)
(0.0224173391568 -0.109068355218 0)
(0.0202188375612 -0.111854665282 0)
(0.0180682208944 -0.114331704681 0)
(0.0159701740791 -0.116508928096 0)
(0.0139284887972 -0.118395899133 0)
(0.0119462527389 -0.120002247396 0)
(0.0100260014933 -0.121337653096 0)
(0.00816983502199 -0.12241184859 0)
(0.00637950150858 -0.123234628128 0)
(0.00465645396206 -0.123815858767 0)
(0.0030018844555 -0.124165487839 0)
(0.00141674197641 -0.124293538263 0)
(-9.82549165841e-05 -0.124210123043 0)
(-0.00154263500366 -0.123925395313 0)
(-0.00291615172667 -0.123449532579 0)
(-0.00421879913982 -0.122792735734 0)
(-0.00545081369647 -0.121965171989 0)
(-0.00661267006272 -0.120976945741 0)
(-0.00770507653154 -0.119838061028 0)
(-0.00872896661321 -0.118558384805 0)
(-0.00968548781403 -0.117147611467 0)
(-0.0105759870665 -0.115615229423 0)
(-0.0114019940677 -0.113970490478 0)
(-0.0121652021338 -0.112222382456 0)
(-0.0128674479402 -0.110379605492 0)
(-0.0135106897657 -0.108450552154 0)
(-0.0140969856018 -0.10644329155 0)
(-0.0146284706746 -0.104365557393 0)
(-0.0151073356915 -0.102224740018 0)
(-0.0155358052847 -0.100027882182 0)
(-0.0159161179042 -0.0977816785288 0)
(-0.0162505065786 -0.0954924784869 0)
(-0.0165411817703 -0.0931662923566 0)
(-0.0167903157255 -0.0908088002882 0)
(-0.0170000295057 -0.088425363782 0)
(-0.0171723820576 -0.0860210392913 0)
(-0.0173093624343 -0.0836005934346 0)
(-0.0174128844286 -0.081168519284 0)
(-0.0174847845622 -0.0787290531161 0)
(-0.0175268225233 -0.0762861910399 0)
(-0.0175406847717 -0.0738437048623 0)
(-0.0175279902031 -0.0714051566514 0)
(-0.0174902983398 -0.0689739114411 0)
(-0.017429118762 -0.0665531477123 0)
(-0.0173459220582 -0.0641458652981 0)
(-0.0172421509301 -0.061754890613 0)
(-0.0171192316417 -0.0593828791196 0)
(-0.0169785844969 -0.0570323152283 0)
(-0.0168216335865 -0.0547055098055 0)
(-0.0166498146686 -0.0524045957324 0)
(-0.0164645815659 -0.0501315218669 0)
(-0.0162674102001 -0.0478880459888 0)
(-0.016059800836 -0.0456757271433 0)
(-0.0158432779294 -0.0434959179717 0)
(-0.0156193882966 -0.0413497573876 0)
(-0.0153896972236 -0.0392381640933 0)
(-0.0151557833059 -0.0371618311611 0)
(-0.014919231781 -0.0351212220304 0)
(-0.0146816271206 -0.0331165679909 0)
(-0.0144445447104 -0.0311478673535 0)
(-0.0142095422998 -0.029214886254 0)
(-0.0139781510713 -0.027317161174 0)
(-0.013751866894 -0.0254540030458 0)
(-0.0135321416149 -0.02362450294 0)
(-0.0133203748469 -0.0218275391717 0)
(-0.0131179061314 -0.0200617857571 0)
(-0.0129260078466 -0.0183257220603 0)
(-0.0127458787998 -0.0166176435407 0)
(-0.0125786388307 -0.0149356735146 0)
(-0.0124253244323 -0.0132777758366 0)
(-0.0122868856384 -0.0116417692963 0)
(-0.0121641837829 -0.010025344 0)
(-0.0120579891387 -0.00842608093907 0)