/*--------------------------------*- C++ -*----------------------------------*\
| =========                 |                                                 |
| \\      /  F ield         | OpenFOAM: The Open Source CFD Toolbox           |
|  \\    /   O peration     | Version:  v1906                                 |
|   \\  /    A nd           | Web:      www.OpenFOAM.com                      |
|    \\/     M anipulation  |                                                 |
\*---------------------------------------------------------------------------*/
FoamFile
{
    version     2.0;
    format      ascii;
    class       volScalarField;
    location    "650";
    object      p;
}
// * * * * * * * * * * * * * * * * * * * * * * * * * * * * * * * * * * * * * //

dimensions      [0 2 -2 0 0 0 0];


internalField   nonuniform List<scalar> 
9216
(
268.223062594
268.308242839
268.481133092
268.742085877
269.089675238
269.522162585
270.037415972
270.632947463
271.305968344
272.053419801
272.872031403
273.758347916
274.708786749
275.719657163
276.787213147
277.907662783
279.077214855
280.292077956
281.548500694
282.842761466
284.171203103
285.53021494
286.916263102
288.325866743
289.755625196
291.202190188
292.662290863
294.132703665
295.610276051
297.091895607
298.57451301
300.055111888
301.530731917
302.998440826
304.455357843
305.898629504
307.325454056
308.733062275
310.118742944
311.479829526
312.813726329
314.117901105
315.389910772
316.627399152
317.828120503
318.989941066
320.110858778
321.189007746
322.222673923
323.210303511
324.150517104
325.04212564
325.884147954
326.675838865
327.416713592
328.106587984
328.745604472
329.33427406
329.873486719
330.364537326
330.809100843
331.209226887
331.567271162
331.885863584
332.16780607
332.416019029
332.633426744
332.822921823
332.987285862
333.129196602
333.251178055
333.355623503
333.444750336
333.520622862
333.585104377
333.639880103
333.686417757
333.726008152
333.75974618
333.788585462
333.813324748
333.834659959
333.853168755
333.869358998
333.883713409
333.896093877
333.906264307
333.914387914
333.920613741
333.92521237
333.928466552
333.930701664
333.932199334
333.933112296
333.933577259
333.933744244
268.137954954
268.223562163
268.397088634
268.659259493
269.008502211
269.443023911
269.960646688
270.558842416
271.234778234
271.985355798
272.807261578
273.69700445
274.650963379
275.665418468
276.736592264
277.860671836
279.033842186
280.252298928
281.51227397
282.810039713
284.141928133
285.504328076
286.893699232
288.306564265
289.739519142
291.189221708
292.652399636
294.125836873
295.606380253
297.090925079
298.576421372
300.059859829
301.538278396
303.008749873
304.468389898
305.914347294
307.343814162
308.754020089
310.142244876
311.505817215
312.842129989
314.148643246
315.422901163
316.66253822
317.865296113
319.029031403
320.151730542
321.231517712
322.266667456
323.255613527
324.196961608
325.089503318
325.932234752
326.724381721
327.465429138
328.155159058
328.793686523
329.381498931
329.919479525
330.408927058
330.851545101
331.249421686
331.604972642
331.920892772
332.200067132
332.445487707
332.660147783
332.846978673
333.008794355
333.148283484
333.267987421
333.370304518
333.457468953
333.531551444
333.59443115
333.647791763
333.6931012
333.731630794
333.76446227
333.792524623
333.8166041
333.837374284
333.855399535
333.87115645
333.885048433
333.897148622
333.907159769
333.915043178
333.921148174
333.925678529
333.928833078
333.930995069
333.932464914
333.93333069
333.933752221
333.933925381
267.964296085
268.05099721
268.22627511
268.491052368
268.843711704
269.282400868
269.804866709
270.408500389
271.090383215
271.847332386
272.675950123
273.572667558
274.533789732
275.555532519
276.634059688
277.765510455
278.94602735
280.17177421
281.438955399
282.743825398
284.082700873
285.451963615
286.848067201
288.267535075
289.706963443
291.163016055
292.632424689
294.111981961
295.598540508
297.089004948
298.580330754
300.069516441
301.553603115
303.029667975
304.494825576
305.946223799
307.381047844
308.796519737
310.189905836
311.558520509
312.899737321
314.210996672
315.48981983
316.733819178
317.940713116
319.108336636
320.23465465
321.317770802
322.355937999
323.347565777
324.291230435
325.185685959
326.02988121
326.822983561
327.564412016
328.253878671
328.891435657
329.477521547
330.012998184
330.499174787
330.937808587
331.331074165
331.681503603
331.991935543
332.265425298
332.505128845
332.714176607
332.89558536
333.052219756
333.186793982
333.301871992
333.399869663
333.483045991
333.553495998
333.613126002
333.663628378
333.706461892
333.742863834
333.773876516
333.800386043
333.823145215
333.842793964
333.859871001
333.874827286
333.88805831
333.899607423
333.908972892
333.916359715
333.92222569
333.926565255
333.929525618
333.931597919
333.932969286
333.9337659
333.934193012
333.934405072
267.699931006
267.788040066
267.966025965
268.234831397
268.592762122
269.037869442
269.567784942
270.17977372
270.870784839
271.637503226
272.47640187
273.383790552
274.355862066
275.388732478
276.478477564
277.621162407
278.812867218
280.049706555
281.327845631
282.643510811
283.992998379
285.372678414
286.778998082
288.208480851
289.657726078
291.12340517
292.602258855
294.091091521
295.586767268
297.086203453
298.586366432
300.084265321
301.576948489
303.06149855
304.535030656
305.994689974
307.437653056
308.861129005
310.262364966
311.638651851
312.987334367
314.305821197
315.591598749
316.842244205
318.055440577
319.228989504
320.360824107
321.449018142
322.491794068
323.487527773
324.43475385
325.332171801
326.178658703
326.973291026
327.715380347
328.404523452
329.040663829
329.624155743
330.155816644
330.636967588
331.069448895
331.455577589
331.798058851
332.099963906
332.364631409
332.595499683
332.795921976
332.969039784
333.11777362
333.24486359
333.352896905
333.444314146
333.521408558
333.586320981
333.64100856
333.687188708
333.726301584
333.759524881
333.787826705
333.81202544
333.83282093
333.850806143
333.86648111
333.880265311
333.892546862
333.903170753
333.911678304
333.918481472
333.923810443
333.927789009
333.930621275
333.932554674
333.933813015
333.934579038
333.93501464
333.935228759
267.343543045
267.433520873
267.615215168
267.889540888
268.254690215
268.708575903
269.248667645
269.872053929
270.575499871
271.355506547
272.208368853
273.130229543
274.117128579
275.165046235
276.269940223
277.427776082
278.634551913
279.886317106
281.179186587
282.509350307
283.873079616
285.266730124
286.686742661
288.129641723
289.592032938
291.07059874
292.562093712
294.063338652
295.571214795
297.082657164
298.594648471
300.104212663
301.608409569
303.104329605
304.589090235
306.059833263
307.513724618
308.947955737
310.359748093
311.746359895
313.105096176
314.433320974
315.728472267
316.988077826
318.209771981
319.391310939
320.530586297
321.625634372
322.674641603
323.675944985
324.628030107
325.52952898
326.379224262
327.176065837
327.919208503
328.608073633
329.24243411
329.822507572
330.34902988
330.823322176
331.247348607
331.623642603
331.955123624
332.245194641
332.497636264
332.716341962
332.905003404
333.066905155
333.204992902
333.322009687
333.420558056
333.503104904
333.571984342
333.629412452
333.677445821
333.717860394
333.752065641
333.781132496
333.805899718
333.827085615
333.845322194
333.861141961
333.874993237
333.887258462
333.898285769
333.90767785
333.915144981
333.921177889
333.925998967
333.929599543
333.932147307
333.93391733
333.935107586
333.935846752
333.936282219
333.936498774
266.893188194
266.985559532
267.17203598
267.453482017
267.827934776
268.293119515
268.846289487
269.48429845
270.203668742
271.000660109
271.871335496
272.8116215
273.817362131
274.88436482
276.00843867
277.185424949
278.411220682
279.681795841
280.993205329
282.341596324
283.723212142
285.13439302
286.571574786
288.031285592
289.510141459
291.004840613
292.512157237
294.028934439
295.552077039
297.078543906
298.605340383
300.129510758
301.64813136
303.158304047
304.657151053
306.141811141
307.609438024
309.057201063
310.482289209
311.881918068
313.253340766
314.593862065
315.900855718
317.17178372
318.404216499
319.595851736
320.744530123
321.848245292
322.905146704
323.913534037
324.871844674
325.778638177
326.632584396
327.432469374
328.177228914
328.866027803
329.4983775
330.074284763
330.594338997
331.0598209
331.472885395
331.836416473
332.153514389
332.428018016
332.664397475
332.867288972
333.040902199
333.188620438
333.313305356
333.417641574
333.504237528
333.57558122
333.634042045
333.681950513
333.721565675
333.754798567
333.783006774
333.807060395
333.82756924
333.845111141
333.860254198
333.873457666
333.885102834
333.895528845
333.904945193
333.912867108
333.919328247
333.924624182
333.928799499
333.931853854
333.934154877
333.935786931
333.936885881
333.937653098
333.938105316
333.938333604
266.346376272
266.44172709
266.634163136
266.924477978
267.310504963
267.789724009
268.359107062
269.015204947
269.754229001
270.572132266
271.464685506
272.427545578
273.456314517
274.546588646
275.6939978
276.894235284
278.143079633
279.436409309
280.770211634
282.140587072
283.54374995
284.976026426
286.433850467
287.91375833
289.41238199
290.926441753
292.45273832
293.98814438
295.529595896
297.074083137
298.618641529
300.160342692
301.696285769
303.223589217
304.739383702
306.24080654
307.724998339
309.189102493
310.630268229
312.045657821
313.432458374
314.787898303
316.10926805
317.393944114
318.63941449
319.843303116
321.003389991
322.117623448
323.184121159
324.201157057
325.167135061
326.080550713
326.939955182
327.743932447
328.491124068
329.180320836
329.810637319
330.381766989
330.894048023
331.34858836
331.747875596
332.09547763
332.394370415
332.64891662
332.86470084
333.04764473
333.202793718
333.333410199
333.441979503
333.531025754
333.603178362
333.660944648
333.706674207
333.74285087
333.772163742
333.796842605
333.818144049
333.836539776
333.852209202
333.865551879
333.877138664
333.887340922
333.896449824
333.904758785
333.912330042
333.918742871
333.924110481
333.92852233
333.931994336
333.934664555
333.936741887
333.93825966
333.93928824
333.940057406
333.940521745
333.940754506
265.70000635
265.798994286
265.998703591
266.299830688
266.699945986
267.196213338
267.785244834
268.463206667
269.225918776
270.068951919
270.987716601
271.977540947
273.03373589
274.151647282
275.326695534
276.554404004
277.830417805
279.150514731
280.510610056
281.906756647
283.335141746
284.792081348
286.274013019
287.777487637
289.299160486
290.835781858
292.384187377
293.941287997
295.504059793
297.069533454
298.634783508
300.19691756
301.753065665
303.300369859
304.835974707
306.357019287
307.860631523
309.343925645
310.804003925
312.23796347
313.642909035
315.015972111
316.35433624
317.655267385
318.916147354
320.134506806
321.308053439
322.434689643
323.512513963
324.539801005
325.514955413
326.436445141
327.30271637
328.112127598
328.862928941
329.553370613
330.181946678
330.747926955
331.25124537
331.69241062
332.07457074
332.403009392
332.679345697
332.908496412
333.09796637
333.256075527
333.389372882
333.500254175
333.590148888
333.661295441
333.716501701
333.758310068
333.788847261
333.81071429
333.827559996
333.842390764
333.856229075
333.868711409
333.879153907
333.887774752
333.895421397
333.902322173
333.908621058
333.914584352
333.920142829
333.925016451
333.929230635
333.932792699
333.935686713
333.938054859
333.939881097
333.941317545
333.942356093
333.94306513
333.943555078
333.943789847
264.950293499
265.053666966
265.262138729
265.576273634
265.993304351
266.509990501
267.122487184
267.826476547
268.617290978
269.490030562
270.439667947
271.461137392
272.549406487
273.699530744
274.906692436
276.166225851
277.473631415
278.824581199
280.214918047
281.640650293
283.097943546
284.583110744
286.092601226
287.622989386
289.170963161
290.733312539
292.30691803
293.888739105
295.475802419
297.065189785
298.654025604
300.239464169
301.818676696
303.388838184
304.947114921
306.490653298
308.016570853
309.521950819
311.003841511
312.459262068
313.885215803
315.27871226
316.636798067
317.956595968
319.235349352
320.47046858
321.659572234
322.800516309
323.891400974
324.930545291
325.916422953
326.847548255
327.72232907
328.538900045
329.295016335
329.988132645
330.615716986
331.176577329
331.670157006
332.094906582
332.455394177
332.762102325
333.010999186
333.20755485
333.36282005
333.490006058
333.59869389
333.688089101
333.757031183
333.807543548
333.843247434
333.866835154
333.87957432
333.883762606
333.885298354
333.889154904
333.89570544
333.902781615
333.907836708
333.911050261
333.914466514
333.917896665
333.921161548
333.924641761
333.928119358
333.931472041
333.934581214
333.937378677
333.939807307
333.941867708
333.943572087
333.944927089
333.945983234
333.946671779
333.947207777
333.947448705
264.092675522
264.20129885
264.420248934
264.749911017
265.187084479
265.728012298
266.368270737
267.102935099
267.926733955
268.83419243
269.81975653
270.877894869
272.003176842
273.190328361
274.434267852
275.730125928
277.073252413
278.459214143
279.883786558
281.34294143
282.832832566
284.349780658
285.890258134
287.450874368
289.028361483
290.619560669
292.221408949
293.830926072
295.445201371
297.061380194
298.676649633
300.288223663
301.893327623
303.489181799
305.072985251
306.641900371
308.193039547
309.723455319
311.230136123
312.710009552
314.159955486
315.576830764
316.957506703
318.29891893
319.598127594
320.852382554
322.059186351
323.21634312
324.321980746
325.374529898
326.372640083
327.315020913
328.200186887
329.026141001
329.790046709
330.488190695
331.116113637
331.672474376
332.156900915
332.560844739
332.891918152
333.177911937
333.394213339
333.547679099
333.656270092
333.744007574
333.827300143
333.895471631
333.94151144
333.968224566
333.981917573
333.985855735
333.978433766
333.959733221
333.941368384
333.933567048
333.934606251
333.938399396
333.938118564
333.934414413
333.933514863
333.933577327
333.933547386
333.934539501
333.935938799
333.937891471
333.940003722
333.942150173
333.94418364
333.946037739
333.947714368
333.94910542
333.950158686
333.950908001
333.951482662
333.951751289
263.121693098
263.236580967
263.468017172
263.816142089
264.277196489
264.846761608
265.51967962
266.29026565
267.152502526
268.100216771
269.127226164
270.227455296
271.395019106
272.624277274
273.909864009
275.24669859
276.629981862
278.055183409
279.51802318
281.014450485
282.5406223
284.092882178
285.667740369
287.261855465
288.872017453
290.495132053
292.128205912
293.76833231
295.412676833
297.058462588
298.702954274
300.343441229
301.977219017
303.601569309
305.213739086
306.810919858
308.390228269
309.948690114
311.483230215
312.990671248
314.467744729
315.911117504
317.317436062
318.683389969
320.005792091
321.281671514
322.508367671
323.683614111
324.80559096
325.872924319
326.88460435
327.839777796
328.737373129
329.575535192
330.350857916
331.057972812
331.688089638
332.241094521
332.721859209
333.097093597
333.37960271
333.657729685
333.836296755
333.930347746
333.971762348
334.014135105
334.088063038
334.144314528
334.164640177
334.158848719
334.144045535
334.12575909
334.092853065
334.037433344
333.9888823
333.970049184
333.970878121
333.97711577
333.971194872
333.955934807
333.951479836
333.949077931
333.945090924
333.94383946
333.943101379
333.943880791
333.94518673
333.946951591
333.9487979
333.950593612
333.952273187
333.953752962
333.954932166
333.955790753
333.956402959
333.95671914
262.03083522
262.153197297
262.399506707
262.769566904
263.25889442
263.86221826
264.573446564
265.385940809
266.292763784
267.286896505
268.361412963
269.509609635
270.725091772
272.001822017
273.334138862
274.716752857
276.144727997
277.61345443
279.118617271
280.656164806
282.222278177
283.813343605
285.425927571
287.056754834
288.702689023
290.360715239
292.027924181
293.70149705
295.378690611
297.056821531
298.733249278
300.405357085
302.070530595
303.726133484
305.369481216
306.997813392
308.608266466
310.197848994
311.763422811
313.301694045
314.809219031
316.282430006
317.717685948
319.111350607
320.459899562
321.760048397
323.008894812
324.204052717
325.343760245
326.426930055
327.453103045
328.422241861
329.33424058
330.188059363
330.980151707
331.70325373
332.33707157
332.885272724
333.38466126
333.717497847
333.909258333
334.287929442
334.42498779
334.416740981
334.303755833
334.132992665
334.091564288
334.129561994
334.170349293
334.194293726
334.20814516
334.211628332
334.185105936
334.100285197
334.003304363
333.98228561
334.00079073
334.026912064
334.011866864
333.970436714
333.967120115
333.965285568
333.954568544
333.952227894
333.948938572
333.949126148
333.949893331
333.951684398
333.95355557
333.955427485
333.957246701
333.958870327
333.960247103
333.961294444
333.961959669
333.962324107
260.812338052
260.943640531
261.207705176
261.603870137
262.126704073
262.769830989
263.525964372
264.387266103
265.345663954
266.393119278
267.521832375
268.724384293
269.993820567
271.32368688
272.708028392
274.141364402
275.618648437
277.135221789
278.68676613
280.269258855
281.878932964
283.512242211
285.165831322
286.836510776
288.521235315
290.217085475
291.921251196
293.631016736
295.343745792
297.05686575
298.767850012
300.474197346
302.173407477
303.862952265
305.540242933
307.202594085
308.847186039
310.471028243
312.070927531
313.643466756
315.185000262
316.691674833
318.159483061
319.584358389
320.96231108
322.289607171
323.562970585
324.779795478
325.93833525
327.037847417
328.078650686
329.062034224
329.989755853
330.863036061
331.679857412
332.433949272
333.07321483
333.610353074
334.286293483
334.531708047
334.219015852
334.234841644
334.337676246
334.351128598
334.304348252
334.234955575
334.188857787
334.180102547
334.183396803
334.182893123
334.176502037
334.161110607
334.132510509
334.095370763
334.071128175
334.077262432
334.110234599
334.140775206
334.088565591
333.948089654
333.973575156
333.985778371
333.958568579
333.960225339
333.952264916
333.953459501
333.953794689
333.956288576
333.958329715
333.960416543
333.962542134
333.964472041
333.966092795
333.967383956
333.968135274
333.968571015
259.456921709
259.598970181
259.884325908
260.311677495
260.874340822
261.564494619
262.373314976
263.291449404
264.309425201
265.417978939
266.608294418
267.872151656
269.201998637
270.590962565
272.03281873
273.521933575
275.053195575
276.621943847
278.22390096
279.855113382
281.511900879
283.190814609
284.888602953
286.602183716
288.328621444
290.065108625
291.808949776
293.557547258
295.308387642
297.059026901
298.807073234
300.55016549
302.2859462
304.012027976
305.725953522
307.425149521
309.106876065
310.768174116
312.40581575
314.016263279
315.595647204
317.139773102
318.644173599
320.104213758
321.515265954
322.87294447
324.173396698
325.413611317
326.591723605
327.707291984
328.761547635
329.757633214
330.700305974
331.595296571
332.446708469
333.269986553
333.93827761
334.255534695
334.297638988
334.389074972
334.370698048
334.319067424
334.336755423
334.326939572
334.28585919
334.235279866
334.198265571
334.182289617
334.17495949
334.167591478
334.156902061
334.140210541
334.117528911
334.093573087
334.078187345
334.077103462
334.085846903
334.087672798
334.068337599
334.068066962
334.09854859
334.058964807
333.936228026
333.968774283
333.949583233
333.957196988
333.95621092
333.960968425
333.963093426
333.96548847
333.968129009
333.970528764
333.972530804
333.974064915
333.974986517
333.97550945
257.953441467
258.108498015
258.419552569
258.884379592
259.494618499
260.240539773
261.11132702
262.095708821
263.182484758
264.360928252
265.621055448
266.953770499
268.350909204
269.805208342
271.310227704
272.860248143
274.450163241
276.075376497
277.731710662
279.41533195
281.122688969
282.850464733
284.59553931
286.354960788
288.125922498
289.905745051
291.691861936
293.481807604
295.273206449
297.063760674
298.851235036
300.633435739
302.408181584
304.173265888
305.926408569
307.665198518
309.387027125
311.089015555
312.767939909
314.42016247
316.041579257
317.627602478
319.173194377
320.672981712
322.121461569
323.51331644
324.8438103
326.109230892
327.307320201
328.437705756
329.502373015
330.506701345
331.459538587
332.375045631
333.282090897
334.331062051
334.260619765
334.276732824
334.334631679
334.366287935
334.355932322
334.324625215
334.316235698
334.295776517
334.258290824
334.215970737
334.182660399
334.162142592
334.149847151
334.140388963
334.129064119
334.114586694
334.097850637
334.082119223
334.072493602
334.070844052
334.073253883
334.07195117
334.062682472
334.059802605
334.063137637
334.056739007
334.069952465
334.055949195
333.926018562
333.960336056
333.954889094
333.966876193
333.967827599
333.970518616
333.974036805
333.977123382
333.979587063
333.981418316
333.982610186
333.983201933
256.288420829
256.459368481
256.801709902
257.31191597
257.979353666
258.791747164
259.735679026
260.797437556
261.963693747
263.221987142
264.561016926
265.970762682
267.442473687
268.968569887
270.542494239
272.158548079
273.811731669
275.497603017
277.212160892
278.951752616
280.713004117
282.492768049
284.288085629
286.09615828
287.914326365
289.740053225
291.570913588
293.404585345
295.238843211
297.071551422
298.900652817
300.724150064
302.540076429
304.346453755
306.141236655
307.922242098
309.687064765
311.432979083
313.156832262
314.85493484
316.522963883
318.155897108
319.748012778
321.292986883
322.784135348
324.214815112
325.578978206
326.871776856
328.090124617
329.23317698
330.302717298
331.305544582
332.252253271
333.160177306
334.080463964
334.263738875
334.353841191
334.324141927
334.336402317
334.343160792
334.324431113
334.295567509
334.272400228
334.243708222
334.207233356
334.169630573
334.138535009
334.116427228
334.102432485
334.092860546
334.083321037
334.073035781
334.06287021
334.054839057
334.051292281
334.052442716
334.055546526
334.056549965
334.053292295
334.050835796
334.050542207
334.046232893
334.045343579
334.034225056
334.044084104
334.038955306
333.941303809
333.977190971
333.971464872
333.974925359
333.980308721
333.984395389
333.987412565
333.989580982
333.991021289
333.991683958
254.44541649
254.635999196
255.016835345
255.582513248
256.319273919
257.211406796
258.242074166
259.394452731
260.652599698
262.002025273
263.429983769
264.925532935
266.47942716
268.083911299
269.732471924
271.419587845
273.140506029
274.891055882
276.667504851
278.466452128
280.284753651
282.119470662
283.967834394
285.827221266
287.69513483
289.569193002
291.447120248
293.326744795
295.205999377
297.082922116
298.955653173
300.822421392
302.68151663
304.531245246
306.369866792
308.195510818
310.006072214
311.799084544
313.571572183
315.319887888
317.039547785
318.72509126
320.370004168
321.966770372
323.507122133
324.982556648
326.385121513
327.708286265
328.947643081
330.101308912
331.16898295
332.160142759
333.09471544
334.024303901
334.164581354
334.256286077
334.312188369
334.307277816
334.303575953
334.292105975
334.264565144
334.229739652
334.195992641
334.160981462
334.124351508
334.089743843
334.061166735
334.041021082
334.029069203
334.021734085
334.016146784
334.011710625
334.008844791
334.008503929
334.011511907
334.017419628
334.024334391
334.029984326
334.033328846
334.036176901
334.038791932
334.037966267
334.036045062
334.031377163
334.03281246
334.027906424
334.038249567
334.032731663
333.969590422
333.977447029
333.987449243
333.992741591
333.996209083
333.998611675
334.00024516
334.000982409
252.404141886
252.619317592
253.04811939
253.682371286
254.503948557
255.492455374
256.626526859
257.885367449
259.249845931
260.703143062
262.230996892
263.821637766
265.465520791
267.154956615
268.883719976
270.646688742
272.439541744
274.25852475
276.100281487
277.961739465
279.840037524
281.732481857
283.636519292
285.549719594
287.469762423
289.394428098
291.321593978
293.24923846
295.175452186
297.098451664
299.016588616
300.928346119
302.832315545
304.727151223
306.611501157
308.483912073
310.342705594
312.185820647
314.010619118
315.813654923
317.590416882
319.335069274
321.040243033
322.69696634
324.294874858
325.822847421
327.270199788
328.62803719
329.890270318
331.053797422
332.111041959
333.08243241
334.032137445
334.148252096
334.206552891
334.255007317
334.275823194
334.262284071
334.238138569
334.206386725
334.166326457
334.122973487
334.081410426
334.042208996
334.005895955
333.97450375
333.950077337
333.93461739
333.927306959
333.924614188
333.924973173
333.927867767
333.933242388
333.941278753
333.951976306
333.964622725
333.977815374
333.990094475
334.000735647
334.010167737
334.018202299
334.023572408
334.027117139
334.028285223
334.029086431
334.028882581
334.034290392
334.041611864
334.028210955
333.977059384
333.996536347
334.002761979
334.006097957
334.008550192
334.010325243
334.011129481
250.139233928
250.38571247
250.875169701
251.59529819
252.521775765
253.627746972
254.885822509
256.270142931
257.757732807
259.329181367
260.968755534
262.664107124
264.405746331
266.186431128
268.000579966
269.84377013
271.71234686
273.603143202
275.5132958
277.440135486
279.38113009
281.333859081
283.296003427
285.265339522
287.239732097
289.217127261
291.195551365
293.173122689
295.148077234
297.118802389
299.083866398
301.042030194
302.992232296
304.9335447
306.865099313
308.785984755
310.695107267
312.591005411
314.471606962
316.333919488
318.173652923
319.984788868
321.759146795
323.486064817
325.152429791
326.743374736
328.244203387
329.642709422
330.931176979
332.109537752
333.150690548
334.121340167
334.20044138
334.21548197
334.225827106
334.229574705
334.212677142
334.174859062
334.128167398
334.077567133
334.024962449
333.97369157
333.926986791
333.886063707
333.851646076
333.824857076
333.806709402
333.797983748
333.797007263
333.801012574
333.809055889
333.820595198
333.83521625
333.85259386
333.872266241
333.893393144
333.914814477
333.935402943
333.954446814
333.971769773
333.987044291
333.999694168
334.009949066
334.017607661
334.023388548
334.026998465
334.029215267
334.030870208
334.023811507
334.026758185
334.017484119
334.016557023
334.017279766
334.019352312
334.021282258
334.022189103
247.618482745
247.905563319
248.473043106
249.302306938
250.360090771
251.610546696
253.018244109
254.550902103
256.181001063
257.886395992
259.650143761
261.459816432
263.306569807
265.184184637
267.088219879
269.015342969
270.96284846
272.928344866
274.90957549
276.904335533
278.910450376
280.925785018
282.94826165
284.975870235
287.006666615
289.038762685
291.070322009
293.099578033
295.124880546
297.144760889
299.157993846
301.16363354
303.161009994
305.149686544
307.129383372
309.09987183
311.060830158
313.011640927
314.951107191
316.877063837
318.785861986
320.671710785
322.525894602
324.335972618
326.08532105
327.753534025
329.319736307
330.766476708
332.086320933
333.318258307
334.314628065
334.345845472
334.296980711
334.252360712
334.211354949
334.164377618
334.106917931
334.040573709
333.971864342
333.904861428
333.841751943
333.784750822
333.735794521
333.695834892
333.665366523
333.644905417
333.634829437
333.634377901
333.641001528
333.653139355
333.670127141
333.691292131
333.715962942
333.743497178
333.773165851
333.804048423
333.835085931
333.865273333
333.89385007
333.920347457
333.944325852
333.965349977
333.983363607
333.998261848
334.010305229
334.019253554
334.025173333
334.028485993
334.027166968
334.028379981
334.034259599
334.030205018
334.027653676
334.030242267
334.033149092
334.034262117
244.800227581
245.141154067
245.810976244
246.781219696
248.0055115
249.435393429
251.02470711
252.733119903
254.527915557
256.384337451
258.284869401
260.217894932
262.176148079
264.155266632
266.152617291
268.166442644
270.195306122
272.23777809
274.29229809
276.3571532
278.430521278
280.510538178
282.595357764
284.683184694
286.77227341
288.860903209
290.94735569
293.029934831
295.107042606
297.177296726
299.239645149
301.293438494
303.338440104
305.374780595
307.402875727
309.423327416
311.43679255
313.443785881
315.444378073
317.437748637
319.42154224
321.39095374
323.337462618
325.247199423
327.099354686
328.864936204
330.512406957
332.011963402
333.346933103
334.561659055
334.587964765
334.462485279
334.346389797
334.244974936
334.146816902
334.049654367
333.95354319
333.859970984
333.772217001
333.692696426
333.622746833
333.563402976
333.515453554
333.479238415
333.454870748
333.4425293
333.441531009
333.449685938
333.464666892
333.485782937
333.51238136
333.543637088
333.578712617
333.616780195
333.656960957
333.698283126
333.739721318
333.780302188
333.819205462
333.855793201
333.889515969
333.919908826
333.946727366
333.969790976
333.989106218
334.004560991
334.016229843
334.024376356
334.028497102
334.030910436
334.033376113
334.032549899
334.032991882
334.040341824
334.046475871
334.047581993
241.629420287
242.04365752
242.850749405
244.006392901
245.444732231
247.099566464
248.910513825
250.827350126
252.811747505
254.836975191
256.886208627
258.950134659
261.024480351
263.107905235
265.200440719
267.302470049
269.414151789
271.535167397
273.664684237
275.801445868
277.943921399
280.090461266
282.239419397
284.389214335
286.538319256
288.685196851
290.828224539
292.965703654
295.095978245
297.217644822
299.329756195
301.431947853
303.524458922
305.608066497
307.683983515
309.753779502
311.819294354
313.882484633
315.945145492
318.008457494
320.07228526
322.134066084
324.18702985
326.217317398
328.200335185
330.093631894
331.851344175
333.440479046
334.906238227
334.89645871
334.703517128
334.512839624
334.340673379
334.177639342
334.02404934
333.882310523
333.753415801
333.637952845
333.536802212
333.450382801
333.378563807
333.321048887
333.277522001
333.247629418
333.23113172
333.228057047
333.236159882
333.252420582
333.275925761
333.306156268
333.342289862
333.383400231
333.428572044
333.476892413
333.527417416
333.579156152
333.631095889
333.68226132
333.731773237
333.77887432
333.82290463
333.863307887
333.899683873