/*--------------------------------*- C++ -*----------------------------------*\
| =========                 |                                                 |
| \\      /  F ield         | OpenFOAM: The Open Source CFD Toolbox           |
|  \\    /   O peration     | Version:  v1906                                 |
|   \\  /    A nd           | Web:      www.OpenFOAM.com                      |
|    \\/     M anipulation  |                                                 |
\*---------------------------------------------------------------------------*/
FoamFile
{
    version     2.0;
    format      ascii;
    class       volVectorField;
    location    "282";
    object      Ua;
}
// * * * * * * * * * * * * * * * * * * * * * * * * * * * * * * * * * * * * * //

dimensions      [0 1 -1 0 0 0 0];


internalField   nonuniform List<vector> 
9216
(
(-0.010414335 0.0104265543738 0)
(-0.0109907080745 0.033652002357 3.95450889738e-27)
(-0.0109888747316 0.057238864306 -7.11739722875e-31)
(-0.0108884098113 0.0808380697104 0)
(-0.0107456118165 0.104051908801 0)
(-0.0105633886996 0.126787958464 0)
(-0.0103476497501 0.148945353301 0)
(-0.0101000310583 0.170433501578 0)
(-0.00982510309843 0.191169897961 0)
(-0.0095238885867 0.211082335209 0)
(-0.00920129539661 0.230107024445 0)
(-0.0088580745321 0.248190700616 0)
(-0.00849942797403 0.265288622271 0)
(-0.00812571993672 0.281366255092 0)
(-0.00774226869935 0.296397100829 0)
(-0.00734892229854 0.310364007516 0)
(-0.0069509768469 0.323256911641 0)
(-0.00654769466512 0.335073855879 0)
(-0.00614426172657 0.34581876651 0)
(-0.00573933697504 0.355502285512 0)
(-0.00533796922314 0.364139663747 0)
(-0.00493825169278 0.371751471268 0)
(-0.0045451007824 0.378361684585 0)
(-0.00415610282979 0.383998337795 0)
(-0.00377607261118 0.38869181927 0)
(-0.00340216360374 0.392475470527 0)
(-0.00303911215357 0.395384108715 0)
(-0.00268369773727 0.397454588757 0)
(-0.00234060109155 0.398724520944 0)
(-0.00200628678947 0.399232780522 0)
(-0.00168540007718 0.399018393136 0)
(-0.00137409731047 0.398121110578 0)
(-0.00107687557444 0.396580336514 0)
(-0.000789657309955 0.394435226673 0)
(-0.000516993466093 0.391724469876 0)
(-0.000254592133573 0.388486356073 0)
(-6.92038449984e-06 0.384758183106 0)
(0.000230513461272 0.380576512712 0)
(0.000453304070611 0.37597668213 0)
(0.000666106798941 0.370993013134 0)
(0.000864570846847 0.365658452144 0)
(0.00105347810131 0.360004704401 0)
(0.00122853523805 0.354062016989 0)
(0.00139462089475 0.347859247458 0)
(0.0015474929201 0.341423772027 0)
(0.00169208659816 0.334781466256 0)
(0.0018242127504 0.327956759349 0)
(0.00194882929215 0.320972534408 0)
(0.00206179355679 0.313850314081 0)
(0.00216804294411 0.30661005657 0)
(0.00226348468346 0.299270493802 0)
(0.00235300048449 0.291848828509 0)
(0.00243254565547 0.284361208594 0)
(0.00250690559434 0.276822301228 0)
(0.00257209424622 0.269245920133 0)
(0.00263277108121 0.261644481406 0)
(0.00268501703948 0.254029762997 0)
(0.00273333442183 0.246412221249 0)
(0.00277389273662 0.238801892848 0)
(0.00281101840778 0.231207579774 0)
(0.00284098943651 0.223637868911 0)
(0.00286793760465 0.216100172037 0)
(0.00288828002559 0.208601867712 0)
(0.00290594615204 0.201149210781 0)
(0.00291751870047 0.193748569868 0)
(0.00292671599482 0.186405203954 0)
(0.00293031837796 0.179124596146 0)
(0.00293183172203 0.171911119945 0)
(0.00292825809348 0.164769442903 0)
(0.00292288639273 0.157703090895 0)
(0.00291296468124 0.150715919669 0)
(0.00290156414684 0.143810605406 0)
(0.00288619258688 0.136990159636 0)
(0.00286969827861 0.130256360919 0)
(0.00284985943806 0.123611309816 0)
(0.00282929765236 0.117055829821 0)
(0.00280606186561 0.110591041598 0)
(0.00278253896844 0.104216748004 0)
(0.00275704544224 0.0979330252223 0)
(0.00273172565842 0.0917386135108 0)
(0.0027051522936 0.0856325111342 0)
(0.00267921515372 0.0796123806928 0)
(0.0026527274923 0.0736761488019 0)
(0.00262730720637 0.0678204441679 0)
(0.00260197740949 0.0620422046888 0)
(0.0025780418638 0.0563371766749 0)
(0.00255464828608 0.0507015766754 0)
(0.00253262162349 0.0451307750032 0)
(0.00251084819747 0.0396212426695 0)
(0.00248876199002 0.0341700668258 0)
(0.00246264477501 0.0287787230823 0)
(0.00242463633581 0.0234581942934 0)
(0.00234353103861 0.0182717322174 0)
(0.00215729216493 0.0129830226384 0)
(0.00238032815501 0.00825782026091 0)
(0.00403027513402 0.00403167847356 0)
(-0.0337140431727 0.0110888073302 0)
(-0.0372714458584 0.0375733672208 0)
(-0.0371901372601 0.0639888323189 -4.15128211132e-27)
(-0.0366938648246 0.0904422981832 0)
(-0.0360046513649 0.116429326456 0)
(-0.03514734031 0.141866907407 0)
(-0.0341386176086 0.166648314646 0)
(-0.0329902731758 0.190673504827 0)
(-0.0317193863865 0.213850991806 0)
(-0.0303383333612 0.236099845811 0)
(-0.0288655378885 0.257349269518 0)
(-0.0273133041675 0.277539671434 0)
(-0.0257003554165 0.296621774949 0)
(-0.024037885244 0.314557201299 0)
(-0.0223439029888 0.331317265021 0)
(-0.0206276744978 0.346883201532 0)
(-0.0189057894928 0.361244782274 0)
(-0.0171851125325 0.374400311461 0)
(-0.0154804426493 0.386355188607 0)
(-0.013796090499 0.397121788128 0)
(-0.0121449927759 0.4067180735 0)
(-0.0105290143663 0.415167449169 0)
(-0.00895936077686 0.42249750082 0)
(-0.00743570979957 0.42873987373 0)
(-0.00596777742279 0.433929170451 0)
(-0.00455337492045 0.438102874023 0)
(-0.00320098319284 0.441300405782 0)
(-0.00190684807048 0.44356308742 0)
(-0.000678446055088 0.444933337939 0)
(0.000489274187419 0.445454655063 0)
(0.0015896435962 0.445170946283 0)
(0.0026287967184 0.444126424817 0)
(0.00360080487875 0.442365159749 0)
(0.0045127334063 0.439931368147 0)
(0.00535910906967 0.436868443231 0)
(0.00614767310546 0.433219170961 0)
(0.00687338741927 0.429025332094 0)
(0.00754455662097 0.424327727409 0)
(0.00815645472939 0.41916588604 0)
(0.00871780043233 0.413578080915 0)
(0.00922408146269 0.407601115972 0)
(0.00968429433482 0.401270333203 0)
(0.0100940635225 0.394619481067 0)
(0.0104625450069 0.387680710085 0)
(0.0107854280825 0.380484517427 0)
(0.0110719116105 0.373059725333 0)
(0.01131769379 0.365433505474 0)
(0.0115319130444 0.357631336645 0)
(0.0117102243378 0.349677105026 0)
(0.0118616037455 0.341593034249 0)
(0.0119816287181 0.333399864993 0)
(0.0120790273841 0.3251167525 0)
(0.012149274055 0.316761519355 0)
(0.0122007710023 0.308350511495 0)
(0.012228887352 0.299898924357 0)
(0.0122416446086 0.291420611157 0)
(0.0122343188921 0.282928472356 0)
(0.0122145099946 0.274434206728 0)
(0.0121774389682 0.265948760932 0)
(0.0121302683726 0.257482018601 0)
(0.0120682152214 0.249043297706 0)
(0.0119980025378 0.240640971363 0)
(0.0119149133974 0.232283008791 0)
(0.01182524834 0.223976528292 0)
(0.0117244299616 0.215728370173 0)
(0.0116183582415 0.207544582035 0)
(0.0115026742233 0.19943102086 0)
(0.0113829070328 0.191392778145 0)
(0.0112549851878 0.183434802035 0)
(0.0111240910299 0.175561269236 0)
(0.0109865014988 0.167776226455 0)
(0.0108470734562 0.1600829222 0)
(0.0107024737381 0.152484460893 0)
(0.0105572427344 0.144983105415 0)
(0.0104084633407 0.137580944445 0)
(0.0102603606729 0.130279180324 0)
(0.0101104386287 0.123078804697 0)
(0.00996259527685 0.115979881965 0)
(0.00981474561383 0.108982234474 0)
(0.00967044086818 0.102084733248 0)
(0.00952797977308 0.0952859894005 0)
(0.00939053424277 0.088583658514 0)
(0.00925674386014 0.0819751409435 0)
(0.00912935046408 0.0754569084064 0)
(0.00900725514066 0.069025214074 0)
(0.00889265738375 0.0626754513163 0)
(0.00878451571582 0.0564028826437 0)
(0.00868411946985 0.0502020407738 0)
(0.00858970750356 0.0440674207732 0)
(0.00850001758314 0.0379927352293 0)
(0.00840880253558 0.0319708660978 0)
(0.00830343938024 0.0259902131448 0)
(0.00815101657742 0.020028496114 0)
(0.00785200012811 0.0139431855072 0)
(0.00764856442889 0.00763376719602 0)
(0.00824447879472 0.00237367639527 0)
(-0.0577160327598 0.0112349980549 0)
(-0.0639022393566 0.0381871738902 0)
(-0.063693507501 0.0649321775605 -4.15502986747e-27)
(-0.0628335273526 0.0917668978659 0)
(-0.0616668290614 0.118124311432 0)
(-0.0602264609332 0.143915935543 0)
(-0.0585336273845 0.169031394985 0)
(-0.0566093282663 0.193368231094 0)
(-0.0544784480296 0.216833438955 0)
(-0.0521648568294 0.2393447614 0)
(-0.0496955483946 0.260830833143 0)
(-0.0470949899643 0.281231655721 0)
(-0.0443901306651 0.300498235158 0)
(-0.0416041030346 0.318592568183 0)
(-0.0387621013854 0.33548691268 0)
(-0.0358845150807 0.351163444245 0)
(-0.0329936454212 0.365613303678 0)
(-0.0301063222479 0.378836061271 0)
(-0.027241396651 0.390838681452 0)
(-0.0244118729305 0.401634922508 0)
(-0.0216330937944 0.411244325898 0)
(-0.0189144016195 0.419691643276 0)
(-0.0162679181078 0.42700593153 0)
(-0.0136997435041 0.433220064864 0)
(-0.0112192342932 0.438369961738 0)
(-0.0088297526808 0.442494190924 0)
(-0.00653835948248 0.445633331129 0)
(-0.00434614519945 0.447829659729 0)
(-0.00225827883948 0.449126616115 0)
(-0.00027396429956 0.449568547005 0)
(0.00160320514205 0.449200262279 0)
(0.00337560420352 0.448066829611 0)
(0.00504090165815 0.446213177271 0)
(0.00660272279635 0.443683971473 0)
(0.00805982202421 0.440523281141 0)
(0.00941689419778 0.436774441792 0)
(0.0106735102429 0.432479810541 0)
(0.0118351723218 0.42768066193 0)
(0.012902083826 0.42241700555 0)
(0.0138803516328 0.416727509106 0)
(0.014770635085 0.410649365604 0)
(0.0155794591025 0.404218235647 0)
(0.0163077821118 0.397468168048 0)
(0.0169623776445 0.39043156188 0)
(0.017544359556 0.383139130936 0)
(0.0180605917591 0.375619878511 0)
(0.0185122139635 0.367901111509 0)
(0.0189060345425 0.360008429104 0)
(0.0192431006328 0.351965777715 0)
(0.0195300308494 0.343795446275 0)
(0.0197676793693 0.335518167081 0)
(0.0199623599101 0.327153117049 0)
(0.0201146536759 0.318718053444 0)
(0.0202304772625 0.310229311542 0)
(0.0203100889168 0.301701976896 0)
(0.0203589475454 0.293149875945 0)
(0.0203769700109 0.284585770797 0)
(0.020369129953 0.276021331634 0)
(0.0203350210489 0.267467352979 0)
(0.0202791400141 0.258933703848 0)
(0.0202008066662 0.250429551 0)
(0.0201040787235 0.241963277642 0)
(0.0199880793838 0.233542713129 0)
(0.0198564899185 0.225175019315 0)
(0.0197083295045 0.216866915336 0)
(0.0195469776833 0.208624527757 0)
(0.01937144918 0.200453613037 0)
(0.0191849001124 0.192359375831 0)
(0.0189864332447 0.184346682656 0)
(0.0187790506227 0.17641985053 0)
(0.0185620212375 0.168582857697 0)
(0.0183382473735 0.160839111266 0)
(0.0181072186281 0.153191652534 0)
(0.0178717693824 0.145642909509 0)
(0.0176316388158 0.138194904067 0)
(0.0173896025033 0.130848999067 0)
(0.0171456502417 0.123606106671 0)
(0.0169024839884 0.116466436086 0)
(0.0166603211963 0.10942970942 0)
(0.0164217554103 0.102494917387 0)
(0.0161871860749 0.0956605417599 0)
(0.0159590434003 0.0889243221862 0)
(0.0157378416201 0.0822834886668 0)
(0.0155257679833 0.0757345418211 0)
(0.0153233467959 0.0692734905022 0)
(0.0151323851115 0.0628956395563 0)
(0.0149532132018 0.0565958167919 0)
(0.0147869482167 0.0503681155871 0)
(0.0146332191831 0.0442059773921 0)
(0.0144916637152 0.0381015710733 0)
(0.0143600487635 0.0320449161452 0)
(0.014235383151 0.0260209128778 0)
(0.0141145035699 0.0200041165051 0)
(0.0139979419147 0.0139274357691 0)
(0.0139401324934 0.00779362326112 0)
(0.0129447285729 0.00214291941294 0)
(-0.0822741312459 0.0113624707815 0)
(-0.0911639361408 0.0387606930114 0)
(-0.0908571930906 0.0658473145966 4.15309547743e-27)
(-0.0896153697398 0.0930448615608 0)
(-0.0879329831441 0.119749381554 0)
(-0.0858594863623 0.14586737882 0)
(-0.0834243823077 0.171284268886 0)
(-0.0806589649287 0.195894590281 0)
(-0.0775980091892 0.219603359881 0)
(-0.0742773652783 0.242327034844 0)
(-0.0707346903907 0.263993783119 0)
(-0.0670068661959 0.284543684693 0)
(-0.0631311678689 0.303928489012 0)
(-0.0591426175678 0.322111326861 0)
(-0.0550756151259 0.33906607242 0)
(-0.0509612725687 0.354776728935 0)
(-0.0468295022575 0.369236557395 0)
(-0.0427063441907 0.382447292647 0)
(-0.0386164733507 0.394418186586 0)
(-0.0345805064758 0.405165190097 0)
(-0.0306178645194 0.414710033534 0)
(-0.0267440175012 0.423079479374 0)
(-0.0229736158034 0.430304520271 0)
(-0.0193176236861 0.436419755442 0)
(-0.015786634581 0.441462734033 0)
(-0.0123878502681 0.445473460258 0)
(-0.00912851559409 0.448493865767 0)
(-0.00601273397095 0.450567414008 0)
(-0.00304499259772 0.451738668019 0)
(-0.000226828695166 0.452052964909 0)
(0.0024395658751 0.451556048329 0)
(0.00495479464665 0.450293826858 0)
(0.00731853674316 0.448312002422 0)
(0.0095331294501 0.445655885106 0)
(0.0115998252451 0.442370171226 0)
(0.013522391466 0.438498721849 0)
(0.0153032964688 0.434084380117 0)
(0.0169474030781 0.429168828928 0)
(0.0184581101307 0.42379244455 0)
(0.0198410965182 0.41799419125 0)
(0.0211004310245 0.411811517533 0)
(0.0222423557181 0.40528028284 0)
(0.02327137744 0.398434692594 0)
(0.0241940728758 0.391307252274 0)
(0.0250151725152 0.383928738238 0)
(0.0257413750207 0.376328178196 0)
(0.0263774387784 0.368532856888 0)
(0.0269299884446 0.360568319984 0)
(0.0274036284465 0.352458412457 0)
(0.0278047302661 0.344225304618 0)
(0.0281375868725 0.335889561472 0)
(0.0284081641896 0.327470186161 0)
(0.0286203141734 0.318984715389 0)
(0.0287794785799 0.310449275712 0)
(0.0288889815247 0.301878699841 0)
(0.0289536675442 0.293286587769 0)
(0.028976291546 0.284685435408 0)
(0.0289610766403 0.276086693083 0)
(0.0289102205632 0.267500899053 0)
(0.0288273524443 0.258937726461 0)
(0.0287141706881 0.250406112629 0)
(0.028573781363 0.24191428787 0)
(0.0284074827182 0.233469894829 0)
(0.0282179630409 0.225079993625 0)
(0.0280062429565 0.216751165611 0)
(0.0277747154077 0.208489492902 0)
(0.0275242570802 0.200300645633 0)
(0.027257090752 0.19218983615 0)
(0.0269740739019 0.184161889397 0)
(0.0266773699085 0.176221175212 0)
(0.0263679222745 0.168371665756 0)
(0.0260479208603 0.160616851092 0)
(0.0257184675035 0.152959787079 0)
(0.0253818301742 0.145403000828 0)
(0.0250393059989 0.137948535234 0)
(0.0246932568718 0.130597851175 0)
(0.0243451735685 0.123351872908 0)
(0.0239974921347 0.116210893226 0)
(0.0236518625365 0.109174625059 0)
(0.0233107452422 0.102242114668 0)
(0.0229758854534 0.0954118013717 0)
(0.0226496924362 0.0886814411885 0)
(0.0223339189662 0.0820481756329 0)
(0.0220308234093 0.0755084648348 0)
(0.0217420498294 0.0690581590126 0)
(0.021469571463 0.0626924295041 0)
(0.0212147630982 0.0564058209382 0)
(0.0209791273483 0.0501921334394 0)
(0.020763573445 0.0440443548473 0)
(0.0205690333748 0.0379543124891 0)
(0.0203962544783 0.0319122653346 0)
(0.0202471788904 0.0259058988982 0)
(0.020127510199 0.0199197492616 0)
(0.020048981328 0.0139292652257 0)
(0.0199679724226 0.00802332725079 0)
(0.0181663556086 0.00231308806966 0)
(-0.107227488203 0.011526122848 0)
(-0.118827795712 0.0395121529438 0)
(-0.118416966524 0.0670714072905 0)
(-0.116778291644 0.0947553096391 0)
(-0.114559058847 0.1219224048 0)
(-0.111825993264 0.148473793461 0)
(-0.108618546233 0.1742897308 0)
(-0.104979006583 0.199260845176 0)
(-0.100953467811 0.223289445378 0)
(-0.0965901515906 0.246290351457 0)
(-0.0919387122491 0.268191134994 0)
(-0.0870485746275 0.288932150718 0)
(-0.0819685594253 0.308466240517 0)
(-0.0767454180965 0.326758256459 0)
(-0.0714238333308 0.343784352365 0)
(-0.0660451859125 0.359531180981 0)
(-0.0606479328032 0.37399495028 0)
(-0.0552666006943 0.387180466393 0)
(-0.0499325077136 0.399100119924 0)
(-0.044672943041 0.409772928483 0)
(-0.0395121616027 0.41922358876 0)
(-0.0344706746238 0.42748163295 0)
(-0.029566417992 0.434580635781 0)
(-0.0248140598436 0.440557541259 0)
(-0.0202262394009 0.44545204444 0)
(-0.0158128131481 0.44930607716 0)
(-0.0115820959013 0.452163331622 0)
(-0.00754001387701 0.454068858136 0)
(-0.0036913295504 0.455068677732 0)
(-3.87138367419e-05 0.455209447246 0)
(0.00341603279494 0.454538118959 0)
(0.00667297012172 0.45310170837 0)
(0.00973273004898 0.450946895064 0)
(0.0125975910433 0.448119891275 0)
(0.0152702194429 0.444666199028 0)
(0.0177547035053 0.440630383503 0)
(0.0200552931762 0.436055911055 0)
(0.0221774717122 0.430985000772 0)
(0.0241266923389 0.425458491442 0)
(0.0259094726814 0.419515734121 0)
(0.0275321314781 0.413194497294 0)
(0.0290018998784 0.406530892208 0)
(0.0303256595812 0.399559313641 0)
(0.0315110638134 0.39231239596 0)
(0.032565279281 0.384820985244 0)
(0.033496111211 0.377114123313 0)
(0.0343107524739 0.369219052288 0)
(0.0350169078938 0.361161226958 0)
(0.0356215564805 0.35296434871 0)
(0.0361320725304 0.344650403545 0)
(0.03655500814 0.336239725302 0)
(0.0368972089012 0.327751057403 0)
(0.0371646254387 0.319201639076 0)
(0.0373634225319 0.310607284337 0)
(0.0374988279778 0.301982486773 0)
(0.0375762322945 0.29334050935 0)
(0.0376000825011 0.284693497225 0)
(0.03757496875 0.276052568394 0)
(0.0375045683472 0.267427927207 0)
(0.0373927126846 0.258828947674 0)
(0.0372423848319 0.250264276738 0)
(0.037056759071 0.241741901199 0)
(0.0368382530204 0.233269235397 0)
(0.0365895298019 0.224853166808 0)
(0.0363126042223 0.216500121574 0)
(0.036009798015 0.208216085113 0)
(0.0356828985984 0.200006645696 0)
(0.0353340574645 0.191876991139 0)
(0.0349649999789 0.183831930191 0)
(0.0345778592316 0.175875867844 0)
(0.0341744357864 0.168012810109 0)
(0.0337569604995 0.160246323961 0)
(0.0333274039637 0.152579529739 0)
(0.0328881649347 0.145015051834 0)
(0.0324414302482 0.137555006606 0)
(0.0319897871051 0.130200951208 0)
(0.0315356350687 0.122953872117 0)
(0.0310817232167 0.11581413791 0)
(0.030630616554 0.108781494869 0)
(0.0301851598201 0.101855028652 0)
(0.029748000629 0.0950331691607 0)
(0.0293219829935 0.0883136628558 0)
(0.028909729287 0.0816935877581 0)
(0.0285139659184 0.075169334569 0)
(0.0281371658188 0.0687366255558 0)
(0.0277818111839 0.062390494701 0)
(0.0274501040744 0.0561252974568 0)
(0.0271441879203 0.0499346598641 0)
(0.026865977997 0.0438114511353 0)
(0.0266174637781 0.0377476780117 0)
(0.0264009123026 0.0317343885943 0)
(0.0262197424277 0.0257617701998 0)
(0.0260795824466 0.0198199887002 0)
(0.0259836463277 0.0138956328003 0)
(0.0258168832765 0.00808292348199 0)
(0.0232373929018 0.0023727731032 0)
(-0.132714542539 0.0117302210792 0)
(-0.14706715059 0.0404691211481 0)
(-0.146540063638 0.0686390619662 0)
(-0.144481468664 0.0969472777068 0)
(-0.141694902732 0.124706249736 0)
(-0.138265360054 0.15181062404 0)
(-0.134243694575 0.178134401719 0)
(-0.129684376461 0.2035633821 0)
(-0.124646286271 0.227996517994 0)
(-0.119191039397 0.251346687776 0)
(-0.113381590834 0.273540844485 0)
(-0.107280657585 0.29451989014 0)
(-0.100949666945 0.314238237374 0)
(-0.0944475252082 0.332663146204 0)
(-0.0878299834746 0.349773855214 0)
(-0.0811487851528 0.365560589164 0)
(-0.0744514508294 0.380023461478 0)
(-0.0677807874625 0.393171345912 0)
(-0.0611750516748 0.405020733808 0)
(-0.0546677632658 0.415594642134 0)
(-0.0482881617559 0.424921583029 0)
(-0.0420612180613 0.433034642033 0)
(-0.0360082541688 0.439970659131 0)
(-0.0301470167899 0.445769534172 0)
(-0.0244923230407 0.450473631717 0)
(-0.0190560804337 0.454127283695 0)
(-0.0138478717108 0.45677635495 0)
(-0.00887487831467 0.458467863748 0)
(-0.00414239568825 0.459249630411 0)
(0.000346317211892 0.459169954465 0)
(0.00458955963286 0.458277288826 0)
(0.00858739321489 0.456620035358 0)
(0.0123410762405 0.454246081304 0)
(0.0158533756685 0.451202777361 0)
(0.0191280439363 0.447536622404 0)
(0.0221700327755 0.443293061079 0)
(0.0249850242367 0.438516331678 0)
(0.0275796588639 0.433249320792 0)
(0.0299610789166 0.427533439187 0)
(0.0321371733646 0.421408517056 0)
(0.0341161318431 0.414912716553 0)
(0.0359067026427 0.408082460516 0)
(0.0375177549526 0.400952376579 0)
(0.0389585439287 0.393555255695 0)
(0.0402382786528 0.385922026372 0)
(0.0413663915415 0.378081742974 0)
(0.0423521125414 0.370061590009 0)
(0.0432047409492 0.361886899805 0)
(0.0439332280562 0.353581187 0)
(0.0445464533834 0.345166195539 0)
(0.0450528210587 0.336661961947 0)
(0.0454605425797 0.328086888471 0)
(0.0457772526799 0.31945783126 0)
(0.046010302822 0.310790194646 0)
(0.0461664029862 0.302098037367 0)
(0.0462519275363 0.293394179259 0)
(0.0462725870171 0.284690316178 0)
(0.0462337473793 0.275997129362 0)
(0.046140134008 0.267324398628 0)
(0.0459961609086 0.258681103493 0)
(0.0458056655474 0.250075524479 0)
(0.0455722433185 0.241515327024 0)
(0.0452990098116 0.233007642896 0)
(0.0449889323557 0.224559129926 0)
(0.0446446139362 0.216176028321 0)
(0.0442686139947 0.207864193257 0)
(0.0438632481227 0.199629124817 0)
(0.0434308891692 0.191475973663 0)
(0.0429737767471 0.183409546461 0)
(0.042494292187 0.175434288529 0)
(0.0419947736867 0.167554269854 0)
(0.041477759457 0.159773150721 0)
(0.0409458057394 0.152094154888 0)
(0.0404016959258 0.144520025821 0)
(0.0398482610788 0.137052994806 0)
(0.0392885541876 0.12969473549 0)
(0.0387256743805 0.122446333908 0)
(0.0381629084774 0.115308248278 0)
(0.0376035618682 0.10828028706 0)
(0.0370510702352 0.101361579061 0)
(0.0365088407216 0.0945505627172 0)
(0.035980338327 0.0878449687077 0)
(0.0354689415987 0.0812418207706 0)
(0.0349780083352 0.0747374294682 0)
(0.0345107511983 0.0683274006241 0)
(0.0340702914581 0.0620066345621 0)
(0.0336595676363 0.0557693369662 0)
(0.0332814017984 0.0496090210352 0)
(0.0329384848809 0.0435185205794 0)
(0.0326335371777 0.0374900159934 0)
(0.0323694914869 0.0315152201098 0)
(0.0321498493216 0.0255856113248 0)
(0.0319786536684 0.0196931107005 0)
(0.0318522133233 0.0138259158635 0)
(0.0316119111989 0.00807189173773 0)
(0.0283764030369 0.00238429622068 0)
(-0.158867497735 0.0119799350279 0)
(-0.176032879606 0.0416492292697 0)
(-0.175372431005 0.0705743913646 4.17667741469e-27)
(-0.172862978122 0.0996534031456 0)
(-0.169469003658 0.128141364396 0)
(-0.165295180308 0.155924972162 0)
(-0.1604053755 0.18287061383 0)
(-0.154867848045 0.208858295018 0)
(-0.14875596385 0.233783017772 0)
(-0.142146215233 0.257555506436 0)
(-0.135116327514 0.280102216753 0)
(-0.127743465739 0.301365017222 0)
(-0.120102777888 0.321300547815 0)
(-0.112266082148 0.339879326233 0)
(-0.104300923333 0.35708466144 0)
(-0.0962697619533 0.372911431813 0)
(-0.0882295350353 0.387364779786 0)
(-0.0802313196797 0.400458775842 0)
(-0.0723203510343 0.412215100113 0)
(-0.0645360893331 0.422661790972 0)
(-0.0569125914258 0.431832098487 0)
(-0.049478843437 0.439763477148 0)
(-0.0422593146197 0.446496730615 0)
(-0.0352743653162 0.452075312146 0)
(-0.028540793141 0.456544759898 0)
(-0.0220721544223 0.459952243414 0)
(-0.0158791894587 0.462346183695 0)
(-0.00997000600626 0.463775920502 0)
(-0.00435038943866 0.46429139883 0)
(0.000976102906345 0.463942869354 0)
(0.00600788156917 0.462780571309 0)
(0.0107452935848 0.460854570396 0)
(0.0151902152221 0.45821418721 0)
(0.0193461804773 0.454908142334 0)
(0.0232180177123 0.450984117337 0)
(0.0268118090989 0.44648860624 0)
(0.0301346424568 0.441466763579 0)
(0.0331945704322 0.435962268114 0)
(0.0360003815201 0.430017206426 0)
(0.0385615791407 0.423671976436 0)
(0.0408881689646 0.416965205362 0)
(0.0429906518578 0.409933683564 0)
(0.0448798214096 0.402612312176 0)
(0.0465667644325 0.395034065103 0)
(0.0480626645453 0.387229965265 0)
(0.0493788065831 0.379229075086 0)
(0.0505263848887 0.371058503247 0)
(0.051516511343 0.362743425724 0)
(0.0523600307278 0.354307123915 0)
(0.0530675353153 0.345771036608 0)
(0.0536491922185 0.337154829518 0)
(0.054114769846 0.328476476734 0)
(0.0544734841816 0.319752357459 0)
(0.0547340432838 0.310997361125 0)
(0.0549045189256 0.302225004326 0)
(0.0549924140223 0.293447550852 0)
(0.055004564199 0.284676137637 0)
(0.0549472302252 0.275920897838 0)
(0.0548260303539 0.267191084107 0)
(0.0546460559782 0.25849518289 0)
(0.054411831973 0.249841022788 0)
(0.0541274502704 0.241235869088 0)
(0.0537965518877 0.232686508328 0)
(0.0534224702136 0.224199315713 0)
(0.0530082264171 0.215780309734 0)
(0.0525566730402 0.207435188697 0)
(0.0520704936512 0.199169354462 0)
(0.0515523373322 0.190987919083 0)
(0.0510048143397 0.182895699905 0)
(0.050430613754 0.174897200645 0)
(0.0498324886998 0.166996584243 0)
(0.0492133516145 0.159197635781 0)
(0.0485762452064 0.151503720762 0)
(0.0479244127933 0.143917738401 0)
(0.0472612538902 0.136442074585 0)
(0.046590369696 0.129078554483 0)
(0.0459155048725 0.1218283983 0)
(0.0452405709405 0.114692180792 0)
(0.0445695779583 0.107669796979 0)
(0.043906640261 0.100760434173 0)
(0.0432559031895 0.0939625514616 0)
(0.0426215368904 0.0872738666051 0)
(0.0420076641432 0.0806913502992 0)
(0.0414183486684 0.0742112272575 0)
(0.0408575314782 0.0678289831076 0)
(0.0403290231926 0.0615393776 0)
(0.0398364616297 0.0553364668882 0)
(0.0393833261858 0.0492136293574 0)
(0.0389729443532 0.0431636324679 0)
(0.0386085599261 0.0371787264681 0)
(0.0382934115329 0.031250770676 0)
(0.0380308116019 0.0253715907373 0)
(0.0378235430459 0.0195334426141 0)
(0.0376635893743 0.0137233570436 0)
(0.0373588436977 0.00802254593387 0)
(0.0335061109704 0.00237826034136 0)
(-0.185830598734 0.0122793643003 0)
(-0.205884587279 0.0430720041687 0)
(-0.205069117272 0.0729071346656 -4.17444944916e-27)
(-0.202069470335 0.10291387483 0)
(-0.198017302361 0.132277165318 0)
(-0.193038994597 0.160873868473 0)
(-0.187213479182 0.188561226487 0)
(-0.180624898828 0.215212427867 0)
(-0.17336319118 0.240717996895 0)
(-0.165521639129 0.264986425433 0)
(-0.157194495495 0.287943974865 0)
(-0.148474855616 0.309534106123 0)
(-0.13945286983 0.329716561973 0)
(-0.130214246204 0.34846619177 0)
(-0.120839103514 0.365771581631 0)
(-0.111401098114 0.381633557846 0)
(-0.101966888993 0.39606361472 0)
(-0.0925958508255 0.409082328515 0)
(-0.083340099515 0.420717810536 0)
(-0.0742447150836 0.431004260814 0)
(-0.0653482083304 0.439980671306 0)
(-0.0566830809023 0.447689721169 0)
(-0.0482765060581 0.454176882035 0)
(-0.0401509630361 0.459489730786 0)
(-0.0323248648955 0.463677440736 0)
(-0.0248130384329 0.466790405145 0)
(-0.0176271464632 0.468879940689 0)
(-0.0107759578498 0.469998023106 0)
(-0.00426559948218 0.470197024853 0)
(0.00190028710007 0.469529439784 0)
(0.00772034322983 0.468047575289 0)
(0.0131954090141 0.465803436562 0)
(0.0183281002667 0.462847999192 0)
(0.0231229218385 0.459231579466 0)
(0.0275858912823 0.455003224621 0)
(0.0317244139983 0.450210638196 0)
(0.0355470790616 0.444900028248 0)
(0.0390635248513 0.439115981334 0)
(0.0422842628309 0.432901358252 0)
(0.0452205684306 0.426297205686 0)
(0.047884326089 0.419342682548 0)
(0.0502879362334 0.412074998988 0)
(0.0524441719102 0.404529367989 0)
(0.0543660930693 0.396738970023 0)
(0.0560669080651 0.38873493113 0)
(0.057559891106 0.380546315998 0)
(0.0588582467571 0.372200135809 0)
(0.0599750304978 0.363721373052 0)
(0.0609230184374 0.355133022511 0)
(0.0617146354616 0.346456150321 0)
(0.0623618364931 0.337709969035 0)
(0.0628760495488 0.328911929767 0)
(0.0632680769801 0.320077828345 0)
(0.0635480622934 0.311221925016 0)
(0.0637254198759 0.302357073529 0)
(0.0638088324142 0.29349485781 0)
(0.0638062145653 0.284645731825 0)
(0.0637247443478 0.275819159756 0)
(0.0635708619331 0.26702375237 0)
(0.0633503330717 0.25826739617 0)
(0.0630682790078 0.24955737257 0)
(0.0627292656703 0.240900463527 0)
(0.0623373566689 0.232303042612 0)
(0.0618962180917 0.223771148158 0)
(0.0614091836497 0.215310539831 0)
(0.060879363597 0.206926735501 0)
(0.0603097105288 0.198625032031 0)
(0.0597031208445 0.190410506987 0)
(0.0590624906673 0.182288007194 0)
(0.0583908005283 0.174262120963 0)
(0.057691153561 0.166337141713 0)
(0.0569668367333 0.158517019353 0)
(0.0562213366166 0.150805308512 0)
(0.0554583742343 0.143205109432 0)
(0.0546818973473 0.135719011207 0)
(0.0538960891641 0.128349032542 0)
(0.0531053393098 0.121096569678 0)
(0.0523142300138 0.113962346106 0)
(0.0515274907651 0.106946372959 0)
(0.0507499677081 0.100047914189 0)
(0.0499865687243 0.0932654638942 0)
(0.049242223355 0.0865967300551 0)
(0.0485218259329 0.0800386298426 0)
(0.0478301938823 0.0735872919236 0)
(0.0471720170662 0.0672380688957 0)
(0.0465518236311 0.0609855577776 0)
(0.0459739455698 0.0548236329255 0)
(0.0454425034259 0.0487454971266 0)
(0.0449613984623 0.0427437486198 0)
(0.0445343237163 0.0368104808807 0)
(0.0441647667299 0.0309375107926 0)
(0.0438559310417 0.0251164848546 0)
(0.0436099558048 0.0193389586992 0)
(0.0434162158377 0.0135908678811 0)
(0.0430525606561 0.00794818174296 0)
(0.0386002989726 0.00236308997803 0)
(-0.213761776518 0.0126330677151 0)
(-0.236795077963 0.0447610643586 0)
(-0.235797463706 0.075674324766 0)
(-0.232258554745 0.106778981067 0)
(-0.227484996193 0.13717525771 0)
(-0.221627634639 0.166728084897 0)
(-0.214783138042 0.195283843315 0)
(-0.207054222139 0.222707885451 0)
(-0.198549993308 0.248885842334 0)
(-0.189382899893 0.273724088621 0)
(-0.179665835217 0.297149242427 0)
(-0.169509618162 0.319107250284 0)
(-0.159020891163 0.339562117329 0)
(-0.148300412826 0.358494374696 0)
(-0.137441742262 0.375899369865 0)
(-0.126530284163 0.391785432995 0)
(-0.115642699713 0.406171985061 0)
(-0.104846657727 0.41908764061 0)
(-0.0942009286952 0.43056837854 0)
(-0.0837557742166 0.440655848513 0)
(-0.0735535989937 0.449395886258 0)
(-0.0636297699601 0.456837291374 0)
(-0.0540135272361 0.463030897202 0)
(-0.0447288655464 0.468028923791 0)
(-0.0357953200552 0.471884567467 0)
(-0.0272285796291 0.474651752808 0)
(-0.019040937189 0.476384962629 0)
(-0.0112415803433 0.477139075628 0)
(-0.00383679694492 0.476969166153 0)
(0.00316987711988 0.475930250896 0)
(0.00977746068519 0.474076982711 0)
(0.0159874991677 0.471463586284 0)
(0.0218035364491 0.468142924359 0)
(0.0272312324069 0.46416711898 0)
(0.0322779702177 0.459586761989 0)
(0.0369526668812 0.454450918888 0)
(0.0412655620784 0.448806976454 0)
(0.0452280417893 0.442700535028 0)
(0.0488524643959 0.436175317421 0)
(0.0521520182643 0.42927309374 0)
(0.055140574323 0.422033615434 0)
(0.0578325621329 0.414494560762 0)
(0.0602428340368 0.406691489711 0)
(0.0623865474769 0.398657810886 0)
(0.0642790321272 0.390424760913 0)
(0.0659356729189 0.382021397944 0)
(0.0673717777175 0.373474611504 0)
(0.0686024613112 0.364809148772 0)
(0.0696425167159 0.356047660273 0)
(0.0705063056091 0.347210763422 0)