/*--------------------------------*- C++ -*----------------------------------*\
| =========                 |                                                 |
| \\      /  F ield         | OpenFOAM: The Open Source CFD Toolbox           |
|  \\    /   O peration     | Version:  v1906                                 |
|   \\  /    A nd           | Web:      www.OpenFOAM.com                      |
|    \\/     M anipulation  |                                                 |
\*---------------------------------------------------------------------------*/
FoamFile
{
    version     2.0;
    format      ascii;
    class       surfaceScalarField;
    location    "998";
    object      phi;
}
// * * * * * * * * * * * * * * * * * * * * * * * * * * * * * * * * * * * * * //

dimensions      [0 3 -1 0 0 0 0];
oriented        oriented;


internalField   nonuniform List<scalar> 
18240
(
-0.000200037348528
0.000200020757762
-0.000409554586332
0.000209498295498
-0.000617685833694
0.000208113878171
-0.000822803563375
0.000205098347516
-0.0010238523505
0.000201031550322
-0.00121990886743
0.000196036699889
-0.00141014688695
0.0001902210517
-0.00159385312868
0.000183685944562
-0.00177040590098
0.000176536101846
-0.00193929962958
0.000168872912848
-0.00210011408082
0.000160798101794
-0.00225254005946
0.000152404622447
-0.00239633810971
0.000143782039775
-0.00253136705563
0.000135007046638
-0.00265753399003
0.000126151298479
-0.00277482808585
0.000117271666589
-0.0028832636795
0.000108420357338
-0.0029829212195
9.96346084306e-05
-0.00307388469357
9.09486780412e-05
-0.00315629076591
8.23826730754e-05
-0.00323026111619
7.39560174086e-05
-0.00329596012934
6.56751827328e-05
-0.00335352228659
5.75483253983e-05
-0.00340311836203
4.95718419298e-05
-0.00344487769367
4.17460167301e-05
-0.00347896271661
3.4060400196e-05
-0.00350548588315
2.6510404059e-05
-0.00352459246876
1.90815653918e-05
-0.00353637182585
1.17671628485e-05
-0.00354094868603
4.55141143561e-06
-0.00353838835993
-2.57190500133e-06
-0.00352879664661
-9.61764554635e-06
-0.00351221876127
-1.65888168239e-05
-0.0034887493188
-2.34959308542e-05
-0.00345842387535
-3.03356546273e-05
-0.00342133913389
-3.71118738943e-05
-0.00337753627269
-4.38123012715e-05
-0.003327132192
-5.04319490339e-05
-0.00327019295262
-5.69478232015e-05
-0.0032068761788
-6.33454685984e-05
-0.00313729233544
-6.95915321365e-05
-0.00306165778047
-7.56641386162e-05
-0.00298014146072
-8.15230440512e-05
-0.00289302766466
-8.7144269925e-05
-0.00280054621111
-9.24871718815e-05
-0.00270304430702
-9.75331421343e-05
-0.00260080049886
-0.000102248385952
-0.00249420672175
-0.000106625491093
-0.00238356994651
-0.000110640059607
-0.00226930842658
-0.000114293220416
-0.00215174969654
-0.000117560459599
-0.00203134718905
-0.000120433521168
-0.00190848504416
-0.000122862067424
-0.00178371747036
-0.000124797129289
-0.00165758246351
-0.000126132956608
-0.00153084779709
-0.000126762365334
-0.00140430924404
-0.000126534807253
-0.0012789982836
-0.000125336891196
-0.00115592491968
-0.000123068483404
-0.00103622681717
-0.000119722404001
-0.000920914046799
-0.000115306993374
-0.000811036220797
-0.000109900771414
-0.000707499383695
-0.000103530311463
-0.000611236028903
-9.62857057017e-05
-0.000523013782657
-8.82153718088e-05
-0.00044352640786
-7.95079583309e-05
-0.000373030330177
-7.04887624331e-05
-0.000311443660113
-6.16049710847e-05
-0.000258187596059
-5.32487446191e-05
-0.000212509392075
-4.56957409324e-05
-0.000173539011872
-3.89637203281e-05
-0.000140619265532
-3.29373028619e-05
-0.000113153635591
-2.74597120874e-05
-9.06876874254e-05
-2.24833880254e-05
-7.26283417727e-05
-1.80538663647e-05
-5.83564673238e-05
-1.42877490703e-05
-4.71289516564e-05
-1.12219434997e-05
-3.83250652258e-05
-8.81819946267e-06
-3.13827914249e-05
-6.93715796339e-06
-2.59637407002e-05
-5.43255426491e-06
-2.17705970106e-05
-4.18903680271e-06
-1.86008313106e-05
-3.18239848247e-06
-1.62249559166e-05
-2.37263378374e-06
-1.45112808989e-05
-1.72591489177e-06
-1.33496145629e-05
-1.15961640007e-06
-1.25035871882e-05
-8.57359205738e-07
-1.17648252105e-05
-7.38763656046e-07
-1.11730734486e-05
-6.03588271366e-07
-1.0534444168e-05
-6.41726456704e-07
-9.74418553442e-06
-8.0353082591e-07
-8.82788833956e-06
-9.23454895266e-07
-7.75422972237e-06
-1.08877437477e-06
-6.35316458706e-06
-1.41623404793e-06
-4.50129066351e-06
-1.86688661307e-06
-2.21699426026e-06
-2.29673628592e-06
-2.22443132469e-06
-0.000211632582951
0.000411635342398
-0.000435878878701
0.000433725682993
-0.000657913432887
0.00043012936878
-0.000876487794642
0.000423653255428
-0.00109059962468
0.000415124351982
-0.00129930339455
0.000404720790575
-0.00150173348533
0.000392632137849
-0.00169713047036
0.000379063050454
-0.0018848404102
0.000364227038264
-0.00206432544501
0.000348337856128
-0.00223515071243
0.000331604358459
-0.00239698982658
0.000314223428578
-0.00254960415639
0.000296377365336
-0.00269284671098
0.000278229087396
-0.00282663667158
0.000259922280259
-0.00295096441791
0.000241578715902
-0.00306586356126
0.000223300581321
-0.00317141903613
0.000205169235386
-0.00326773804221
0.000187248855133
-0.00335496221612
0.000169585884272
-0.00343323810258
0.0001522132045
-0.0035027337036
0.000135149741637
-0.00356360855428
0.000118404633102
-0.00361603452779
0.000101976721841
-0.00366016531953
8.58584509475e-05
-0.00369616125965
7.00352121165e-05
-0.00372415794408
5.44889267468e-05
-0.00374429487662
3.91973374863e-05
-0.00375668302535
2.41373593181e-05
-0.00376143725329
9.28443591009e-06
-0.00375864276168
-5.38414262915e-06
-0.00374839194068
-1.98897352282e-05
-0.00373074931594
-3.42489722443e-05
-0.00370579237691
-4.84742325734e-05
-0.00367357528182
-6.2570069271e-05
-0.0036341747267
-7.65339192047e-05
-0.00358765155148
-9.03525713677e-05
-0.00353410142949
-0.000104003722211
-0.00347361342716
-0.000117452699373
-0.00340632498872
-0.000130655752394
-0.00333237573509
-0.000143557424829
-0.00325196549228
-0.000156096437047
-0.00316530108989
-0.000168203838324
-0.00307265573441
-0.000179811859779
-0.00297430679394
-0.000190852174235
-0.0028705953676
-0.000201266846693
-0.00276185480727
-0.000211004518153
-0.00264847157815
-0.000220030773585
-0.00253080803547
-0.000228318390778
-0.00240926977287
-0.000235852906345
-0.00228423134373
-0.000242612523962
-0.00215611957653
-0.000248565549006
-0.0020253542992
-0.000253639388023
-0.00189245593424
-0.000257714106028
-0.00175800557303
-0.000260593566644
-0.00162276531391
-0.00026201949542
-0.00148762727727
-0.000261681503074
-0.00135368775075
-0.000259291933562
-0.00122211435099
-0.000254649072918
-0.00109412273223
-0.000247728275167
-0.00097085554124
-0.000238580029419
-0.000853382221856
-0.000227386743041
-0.000742723201637
-0.000214194331803
-0.000639838773944
-0.000199181613981
-0.000545685018514
-0.000182373766245
-0.00046110980549
-0.000164092871362
-0.000386505004504
-0.000145097126885
-0.000321723061601
-0.000126395188256
-0.000266044170671
-0.000108930707378
-0.000218426832677
-9.33216463491e-05
-0.000177832068237
-7.95620149821e-05
-0.000143510999421
-6.72676485821e-05
-0.00011493133451
-5.6043167702e-05
-9.16834787577e-05
-4.57407185364e-05
-7.32099844395e-05
-3.65307556016e-05
-5.87795501672e-05
-2.87262848809e-05
-4.75407337174e-05
-2.24633414366e-05
-3.87355369463e-05
-1.76302467317e-05
-3.17679743088e-05
-1.39072159776e-05
-2.62980540008e-05
-1.09093756159e-05
-2.20933315152e-05
-8.39665009057e-06
-1.89278406903e-05
-6.35443651481e-06
-1.65676407341e-05
-4.73585263173e-06
-1.48201945461e-05
-3.4798747595e-06
-1.3424759054e-05
-2.55843650539e-06
-1.23460807487e-05
-1.94190280234e-06
-1.15968842365e-05
-1.49223189192e-06
-1.10222257957e-05
-1.18546532996e-06
-1.04622058354e-05
-1.20826469435e-06
-9.81845430302e-06
-1.45632997873e-06
-8.96436898334e-06
-1.78780454916e-06
-7.87508057591e-06
-2.19095274858e-06
-6.52929504209e-06
-2.77494161362e-06
-4.74495728179e-06
-3.66615690717e-06
-2.37138848544e-06
-4.6841372371e-06
-4.60063924097e-06
-0.000214491421621
0.000626108676595
-0.000441019572341
0.000660234326348
-0.000665519247705
0.000654609925401
-0.000886481227471
0.000644595757018
-0.0011028241919
0.000631448026253
-0.00131356455865
0.00061544162202
-0.00151781834645
0.000596866544659
-0.0017148146448
0.000576039699784
-0.00190389896962
0.000553291892041
-0.00208453605591
0.000528955157066
-0.0022563033356
0.000503352077361
-0.0024188867249
0.000476786895166
-0.00257206793847
0.000449538936409
-0.00271571694627
0.000421858050648
-0.00284977648763
0.000393962122493
-0.00297425419528
0.00036603628393
-0.00308920681616
0.000338233475155
-0.00319473396709
0.000310676186835
-0.00329096350762
0.000283458680403
-0.00337804784373
0.000256649998347
-0.00345615097409
0.000230296664494
-0.00352544749379
0.000204426052342
-0.00358611126537
0.000179048814638
-0.00363831687048
0.000154162158179
-0.00368222960145
0.000129751690904
-0.00371800901177
0.000105794510632
-0.0037457999251
8.22604642139e-05
-0.00376573783317
5.91151940041e-05
-0.00377794073219
3.6320993994e-05
-0.00378251632752
1.3840032791e-05
-0.00377955468745
-8.36493704463e-06
-0.00376913737189
-3.03270120003e-05
-0.00375133100742
-5.2074397474e-05
-0.00372619870079
-7.3626482369e-05
-0.00369379459218
-9.49931512683e-05
-0.00365417773444
-0.000116170724124
-0.00360740751184
-0.000137141698652
-0.00355355989447
-0.000157871311594
-0.00349272301948
-0.000178308415786
-0.0034250150394
-0.000198383750556
-0.00335057833347
-0.000218012923496
-0.00326959727747
-0.0002370975585
-0.00318228872789
-0.000255531101861
-0.00308891734137
-0.000273203310536
-0.00298977972278
-0.000290008342075
-0.00288521528512
-0.00030585119671
-0.00277558287305
-0.000320655094439
-0.00266126760555
-0.000334365518882
-0.00254265270862
-0.00034695076536
-0.00242012794779
-0.000358396341314
-0.00229406605974
-0.000368690793101
-0.00216484565567
-0.000377803385246
-0.00203284881913
-0.000385651152507
-0.00189851593221
-0.000392062841762
-0.00176237907799
-0.000396743853036
-0.00162514820598
-0.000399264628565
-0.00148774975446
-0.00039909220303
-0.00135135816403
-0.000395696254682
-0.00121730486018
-0.00038871361828
-0.00108688796426
-0.000378156382538
-0.000961357037495
-0.000364120674403
-0.000841702310526
-0.000347051057076
-0.000729027291617
-0.000326876920044
-0.000624214423497
-0.000304004126778
-0.000528499794261
-0.000278094358359
-0.000443107478862
-0.000249493970539
-0.000368661343923
-0.000219548433697
-0.000304947113992
-0.00019011685455
-0.000250929811164
-0.000162953748721
-0.000205007770128
-0.000139251089321
-0.00016580134483
-0.000118775543623
-0.00013252996524
-0.000100546755572
-0.000104874527395
-8.37059337107e-05
-8.26926833536e-05
-6.79305313939e-05
-6.55616576819e-05
-5.36678425269e-05
-5.2603219813e-05
-4.16911399655e-05
-4.27417398718e-05
-3.23289352214e-05
-3.50215442253e-05
-2.53559920399e-05
-2.87932349117e-05
-2.01393061549e-05
-2.38313029746e-05
-1.58769748668e-05
-2.00875802992e-05
-1.21447748493e-05
-1.73364655864e-05
-9.1107938011e-06
-1.53400652392e-05
-6.73654096777e-06
-1.39239973956e-05
-4.90132580729e-06
-1.28701812746e-05
-3.61640183571e-06
-1.20761320536e-05
-2.74078244951e-06
-1.13814832754e-05
-2.19148344373e-06
-1.06822265511e-05
-1.89044257585e-06
-1.01340669404e-05
-1.76282543197e-06
-9.67370371887e-06
-1.92479254914e-06
-8.79857841915e-06
-2.67174478357e-06
-7.53101242174e-06
-3.47021952692e-06
-6.00408391647e-06
-4.31682067349e-06
-4.11872640117e-06
-5.56291417909e-06
-2.12217975934e-06
-6.69008369253e-06
-6.72905854835e-06
-0.00021791115562
0.00084400158207
-0.000447791365206
0.000890095807698
-0.000675567306758
0.000882366495162
-0.000899629745262
0.000868638933228
-0.00111883288616
0.000850631782168
-0.0013321471843
0.000828736499786
-0.00153866057456
0.000803360485282
-0.00173758748872
0.000774947071953
-0.00192827227231
0.000743957122409
-0.00211018822077
0.00071085143659
-0.00228293122776
0.000676075415992
-0.00244621109475
0.00064004697015
-0.0025998393026
0.000603147373102
-0.00274371670347
0.000565715555016
-0.00287781934258
0.000528044910838
-0.00300218594171
0.000490382911915
-0.00311690454529
0.000452932184834
-0.00322210184894
0.000415853482201
-0.00331793206028
0.000379268991751
-0.00340456885078
0.000343266782613
-0.00348219675055
0.000307904698624
-0.00355100566045
0.000273214994141
-0.00361118449602
0.00023920784861
-0.00366291781554
0.000205875574973
-0.00370638123886
0.000173195401089
-0.00374173971
0.000141133160377
-0.00376914427958
0.000109645415824
-0.00378873167624
7.86828535237e-05
-0.00380062224976
4.81920456093e-05
-0.00380492078076
1.8118903472e-05
-0.00380171561534
-1.15895424769e-05
-0.00379108086364
-4.09813620969e-05
-0.00377307699455
-7.00976365517e-05
-0.00374775483666
-9.89681952573e-05
-0.00371515791684
-0.000127609393197
-0.00367532855281
-0.000156019620679
-0.00362831210128
-0.000184177439288
-0.00357416515285
-0.000212037791593
-0.00351296123743
-0.000239531611641
-0.0034448003193
-0.000266564218494
-0.00336981449701
-0.000293018022348
-0.00328817679593
-0.000318754822841
-0.00320010409626
-0.00034362304834
-0.00310586200258
-0.000367464916136
-0.00300576138082
-0.000390128062867
-0.00290015588828
-0.000411475962947
-0.00278942941942
-0.000431400270705
-0.00267398523295
-0.00044982847023
-0.00255422578457
-0.000466728225187
-0.00243053874522
-0.00048210129797
-0.0023032794137
-0.000495967091574
-0.00217277004514
-0.000508329504267
-0.00203930866573
-0.000519128161507
-0.00190321331344
-0.000528173719687
-0.0017648927461
-0.000535078526612
-0.00162496309628
-0.000539208762291
-0.00148436596087
-0.000539701848957
-0.00134444041275
-0.000535635551794
-0.00120683068361
-0.000526334199072
-0.00107297514354
-0.000512024391469
-0.000944344736413
-0.000492760641288
-0.000821633692091
-0.000469771858309
-0.00070617807724
-0.000442341960863
-0.000598407633159
-0.000411782258127
-0.0005001568484
-0.000376354321965
-0.000413505776055
-0.000336151594185
-0.000339558042975
-0.000293503769823
-0.000278006889818
-0.000251674488466
-0.000227231944601
-0.000213734440266
-0.000184393453042
-0.000182098098199
-0.000147437035721
-0.000155738269757
-0.000115650503924
-0.00013234317708
-8.91848959089e-05
-0.000110179788223
-6.85502013737e-05
-8.85739875872e-05
-5.36282481772e-05
-6.85976176731e-05
-4.31925088113e-05
-5.21318525599e-05
-3.56553710919e-05
-3.98716303613e-05
-2.96723134513e-05
-3.13416206092e-05
-2.44657712694e-05
-2.53498669347e-05
-2.01207001306e-05
-2.0226117229e-05
-1.70493350858e-05
-1.52205581336e-05
-1.49447817128e-05
-1.12197312334e-05
-1.35027809275e-05
-8.18297645046e-06
-1.26134380783e-05
-5.79517881874e-06
-1.20464205936e-05
-4.18770979109e-06
-1.15225712085e-05
-3.26868078834e-06
-1.10251610021e-05
-2.69306652686e-06
-1.05414870212e-05
-2.37890909892e-06
-9.88889937573e-06
-2.42070069863e-06
-9.05296127998e-06
-2.76689546186e-06
-8.32369797309e-06
-3.40979893464e-06
-7.03706100313e-06
-4.76806146746e-06
-5.27170003907e-06
-6.09240515753e-06
-3.57907792809e-06
-7.26716886449e-06
-1.86917574046e-06
-8.41067575339e-06
-8.60209497649e-06
-0.000222475221447
0.00106645884629
-0.000457022848418
0.00112462398712
-0.000689290218186
0.00111461484788
-0.000917574021143
0.00109690340758
-0.00114065327922
0.00107369179174
-0.00135744138479
0.00104550523991
-0.00156698901083
0.00101288872694
-0.00176849258817
0.000976431177083
-0.00196129619032
0.000936741210762
-0.00214488779479
0.00089442343952
-0.00231889035757
0.000850058337403
-0.00248304953073
0.000804186416269
-0.00263721881309
0.000757296900214
-0.00278134389579
0.000709820806594
-0.00291544664295
0.000662127817978
-0.00303961006788
0.000614526435487
-0.00315396422399
0.000567266452631
-0.00325867393366
0.000520543260848
-0.00335392785536
0.000474503019693
-0.00343992949563
0.000429248504036
-0.00351688944352
0.000384844785876
-0.00358501926756
0.000341324948462
-0.00364452630641
0.000298695094027
-0.00369560972856
0.000256939204212
-0.00373845716072
0.000216023126972
-0.0037732422468
0.000175898545207
-0.00380012256798
0.000136506128088
-0.00381923828794
9.77789662077e-05
-0.00383071111086
5.96453516593e-05
-0.00383464392738
2.203219769e-05
-0.00383112089081
-1.51320139081e-05
-0.0038202083099
-5.19133955826e-05
-0.00380195623683
-8.83690819513e-05
-0.00377640113994
-0.000124542695323
-0.00374356956006
-0.000160460301735
-0.00370348312702
-0.00019612543089
-0.0036561647458
-0.000231515132285
-0.00360164622824
-0.000266575686815
-0.00353997687234
-0.000301220284486
-0.00347123306379
-0.000335327426578
-0.00339552783551
-0.000368742584627
-0.00331302017365
-0.000401281897066
-0.00322392224482
-0.000432740288028
-0.00312850412762
-0.000462902377928
-0.00302709358032
-0.000491557747081
-0.00292007078439
-0.000518517821474
-0.00280785558382
-0.000543634205104
-0.00269088863056
-0.000566813957492
-0.00256960533951
-0.00058802959133
-0.00244440707124
-0.00060731732668
-0.00231563166903
-0.000624759682974
-0.00218353349907
-0.000640444437076
-0.00204828229625
-0.000654395591538
-0.00191000136845
-0.000666470025302
-0.00176886773608
-0.00067622756423
-0.00162529336699
-0.000682796839579
-0.00148018729602
-0.000684822641548
-0.00133516132854
-0.000680673793259
-0.00119255042471
-0.000668958980192
-0.00105388315522
-0.000650703448018
-0.000921295312197
-0.000625360855755
-0.000794368348691
-0.000596709490407
-0.000675444521086
-0.000561273355112
-0.000563003757845
-0.000524234135754
-0.000460333707197
-0.000479028890565
-0.00037141633569
-0.000425077735423
-0.000298266108763
-0.000366657983696
-0.000240455981854
-0.000309488564355
-0.000195492097901
-0.000258703552004
-0.000157661458618
-0.000219934181297
-0.000123728981118
-0.000189675246396
-9.33942193721e-05
-0.000162688975171
-6.77826177829e-05
-0.000135798534473
-4.88578685417e-05
-0.000107512653901
-3.72477802737e-05
-8.02139353875e-05
-3.08322631622e-05
-5.85561218738e-05
-2.69053708423e-05
-4.37992693869e-05
-2.34082319305e-05
-3.48423771008e-05
-1.92339194393e-05
-2.95252706166e-05
-1.52400561112e-05
-2.4223360971e-05
-1.30463934648e-05
-1.74179608318e-05
-1.18631994469e-05
-1.24064240484e-05
-1.11261031667e-05
-8.92377114947e-06
-1.09689122702e-05
-5.95665105772e-06
-1.10660649185e-05
-4.09405809749e-06
-1.10813260611e-05
-3.25696828044e-06
-1.0882677096e-05
-2.89520373617e-06
-1.02622366604e-05
-3.0029858338e-06
-9.50329587595e-06
-3.18397079668e-06
-8.65468053565e-06
-3.62147767878e-06
-7.75920955562e-06
-4.31216039996e-06
-6.72991957885e-06
-5.80740022164e-06
-5.05651644038e-06
-7.77899046834e-06
-3.27557324642e-06
-9.05668594121e-06
-1.67619116143e-06
-1.00172693572e-05
-1.02837905496e-05
-0.000228328172565
0.0012947689147
-0.000468923208806
0.00136520061702
-0.000706988861896
0.00135266127472
-0.000940698742325
0.00133059424625
-0.00116873747095
0.00130171128305
-0.00138994667568
0.0012666952121
-0.0016033314201
0.00122625415113
-0.00180806796084
0.00118114834492
-0.00200350375826
0.00113215755937
-0.00218915008615
0.00108005025292
-0.00236466905996
0.00102555772483
-0.00252985674855
0.000969354457669
-0.00268462418389
0.000912044628125
-0.00282897772155
0.000854154589438
-0.00296300001103
0.00079613031019
-0.00308683236873
0.000738338967908
-0.00320065913251
0.000681073371553
-0.00330469416654
0.000624558442934
-0.00339916959639
0.000568958601123
-0.00348432656169
0.000514385634673
-0.00356040783073
0.000460906245664
-0.0036276519162
0.000408549254857
-0.00368628850447
0.000357311944789
-0.00373653483495
0.000307165839039
-0.00377859292014
0.000258061568744
-0.00381264729561
0.000209933323359
-0.00383886331523
0.000162702605258
-0.00385738574884
0.000116281902637
-0.00386833784422
7.05780025001e-05
-0.00387182067624
2.54956240908e-05
-0.00386791310253
-1.90589482444e-05
-0.00385667221167
-6.31736158731e-05
-0.00383813473118
-0.000106925856243
-0.0038123193105
-0.000150377390722
-0.0037792302482
-0.000193568617438
-0.00373886253594
-0.000236512390896
-0.0036912087909
-0.000279188119185
-0.0036362677669
-0.000321535963764
-0.00357405480781
-0.00036345250698
-0.00350461353119
-0.000404787985027
-0.00342802859762
-0.00044534681192
-0.00334443815618
-0.000484891641064
-0.00325404501703
-0.000523152705922
-0.00315712433646
-0.000559842266322
-0.00305402612099
-0.000594675051847
-0.00294516993962
-0.000627392940699
-0.00283103021586
-0.000657792641457
-0.0027121106215
-0.000685752061998
-0.00258890743717
-0.000711250976421
-0.00246186369201
-0.000734379049908
-0.00233131741818
-0.000755323502738
-0.00219745300364
-0.000774326118577
-0.0020602688847
-0.000791596247611
-0.00191959265871
-0.000807162858137
-0.00177518752213
-0.000820647662412
-0.00162702991743
-0.000830970518088
-0.00147581724209
-0.000836049250633
-0.00132356407839
-0.000832943030997
-0.00117428136333
-0.000818256058898
-0.0010290329344
-0.000795966010249
-0.000892269943621
-0.000762135811506
-0.000759513937165
-0.00072947123027
-0.000637636024995
-0.00068316506417
-0.000517631641845
-0.000644242424747
-0.000407039039067
-0.000589624688635
-0.000313975918157
-0.000518144270603
-0.000242024240916
-0.00043861044524
-0.000190523595951
-0.000360991449362
-0.000156330260647
-0.000292907355666
-0.000126459557008
-0.000249794166787
-9.59909933267e-05
-0.000220168357797
-6.61953355444e-05
-0.000192476050631
-3.99240301708e-05
-0.000162095128019
-2.22204911731e-05
-0.000125217037984
-1.57236468941e-05
-8.67244579414e-05
-1.58552820499e-05
-5.84267678344e-05
-1.75348148011e-05
-4.21233843337e-05
-1.75014812181e-05
-3.48790798442e-05
-1.37363689327e-05
-3.32913463775e-05
-8.90539174599e-06
-2.906086753e-05
-8.0072996667e-06
-1.83213397595e-05
-8.23874502974e-06
-1.21804484722e-05
-8.22719296106e-06
-8.94029093684e-06
-9.0579159364e-06
-5.12953824697e-06
-9.88777735058e-06
-3.26764325823e-06
-1.03298293782e-05
-2.81804522301e-06
-1.05426662793e-05
-2.68510906536e-06
-1.04139358667e-05
-3.13504848908e-06
-9.82260027324e-06
-3.7794026809e-06
-8.77521665248e-06
-4.67400499538e-06
-7.40452813043e-06
-5.69061106403e-06
-6.26716716289e-06
-6.95396208452e-06
-5.01991501793e-06
-9.03437613652e-06
-3.28568156142e-06
-1.08005818864e-05
-1.67113305169e-06
-1.16412069331e-05
-1.19583052192e-05
-0.000235615658239
0.00153036690781
-0.000483753772453
0.00161331944149
-0.000729033170757
0.00159792194598
-0.000969467817741
0.00157100979224
-0.00120362048145
0.00153584493623
-0.00143024416636
0.00149329975395
-0.00164828967377
0.00144428047928
-0.00185691306298
0.0013897524637
-0.00205547215497
0.0013306973163
-0.00224351424067
0.00126807291745
-0.00242075708899
0.00120278108793
-0.00258706595685
0.00113564376196
-0.00274242875434
0.00106738781087
-0.00288693143629
0.000998637594038
-0.00302073489314
0.00092991405896
-0.00314405441659
0.000861638741886
-0.003257142045
0.000794141243247
-0.00336027204946
0.000727668673211
-0.00345372923547
0.00066239602982
-0.00353779989206
0.000598436539078
-0.00361276482348
0.00053585146237
-0.00367889418816
0.00047465892903
-0.00373644359908
0.000414841718357
-0.00378565126851
0.000356353908163
-0.00382673577962
0.000299126541034
-0.00385989437224
0.000243072420836
-0.00388530148141
0.000188090282935
-0.00390310751877
0.000134068552363
-0.00391343780119
8.0888956728e-05
-0.00391639171943
2.84302539723e-05
-0.00391204223134
-2.34276721729e-05
-0.00390043588533
-7.47991659784e-05
-0.00388159361926
-0.000125787285615
-0.00385551263886
-0.000176477515138
-0.00382216976687
-0.000226930608142
-0.00378152657392
-0.000277174701653
-0.00373353671856
-0.000327197087462
-0.00367815567777
-0.000376936136672
-0.00361535308009
-0.000426274247189
-0.00354512739092
-0.000475032851282
-0.00346752250685
-0.000522970887298
-0.00338264510557
-0.000569788251954
-0.00329068112981
-0.000615135845899
-0.0031919089685
-0.000658633548952
-0.00308670629676
-0.000699896742363
-0.00297554719005
-0.000738570961876
-0.00285898615244
-0.000774372487136
-0.0027376262028
-0.000807130708027
-0.00261206960628
-0.000836826172004
-0.00248285094054
-0.000863616166176
-0.00235035442207
-0.000887838210602
-0.00221472053051
-0.000909977995066
-0.00207575376322
-0.00093058069963
-0.00193286426779
-0.000950069085185
-0.00178512278498
-0.000968407039669
-0.00163158451742
-0.000984525399671
-0.00147221698956
-0.000995435218525
-0.00130934984031
-0.00099582635849
-0.00115165152169
-0.000975968681349
-0.000996767582505
-0.000950862626975
-0.000857897039141
-0.000901014344486
-0.000715670350989
-0.000871718494633
-0.000596202688646
-0.000802640404704
-0.000462376232556
-0.000778058533892
-0.000336511515077
-0.000715511820178
-0.00023568633861
-0.000618951350153
-0.000165228641552
-0.000509092133142
-0.000123497493487
-0.000402722338905
-0.00010997992973
-0.000306425757664
-9.18845184139e-05
-0.000267915520912
-6.38774600279e-05
-0.000248166591202
-3.25546868742e-05
-0.000223821235717
-2.28561409728e-06
-0.000192364708074
1.55911665606e-05
-0.000143092475108
1.2958737357e-05
-8.41114103751e-05
1.28355827773e-06
-4.67345527457e-05
-9.33329873786e-06
-3.15321259616e-05
-1.44064404843e-05
-2.97899504001e-05
-9.02601895164e-06
-3.86897669259e-05
2.32984311786e-07
-3.83224969907e-05
-1.63636303044e-06
-1.64620871701e-05
-4.5088411116e-06
-9.31836002685e-06
-4.73543517884e-06
-8.72044390338e-06
-7.11958455769e-06
-2.75249154132e-06
-9.15277136338e-06
-1.23969514855e-06
-1.01124795047e-05
-1.86198375594e-06
-1.07316777966e-05
-2.06963123403e-06
-1.05672806357e-05
-3.30303939778e-06
-9.8515594741e-06
-4.49940850154e-06
-8.97524848329e-06
-5.55567996161e-06
-7.69759474103e-06
-6.97419363787e-06
-6.16953784594e-06
-8.48973217907e-06
-5.00327393034e-06
-1.02109179068e-05
-3.40904219196e-06
-1.24018985506e-05
-1.73524752101e-06
-1.33214352561e-05
-1.36985111419e-05
-0.000244512907782
0.0017748619798
-0.00050185248811
0.00187064106021
-0.000755908116977
0.00185195863141
-0.0010044858168
0.00181956878348
-0.00124599545162
0.0017773356213
-0.00147908119355
0.00172636655393
-0.00170263200461
0.00166781223876
-0.00191578664697
0.00160288799398
-0.0021179252703
0.00153281673325
-0.00230864962284
0.00145877799027
-0.00248775575339
0.00138186785084
-0.00265520251055
0.00130307108635
-0.00281107908797
0.0012232448821
-0.0029555739013
0.00114311285445
-0.00308894659646
0.00106326714923
-0.00321150399933
0.000984176517087
-0.00332358046329
0.000906198053093
-0.00342552235242
0.000829590910592
-0.00351767635005
0.000754530374634
-0.00360038087341
0.000681121435418
-0.00367396006647
0.000609411049793
-0.00373871963618
0.000539398937329
-0.00379494409411
0.000471046652846
-0.0038428948394
0.000404285186759
-0.00388280882392
0.000339021107036
-0.00391489742286
0.000275141663657
-0.00393934541996
0.00021251897546
-0.00395630989272
0.000151013783375
-0.00396591906898
9.04789408936e-05
-0.00396827109811
3.07631497582e-05
-0.00396343299579
-2.82848649183e-05
-0.00395143988759
-8.68113133778e-05
-0.00393229499237
-0.000144951189471
-0.00390597064336
-0.000202820836204
-0.00387241099965
-0.000260509214018
-0.0038315368155
-0.000318067832415
-0.0037832530456
-0.000375499819461
-0.00372745958414
-0.000432748566997
-0.00366406577588
-0.000489687065693
-0.00359300852791
-0.00054610913233
-0.00351427395906
-0.000601724532465
-0.00342792121487
-0.000656160061002
-0.00333410683006
-0.000708969306519
-0.00323310615527
-0.00075965325857
-0.00312532809968
-0.000807693825933
-0.00301131772358
-0.000852600362066
-0.00289174174863
-0.000893967533711
-0.00276735187689
-0.000931539716588
-0.00263892274058
-0.000965274471058
-0.00250716205456
-0.000995396015615
-0.00237259092182
-0.00102242848216
-0.00223539091606
-0.00104719691109
-0.00209521471592
-0.00107077579727
-0.00195097287553
-0.00109433164315
-0.00180066535028
-0.00111873488518
-0.00164152069818
-0.00114369050257
-0.00147130497304
-0.00116566826599
-0.00129125485792
-0.0011758919157
-0.00112452159048
-0.00114271771173
-0.000952496363292
-0.00112290976864
-0.000821538855519
-0.00103199866804
-0.000654773159529
-0.00103849084569
-0.000558539713611
-0.000898871931961
-0.000390994415457
-0.000945639133064
-0.000232757973254
-0.000873726308619
-0.000116987362081
-0.000734772664203
-4.68812261109e-05
-0.000579179617393
-1.00990345502e-05
-0.000439541066366
-1.23165333995e-05
-0.000304212400758
3.00889105973e-05
-0.00031036257826
7.80413015714e-05
-0.000296132912835
0.000105916106531
-0.00025173860043
0.000117975677007
-0.00020438975552
0.000106972598436
-0.000132132941633
6.86161505523e-05
-4.57153586818e-05
2.9434490273e-05
-7.59449621766e-06
2.05881309966e-06
-4.12363828372e-06
-1.38406657857e-05
-1.39111780533e-05
-3.77068621353e-06
-4.87528900605e-05
1.81895050717e-05
-6.02810748522e-05
7.06476488281e-06
-5.36031028957e-06
-2.21811983722e-06
-3.23895144948e-08
-9.35430698828e-08
-1.08583606089e-05
-5.29144613e-06
2.43926335254e-06
-9.38820899696e-06
2.85233206858e-06
-1.04064655578e-05
-8.51192433016e-07
-1.17753957988e-05
-7.07418184252e-07
-1.12907501106e-05
-3.7933161544e-06
-1.02158628642e-05
-5.57966772717e-06
-9.15941016274e-06
-6.61768786849e-06
-8.18360303511e-06
-7.95669200093e-06
-6.76183999105e-06
-9.91865069003e-06
-5.24227601303e-06
-1.17357419e-05
-3.7368927191e-06
-1.39153742969e-05
-1.87722926376e-06
-1.51891793421e-05
-1.55781635115e-05
-0.000255240005961
0.00203008475654
-0.000523657313759
0.00213903937943
-0.000788239628139
0.00211652266612
-0.00104653084529
0.00207784127386
-0.00129674839802
0.00202753455481
-0.00153740615418
0.00196700553138
-0.00176732494806
0.00189771220754
-0.00198563433948
0.0018211784522
-0.00219175579889
0.0017389191806
-0.00238537226486
0.00165237534425
-0.00256638891004
0.00156286530756
-0.00273489023965
0.00147155313897
-0.00289109746544
0.00137943277138
-0.00303532934103
0.00128732532487
-0.00316796818031
0.00119588654844
-0.00328943208577
0.00110562093893
-0.00340015325141
0.00101689972768
-0.00350056200408
0.000929980155269
-0.00359107554395
0.000845024425793
-0.00367209060614
0.000762117016205
-0.00374397887864
0.000681279882585
-0.00380708452411
0.000602485170048
-0.00386172287918
0.000525665653341
-0.00390817997604
0.000450722969498
-0.00394671224439
0.000377534128999
-0.00397754628649
0.000305956507644
-0.00400087830064
0.000235831862778
-0.00401687321829
0.000166989625163