/*--------------------------------*- C++ -*----------------------------------*\
| =========                 |                                                 |
| \\      /  F ield         | OpenFOAM: The Open Source CFD Toolbox           |
|  \\    /   O peration     | Version:  v1906                                 |
|   \\  /    A nd           | Web:      www.OpenFOAM.com                      |
|    \\/     M anipulation  |                                                 |
\*---------------------------------------------------------------------------*/
FoamFile
{
    version     2.0;
    format      ascii;
    class       surfaceScalarField;
    location    "149";
    object      phi;
}
// * * * * * * * * * * * * * * * * * * * * * * * * * * * * * * * * * * * * * //

dimensions      [0 3 -1 0 0 0 0];
oriented        oriented;


internalField   nonuniform List<scalar> 
18240
(
-0.000353245537436
0.000353381800525
-0.000739966948291
0.000386931388417
-0.00112643467869
0.000386588886918
-0.00150787016356
0.000381663213201
-0.001882403195
0.000374631597155
-0.00224807051769
0.000365912001508
-0.0026036237603
0.000355629780576
-0.00294741957783
0.000344056295397
-0.00327862631611
0.000331260902534
-0.00359588309307
0.000317531705528
-0.00389876537995
0.000302913168673
-0.00418618323663
0.000287706011156
-0.00445809471689
0.000271918886443
-0.00471364780253
0.000255853289958
-0.00495313815201
0.000239473654911
-0.00517590270305
0.00022307565579
-0.00538251935214
0.000206575978501
-0.00557246148744
0.000190262919773
-0.00574653429554
0.000174007693429
-0.00590429899745
0.000158093919461
-0.0060467397946
0.000142351596045
-0.00617346674041
0.000127063244045
-0.00628560387916
0.0001120235203
-0.00638278001464
9.75181285642e-05
-0.00646622885069
8.33113785888e-05
-0.00653557787891
6.96952078468e-05
-0.00659214755948
5.64081893263e-05
-0.00663554954785
4.37508163922e-05
-0.00666717367949
3.14393856328e-05
-0.00668660734588
1.97834827889e-05
-0.0066952956885
8.48027780262e-06
-0.00669279518801
-2.1513776773e-06
-0.0066805904008
-1.24352098878e-05
-0.006658199327
-2.20444986214e-05
-0.00662713657348
-3.13154683574e-05
-0.0065868814587
-3.99129320428e-05
-0.00653896659422
-4.81887123595e-05
-0.00648282948631
-5.58012485542e-05
-0.00642000954081
-6.31146650439e-05
-0.00634990021467
-6.97816556397e-05
-0.00627403754444
-7.61768634295e-05
-0.00619177107718
-8.19488844292e-05
-0.00610462374449
-8.74805074996e-05
-0.00601190175014
-9.24162781057e-05
-0.00591510713835
-9.71451313017e-05
-0.00581350581195
-0.000101309237761
-0.00570857205521
-0.00010530089076
-0.00559953460285
-0.000108760580198
-0.00548783472819
-0.000112081769453
-0.00537267015721
-0.000114904440634
-0.00525544505079
-0.000117620808184
-0.00513533205557
-0.000119870921518
-0.00501369574197
-0.000122043792494
-0.00488969174888
-0.000123781201932
-0.00476464332749
-0.000125466534248
-0.00463769665641
-0.00012674417416
-0.00451013271945
-0.000127990542942
-0.00438109720992
-0.000128854249048
-0.00425182830204
-0.000129702743247
-0.00412147862712
-0.000130190428453
-0.00399124245996
-0.000130675086164
-0.00386028734687
-0.000130818657483
-0.00372976234791
-0.00013096772587
-0.00359885581836
-0.000130793564318
-0.00346866913931
-0.00013063119603
-0.00333841700625
-0.000130163442649
-0.00320914992985
-0.000129712211745
-0.00308011256094
-0.000128973736568
-0.00295229968953
-0.000128256837181
-0.00282498870687
-0.000127273296855
-0.00269911281023
-0.000126317631966
-0.00257398333995
-0.000125118563322
-0.00245046590085
-0.00012395525017
-0.00232790698496
-0.000122575538731
-0.00220709749202
-0.000121242057007
-0.00208741946384
-0.000119722576646
-0.00196958280553
-0.000118261797355
-0.00185300623477
-0.000116648978731
-0.00173831267717
-0.000115108995675
-0.00162495890334
-0.000113453288494
-0.00151347668486
-0.000111884744528
-0.00140336515508
-0.000110236865193
-0.00129506387145
-0.000108687765377
-0.00118812250348
-0.000107091469393
-0.00108289556406
-0.000105595436485
-0.000979003702993
-0.000104067489886
-0.000876747478907
-0.000102606911766
-0.000775885864053
-0.000101062527583
-0.000676801979334
-9.94172286327e-05
-0.000579654033957
-9.73666964229e-05
-0.00048552672973
-9.44289510407e-05
-0.000396659749139
-8.90820428656e-05
-0.000318714827643
-7.81877998901e-05
-0.000241682057645
-7.73081156096e-05
-0.000135983275755
-0.000106130431614
-0.000136231614924
-0.000390413979463
0.000743955781527
-0.000826242453016
0.000822954085286
-0.0012596501029
0.00082016145943
-0.00168673968406
0.000808947352293
-0.00210567580459
0.000793725717604
-0.00251459101491
0.000775023612897
-0.00291194352789
0.000753132766001
-0.00329612931239
0.0007284398785
-0.00366598505533
0.000701258361906
-0.00402026135471
0.000672006106069
-0.00435820550334
0.000640989431396
-0.0046789216787
0.000608619585591
-0.00498204340086
0.000575162206809
-0.00526698871739
0.000540994375335
-0.00553372503069
0.000506320527524
-0.00578192573881
0.000471469655686
-0.00601182941796
0.000436578431864
-0.00622330312222
0.000401926569347
-0.0064167950734
0.000367586224709
-0.00659230912562
0.000333793734328
-0.0067504497978
0.000300565970131
-0.00689131210456
0.000268106245932
-0.00701561502809
0.000236386929102
-0.00712351045178
0.000205588320917
-0.00721580084826
0.00017564840723
-0.00729267036791
0.000146732650664
-0.0073549821502
0.000118752465897
-0.00740293553254
9.18643816771e-05
-0.00743743692914
6.59585427143e-05
-0.00745868827687
4.11863099582e-05
-0.00746762537636
1.74201635065e-05
-0.00746444222278
-5.19268371425e-06
-0.00745009508403
-2.679510976e-05
-0.00742476618946
-4.72422093201e-05
-0.00738941957185
-6.66905993725e-05
-0.00734421453522
-8.49984123902e-05
-0.00729011303328
-0.000102334972252
-0.00722724665097
-0.00011856069312
-0.00715656660262
-0.000133855806878
-0.00707817160378
-0.000148083230413
-0.00699299360136
-0.000161432633459
-0.00690109485021
-0.000173768602395
-0.00680338166984
-0.000185288049538
-0.0066998773424
-0.000195856707741
-0.00659145673619
-0.000205676824003
-0.00647810322232
-0.000214614680389
-0.00636065602201
-0.000222875611618
-0.00623905960577
-0.000230325280169
-0.00611411584294
-0.000237169374418
-0.00598573252725
-0.000243272842104
-0.0058546729117
-0.000248840065853
-0.00572081206305
-0.000253733924247
-0.00558487553781
-0.000258155391342
-0.00544671055232
-0.000261965583367
-0.00530700660863
-0.000265360240371
-0.00516558892399
-0.00026819850032
-0.00502311334031
-0.00027066998603
-0.0048793892031
-0.000272632211565
-0.00473504102148
-0.000274267989425
-0.00458986807524
-0.000275434208912
-0.00444446629078
-0.000276306428581
-0.00429863034954
-0.000276742269658
-0.00415292869603
-0.00027691052572
-0.00400715531745
-0.000276671249964
-0.00386185193313
-0.000276186630349
-0.00371681521126
-0.000275320989732
-0.00357255855341
-0.000274231056293
-0.00342888223379
-0.00027278732477
-0.00328626928432
-0.000271141566112
-0.00314452393908
-0.000269172376482
-0.00300409529123
-0.000267027046695
-0.00286479002369
-0.000264594035044
-0.00272701878849
-0.000262015685578
-0.00259058920331
-0.000259191697199
-0.00245586814733
-0.000256259910343
-0.00232266213075
-0.000253131095708
-0.00219128978455
-0.000249937340436
-0.00206155457393
-0.000246601681709
-0.00193372266881
-0.000243248692302
-0.00180759385401
-0.000239812974943
-0.00168337850551
-0.000236410035028
-0.00156087420073
-0.00023298326075
-0.00144023660134
-0.000229634796729
-0.00132126547025
-0.000226314061756
-0.00120406689063
-0.000223101660723
-0.001088453921
-0.00021994155382
-0.000974497292385
-0.000216870086492
-0.000862045129129
-0.000213785027094
-0.000751161751391
-0.000210606780657
-0.000641747075917
-0.0002070600846
-0.000533779475675
-0.000202684685173
-0.000426686429765
-0.000196433189203
-0.000318611166451
-0.000186536173855
-0.000214481994166
-0.00018171334685
-0.000105312670804
-0.000215635800379
-0.00024173410429
-0.000397358105628
0.00114147937707
-0.000838829553146
0.00126460533504
-0.00127846835843
0.00125997819774
-0.00171174617043
0.00124240727231
-0.00213656510482
0.00121871819488
-0.00255103622415
0.00118967578451
-0.0029534972762
0.00115576302397
-0.00334240148386
0.00111752288706
-0.00371647862342
0.00107549967751
-0.00407457780441
0.00103028070129
-0.00441584256296
0.000982412290151
-0.00473951045888
0.000932458561364
-0.00504510826978
0.000880911324124
-0.00533221498694
0.000828266990821
-0.00560068156847
0.000774930755491
-0.00585036283681
0.000721310886929
-0.00608136533071
0.000667716350777
-0.0062937522015
0.000614466701214
-0.0064878206804
0.000561781091323
-0.00666378275054
0.000509901648711
-0.00682207248354
0.000458972549489
-0.00696300347675
0.000409174908422
-0.00708710522101
0.000360595171039
-0.00719475819571
0.000313370083074
-0.00728655765812
0.000267543548386
-0.00736292705379
0.000223221184824
-0.00742450631368
0.000180415775003
-0.00747174413177
0.000139210977252
-0.00750531039232
9.95967696843e-05
-0.00752566728942
6.16408349235e-05
-0.00753350252181
2.53144598132e-05
-0.0075292818685
-9.32758090479e-06
-0.00751370092436
-4.23303459508e-05
-0.00748722029982
-7.36497795874e-05
-0.00745053400085
-0.000103345369865
-0.00740408881702
-0.00013138395271
-0.0073485687824
-0.000157838044483
-0.00728440019517
-0.000182683803677
-0.00721224880764
-0.000206005534467
-0.00713251346106
-0.000227787885123
-0.00704583466711
-0.00024812532804
-0.00695257883617
-0.000267009152905
-0.00685335545167
-0.000284541474517
-0.00674849467336
-0.000300718067171
-0.00663857050653
-0.000315647242055
-0.00652387426934
-0.000329327791935
-0.0064049427114
-0.000341869996843
-0.00628202780314
-0.000353273581983
-0.0061556270208
-0.000363649401419
-0.00602595452197
-0.000372995440352
-0.00589347018422
-0.000381420175836
-0.00575835215566
-0.000388918721644
-0.00562102424056
-0.00039559519505
-0.00548163351708
-0.000401439663861
-0.00534057140214
-0.000406550206443
-0.00519795781283
-0.00041091174418
-0.00505415530776
-0.000414615671836
-0.00490926205435
-0.000417641115655
-0.00476361601053
-0.000420072192288
-0.00461729849849
-0.000421882916217
-0.00447062647711
-0.000423150847609
-0.00432366884841
-0.000423846245127
-0.00417672443113
-0.000424041168121
-0.00402985282109
-0.000423703897157
-0.00388333635245
-0.000422902463261
-0.00373722716818
-0.000421605576554
-0.00359179101691
-0.000419879392599
-0.00344707268424
-0.000417695101282
-0.00330332009429
-0.000415118647441
-0.00316056969373
-0.000412126086055
-0.0030190489521
-0.000408784382017
-0.0028787841414
-0.000405075781816
-0.00273997791372
-0.000401070121572
-0.00260264278694
-0.000396757089995
-0.00246695344124
-0.000392208587362
-0.00233290477257
-0.000387422678178
-0.00220063818677
-0.000382473283004
-0.0020701286068
-0.000377365687079
-0.00194148065362
-0.000372174500316
-0.00181464743552
-0.00036691028219
-0.00168969569628
-0.000361645810078
-0.00156655479916
-0.000356395573817
-0.0014452516462
-0.000351225727789
-0.00132569371322
-0.000346148692272
-0.0012078692347
-0.00034121650446
-0.00109166392727
-0.00033642889076
-0.000977022191777
-0.000331805398237
-0.000863788718104
-0.000327306936166
-0.000751807032314
-0.000322885111228
-0.000640747667664
-0.000318411548949
-0.000529967503215
-0.000313762208773
-0.00041790638816
-0.000308773929032
-0.000300992665904
-0.000303713518441
-0.000179389367411
-0.000303601247197
-7.61210591509e-05
-0.000319197282284
-0.000317993471029
-0.000403541921753
0.00154518687488
-0.0008511082746
0.00171235710864
-0.00129682325087
0.00170587181921
-0.00173594027221
0.00168170534236
-0.00216621074695
0.00164916540948
-0.00258567450744
0.00160931753405
-0.00299258885735
0.00156285114454
-0.00338540081647
0.00151050954799
-0.00376279871896
0.00145306716111
-0.00412366852739
0.00139132098161
-0.00446713832855
0.00132604653175
-0.00479251357671
0.00125799915092
-0.005099319531
0.00118787565162
-0.00538722144768
0.00111632830679
-0.00565607093194
0.00104393186415
-0.00590581690007
0.000971209578166
-0.0061365603275
0.000898603857393
-0.00634845905543
0.000826510747763
-0.00654179337162
0.000755251328339
-0.00671686693235
0.000685112427175
-0.00687408365296
0.000616316256698
-0.00701384513967
0.000549064796842
-0.00713663815478
0.000483505645017
-0.00724292855974
0.00041977938297
-0.00733325852271
0.000357980666581
-0.00740813529735
0.000298206627864
-0.00746813732046
0.000240514057775
-0.007513798391
0.000184969791557
-0.00754572047092
0.000131603429792
-0.00756445252878
8.04589662898e-05
-0.00757060948157
3.15437081906e-05
-0.00756474589174
-1.511747282e-05
-0.00754748070922
-5.95363359582e-05
-0.00751936542676
-0.000101704519469
-0.00748101409491
-0.000141651209131
-0.00743296706514
-0.000179384282591
-0.00737582519863
-0.000214948872909
-0.00731010947963
-0.000248367352128
-0.00723639949502
-0.000279699444487
-0.00715519035716
-0.000308979977189
-0.00706703399741
-0.000336281211429
-0.00697239369004
-0.000361648091883
-0.00687178754142
-0.000385163102027
-0.00676564149345
-0.000406878851883
-0.00665443695813
-0.00042688365794
-0.00653856120298
-0.000445234745078
-0.00641845565934
-0.0004620239711
-0.00629446763252
-0.000477309472007
-0.00616699915256
-0.000491183065861
-0.00603635785239
-0.000503701376906
-0.00590290698265
-0.000514952879174
-0.00576691736117
-0.000524989689512
-0.00562871656975
-0.000533894394351
-0.00548854171021
-0.000541712412093
-0.00534668819723
-0.000548518335071
-0.0052033651581
-0.000554348889769
-0.00505884088545
-0.00055927044437
-0.00491330070407
-0.000563311230031
-0.00476699056781
-0.00056652816563
-0.00462007737668
-0.000568941383083
-0.00447278896979
-0.000570599975884
-0.00432527796653
-0.00057151738855
-0.00417775761792
-0.000571736541051
-0.00403036930437
-0.000571266725326
-0.00388331418565
-0.000570146483519
-0.00373672401395
-0.000568384232689
-0.00359078723879
-0.000566018488095
-0.00344562562332
-0.00056305882089
-0.00330141482672
-0.000559544901551
-0.00315826532474
-0.000555491060784
-0.00301633655512
-0.000550941434177
-0.00287572483975
-0.000545916075705
-0.0027365707523
-0.000540465025275
-0.00259895234182
-0.000534616815035
-0.00246298549195
-0.000528428219617
-0.00232872604858
-0.000521935463675
-0.00219626197037
-0.000515201164507
-0.00206562295888
-0.00050826885812
-0.00193686488192
-0.00050120582151
-0.00180998788108
-0.000494060376263
-0.00168501286032
-0.000486901305197
-0.00156190854623
-0.000479779522691
-0.00144065928035
-0.000472760277929
-0.0013212014798
-0.000465890622414
-0.00120348029971
-0.000459226578697
-0.00108739346276
-0.000452804261137
-0.000972830399299
-0.000446661756651
-0.000859620132917
-0.00044081091214
-0.000747533970742
-0.000435269770271
-0.000636196811698
-0.0004300495013
-0.000525011760857
-0.000425237833209
-0.00041296142414
-0.000421111290574
-0.000298520953269
-0.00041845190525
-0.000182833124318
-0.000419567810699
-7.65328485093e-05
-0.000425771964441
-0.00039467424974
-0.000411511757353
0.00195686649716
-0.000867540340457
0.00216856287328
-0.00132148536105
0.00215999930941
-0.00176842007064
0.0021288194603
-0.00220595211236
0.00208687623849
-0.00263202341005
0.00203556617603
-0.003044810771
0.00197581388718
-0.00344272699175
0.00190859979922
-0.0038244378148
0.00183494931927
-0.00418884875659
0.00175590156702
-0.00453510816544
0.00167247227732
-0.00486257780329
0.00158563312403
-0.00517082780593
0.00149628620398
-0.00545959831095
0.001405257048
-0.00572879350786
0.00131328102537
-0.00597844107454
0.00122100854531
-0.00620868968398
0.0011289991819
-0.00641976993908
0.00103773486089
-0.00661199836735
0.000947618469936
-0.00678574113228
0.000858990803804
-0.00694142464447
0.000772129842825
-0.00707950223675
0.000687269056742
-0.00720047107344
0.000604595162121
-0.0073048402669
0.000524265596042
-0.00739315221773
0.000446403267137
-0.00746595145718
0.000371112530996
-0.00752381002034
0.000298472470098
-0.00756729593264
0.000228551296878
-0.00759700009694
0.000161395990424
-0.00761350432883
9.70469830335e-05
-0.00761741007678
3.55256000501e-05
-0.00760930467228
-2.31516374217e-05
-0.00758979161052
-7.89861932752e-05
-0.00755945516717
-0.000131983043229
-0.00751889219267
-0.000182164721135
-0.00746867616175
-0.000229556419812
-0.00740938942773
-0.000274200500914
-0.00734158628525
-0.000316141302131
-0.00726582627354
-0.000355439419486
-0.00718263686318
-0.000392155508944
-0.00709254759431
-0.000426366010164
-0.00699605261277
-0.000458145050699
-0.00689364660933
-0.000487580763235
-0.00678578621592
-0.000514757522299
-0.00667292702517
-0.0005397709494
-0.00655548538603
-0.000562711305317
-0.00643387563546
-0.000583678613502
-0.00630847199563
-0.000602764891289
-0.00617964694334
-0.00062006987669
-0.00604773427835
-0.000635682767204
-0.00591306696056
-0.000649698900849
-0.00577594024972
-0.000662202002851
-0.00563665037872
-0.000673279706542
-0.0054954583298
-0.00068300673745
-0.00535262796769
-0.000691460665768
-0.00520839063805
-0.000698704828345
-0.0050629835574
-0.000704805562898
-0.00491661432058
-0.000709814982185
-0.00476949862558
-0.000713787558981
-0.00462182571997
-0.000716764212619
-0.00447379455951
-0.000718789921615
-0.00432558050911
-0.000719896265376
-0.00417737011844
-0.000720120347049
-0.00402932797882
-0.000719488096505
-0.00388163129966
-0.000718030680475
-0.00373443448776
-0.000715774257134
-0.00358790338019
-0.000712750867288
-0.00344218400809
-0.000708985030853
-0.00329743249605
-0.000704511076908
-0.00315378322447
-0.000699360530156
-0.00301137818435
-0.000693574310891
-0.0028703375852
-0.000687189965371
-0.00273078588174
-0.000680257390129
-0.00259282329012
-0.000672825410787
-0.0024565511558
-0.000664953346702
-0.00232204616478
-0.00065669845607
-0.00218938293692
-0.000648128731592
-0.00205860933044
-0.000639311234171
-0.00192976746787
-0.000630321829258
-0.00180287269002
-0.000621232788665
-0.00167793240932
-0.00061212331172
-0.00155492695246
-0.000603069085893
-0.00143382567055
-0.000594148477854
-0.00131457047365
-0.000585434322724
-0.00119708818441
-0.000576999757276
-0.00108127525787
-0.000568909934249
-0.000967003931265
-0.000561228497946
-0.000854100945123
-0.00055401270495
-0.000742342476998
-0.000547328044316
-0.00063140312849
-0.000541288545433
-0.000520909400524
-0.000536037148213
-0.000410429431593
-0.000531883043398
-0.000299740394273
-0.000529412047201
-0.000190093864108
-0.000529517351467
-8.60487986764e-05
-0.000530122499852
-0.000480860948646
-0.00042164971345
0.00237868273464
-0.000888663367056
0.00263576345731
-0.00135325029947
0.00262476645821
-0.00181023601435
0.0025859866937
-0.00225706753693
0.00253388651159
-0.00269155867984
0.00247023532917
-0.00311179640498
0.00239622763859
-0.0035161458278
0.00231312367338
-0.00390325822598
0.0022222338269
-0.00427206074781
0.00212487410321
-0.00462174477283
0.00202232351519
-0.00495173994142
0.00191579299384
-0.00526169164689
0.00180639935649
-0.00555142871595
0.00169515272345
-0.00582094013667
0.00158294740959
-0.00607034306701
0.00147056326745
-0.00629986394006
0.0013586677931
-0.0065098116467
0.00124782684041
-0.00670056513774
0.00113851180832
-0.00687255250072
0.00103111422737
-0.0070262457441
0.000925954310138
-0.00716214458643
0.000823295044361
-0.00728077669766
0.0007233492064
-0.00738268474922
0.000626291173412
-0.00746843001847
0.000532260429195
-0.00753858243914
0.00044137213603
-0.00759372608839
0.000353717285054
-0.00763444893375
0.000269370260273
-0.007661350235
0.000188386960677
-0.00767502947641
0.000110810508851
-0.00767609422631
3.6667790503e-05
-0.00766514821189
-3.40259501974e-05
-0.00764279961173
-0.000101270405345
-0.0076096493959
-0.000165074950078
-0.0075662988266
-0.000225464674
-0.0075133371423
-0.000282473911271
-0.00745134970399
-0.000336151845754
-0.00738090557428
-0.000386556053492
-0.00730256592658
-0.000433758121872
-0.00721687131404
-0.000477836188261
-0.00712435176562
-0.000518880397529
-0.00702551329792
-0.00055698559582
-0.00692084888093
-0.000592256278299
-0.00681082551484
-0.00062479944139
-0.00669589432755
-0.000654729945187
-0.00657647905995
-0.000682161969208
-0.00645298795076
-0.000707214500463
-0.00632580152618
-0.000730003787585
-0.00619528457528
-0.000750648771423
-0.00606177426777
-0.000769262722052
-0.00592559334799
-0.000785958905447
-0.0057870395431
-0.000800842564095
-0.00564639806544
-0.000814017293656
-0.0055039308999
-0.000825577555432
-0.00535989004114
-0.000835614331314
-0.00521450735197
-0.000844207708808
-0.00506800808461
-0.000851433954197
-0.004920600615
-0.000857358736305
-0.00477248899768
-0.000862044101692
-0.00462386395021
-0.000865541124889
-0.00447491413866
-0.000867899961796
-0.00432581724681
-0.000869160080041
-0.00417675366414
-0.000869358915989
-0.00402789039914
-0.000868532834176
-0.00387939558615
-0.000866714783444
-0.00373143046939
-0.000863934958953
-0.00358415775161
-0.000860226756935
-0.00343773108436
-0.000855621035245
-0.00329230385615
-0.00085015506381
-0.00314801910869
-0.000843868094434
-0.00300501818576
-0.000836805308119
-0.00286342985142
-0.0008290143335
-0.00272337842474
-0.000820551920362
-0.002584974582
-0.000811478124499
-0.00244832079857
-0.000801862733394
-0.00231350097956
-0.000791779273788
-0.00218058940626
-0.000781307464929
-0.00204964168255
-0.000770530847485
-0.00192069978461
-0.000759540871657
-0.0017937833193
-0.000748430133929
-0.00166889742117
-0.000737294134642
-0.00154602393278
-0.000726230038014
-0.00142512722615
-0.000715335485713
-0.00130614870096
-0.000704704826899
-0.00118900943563
-0.00069443339568
-0.00107360332801
-0.000684612313105
-0.000959799799032
-0.000675331355229
-0.000847434458374
-0.00066667947768
-0.000736309525389
-0.000658758153425
-0.000626186103501
-0.000651719593744
-0.000516796617156
-0.000645720625755
-0.000407987066111
-0.000640983975795
-0.000299858280902
-0.000637850484786
-0.000193123664394
-0.000636540105139
-8.98136748847e-05
-0.000633725052998
-0.000570833212485
-0.000434213333315
0.00281306562864
-0.000914916259859
0.00311664380333
-0.0013927267196
0.00310276129702
-0.00186216445861
0.00305560482888
-0.00232046417563
0.00299236667976
-0.00276528458758
0.00291523414367
-0.00319460540183
0.00282572548563
-0.00360673854189
0.00272543187618
-0.00400032787317
0.00261599618806
-0.00437433580198
0.00249905268376
-0.00472802006928
0.00237617591434
-0.00506090186489
0.00224884012876
-0.00537273167314
0.00211839160254
-0.00566345300786
0.00198603331509
-0.00593316810237
0.00185281849941
-0.00618210549925
0.00171965312135
-0.00641059306547
0.00158730422833
-0.00661903331708
0.00145641205565
-0.00680788523519
0.00132750475944
-0.00697764844228
0.00120101420505
-0.0071288524496
0.00107729083516
-0.007262047607
0.000956618076433
-0.0073778003102
0.000839225183122
-0.007476687437
0.000725296556317
-0.00755929553899
0.000614981854449
-0.00762621877017
0.000508403271587
-0.00767805844362
0.000405659569583
-0.00771542123699
0.000306829858739
-0.0077389193338
0.000211976216795
-0.00774916842346
0.000121144515217
-0.00774678698254
3.43652369133e-05
-0.00773239379852
-4.83468999328e-05
-0.00770660806381
-0.000126990320512
-0.00767004554224
-0.000201578748591
-0.00762331753692
-0.000272140742499
-0.0075670273431
-0.000338719650825
-0.00750176914885
-0.000401372703751
-0.00742812487597
-0.000460170858683
-0.00734666291627
-0.000515198062833
-0.00725793544792
-0.000566549840536
-0.00716247797431
-0.000614331774161
-0.00706080642969
-0.00065865956301
-0.00695341598283
-0.000699657118177
-0.00684077994087
-0.000737454643104
-0.00672335032532
-0.000772186865577
-0.00660155592592
-0.000803992649269
-0.00647580200635
-0.000833012982808
-0.00634647054589
-0.000859388902546
-0.00621392139499
-0.000883259901355
-0.00607849175671
-0.00090476348283
-0.00594049775445
-0.000924032341754
-0.0058002341283
-0.000941194701081
-0.00565797685001
-0.000956371282461
-0.00551398431603
-0.000969675739266
-0.00536849878672
-0.000981213554363
-0.00522174771456
-0.000991081185087
-0.00507394613563
-0.000999365756244
-0.004925297605
-0.00100614594579
-0.00477599727647
-0.00101149069325
-0.00462623276779
-0.00101546005435
-0.00447618765102
-0.00101810681887
-0.00432603643518
-0.00101948091234
-0.00417594826057
-0.00101962378666
-0.00402609218637
-0.00101857320134
-0.00387663446606
-0.00101636364658
-0.00372774038525
-0.00101302755494
-0.00357957177262
-0.001008600562
-0.00343228556507
-0.0010031196158
-0.00328603743354
-0.000996622105019
-0.00314097743779
-0.000989154045932
-0.00299724989373
-0.000980765238765
-0.00285499217355
-0.000971511340824
-0.00271433204399
-0.00096145761158
-0.00257538692792
-0.000950675489944
-0.00243826409947
-0.000939243803465
-0.00230305685473
-0.000927251035039
-0.00216984253058
-0.000914791763959
-0.00203868162964
-0.000901967303966
-0.00190961760188
-0.000888885054275
-0.00178267551798
-0.000875656910065
-0.00165785967646
-0.000862398093015
-0.00153515384305
-0.000849227282853
-0.00141452016167
-0.000836262835693
-0.00129589845569
-0.000823622558943
-0.00117920652815
-0.000811423255557
-0.0010643391201
-0.000799780166028
-0.000951165368171
-0.000788807957496
-0.00083953160781
-0.000778620248729
-0.000729257564255
-0.000769339632457
-0.000620167822379
-0.0007611153722
-0.000512081577161
-0.000754120438195
-0.000404866795488
-0.000748496235769
-0.000298593812277
-0.000744395567409
-0.000193647695177
-0.000741801771932
-9.0946685083e-05
-0.00073674926054
-0.000661922878236
-0.000449488160916
0.00326272157111
-0.000946828086078
0.00361417339571
-0.0014406892951
0.00359680418641
-0.00192517826654
0.00354027721074
-0.00239727304491
0.00346464192931
-0.00285443774012
0.00337257856763
-0.00329452990997
0.00326599547148
-0.00371580566756
0.00314688377501
-0.00411691491068
0.00301727937728
-0.00449687753729
0.00287918702469
-0.00485504857004
0.0027345160338
-0.00519107433066
0.00258503232391
-0.00550484689808
0.0024323275684
-0.00579645748
0.00227780429647
-0.0060661542084
0.00212267222244
-0.00631430375427
0.00196795633207
-0.00654135992503
0.00181451028717
-0.00674783703198
0.00166303540527
-0.00693429081611
0.00151410064535
-0.00710130231358
0.00136816383071
-0.00724946853504
0.00122559065731
-0.00737939503488
0.00108667387809
-0.00749169177448
0.000951646310784
-0.00758697101762
0.000820695542695
-0.00766584859799
0.000693973851923
-0.00772894176853
0.000571605869616
-0.00777687182625
0.000453693318626
-0.00781026292287
0.000340319296259
-0.00782974325154
0.000231548717483
-0.00783594327588
0.000127430963088
-0.00782949709045
2.7998864193e-05
-0.00781103825138
-6.67320553729e-05
-0.00778120112593
-0.000156760851445
-0.00774061569349
-0.000242104108191
-0.00768990779629
-0.000322796075248
-0.00762969475639
-0.000398887015753
-0.00756058455383
-0.000470445157009
-0.00748317132157
-0.000537553567875
-0.00739803580676
-0.000600311357821
-0.00730574099445
-0.000658829977886
-0.00720683165637
-0.000713235097745
-0.00710183068461
-0.000763662333968
-0.00699124090542
-0.000810257654978
-0.00687554075812
-0.000853173595691
-0.00675518568065
-0.000892569960457
-0.00663060522139
-0.000928609339467
-0.00650220619802
-0.000961457615125
-0.0063703692257
-0.000991279804532
-0.00623545218088
-0.00101824034381
-0.00609778719388
-0.00104250020264
-0.00595768519913
-0.00106421550897
-0.00581543432257
-0.00108353502295
-0.00567130367921
-0.00110060068933
-0.00552554249201
-0.00111554381138
-0.00537838485393
-0.00112848717792
-0.00523004874772
-0.00113954119561
-0.0050807404864
-0.00114880676102
-0.00493065526527
-0.00115637157888
-0.00477998188198
-0.00116231302426
-0.00462890062776
-0.00116669766298
-0.00447758244912
-0.00116958958309
-0.00432619668932
-0.00117103839319
-0.00417491253874
-0.0011710875866
-0.00402389646451
-0.00116977581507
-0.00387331484226
-0.00116713947385
-0.00372333036478
-0.0011632129153
-0.00357410673024
-0.00115803252121
-0.00342580620908
-0.00115163498424
-0.00327858840536
-0.00114406203561
-0.00313260933033
-0.00113536165493
-0.0029880191411
-0.00112559110717
-0.00284496218326
-0.00111481027729
-0.0027035752966
-0.00110309346234
-0.00256398389696
-0.00109052196575
-0.00242630197288
-0.00107718749512
-0.00229062912023
-0.00106319139486
-0.0021570497342
-0.00104864481234
-0.00202563104353
-0.00103366472447
-0.00189642176476
-0.00101837834046
-0.00176944900133
-0.00100291773043
-0.0016447195159
-0.000987419718204
-0.00152221815131
-0.000972023605943
-0.00140190732409
-0.000956871513422
-0.00128372599089
-0.000942103656099
-0.00116759023241
-0.00092786121551
-0.00105339286529
-0.000914281889541
-0.000941004523717
-0.00090150397589
-0.000830275024384
-0.000889659647634
-0.00072104171082
-0.000878887198858
-0.000613144862271
-0.000869329023317
-0.000506430263154
-0.000861134655357
-0.000400774230443
-0.000854450159399
-0.000296140994929
-0.000849349948408
-0.00019264641803
-0.000845591619147
-9.08304932987e-05
-0.000838867372841
-0.000752919404349
-0.000467805328286
0.00373069895361
-0.000985090053029
0.00413163682951
-0.00149812560266
0.00411002677987
-0.00200052291012
0.0040428570169
-0.00248892847542
0.00395323033395
-0.00296057675571
0.00384440749141
-0.00341318481915
0.00371878289363
-0.00384495862888
0.00357883491374
-0.00425457555241
0.00342707165501
-0.00464114764424
0.00326593205422
-0.005004169224
0.00309770810762
-0.00534345758945
0.00292448835799
-0.00565909140318
0.0027481262386
-0.00595135205893
0.00257022660817
-0.006220670877
0.0023921495497
-0.00646758480728
0.00221502521509
-0.00669269951073
0.00203977647858
-0.00689666183694
0.00186714530022
-0.00708013871207
0.00169772129704
-0.00724380370455
0.00153196830799
-0.00738832810885
0.0013702504245
-0.00751437632931
0.00121285277448
-0.0076226042205
0.00106000040752
-0.00771366106069
0.000911873489604
-0.00778819018871
0.000768619262258
-0.0078468327723
0.000630359202833
-0.00789022902538
0.000497195125218
-0.00791902076966
0.000369210632539
-0.00793385195958
0.000246473917367
-0.00793537034303
0.000129036906065
-0.00792422557162
1.6935658584e-05
-0.00790106872831
-8.98142453373e-05
-0.0078665498253
-0.000191211511992
-0.00782131693282
-0.000287276147388
-0.00776601213383
-0.000378046823213
-0.00770126980248
-0.000463583117507
-0.00762771272784
-0.000543963172984
-0.00754595139287