/*--------------------------------*- C++ -*----------------------------------*\
| =========                 |                                                 |
| \\      /  F ield         | OpenFOAM: The Open Source CFD Toolbox           |
|  \\    /   O peration     | Version:  v1906                                 |
|   \\  /    A nd           | Web:      www.OpenFOAM.com                      |
|    \\/     M anipulation  |                                                 |
\*---------------------------------------------------------------------------*/
FoamFile
{
    version     2.0;
    format      ascii;
    class       surfaceScalarField;
    location    "96";
    object      phia;
}
// * * * * * * * * * * * * * * * * * * * * * * * * * * * * * * * * * * * * * //

dimensions      [0 3 -1 0 0 0 0];
oriented        oriented;


internalField   nonuniform List<scalar> 
18240
(
0.000745124642079
-0.000753441395598
0.00141998620222
-0.000683072273155
0.00212318249024
-0.000710238115935
0.00282985509339
-0.000715176358103
0.00353595821106
-0.000712909521773
0.00423539361709
-0.000708178726627
0.00492969772319
-0.000700813848592
0.00561358097422
-0.000692819181873
0.00629008199732
-0.000682673356226
0.00695337546982
-0.000672377342796
0.00760749292095
-0.00065991597735
0.00824584851739
-0.000647542780198
0.00887333441155
-0.000632886571632
0.00948265745615
-0.000618564224134
0.0100794815062
-0.000601798967748
0.010655733969
-0.000585493348337
0.0112177509635
-0.000566549715465
0.011756778548
-0.000548208795553
0.0122797442054
-0.000527036239062
0.0127771684491
-0.000506484666041
0.0132564183705
-0.000482852866715
0.0137072809225
-0.00045973956111
0.0141374235527
-0.000433270191716
0.0145362182833
-0.000407428524435
0.0149116742988
-0.000378116524228
0.0152526993853
-0.000349360183916
0.0155673998923
-0.000316900978958
0.0158443073314
-0.00028489614287
0.016091650151
-0.000249106577748
0.0162978750445
-0.00021382696954
0.0164714121964
-0.000174884810236
0.0166006654479
-0.000136437894808
0.0166939383436
-9.42390852816e-05
0.0167403272769
-5.31334442842e-05
0.0167485629244
-8.85097215434e-06
0.0167080673174
3.42037418339e-05
0.0166278102358
7.99505806607e-05
0.016498033264
0.000123943020136
0.0163280605975
0.000169938949297
0.0161091920216
0.000213489690319
0.0158512853032
0.000258100943681
0.0155468520346
0.00029950036215
0.0152061072384
0.000341129156109
0.0148228894317
0.000378715676735
0.014408150044
0.000415271480264
0.0139571351537
0.000446924626475
0.0134810306681
0.000476751336286
0.0129762716427
0.000501058107634
0.0124542435538
0.000522755512489
0.0119124026069
0.000538505553896
0.0113620553127
0.00055113105261
0.0108013076328
0.000557752063359
0.0102409550037
0.00056116766382
0.00967940222631
0.000558869970319
0.0091266484567
0.000553582601307
0.00858096985028
0.000543280165503
0.00805112943396
0.000530663235234
0.0075349844831
0.000514002408772
0.00703998782903
0.000495798729255
0.00656354340181
0.000474529439965
0.00611173076486
0.000452577275431
0.005681356367
0.000428659836508
0.00527717318232
0.000404898143708
0.00489550078334
0.000380132098353
0.00453988746162
0.000356265695991
0.00420635102286
0.000332146527784
0.00389762766047
0.000309306198132
0.00360971354119
0.000286652691704
0.00334460070401
0.000265620096951
0.00309818981019
0.000245259024108
0.00287199093384
0.000226629259787
0.00266218082693
0.000208751600768
0.00247001232036
0.00019252243503
0.00229197221967
0.000177060539287
0.00212902348076
0.000163229815845
0.00197798069232
0.000150125097387
0.0018397594259
0.000138432775543
0.00171145576292
0.000127432116128
0.00159392555777
0.000117673882382
0.00148530456511
0.000107783660571
0.00138952303458
9.58565906701e-05
0.00130376302225
8.49477527906e-05
0.00122588662719
7.78616535231e-05
0.0011510057667
7.40440896971e-05
0.00107486781804
7.59829109743e-05
0.00100006914334
7.39268649854e-05
0.000936402410271
6.33328807516e-05
0.000882469622098
5.29683892927e-05
0.000821412784382
6.04219572386e-05
0.000742168105112
7.8057665891e-05
0.000654389309177
8.67527772341e-05
0.0005588273416
9.41220529093e-05
0.000443113764018
0.000114223458432
0.00030156943896
0.000139935153561
0.000142377924597
0.000157476457596
0.000141487923556
0.000677402349032
-0.00143837522368
0.00147351437456
-0.00148732099807
0.0022424458035
-0.00148707977048
0.00300061259817
-0.00148161302041
0.00375238531692
-0.00147251824649
0.00449646523361
-0.0014605657188
0.0052332839029
-0.0014453529782
0.00596012901012
-0.00142796278116
0.00667752858831
-0.00140763853206
0.0073824459714
-0.0013855436412
0.00807581447029
-0.00136066035397
0.00875437510572
-0.00133426283647
0.0094194184165
-0.00130507856063
0.0100673080913
-0.00127448168147
0.0106997037827
-0.00124108155066
0.0113127356206
-0.00120637710741
0.0119082411843
-0.00116864252764
0.0124820108368
-0.00112960853071
0.0130360628137
-0.00108734297576
0.013565798357
-0.00104358338319
0.0140733748444
-0.000996318523761
0.0145540208661
-0.000947438525611
0.0150098601399
-0.000894608031099
0.0154356475682
-0.000839920287138
0.015833522789
-0.000781077810327
0.0161980213256
-0.000720181684356
0.0165313669289
-0.000654908609122
0.0168279920708
-0.000587438462231
0.0170901132595
-0.000515459175856
0.0173119903449
-0.000441198876958
0.0174956772499
-0.000362376350168
0.0176356367916
-0.0002814616765
0.0177344224988
-0.000196410935054
0.0177866379907
-0.000109982215515
0.0177948805358
-2.00781594016e-05
0.0177543414407
7.05333159416e-05
0.0176681608345
0.000163527693405
0.0175322179577
0.000256086945528
0.0173501872651
0.000349720331281
0.0171188508022
0.000441418548796
0.0168425845372
0.000532443289462
0.0165193277222
0.000619717617565
0.0161544905635
0.000704334988123
0.0157470904412
0.000783418045967
0.0153030725053
0.000857919027352
0.0148227166287
0.000924897639219
0.0143128623671
0.000985464899918
0.0137747790905
0.00103704646208
0.0132157885255
0.00108080756045
0.0126379628127
0.00111449849073
0.0120489102157
0.00113942140713
0.0114510341764
0.00115403221322
0.0108517376745
0.00115985462405
0.0102534056892
0.00115581790149
0.0096627324076
0.00114377535307
0.00908173960266
0.00112307509825
0.00851629203508
0.0010957365756
0.00796767265224
0.00106158419915
0.0074404046345
0.00102277570305
0.00693473093071
0.000979300073599
0.00645409476569
0.000932983892411
0.00599800766296
0.00088395394415
0.00556868998313
0.000834026942325
0.00516486238398
0.000783254124138
0.00478781765427
0.000733144351759
0.00443565766182
0.00068366863568
0.00410881340143
0.000635992523142
0.00380501945172
0.000589859956795
0.00352432750789
0.000546151314309
0.00326454288817
0.000504494727769
0.0030255401526
0.000465460900048
0.00280494108925
0.000428828832087
0.00260227284958
0.000395004560256
0.00241532247512
0.000363508096501
0.00224347146783
0.000334874972649
0.00208475500185
0.000308349421531
0.00193855496195
0.000284403461956
0.0018027398273
0.000262759429408
0.00167661749493
0.000243547535565
0.00155693817625
0.000226967365451
0.00143923904713
0.000213287246365
0.00132594520168
0.000197750077435
0.00122495833191
0.000178528755518
0.00113539892963
0.000163081806716
0.0010544253075
0.000156530167768
0.000976640511859
0.000151113922065
0.000911697721717
0.00012771868853
0.00085760246613
0.000106323264403
0.000803360632516
0.00011388723642
0.000740960872609
0.000139463033887
0.000660104429063
0.000166443364895
0.000565482679061
0.000187433077891
0.000458349497238
0.000219933715762
0.000326272700862
0.000270376474005
0.00015832231448
0.000323744574818
0.000299063382177
0.000710074764063
-0.00215610029824
0.00148401182763
-0.00226941409136
0.00225262116746
-0.00226375730149
0.00301480586057
-0.00225197363352
0.00377068078298
-0.00223643690623
0.00451907886616
-0.00221710688233
0.00525949431561
-0.00219374088405
0.0059902638678
-0.00216681269281
0.00671087494223
-0.00213611493797
0.00741954454784
-0.00210219535769
0.00811588604706
-0.00206472217594
0.00879803958853
-0.00202426250754
0.0094658069055
-0.00198038478779
0.0101173758765
-0.00193372039786
0.0107525625026
-0.0018835849608
0.0113692558062
-0.00183052186611
0.0119675033303
-0.00177394575548
0.012545083723
-0.00171437892623
0.0131019474556
-0.00165096000813
0.0136357355049
-0.00158425868204
0.0141463242003
-0.00151332261999
0.0146311160602
-0.00143877598542
0.015090024705
-0.00135955958731
0.0155202125843
-0.00127627925522
0.0159214383212
-0.00118794909515
0.0162907228775
-0.00109523599726
0.0166276196865
-0.000997032722095
0.0169288975763
-0.000894066684103
0.0171941078617
-0.000785469219382
0.0174202027897
-0.0006722142542
0.0176067726772
-0.000553313972157
0.0177507519146
-0.000429930189469
0.0178518691762
-0.000301470742454
0.017907124517
-0.000169301072272
0.0179166058833
-3.30874392896e-05
0.0178778685475
0.000105619898862
0.0177914737679
0.000246789168787
0.0176557027674
0.00038860135247
0.0174717862979
0.000530875764415
0.0172387902705
0.000671527910576
0.01695882268
0.000809992505343
0.0166321047793
0.000943891546653
0.0162615990008
0.00107273633782
0.015848591712
0.00119419454398
0.0153970571564
0.00130763235992
0.0149092930848
0.00141071645645
0.0143902535323
0.00150293983946
0.0138432468524
0.00158236729062
0.0132740379055
0.0016486823107
0.0126863908833
0.00170069547145
0.0120863214018
0.00173836488739
0.011478274619
0.00176084127716
0.0108682111501
0.00176897659293
0.0102603316209
0.00176264827377
0.00966010547494
0.00174322149199
0.00907109473203
0.00171119990718
0.008497890658
0.00166829618493
0.00794316806245
0.00161555774707
0.00741033960341
0.00155506951132
0.00690087982772
0.00148812075891
0.00641694552475
0.00141646674777
0.00595907780963
0.0013412672229
0.00552843144733
0.00126428207911
0.0051246288077
0.00118656410075
0.00474780435225
0.00110961722608
0.00439686190187
0.00103416175151
0.00407135221152
0.000961174666485
0.00376980183218
0.000890989428926
0.00349134382507
0.000824293164533
0.00323422897942
0.000761206343744
0.00299724860066
0.000702128083942
0.00277884639586
0.000646837430077
0.00257790665645
0.000595628186802
0.00239299027026
0.000548034339337
0.00222324098883
0.000504299611885
0.00206701900412
0.000464178146964
0.00192325427838
0.00042782885253
0.00179040950376
0.00039520920539
0.00166682094674
0.000366776813362
0.00154918121966
0.000344208962588
0.00143291639386
0.000329170484468
0.0013222916462
0.000307965700703
0.00122442972125
0.000275985351273
0.00113404402036
0.000252988844741
0.00105234524756
0.000237753700914
0.000980655630667
0.000222226449361
0.000902690581339
0.000205091969805
0.000820350925237
0.00018798862449
0.000758095649062
0.000175375692184
0.000713340965897
0.00018326409842
0.000634822867184
0.000243871016808
0.00052720572431
0.000293777757983
0.000413083646159
0.000332605845644
0.000281217079155
0.000400859113487
0.000143568442261
0.000460017530815
0.000441875958596
0.00072251342051
-0.0028863036627
0.00149441137474
-0.00304936500771
0.00226485452798
-0.0030423298662
0.00303054297006
-0.00302578188665
0.00379020809315
-0.00300419047735
0.0045425751535
-0.00297755656184
0.00528666589252
-0.00294585180002
0.00602117834135
-0.00290933446232
0.00674517075824
-0.00286802936133
0.00745730667591
-0.00282223262336
0.00815675909533
-0.0027719644036
0.00884224826356
-0.00271750797036
0.00951310054295
-0.00265885555785
0.0101679717365
-0.00259616291406
0.0108061254168
-0.00252914578527
0.0114262983585
-0.00245803899836
0.0120277458171
-0.00238254571138
0.0126090395605
-0.00230274672997
0.0131694035006
-0.00221818076896
0.0137072865075
-0.00212890414771
0.0142218285362
-0.00203438545522
0.0147112138729
-0.00193457383794
0.0151744594813
-0.00182895607282
0.0156096955139
-0.00171754535007
0.0160157215479
-0.00159972698496
0.0163902896139
-0.00147542600912
0.0167320403862
-0.00134411672288
0.0170387946095
-0.00120601775601
0.0173090812201
-0.00106065791935
0.0175404351257
-0.000908331631961
0.0177315540318
-0.000748901614142
0.0178801593261
-0.000582866033639
0.0179849999408
-0.000410351364905
0.0180440370139
-0.000232244161338
0.0180562112348
-4.88862117099e-05
0.0180199266808
0.000138407259747
0.0179346055124
0.000328882361064
0.0177990979565
0.000520998797936
0.0176138180953
0.000713298569162
0.0173789396768
0.000903656098217
0.0170954291439
0.00109098860941
0.0167637799246
0.001273120963
0.0163861618478
0.00144815213542
0.015964575405
0.00161366288973
0.0155025728193
0.00176771733782
0.0150034183795
0.00190802860151
0.0144714760423
0.00203322464041
0.0139109363651
0.00214131782384
0.01332707579
0.00223112447945
0.0127249578092
0.00230145729301
0.0121101479603
0.0023519747937
0.0114876460484
0.00238219940349
0.0108632621878
0.00239235715997
0.0102421279776
0.00238282781624
0.00962939437463
0.00235512393987
0.00902936778596
0.00231043480681
0.00844629345155
0.00225068421291
0.00788341140058
0.00217778178145
0.00734382780779
0.00209408121878
0.0068295133668
0.00200187984512
0.00634217348044
0.00190331973775
0.00588256468313
0.00180039529103
0.00545128681016
0.00169513224006
0.0050481176707
0.00158930370499
0.00467272437389
0.00148462131715
0.00432417366172
0.00138231551157
0.00400155109267
0.00128343053959
0.00370344561138
0.00118871639091
0.00342854786678
0.00109883560091
0.00317536369961
0.00101402069551
0.00294255576258
0.000934584326866
0.00272845706676
0.000860568684175
0.00253162320542
0.000792108998253
0.0023507348462
0.000728553130538
0.00218472383756
0.00066995068273
0.00203228544515
0.000616238762706
0.0018923518952
0.000567390928984
0.00176392462609
0.000523248996443
0.00164674334598
0.000483577456424
0.00154182216681
0.000448721721486
0.00145073141325
0.000419855115533
0.00135462376506
0.000403640267918
0.00125268966405
0.0003774619499
0.00115172225158
0.000353489441131
0.00105938204203
0.000329559995262
0.000970811092347
0.000310241556013
0.000882731046807
0.000292572199637
0.000804195352264
0.00026586531929
0.000718991780564
0.000259860308699
0.000627017796311
0.000274416897969
0.000567725678801
0.00030214924177
0.00046909768547
0.000391185792866
0.00034049578086
0.000460002645195
0.000230955504004
0.000509131830856
0.00012155619035
0.000568106051588
0.000562821522344
0.00073092503489
-0.00362488201223
0.00150678841619
-0.00383334832197
0.00228163640605
-0.00382525619119
0.00305216462898
-0.00380441484468
0.00381681653389
-0.00377690416548
0.00457420403064
-0.00374299343589
0.00532315885318
-0.00370280902207
0.00606242222745
-0.0036565706695
0.00679091097569
-0.00360442895769
0.00750748208526
-0.00354666890847
0.00821117360521
-0.00348343958536
0.00890095527088
-0.00341501036964
0.009575912297
-0.00334143100215
0.0102349285288
-0.00326271477244
0.0108772291579
-0.00317885694323
0.0115017506317
-0.00308986748737
0.0121075818908
-0.00299553649428
0.0126935998021
-0.00289579878761
0.0132588548199
-0.00279030010476
0.0138020058315
-0.00267877359507
0.0143218498837
-0.00256075811766
0.0148170496909
-0.00243613711053
0.0152863584614
-0.00230442087197
0.015728070677
-0.00216523309082
0.0161405870261
-0.00201799805035
0.0165220045093
-0.00186240563018
0.0168706424153
-0.00169808637067
0.0171843729949
-0.0015248808613
0.0174614721943
-0.00134265493959
0.0176998263256
-0.0011513818658
0.0178976120996
-0.00095114842807
0.0180528128583
-0.000742328889898
0.0181635220088
-0.000525092083542
0.0182276921862
-0.000300253151079
0.0182438612866
-6.86715784845e-05
0.0182104813031
0.000168353388948
0.018126894895
0.000409245155454
0.0179923190766
0.00065252061895
0.0178061206853
0.000896638563134
0.0175678444656
0.00113922869283
0.0172783300954
0.00137797879552
0.0169388608298
0.00161020690644
0.016551471317
0.00183332275294
0.016118659319
0.00204438441848
0.0156433773174
0.00224106061029
0.0151290446778
0.0024205421817
0.0145801045139
0.0025804872603
0.0140012740122
0.00271858343605
0.0133979877399
0.00283297810448
0.0127757139636
0.00292240437039
0.012140493498
0.00298599124378
0.0114981996996
0.00302338457635
0.0108545947667
0.00303496541768
0.0102152668221
0.00302124262978
0.00958564370992
0.00298393243689
0.0089705450262
0.002924787138
0.00837435977018
0.00284620538236
0.00780060264081
0.00275092447442
0.00725239284058
0.00264174164965
0.00673174624672
0.00252200883433
0.00624013367853
0.0023944632177
0.0057783515295
0.00226172540768
0.00534662806908
0.0021264392228
0.00494449177364
0.0019910296332
0.00457135334519
0.00185737451498
0.00422608847398
0.00172719375494
0.00390736797439
0.00160178136679
0.00361388967018
0.0014818197681
0.00334404620974
0.00136831453091
0.00309614588255
0.00126154971969
0.00286853098029
0.00116183400321
0.00265969148161
0.0010690353219
0.00246829927195
0.000983132413836
0.00229271423416
0.000903760582933
0.00213163449053
0.000830653959006
0.00198374249266
0.00076374334558
0.00184803746075
0.000702709159092
0.00172387045902
0.000647015956902
0.0016105544631
0.000596498588554
0.00150719941995
0.000551651202574
0.00141182566445
0.000514802947144
0.00131659579415
0.000498405507677
0.00122817132182
0.000465429891367
0.00115054386401
0.000430597701022
0.00107042046135
0.000409145931842
0.000985628242316
0.000394442238892
0.000891229515331
0.000386359140025
0.000770936120475
0.000385540700892
0.000660106531447
0.000370005588507
0.000560522265287
0.000373196461363
0.000483199379688
0.000378586554492
0.000418448036854
0.000454844494598
0.0003052024135
0.000571984132744
0.000190354149698
0.000622917639444
9.76740967365e-05
0.000659752311066
0.000659903643815
0.000738817080848
-0.00437133334195
0.00152139954495
-0.00462388535187
0.00230267295826
-0.00461460545576
0.00307964363684
-0.0045894202873
0.00385065716909
-0.00455595155078
0.0046143250265
-0.00451466046964
0.00536933417038
-0.00446578901113
0.00611444958641
-0.00440961497268
0.00684856572193
-0.00434642797874
0.00757059709859
-0.00427652632511
0.00827956958766
-0.00420017377979
0.00897454801712
-0.00411767505554
0.00965456729841
-0.00402905112907
0.0103187164248
-0.0039343686593
0.0109661867066
-0.00383372384663
0.0115960514521
-0.00372701071887
0.0122074313909
-0.00361406262323
0.0127992775852
-0.00349465116087
0.0133705255625
-0.00336839846661
0.0139200427149
-0.00323497982127
0.0144467035767
-0.00309393012107
0.0149492037734
-0.00294496850162
0.0154261572846
-0.00278750912526
0.0158759011163
-0.00262091591666
0.0162966518393
-0.00244447654111
0.0166865729857
-0.00225784745088
0.0170438819867
-0.00206069563738
0.0173665968452
-0.00185268215001
0.0176527453576
-0.00163366536736
0.0179002466438
-0.00140352969104
0.018106832977
-0.00116215808379
0.0182701499841
-0.000909856673495
0.0183882189538
-0.000647154595486
0.0184590774093
-0.000374900305181
0.0184809728816
-9.41490880216e-05
0.0184523197669
0.000193617474511
0.0183714300612
0.000486938646385
0.0182370536896
0.000783878786693
0.0180487160117
0.00108213470015
0.0178061877877
0.00137907738567
0.0175101268508
0.00167152117472
0.0171617973071
0.00195616532817
0.0167627585887
0.0022301382882
0.0163151697132
0.00248988739711
0.0158224645698
0.0027318193077
0.0152886087406
0.00295258204805
0.0147181944785
0.00314921965002
0.0141161408854
0.00331908075057
0.0134880007065
0.00345969060325
0.0128399579146
0.00356913825934
0.0121786008116
0.00364615838268
0.0115104492321
0.00369045802128
0.0108418466788
0.00370259639189
0.010178986462
0.00368323131745
0.00952781922653
0.00363431915699
0.00889364984299
0.0035582592075
0.00828095763056
0.00345826933127
0.00769366742211
0.00333765016979
0.00713469613389
0.00320019518559
0.0066066107752
0.00304961993291
0.00611073537555
0.00288989132499
0.0056467200836
0.00272532171325
0.0052147967191
0.00255795732299
0.00481414980564
0.00239128867532
0.00444382268617
0.00222731730375
0.00410288229959
0.00206775936291
0.00378957151388
0.00191471527137
0.00350200159476
0.00176901658496
0.00323851405153
0.00163142499109
0.00299740904145
0.00150227756636
0.00277678620036
0.00138207475407
0.00257485784091
0.00127058021469
0.00239001186834
0.00116758966898
0.00222053927597
0.00107284234924
0.00206505290616
0.000985742156486
0.00192283230284
0.000905563605283
0.00179283222119
0.000832296249024
0.00167397671145
0.000765462754156
0.00156508434564
0.000704963461689
0.00146375892374
0.000652546943221
0.00137047242802
0.000607625385538
0.00128726340329
0.000581142395241
0.00119575301363
0.000556433535224
0.00110701776194
0.000518810701227
0.00102131673501
0.000494285435535
0.000926471739592
0.000488689148026
0.00083805747543
0.000474182859266
0.000756915171214
0.000466033462819
0.000653674644332
0.000472522428
0.000536593889455
0.000489499896159
0.000413260345797
0.000501056455726
0.000338315029513
0.000528832800175
0.000272977485235
0.000636347060928
0.000169717705864
0.000725156901472
8.54137897731e-05
0.000743044740532
0.000744851897998
0.000747490458774
-0.00512636566079
0.00153853207452
-0.0054229542272
0.00232806192361
-0.00541209826457
0.00311303224066
-0.00538238997188
0.00389187482456
-0.00534275314209
0.00466310410018
-0.005293837867
0.00542537670824
-0.00523597311491
0.00617749514854
-0.00516961508762
0.00691832874671
-0.00509509467055
0.0076468208628
-0.00501280472181
0.00836207934577
-0.00492315203978
0.00906315553829
-0.0048264048022
0.00974916877214
-0.00472263047322
0.0104193995314
-0.00461207679573
0.011073012636
-0.0044947038956
0.0117091360494
-0.00437038802906
0.0123269504275
-0.00423899679748
0.0129255402317
-0.00410022262776
0.0135039650108
-0.00395364749425
0.0140611271188
-0.00379880401613
0.0145960006761
-0.00363528721061
0.015107271273
-0.00346253893937
0.015593390098
-0.00327973104568
0.0160526348929
-0.00308606246163
0.0164833430909
-0.00288087588737
0.0168837575979
-0.00266373928369
0.0172519220188
-0.00243411812779
0.0175858813198
-0.00219167932193
0.0178833355474
-0.0019359350524
0.018141809471
-0.00166659819958
0.0183590454938
-0.00138376793446
0.018532706006
-0.00108767559872
0.018660551223
-0.000778944680283
0.0187401471427
-0.000458236294972
0.0187694334307
-0.000126973906868
0.0187463493389
0.000213352765234
0.0186687485613
0.000561376180776
0.0185352198943
0.000914416842873
0.0183451342028
0.00126939800118
0.0180983865459
0.00162315834293
0.0177949288583
0.00197246490828
0.0174354604533
0.00231326296097
0.0170218984435
0.00264147237388
0.0165568477071
0.0029528469894
0.0160434315002
0.00324328243701
0.0154854856392
0.00350871115341
0.0148879380588
0.0037450854144
0.014256462439
0.00394900905425
0.0135975458814
0.00411718903848
0.01291766117
0.00424773346668
0.0122237273661
0.00433892621126
0.0115233298528
0.00438980819802
0.0108235754383
0.00440141897353
0.0101314763123
0.00437450521843
0.00945330432446
0.00431176240104
0.00879525538596
0.00421566156477
0.00816221639814
0.00409073727001
0.00755864822547
0.00394070066955
0.0069884306816
0.00376994697451
0.00645189331961
0.00358571858828
0.00595018928437
0.00339118955504
0.00548331176138
0.00319180339937
0.00505106715696
0.00298982525655
0.00465268565886
0.00278929044721
0.00428686405047
0.00259277124616
0.00395145202593
0.00240279319471
0.00364498859778
0.00222080646604
0.00336523517345
0.0020483863922
0.00311007174706
0.00188620532489
0.00287729179336
0.00173466408277
0.00266497019811
0.00159400115899
0.00247134384375
0.00146380151291
0.0022944810473
0.0013440462157
0.00213274152859
0.00123416642639
0.00198468903884
0.00113337712706
0.00184932786619
0.00104049791661
0.00172582380189
0.000955370850275
0.0016133709333
0.00087747421079
0.00151201638452
0.000805881706534
0.00142354841808
0.000740556583926
0.00133295554335
0.000697741745911
0.00124627631319
0.000667317972773
0.00116535839369
0.000636825449745
0.00107707099432
0.00060655169388
0.000984841564182
0.000585920618516
0.000897474626006
0.000575453285161
0.000797583311456
0.000573438018723
0.00070052972977
0.000562425119398
0.000595661669406
0.000576679326316
0.000500271019916
0.000584137776616
0.000387981448958
0.000612558680377
0.000278547009858
0.000637433885474
0.000226838079843
0.000687107959731
0.000149145421822
0.000801979441631
7.45713798675e-05
0.000816783709532
0.000818923809788
0.000757343467888
-0.00589119721558
0.00155861088092
-0.00623199073667
0.00235799501935
-0.00621941299653
0.0031525549132
-0.00618482967805
0.00394064173492
-0.00613873470549
0.00472076368803
-0.0060818213928
0.00549156657782
-0.0060146215891
0.00625184331038
-0.00593770078925
0.00700044830281
-0.00585147558145
0.00773640203199
-0.00575648319589
0.00845881601852
-0.00565323911221
0.00916681261432
-0.00554200352665
0.00985972607722
-0.0054230719644
0.0105367971719
-0.00529658208616
0.0111972718705
-0.00516251352042
0.01184049384
-0.00502082627689
0.0124657101003
-0.00487130336067
0.013072116262
-0.0047135754879
0.0136588293649
-0.00454715489934
0.0142248866714
-0.00437148806675
0.0147692772273
-0.00418612774772
0.0152906435828
-0.00399016669906
0.0157873913974
-0.00378254299762
0.0162578857899
-0.00356241497592
0.0167005293601
-0.0033291649193
0.0171134311114
-0.00308206889262
0.0174946689968
-0.00282056251233
0.0178419008713
-0.00254389423953
0.0181526578581
-0.00225145133283
0.0184245603487
-0.00194303693327
0.0186550148382
-0.00161853913073
0.018841557011
-0.00127831808842
0.0189813367422
-0.000922615684853
0.0190718588397
-0.000552446063345
0.0191105051789
-0.000169114786124
0.0190943036514
0.000226245945358
0.0190212823211
0.000631263760858
0.018890008319
0.00104272393272
0.0186990181396
0.00145757758355
0.0184473003153
0.00187221571673
0.0181349808572
0.0022822671743
0.0177628879528
0.00268297902524
0.0173327927974
0.00306932887805
0.0168468032267
0.00343673699598
0.016308127857
0.00377999935601
0.0157212472253
0.004093772393
0.0150915953187
0.00437305924127
0.0144250002824
0.00461406164328
0.013728122428
0.00481266166549
0.0130090576318
0.00496552536932
0.0122755192662
0.00507132356881
0.0115357255497
0.00512859317574
0.0107978817031
0.00513837628238
0.0100698285611
0.00510178581542
0.00935888101807
0.00502203716447
0.0086719083717
0.00490205221257
0.00801553172699
0.00474659774605
0.0073936249543
0.00456215258484
0.00680796268474
0.0043551877
0.0062605631882
0.00413273273032
0.00575250216355
0.0038988751442
0.00528343323521
0.0036605133837
0.00485265359871
0.00342024267451
0.00445825072168
0.0031833394571
0.0040987833951
0.0029518708388
0.00377197572202
0.00272923512267
0.00347503367845
0.00251736552117
0.00320547087893
0.00231756370237
0.00296055545357
0.00213071967233
0.00273836305319
0.00195644980979
0.00253633900225
0.00179560482674
0.00235224712483
0.00164746868919
0.00218472997018
0.00151112729606
0.00203189781922
0.00138655991556
0.00189230475987
0.00127252242969
0.00176448351301
0.00116786907227
0.00164764816218
0.0010717456784
0.0015412053976
0.000983454018194
0.00144378947023
0.000902836183213
0.00135244719803
0.00083142923624
0.00126588297039
0.000783812933813
0.00117942035925
0.00075325809726
0.00109629939318
0.000719410409874
0.0010165368221
0.000685741842544
0.000935981715734
0.000665879950904
0.000857460273233
0.000653351871322
0.000769958187328
0.000660280615654
0.000661769084715
0.000669931862593
0.000554064259714
0.000683686536783
0.000439959059336
0.000697517350705
0.000357501406156
0.000694247373298
0.000261488568366
0.000732642969956
0.000185773786595
0.000762081184165
0.000135098961563
0.000851783744473
6.51423186134e-05
0.000885863191925
0.000883672282432
0.000768747678699
-0.0066672738567
0.00158179327832
-0.0070528769508
0.00239278483846
-0.00703814781981
0.00319850916228
-0.00699835708387
0.003997363239
-0.00694535214302
0.00478776158073
-0.00687998699242
0.00556833690491
-0.00680293670292
0.0063378587351
-0.00671494680815
0.00709523649128
-0.00661654009765
0.00783953429409
-0.00650843485791
0.00856993319744
-0.00639123612943
0.00928570093613
-0.00626531521224
0.00998620115766
-0.00613103744598
0.0106707656054
-0.00598853228396
0.0113388818426
-0.00583791081309
0.011989970794
-0.00567908902242
0.012623420711
-0.00551179535843
0.0132385396366
-0.00533560066973
0.0138345374977
-0.00514990062738
0.0144106414046
-0.00495417655186
0.0149658152007
-0.00474770382027
0.0154986343039
-0.00452920058819
0.0160076137729
-0.0042975345285
0.0164912095069
-0.00405181596123
0.0169477098498
-0.00379125324899
0.0173752920288
-0.00351501985329
0.0177716688615
-0.00322208288678
0.0181343678222
-0.00291151230904
0.0184610406895
-0.00258281685872
0.0187489817114
-0.00223544886394
0.0189954469926
-0.00186925467562
0.0191974298763
-0.00148434001569
0.0193520052102
-0.00108102221555
0.0194560022904
-0.000660080284151
0.0195058558471
-0.000222416143067
0.0194987716843
0.000230055469285
0.0194325064183
0.000694422656693
0.0193045129298
0.00116776379218
0.0191128293364
0.00164645743202
0.0188564566817
0.00212592308075
0.0185351305955
0.00260106745396
0.0181491408235
0.00306657741651
0.0176995815262
0.00351663769836
0.0171891017206
0.00394510772193
0.0166213202019
0.00434581389032
0.016000596816
0.00471267289469
0.0153322153894
0.00503975660774
0.0146233955283
0.0053213407673
0.0138815280869
0.00555312431733
0.0131152509582
0.00573054379442
0.0123337779281
0.0058516786093
0.011546360229
0.0059150323576
0.0107626911797
0.00592120182957
0.00999145544378
0.00587230626427
0.00924153988564
0.00577133859864
0.00852143536753
0.00562163113881
0.00783594947749
0.00543163007132
0.00719001228671
0.00520767841656
0.00658743036162
0.00495740373445
0.00602926588344
0.00469054016335
0.00551558477586
0.00441221961675
0.00504534502745
0.00413041178251
0.00461699526478
0.00384825737227
0.00422885907741
0.00357111827458
0.00387810898551
0.00330226849481
0.00356185707308
0.00304510358411
0.00327693851537
0.0028018988212
0.00302014301199
0.00257394837028
0.00278857087674
0.00236187176332
0.00257886320891
0.00216571980991
0.00238933911869
0.00198468143637
0.00221722024649
0.00181912570014
0.00206055623666
0.00166732489965
0.00191772888163
0.00152891141479
0.00178751754645
0.0014022544825
0.00166845253264
0.00128645023087
0.00155936929142
0.00118033786858
0.00146003087544
0.00108229701567
0.0013696799516
0.000992701165898
0.00128425918808
0.000916359661393
0.00119724457184
0.000870308925466
0.0011166548319
0.000833307257998
0.00103309198742
0.000802412969812
0.000947671796667
0.000770577509006
0.000865613694887
0.000747342154592
0.000780967356189
0.000737373038135