/*--------------------------------*- C++ -*----------------------------------*\
| =========                 |                                                 |
| \\      /  F ield         | OpenFOAM: The Open Source CFD Toolbox           |
|  \\    /   O peration     | Version:  v1906                                 |
|   \\  /    A nd           | Web:      www.OpenFOAM.com                      |
|    \\/     M anipulation  |                                                 |
\*---------------------------------------------------------------------------*/
FoamFile
{
    version     2.0;
    format      ascii;
    class       volScalarField;
    location    "300";
    object      p;
}
// * * * * * * * * * * * * * * * * * * * * * * * * * * * * * * * * * * * * * //

dimensions      [0 2 -2 0 0 0 0];


internalField   nonuniform List<scalar> 
9216
(
303.859849666
303.939680342
304.109575346
304.363607349
304.701398118
305.121240913
305.620951621
306.197917677
306.8492023
307.571554128
308.36150263
309.215352318
310.129281614
311.099323062
312.12146441
313.191613503
314.305700343
315.459626365
316.649367359
317.870908023
319.120346542
320.393815875
321.68759104
322.99799884
324.321528863
325.654733175
326.994341677
328.337153127
329.680155059
331.020407214
332.355166291
333.681762437
334.997728226
336.300669318
337.588397173
338.8587946
340.109951618
341.34002668
342.54738492
343.730455992
344.887873989
346.018332778
347.120726762
348.194004741
349.237310757
350.249837396
351.230965909
352.180119951
353.096904242
353.980959605
354.832099414
355.650166818
356.43516832
357.187133925
357.90624718
358.592709
359.246863606
359.869066633
360.459806386
361.01957686
361.54899383
362.048673271
362.519341783
362.961720939
363.3766316
363.764884615
364.127378571
364.464997281
364.778700566
365.06942889
365.33818676
365.585954877
365.813765821
366.022624009
366.213573408
366.38762561
366.545819497
366.689157721
366.818658545
366.935301088
367.040070117
367.133910611
367.217767335
367.29255012
367.359172966
367.418536327
367.471631792
367.519329705
367.558801566
367.588294148
367.609510796
367.624161237
367.633755582
367.639387503
367.642143927
367.64309506
303.780094486
303.860378673
304.028838799
304.283640783
304.622983061
305.044901437
305.547087246
306.126865139
306.781238799
307.506917458
308.300378645
309.157894457
310.075595408
311.049488962
312.075520221
313.149580245
314.26756212
315.425358627
316.618913833
317.84421096
319.097320527
320.374379854
321.671639121
322.985434046
324.312231106
325.648594745
326.991232689
328.336958717
329.682738714
331.025649749
332.362926946
333.691919516
335.010138617
336.315210565
337.604925543
338.877188411
340.130068072
341.361746203
342.570567068
343.754984536
344.913612108
346.045168614
347.148528227
348.222665246
349.266703875
350.279862496
351.261502986
352.211074893
353.128164064
354.012437097
354.86368907
355.681788621
356.466724579
357.218551974
357.937437376
358.623606137
359.277386242
359.899157037
360.48939141
361.04860625
361.577402774
362.076418933
362.546367712
362.98799167
363.402099054
363.789520638
364.151143473
364.487870199
364.800650244
365.090441749
365.358240049
365.605042333
365.831873264
366.039752488
366.229717289
366.402793098
366.560013187
366.70239238
366.830943993
366.94665709
367.050511224
367.143457803
367.226433678
367.300347305
367.366091894
367.424534751
367.476520821
367.523028117
367.562012244
367.591197872
367.61187923
367.62607884
367.635348885
367.640637868
367.643138886
367.644098084
303.609407431
303.692946829
303.86324961
304.120718052
304.463589771
304.88986335
305.397145073
305.982672012
306.643353593
307.375811735
308.176432816
309.041408999
309.966788756
310.948512133
311.982455196
313.064456508
314.190354107
315.356002897
316.557304605
317.790217151
319.050778977
320.335111984
321.639441851
322.960096163
324.293522153
325.636281339
326.985065743
328.336689979
329.688106621
331.036396337
332.378782808
333.712621194
335.035412681
336.344791526
337.63853928
338.914570532
340.170946808
341.405861123
342.617651523
343.804784616
344.965868754
346.099636686
347.204958382
348.280823001
349.326351378
350.340777467
351.323460489
352.27386605
353.19157796
354.07627917
354.927763247
355.745915301
356.530723113
357.28225816
358.000686377
358.686249409
359.339274989
359.960158508
360.549372961
361.107450948
361.634994157
362.132655859
362.601149873
363.04123365
363.453716664
363.839444131
364.199304768
364.5342152
364.845127017
365.133011904
365.398867901
365.643705304
365.868552039
366.074440363
366.262411293
366.433502168
366.588750142
366.729180738
366.855810549
366.969637061
367.071640951
367.162777659
367.243979941
367.316151678
367.380170661
367.436883345
367.487096024
367.531780386
367.569232213
367.597111282
367.6166896
367.630088312
367.638539986
367.643304865
367.645732579
367.646845199
303.351809071
303.437342089
303.61057057
303.872277925
304.220678805
304.653701439
305.168840897
305.763207165
306.433573319
307.176425134
307.988013702
308.864404097
309.801523992
310.795205289
311.841224486
312.935334799
314.073297268
315.250903512
316.463998539
317.708495661
318.98039284
320.275781732
321.590859512
322.921933849
324.265431815
325.617902172
326.976022489
328.336599634
329.69657572
331.053027354
332.403170867
333.744360398
335.074092371
336.390002658
337.689870396
338.971614204
340.233295356
341.473113095
342.689407196
343.880652465
345.045460728
346.182574626
347.29086911
348.369344641
349.417128274
350.433466382
351.417725413
352.369384248
353.288034697
354.1733736
355.025203113
355.843422655
356.628029019
357.379108235
358.096835555
358.78146729
359.433340691
360.052865815
360.640525313
361.196866378
361.722500438
362.218095222
362.684374364
363.122109614
363.532120334
363.91526588
364.272444969
364.604588242
364.912657458
365.19763824
365.460539039
365.702384046
365.924211865
366.127068564
366.31200599
366.480074957
366.632323177
366.769788624
366.893497156
367.00445623
367.103652462
367.19204608
367.270568968
367.340120589
367.401567306
367.455741311
367.503444601
367.545671018
367.580342045
367.606012049
367.624239923
367.636340534
367.643933864
367.648336593
367.650754402
367.65189233
303.004796509
303.092482562
303.26967778
303.537212229
303.893210569
304.335479599
304.861358962
305.467783339
306.151339766
306.908326167
307.734809324
308.626679443
309.579701159
310.58955865
311.6518959
312.762350464
313.916582662
315.110298868
316.33927138
317.599353486
318.88649248
320.196738993
321.526255497
322.871322
324.22834183
325.593845167
326.964493254
328.337080609
329.708538242
331.075935022
332.436480263
333.787524169
335.126559643
336.451222012
337.759290092
339.048685098
340.317470959
341.563852413
342.786174607
343.982920437
345.1527095
346.294294778
347.406561028
348.488520923
349.539312993
350.558197325
351.544553156
352.497874238
353.417766167
354.30394151
355.156216937
355.974508185
356.758827065
357.50927631
358.226046509
358.909410893
359.559722226
360.177407574
360.762965173
361.316959214
361.840016708
362.332822315
362.796115213
363.23068398
363.637363483
364.017029823
364.370597221
364.699013027
365.003254587
365.284324284
365.543246339
365.781061844
365.998825416
366.197600166
366.378454112
366.542455003
366.690666417
366.824142381
366.94392313
367.051029567
367.146458778
367.231178585
367.306123261
367.372188989
367.430231569
367.481066716
367.525521116
367.564108008
367.595543294
367.618776754
367.634878266
367.645569552
367.652351333
367.656409411
367.658773901
367.659912329
302.566196761
302.656465278
302.838720509
303.113752043
303.479536787
303.93370267
304.473377804
305.095263677
305.795703068
306.57074847
307.416227901
308.327805984
309.301039117
310.331423639
311.414437044
312.545572109
313.720364841
314.934416584
316.183411526
317.463130036
318.769459069
320.0983999
321.446074276
322.808728988
324.182739771
325.56461428
326.95099489
328.338660827
329.724530354
331.105662442
332.479258521
333.842663426
335.193366451
336.529001689
337.847348357
339.146330341
340.424015736
341.678615584
342.908482647
344.11210939
345.288126063
346.435298031
347.552523278
348.638829195
349.693369629
350.715421251
351.704380251
352.659758395
353.581179465
354.46837509
355.321181014
356.13953277
356.923461838
357.673091225
358.388631555
359.070376604
359.718699359
360.33404754
360.916939663
361.467960568
361.987757505
362.477035704
362.936554486
363.367122889
363.769595825
364.144869756
364.493878899
364.817590949
365.117003299
365.393138791
365.647041901
365.879774439
366.092411625
366.286037635
366.46174142
366.620611971
366.763733719
366.892181353
367.00701466
367.109272771
367.199968348
367.280081262
367.350552185
367.412275894
367.466094485
367.51279003
367.55308508
367.587668734
367.615472154
367.635358225
367.649198125
367.658432941
367.664231187
367.66810472
367.67037624
367.671472559
302.033337815
302.126753676
302.315272681
302.599613846
302.977552203
303.446475149
304.003233198
304.644226442
305.365485474
306.162751893
307.031554098
307.967276096
308.965217898
310.02064676
311.128839417
312.285115809
313.484865336
314.723566666
315.996802368
317.300269378
318.629786444
319.981299269
321.350884207
322.73475091
324.129244489
325.530847287
326.936180608
328.342006219
329.745227991
331.142893386
332.532194886
333.910470951
335.2752069
336.624035325
337.95473625
339.265236755
340.553610306
341.818075542
343.056994791
344.268872073
345.452350888
346.606211561
347.729368423
348.820866629
349.879878879
350.905701827
351.897752459
352.855564215
353.778783125
354.667163726
355.520565037
356.338946352
357.122363115
357.870962635
358.584979914
359.26473333
359.910620449
360.523113706
361.102756232
361.65015756
362.165989483
362.650981803
363.105918245
363.531632262
363.929003014
364.298951245
364.642435323
364.96044718
365.254008409
365.524166227
365.771989567
365.998564996
366.204992696
366.392382187
366.561848021
366.714505103
366.851463846
366.973824818
367.082673063
367.179071778
367.2640555
367.338622542
367.403726748
367.460268331
367.509083606
367.550933481
367.586489389
367.616423915
367.639813061
367.65627155
367.667813158
367.675459254
367.680381159
367.683749463
367.685756358
367.686712638
301.402949423
301.500174495
301.696303593
301.991960341
302.384658696
302.871474181
303.448901372
304.112957887
304.859282344
305.683230057
306.579961231
307.544518981
308.571895646
309.657087055
310.795135257
311.981160897
313.210386726
314.47815391
315.779932717
317.111329075
318.468088224
319.846096526
321.241382196
322.650115577
324.068609323
325.493318764
326.920842533
328.347923371
329.771449312
331.188455005
332.596122912
333.991784309
335.372920084
336.737161233
338.082288922
339.406234148
340.707076917
341.983044999
343.232512236
344.453996459
345.646157036
346.807792096
347.937835475
349.035353398
350.099540975
351.129718493
352.125327586
353.08592726
354.011189842
354.900896828
355.754934697
356.573290649
357.356048347
358.103383602
358.815560079
359.492924973
360.135904714
360.745000653
361.320784802
361.86389555
362.375033451
362.854957
363.30447848
363.724459816
364.115808507
364.479473565
364.816441538
365.127732544
365.414396368
365.67750856
365.918166559
366.137485761
366.336595545
366.516635149
366.678749363
366.824083921
366.953780532
367.068971387
367.170773068
367.260279709
367.338555264
367.406624797
367.465464504
367.51599037
367.55904472
367.59538079
367.625642023
367.650431949
367.668980221
367.682074217
367.691044313
367.696984424
367.70091646
367.703333537
367.704922806
367.705641765
300.671068571
300.772864191
300.978127518
301.287356155
301.697730089
302.205926457
302.807988425
303.499453371
304.275473108
305.130928955
306.060535167
307.058927684
308.12073681
309.240643971
310.413423881
311.63397405
312.897333986
314.198696369
315.533412398
316.896993122
318.285108346
319.693584229
321.118400527
322.555688024
324.001726564
325.452943825
326.905914903
328.357362394
329.804157318
331.243320331
332.672022864
334.08758819
335.487492336
336.869364606
338.230987701
339.570297321
340.885381297
342.174478189
343.435975463
344.668407186
345.870451388
347.040927045
348.178790815
349.283133496
350.353176315
351.388267021
352.38787587
353.351591486
354.27911664
355.170263979
356.024951689
356.843199148
357.625122541
358.370930477
359.080919604
359.755470229
360.395041948
361.000169301
361.571457443
362.109577848
362.615264038
363.089307359
363.532552789
363.945894802
364.330273284
364.686669501
365.016102145
365.319623424
365.598315225
365.853285311
366.085663565
366.296598197
366.48725193
366.658798031
366.812416164
366.949287878
367.070591698
367.177497539
367.27116041
367.352713099
367.423257779
367.483856228
367.535518528
367.579189792
367.615734194
367.645914925
367.67036352
367.689577768
367.703199633
367.712737216
367.71897807
367.722987395
367.725424924
367.726786673
367.727764742
367.728148301
299.832939999
299.940185025
300.156332311
300.481708907
300.913068746
301.446581408
302.077720037
302.801421904
303.612238056
304.504472938
305.47230634
306.509894309
307.611448083
308.77129216
309.983903952
311.243938215
312.546239609
313.885846655
315.257989839
316.658086239
318.08173243
319.524697045
320.982913865
322.452476074
323.929631916
325.410781888
326.892477318
328.371419946
329.844462701
331.308611119
332.76102449
334.199017237
335.620059988
337.021780286
338.401962743
339.758548664
341.08963507
342.393473177
343.668466335
344.913167518
346.126276401
347.306636093
348.453229592
349.565175997
350.641726542
351.682260466
352.686280781
353.65340994
354.583385445
355.476055412
356.331374099
357.149397428
357.930278495
358.67426309
359.381685223
360.052962672
360.688592553
361.289146911
361.855268348
362.387665676
362.887109622
363.35442856
363.790504306
364.19626796
364.572695823
364.92080538
365.241651366
365.536321926
365.805934847
366.051633884
366.274585145
366.475973504
366.656998992
366.818873098
366.962814861
367.090046628
367.20178931
367.299256919
367.383650195
367.45614906
367.517903686
367.570024009
367.613567419
367.649524588
367.678802807
367.702206335
367.720409583
367.733930814
367.742902604
367.748343198
367.751455826
367.753199812
367.753893636
367.754086063
367.754075322
367.754010321
298.882895286
298.996617428
299.225685449
299.570195018
300.026353144
300.589681786
301.254933763
302.01629741
302.867584688
303.802401844
304.814293448
305.896856489
307.043824608
308.249125115
309.506913065
310.811587265
312.157793075
313.54041629
314.954571741
316.395589359
317.858999783
319.340520899
320.83604624
322.341635695
323.853508768
325.368040227
326.88175795
328.391342241
329.893626857
331.385600876
332.864410158
334.327359196
335.77191258
337.195695911
338.596496128
339.972261098
341.321098577
342.641274463
343.931210519
345.189481527
346.414812076
347.606072948
348.762277266
349.882576398
350.966255707
352.012730159
353.02153985
353.992345456
354.924923647
355.819162475
356.675056748
357.492703422
358.272296983
359.014124869
359.718562905
360.386070772
361.017187502
361.612527023
362.172773716
362.698678042
363.19105218
363.650765748
364.078741543
364.475951383
364.843411993
365.18218101
365.493353061
365.778055984
366.037447152
366.272709934
366.485050262
366.675693286
366.845880079
366.996864272
367.129908563
367.246280869
367.347249995
367.434080459
367.508026331
367.570323611
367.622181042
367.664769018
367.699206622
367.726546893
367.747760809
367.763720839
367.775185522
367.7827931
367.787039146
367.78850902
367.78827232
367.787262192
367.786037728
367.784691639
367.783462969
367.782684175
297.814200202
297.935617793
298.180014327
298.5471667
299.032575808
299.630932517
300.336076555
301.141260361
302.039387752
303.023223361
304.085562401
305.219358079
306.41780861
307.674409127
308.9829754
310.337646695
311.732874484
313.163402737
314.624244162
316.11065569
317.618115303
319.142301677
320.679077329
322.224475656
323.774691793
325.326077064
326.875136396
328.418527969
329.953064929
331.475718141
332.983618281
334.474058523
335.94449649
337.392555579
338.816025419
340.212861527
341.581184086
342.919275993
344.22558021
345.498696578
346.737378169
347.940527308
349.107191322
350.236558107
351.327951536
352.380826785
353.394765577
354.369471402
355.304764708
356.200578104
357.05695157
357.874027694
358.652046942
359.391342957
360.09233791
360.755537878
361.381528281
361.970969346
362.524591628
363.043191569
363.527627105
363.978813324
364.39771819
364.785358325
365.142794894
365.471129582
365.771500705
366.045079461
366.293066358
366.516687811
366.717192929
366.895850465
367.053945894
367.192778535
367.313658604
367.417904
367.506836598
367.581777699
367.644042308
367.694931779
367.73572449
367.767664269
367.791946509
367.809702528
367.821982951
367.829742501
367.833828987
367.834984131
367.833858727
367.831113904
367.827479789
367.823567296
367.819985009
367.816953384
367.814589295
367.813013349
296.618857939
296.749439182
297.012053551
297.406037551
297.92597078
298.565470181
299.317211779
300.173275328
301.125448887
302.165486217
303.285305398
304.477127842
305.733563143
307.047649157
308.412858262
309.823080378
311.272591993
312.75601837
314.268294239
315.804626405
317.360460446
318.9314526
320.513447368
322.102460829
323.69466945
325.28640378
326.874145989
328.454530881
330.024348889
331.580549944
333.120247162
334.640720427
336.139419153
337.613964036
339.062147789
340.481934748
341.871459501
343.229024545
344.55309724
345.842306093
347.095436649
348.311427004
349.489363138
350.628474043
351.728126797
352.787821527
353.807186377
354.785972449
355.724048777
356.621397313
357.478107968
358.2943737
359.070485642
359.806828302
360.503874803
361.162182194
361.782386798
362.365199632
362.911401854
363.421840285
363.897422947
364.339114688
364.747932831
365.124942934
365.471254607
365.788017482
366.076417296
366.337672194
366.573029209
366.783761029
366.971162993
367.136550393
367.281256008
367.406627823
367.514026834
367.604824681
367.680400927
367.742139446
367.791423604
367.82962947
367.858116651
367.87821617
367.891215266
367.898339659
367.900734344
367.899445766
367.895408837
367.889444229
367.882270028
367.874541935
367.86687483
367.859785851
367.853695936
367.848850787
367.845414837
367.8434123
295.28735289
295.428894985
295.713251113
296.139141336
296.699931203
297.387837103
298.194042598
299.109152655
300.123584242
301.22788181
302.412946285
303.670180697
304.991563889
306.369668214
307.797637884
309.269143113
310.778322179
312.319720317
313.888231241
315.479044746
317.087602013
318.709559266
320.340759707
321.977213443
323.615084724
325.25068576
326.880475351
328.501062283
330.10921063
331.7018456
333.276059273
334.82911556
336.358453888
337.861691574
339.336624755
340.781227993
342.193652542
343.572223578
344.915436497
346.22195261
347.490594368
348.720340337
349.910319977
351.059808347
352.168220729
353.23510726
354.260147552
355.243145363
356.184023311
357.082817659
357.939673167
358.75483802
359.528658831
360.261575716
360.954117452
361.606896691
362.220605258
362.796009486
363.333945639
363.835315347
364.30108112
364.732261881
365.129928584
365.49519987
365.829237848
366.13324398
366.408455148
366.656139928
366.877595141
367.074142721
367.247126962
367.397912165
367.527880711
367.638431499
367.730978687
367.806950496
367.867787817
367.914942079
367.949871841
367.974037168
367.988891016
367.995866732
367.996360942
367.991712424
367.98317774
367.971907171
367.958924495
367.945116769
367.931236397
367.917919278
367.90569872
367.894995791
367.886128868
367.879305809
367.874671271
367.872279961
293.808312273
293.963054396
294.273519849
294.737559648
295.346918079
296.091967155
296.961962185
297.945646252
299.031751768
300.209384359
301.468280071
302.798946888
304.192712115
305.641701406
307.138774398
308.67743784
310.25175182
311.856239354
313.485805247
315.135666843
316.80129731
318.478380974
320.162779984
321.850511363
323.537733648
325.220741898
326.895969013
328.559992772
330.209545116
331.841520864
333.452986215
335.041185413
336.60354558
338.137679677
339.641387701
341.112656077
342.54965552
343.950737494
345.314429744
346.639431097
347.924605956
349.168978536
350.371727109
351.53217814
352.64980052
353.724199756
354.755112274
355.742399769
356.686043668
357.586139691
358.442892519
359.256610562
360.027700829
360.756663898
361.444088967
362.090649007
362.697095981
363.264256149
363.79302541
364.284364715
364.739295498
365.15889517
365.54429262
365.896663818
366.217227458
366.507240776
366.7679955
367.000814094
367.207046277
367.388065991
367.545268823
367.680070033
367.793903165
367.888219341
367.964487125
368.024192803
368.068840824
368.099953747
368.119071065
368.127745644
368.127536436
368.119995977
368.106651358
368.088978138
368.068368048
368.046094208
368.023279323
368.000874026
367.979650772
367.960213602
367.943016999
367.928384042
367.916528857
367.907577654
367.901617278
367.898637679
292.168054233
292.338835289
292.680918252
293.190911221
293.858364762
294.671194942
295.616147104
296.679605082
297.84823449
299.109442981
300.451656242
301.86443507
303.338471545
304.86550508
306.438194658
308.049975404
309.694918483
311.367605337
313.063020976
314.776467124
316.503493728
318.239846782
319.981430479
321.724282413
323.4645607
325.198541863
326.922626857
328.633353923
330.327413833
332.001662818
333.653134543
335.279048787
336.876817365
338.444047728
339.978544246
341.478307368
342.941530683
344.366596413
345.752069741
347.096692543
348.39937686
349.659198377
350.875389969
352.047335352
353.174562784
354.256738882
355.293662522
356.285258887
357.231573654
358.132767335
358.989109762
359.8009747
360.568834588
361.293255397
361.974891605
362.614481267
363.212841199
363.770862214
364.289504458
364.76979275
365.212811982
365.619702509
365.991655591
366.329908834
366.635741736
366.910471306
367.155447903
367.372051307
367.561687187
367.725784029
367.865790707
367.98317479
368.079421731
368.156035033
368.214537422
368.256472943
368.283409751
368.296942953
368.298696845
368.290324492
368.273503534
368.249924889
368.221272116
368.18918923
368.155236978
368.120841989
368.087246418
368.055470964
368.026298497
368.000284415
367.977786809
367.959004974
367.944026002
367.932867411
367.925521665
367.921892424
290.349974233
290.540464544
290.921236209
291.487097985
292.224585664
293.118308158
294.151718829
295.308203951
296.571902316
297.92824307
299.364217485
300.868435448
302.431031
304.043479781
305.698379964
307.38923303
309.110246088
310.856165529
312.622143716
314.403635617
316.196320564
317.99604431
319.798778186
321.60059347
323.397650437
325.186201027
326.962602585
328.723339937
330.465048977
332.184535823
333.878792921
335.545009565
337.180578695
338.783100884
340.350385753
341.880450572
343.371516274
344.822001373
346.230514725
347.59584771
348.916966546
350.193004812
351.42325639
352.607168507
353.744335026
354.834489749
355.87749998
356.873360199
357.822186002
358.724208215
359.579767205
360.389307351
361.153371657
361.872596518
362.547706603
363.179509885
363.768892765
364.316815313
364.824306546
365.292459781
365.722427944
366.115418931
366.472690886
366.795547542
367.085333527
367.343429813
367.571249267
367.77023253
367.941844239
368.087569857
368.208913198
368.307394944
368.384552279
368.441939934
368.481132746
368.503729841
368.511360421
368.505690302
368.488428888
368.461334399
368.426214893
368.384920781
368.339324185
368.291280503
368.242569223
368.194818459
368.149425962
368.107497148
368.06981675
368.036862167
368.008855157
367.985830889
367.967707351
367.954348531
367.945630205
367.941353011
288.333698983
288.548740604
288.977455616
289.612002158
290.434707711
291.425675517
292.564012043
293.829290874
295.202583365
296.667059201
298.208206924
299.813768333
301.47349234
303.178803031
304.922452841
306.698205407
308.50056975
310.324591094
312.165693403
314.01956409
315.882070408
317.749199181
319.617014648
321.481633017
323.33921451
325.185972683
327.018201298
328.83230989
330.624858998
332.392589225
334.13244104
335.841566315
337.517335046
339.157339575
340.759396078
342.321542582
343.842033233
345.319330006
346.752093075
348.139171039
349.479591688
350.772553667
352.017418754
353.213704509
354.361077013
355.459343779
356.508446817
357.508456009
358.459562747
359.362073874
360.216405819
361.023078955
361.782712092
362.496017145
363.163793959
363.786925275
364.366371866
364.903167747
365.398415502
365.853281586
366.26899166
366.646825818
366.988113805
367.294230112
367.566589092
367.806640054
368.01586253
368.195761721
368.347864416
368.473715451
368.574875063
368.65291734
368.709430154
368.746016873
368.764300281
368.765929154
368.752586914
368.726003445
368.687968679
368.640345895
368.585081778
368.524207514
368.459822769
368.394052678
368.328968922
368.266476923
368.208188681
368.15532195
368.108648918
368.068521268
368.034959427
368.007762275
367.986617503
367.971192168
367.96120273
367.956327276
286.093896063
286.340023913
286.829042811
287.549136909
288.476658408
289.585504005
290.849008693
292.241904816
293.741586686
295.328726911
296.987357486
298.704580692
300.470078966
302.275563186
304.114253033
305.980439021
307.869142143
309.77586567
311.69642246
313.626817534
315.563167444
317.501642546
319.438425457
321.369685302
323.291572592
325.200238008
327.09187789
328.962791873
330.809436751
332.628467649
334.416761011
336.171424115
337.889799841
339.569470857
341.208261948
342.804237388
344.355692629
345.861142481
347.319308117
348.72910448
350.089629359
351.400154193
352.660116122
353.869110252
355.026882044
356.133319607
357.188446335
358.192413858
359.145495465
360.048079859
360.900665203
361.703853347
362.458344237
363.164930482
363.824492113
364.437991531
365.006468636
365.531036109
366.012874758
366.453228897
366.853401642
367.214750132
367.538680556
367.826643092
368.080126659
368.300653677
368.489774799
368.649063902
368.780113364
368.884530034
368.963932028
369.019946873
369.054211312
369.068373441
369.064097713
369.04307307
369.007025761
368.957736975
368.897064392
368.826967159
368.749530859
368.666985121
368.581701581
368.496153575
368.412814906
368.333988536
368.261598228
368.197019845
368.140990508
368.093652518
368.054717036
368.023644371
367.999803103
367.982594602
367.971542733
367.966180409
283.59856431
283.884818741
284.451020727
285.279264538
286.337274962
287.590313175
289.004028085
290.547040885
292.192431908
293.918265427
295.707374858
297.546687189
299.426352441
301.338878423
303.278386841
305.240036322
307.219611091
309.213248973
311.217272601
313.228087962
315.242119902
317.255764142
319.265346715
321.267094226
323.257127966
325.231493675
327.186235592
329.117490678
331.021571853
332.895025071
334.734651779
336.53750919
338.300908962
340.022422273
341.699885215
343.331396292
344.915303637
346.450187603
347.934842685
349.368261127
350.749619933
352.078271535
353.353736137
354.575694139
355.743977974
356.858563793
357.919563377
358.927216741
359.881885314
360.784045648
361.634283394
362.433287475
363.181844386
363.880832661
364.531217565
365.134046014
365.690441783
366.201600855
366.668786925
367.093326844
367.47660602
367.820063553
368.125187203
368.393508009
368.626594748
368.826048124
368.993494967
369.130582428
369.238972526
369.320337185
369.376354233
369.408704678
369.419072107
369.409144212
369.380618104
369.335210328
369.274673188
369.200817446
369.115544079
369.020884528
368.919047736
368.812466973
368.703829614
368.596059665
368.492199424
368.395146436
368.307298082
368.23027243
368.164721246
368.110424785
368.066615431
368.032268245
368.006311893
367.987808201
367.976038927
367.970370106
280.806515204
281.145763461
281.81275586
282.780031152
284.002650408
285.433769595
287.028809342
288.748771701
290.561857271
292.44368561
294.376518204
296.347940075
298.34941205
300.374973777
302.42022584
304.481611094
306.555955759
308.640207756
310.731306772
312.826128088
314.921454781
317.013947942
319.100104694
321.176212997
323.238333524
325.282337899
327.304030224
329.299303127
331.264270297
333.195343976
335.089247069
336.942986509
338.753838589
340.51935883
342.237397564
343.90609942
345.523881908
347.08940849
348.601563109
350.059428194
351.462269684
352.809528869
354.10081682
355.335907282
356.514728011
357.637351188
358.703984458
359.714963039
360.670742865
361.571894358
362.419096495
363.213130948
363.95487627
364.645302218
365.285464336
365.876498884
366.419618135
366.916105927
367.367313369
367.774654524
368.139601906
368.46368169
368.748468511
368.995579885
369.206670159
369.383424178
369.527550642
369.640775445
369.724835077
369.781470517
369.812421844
369.81942451
369.804206574
369.76848949
369.713993143
369.642446024
369.555602854
369.45527237
369.343359053
369.221920803
369.093246409
368.959947852
368.825054042
368.692064575
368.56484622
368.447222214
368.342295847
368.2520982
368.17720041
368.116736464
368.069096777
368.032517941
368.005358951
367.98627546
367.974282244
367.968570106
277.663557333
278.07472055
278.87640202
280.025733864
281.458926684
283.112111741
284.927190081
286.855875385
288.861193774
290.917013088
293.006265785
295.118590684
297.248031556
299.391173088
301.545820323
303.710170837
305.882366921
308.060307596
310.241614426
312.423665715
314.603634344
316.778487391
318.944933201
321.099333915
323.237646816
325.355457345
327.448184436
329.511347454
331.540785599
333.532760875
335.483936091
337.391280256
339.252027097
341.063704525
342.824178415
344.531658659
346.184657742
347.781947166
349.322521699
350.805569023
352.230452784
353.596709474
354.904048137
356.152344537
357.341631064
358.472084907
359.544017465
360.55786614
361.514187643
362.413652244
363.257038089
364.045225376
364.779190352
365.459999378
366.088803331
366.666832529
367.195392206
367.67585837
368.109673916
368.498344619
368.843434946
369.146563316
369.409396884
369.633645616
369.82105582
369.973403027
370.092484497
370.180111337
370.238100605
370.268267534
370.272418841
370.252345665
370.209819471
370.146591085
370.064392847
369.96494671
369.849981305
369.721261568
369.58063697
369.43011611
369.271977459
369.108925996
368.944295617
368.782282877
368.627953944