/*--------------------------------*- C++ -*----------------------------------*\
| =========                 |                                                 |
| \\      /  F ield         | OpenFOAM: The Open Source CFD Toolbox           |
|  \\    /   O peration     | Version:  v1906                                 |
|   \\  /    A nd           | Web:      www.OpenFOAM.com                      |
|    \\/     M anipulation  |                                                 |
\*---------------------------------------------------------------------------*/
FoamFile
{
    version     2.0;
    format      ascii;
    class       volVectorField;
    location    "168";
    object      U;
}
// * * * * * * * * * * * * * * * * * * * * * * * * * * * * * * * * * * * * * //

dimensions      [0 1 -1 0 0 0 0];


internalField   nonuniform List<vector> 
9216
(
(0.00272076938829 -0.00272192553957 0)
(0.00286882913172 -0.00878395759341 1.18387146617e-27)
(0.00286081230149 -0.0149406401322 1.84655997191e-31)
(0.00282373642899 -0.0210982000159 0)
(0.0027721555617 -0.0271534103373 0)
(0.00270770769176 -0.0330820411914 0)
(0.00263187613432 -0.0388584594447 0)
(0.00254623735706 -0.044459716157 0)
(0.00245183186387 -0.0498658282831 0)
(0.00235021857657 -0.0550594195326 0)
(0.00224234670974 -0.0600260314776 0)
(0.00212976211401 -0.06475371283 0)
(0.00201325107536 -0.0692332424971 0)
(0.00189426508863 -0.0734576292387 0)
(0.00177336224164 -0.0774222566838 0)
(0.00165185298682 -0.0811243367413 0)
(0.00153004201386 -0.0845630202301 0)
(0.00140909024816 -0.0877388558421 0)
(0.00128906123867 -0.0906538981648 0)
(0.00117098636061 -0.0933112041985 0)
(0.00105471922264 -0.0957149576861 0)
(0.000941191760464 -0.0978700240816 0)
(0.000830087774765 -0.0997820903513 0)
(0.00072227206689 -0.101457282579 0)
(0.000617295461529 -0.102902315705 0)
(0.000515980562083 -0.104124175335 0)
(0.00041777703994 -0.105130262638 0)
(0.000323482709763 -0.105928131512 0)
(0.000232469897301 -0.10652561917 0)
(0.000145520065608 -0.106930641274 0)
(6.1950138174e-05 -0.107151285215 0)
(-1.7472703776e-05 -0.107195672616 0)
(-9.35040001613e-05 -0.10707203118 0)
(-0.000165406536413 -0.106788439807 0)
(-0.000233943984745 -0.10635305094 0)
(-0.000298389473254 -0.10577393933 0)
(-0.000359543186626 -0.105059096794 0)
(-0.000416708380236 -0.104216419836 0)
(-0.000470703056486 -0.103253642414 0)
(-0.00052086124168 -0.102178374522 0)
(-0.000568008267999 -0.10099799764 0)
(-0.000611512523664 -0.0997197509771 0)
(-0.000652195544474 -0.0983505878537 0)
(-0.000689459911866 -0.0968973067652 0)
(-0.000724113411225 -0.095366378845 0)
(-0.000755594182411 -0.0937641158333 0)
(-0.000784685695232 -0.0920964739408 0)
(-0.000810860616781 -0.0903692520364 0)
(-0.000834869720423 -0.088587878805 0)
(-0.000856218935892 -0.0867576378542 0)
(-0.000875618923002 -0.0848834409898 0)
(-0.000892606388696 -0.0829700704341 0)
(-0.000907847017953 -0.0810219477771 0)
(-0.000920906856035 -0.0790433861274 0)
(-0.000932403038272 -0.0770383585191 0)
(-0.000941928379925 -0.0750107502443 0)
(-0.000950051418723 -0.0729641343379 0)
(-0.000956390241331 -0.0709020168387 0)
(-0.000961465831885 -0.0688276236781 0)
(-0.000964920336689 -0.0667441293963 0)
(-0.000967231833731 -0.0646544584787 0)
(-0.000968065729824 -0.0625614967315 0)
(-0.000967861941369 -0.060467907086 0)
(-0.000966308935583 -0.0583763170956 0)
(-0.000963815751908 -0.0562891525619 0)
(-0.000960094458946 -0.0542088011114 0)
(-0.000955528743293 -0.0521374612689 0)
(-0.000949854733028 -0.050077282694 0)
(-0.000943438224294 -0.0480302308344 0)
(-0.000936040052756 -0.0459982048678 0)
(-0.0009280127652 -0.0439829158524 0)
(-0.000919141480934 -0.0419859889032 0)
(-0.000909768929401 -0.0400088503655 0)
(-0.000899705118138 -0.0380528208894 0)
(-0.000889284351153 -0.0361190066333 0)
(-0.000878340089744 -0.0342083897622 0)
(-0.000867197489039 -0.0323217217798 0)
(-0.000855712662632 -0.0304596178769 0)
(-0.000844198316594 -0.0286224477141 0)
(-0.000832530811695 -0.0268104398759 0)
(-0.000821004373665 -0.025023569422 0)
(-0.000809511020597 -0.0232616799243 0)
(-0.000798316207537 -0.0215243677603 0)
(-0.000787315734862 -0.0198111308915 0)
(-0.000776721556035 -0.0181212625481 0)
(-0.000766395252875 -0.0164540535195 0)
(-0.000756411458183 -0.0148087410075 0)
(-0.000746429977816 -0.0131848819059 0)
(-0.000736015105834 -0.0115825850584 0)
(-0.000723797697695 -0.0100036693999 0)
(-0.00070684074284 -0.00845365097387 0)
(-0.0006757554194 -0.00695378807879 0)
(-0.000606979790955 -0.00548044285934 0)
(-0.000566338588043 -0.00400404349655 0)
(-0.000833221865398 -0.00301467053076 0)
(-0.00128986745868 -0.00128708974735 0)
(0.00880774372453 -0.00289742899075 0)
(0.00973920188287 -0.0098049839511 0)
(0.00971733327497 -0.0166999401339 -1.24319641035e-27)
(0.00958850565719 -0.0236008671216 0)
(0.00941003706323 -0.030377726286 0)
(0.00918955944816 -0.0370088844265 0)
(0.00893116973722 -0.0434670846613 0)
(0.00863942501232 -0.0497271776135 0)
(0.00831824533371 -0.0557669222998 0)
(0.0079723746836 -0.0615670660739 0)
(0.00760563302614 -0.0671115225066 0)
(0.00722264418943 -0.0723871634776 0)
(0.00682677998069 -0.0773838294302 0)
(0.00642223504752 -0.0820939927738 0)
(0.00601169668015 -0.0865126771888 0)
(0.00559876974423 -0.0906370633641 0)
(0.00518537409004 -0.09446638128 0)
(0.0047745046041 -0.0980015158098 0)
(0.00436735266157 -0.101244910165 0)
(0.00396637580441 -0.10420020763 0)
(0.00357214315476 -0.10687218667 0)
(0.00318668894541 -0.109266460272 0)
(0.0028100899281 -0.111389443558 0)
(0.00244407392966 -0.113248111449 0)
(0.00208834537251 -0.114849996103 0)
(0.00174442078389 -0.116202993782 0)
(0.00141172906581 -0.117315379679 0)
(0.00109164275618 -0.11819565837 0)
(0.000783383847621 -0.118852579091 0)
(0.000488219824235 -0.119295021806 0)
(0.000205215524647 -0.119532009516 0)
(-6.44499455933e-05 -0.119572603924 0)
(-0.000321866259123 -0.119425896432 0)
(-0.000565948538034 -0.119101081246 0)
(-0.000797868921818 -0.118607258313 0)
(-0.00101661824621 -0.117953467091 0)
(-0.00122346757727 -0.117148642499 0)
(-0.00141749758844 -0.116201602496 0)
(-0.00160004993109 -0.115120994963 0)
(-0.00177029271402 -0.113915307021 0)
(-0.0019296161822 -0.112592795324 0)
(-0.00207727255211 -0.111161519286 0)
(-0.00221467586587 -0.109629261533 0)
(-0.0023411542164 -0.108003579661 0)
(-0.00245812133157 -0.106291717643 0)
(-0.00256497327063 -0.104500680668 0)
(-0.00266309864797 -0.102637135552 0)
(-0.00275194952341 -0.100707506833 0)
(-0.00283286652369 -0.0987178741899 0)
(-0.00290534787949 -0.0966740785878 0)
(-0.00297066746106 -0.0945816214308 0)
(-0.00302835687425 -0.0924457795956 0)
(-0.00307960870408 -0.0902715066734 0)
(-0.0031239805871 -0.0880635530469 0)
(-0.00316257331839 -0.0858263702079 0)
(-0.00319496271101 -0.0835642317054 0)
(-0.00322215546211 -0.081281142198 0)
(-0.00324374212985 -0.0789809547223 0)
(-0.00326063736841 -0.0766672855485 0)
(-0.00327244625723 -0.0743436214579 0)
(-0.00328000034639 -0.0720132444234 0)
(-0.00328292226049 -0.0696793260694 0)
(-0.00328197317841 -0.0673448563504 0)
(-0.00327679879364 -0.0650127270139 0)
(-0.00326810617713 -0.0626856635778 0)
(-0.00325557164494 -0.0603663008409 0)
(-0.00323986474911 -0.058057111242 0)
(-0.00322069974195 -0.0557604692888 0)
(-0.00319872557908 -0.0534785904947 0)
(-0.00317370157561 -0.0512135746148 0)
(-0.00314626867108 -0.0489673559814 0)
(-0.00311623554402 -0.0467417330079 0)
(-0.00308424241867 -0.0445383222228 0)
(-0.00305015063147 -0.0423585846484 0)
(-0.00301460392762 -0.0402037794299 0)
(-0.00297751239698 -0.0380749897786 0)
(-0.00293952023115 -0.0359730785563 0)
(-0.00290058347574 -0.0338987169127 0)
(-0.00286133671158 -0.031852338732 0)
(-0.00282177240407 -0.0298341793228 0)
(-0.00278249945963 -0.0278442282644 0)
(-0.00274352687975 -0.0258822768423 0)
(-0.00270540835315 -0.0239478827995 0)
(-0.00266813407758 -0.0220404240646 0)
(-0.00263213481878 -0.020159075699 0)
(-0.00259727728169 -0.0183028907068 0)
(-0.00256366200305 -0.016470790125 0)
(-0.00253063794996 -0.0146616905752 0)
(-0.00249716763836 -0.0128744899652 0)
(-0.00246039349099 -0.0111081637121 0)
(-0.00241429077441 -0.00936144131357 0)
(-0.00234463134474 -0.00763312842187 0)
(-0.00221542637556 -0.00590204127931 0)
(-0.00206456786432 -0.00401204122143 0)
(-0.00253576614301 -0.00252399275328 0)
(-0.00301296063487 -0.000826236957324 0)
(0.015077583118 -0.00294324432055 0)
(0.0166949972263 -0.00996565633843 0)
(0.0166352074475 -0.016950716263 -1.241142994e-27)
(0.0164051832052 -0.0239521808997 0)
(0.016094682619 -0.0308259093572 0)
(0.0157136057741 -0.0375487779041 0)
(0.0152683262088 -0.0440924685215 0)
(0.0147659262519 -0.0504313059235 0)
(0.0142135634745 -0.0565427016244 0)
(0.0136188721954 -0.0624072934782 0)
(0.0129890431175 -0.0680090011916 0)
(0.012331412818 -0.0733348936539 0)
(0.0116524828836 -0.0783750725572 0)
(0.0109587168788 -0.0831224053663 0)
(0.0102555065732 -0.0875723153751 0)
(0.00954817073087 -0.0917224635338 0)
(0.00884085833689 -0.0955725150426 0)
(0.00813772524558 -0.0991238308341 0)
(0.00744175389124 -0.102379255727 0)
(0.00675607828575 -0.105342852889 0)
(0.00608270462768 -0.108019738669 0)
(0.00542395666542 -0.110415870093 0)
(0.00478108721609 -0.112537929411 0)
(0.00415582232418 -0.114393163887 0)
(0.00354886318946 -0.115989311276 0)
(0.00296151218421 -0.117334482974 0)
(0.00239407431295 -0.118437118048 0)
(0.00184755086083 -0.119305893575 0)
(0.0013219559488 -0.119949695991 0)
(0.000818065176546 -0.120377557628 0)
(0.000335663331879 -0.120598623814 0)
(-0.0001246616898 -0.120622112705 0)
(-0.000563311610196 -0.120457270224 0)
(-0.000979859519401 -0.120113350316 0)
(-0.00137488256962 -0.1195995666 0)
(-0.00174811534496 -0.118925066226 0)
(-0.0021002822218 -0.118098894801 0)
(-0.00243126336967 -0.117129971406 0)
(-0.00274191313388 -0.116027048666 0)
(-0.00303224532887 -0.114798701122 0)
(-0.00330322026324 -0.113453282387 0)
(-0.00355496544668 -0.111998924834 0)
(-0.00378851703049 -0.110443496323 0)
(-0.0040040926118 -0.108794610085 0)
(-0.00420277454367 -0.107059584828 0)
(-0.00438484513097 -0.105245461534 0)
(-0.00455139771009 -0.103358970138 0)
(-0.00470275192766 -0.101406557575 0)
(-0.00483998182322 -0.0993943499606 0)
(-0.00496341825926 -0.0973281945995 0)
(-0.00507408834473 -0.0952136306092 0)
(-0.00517231113575 -0.0930559291315 0)
(-0.00525904427767 -0.0908600679037 0)
(-0.00533457670545 -0.0886307844832 0)
(-0.0053997811751 -0.0863725484796 0)
(-0.00545490553482 -0.0840896141477 0)
(-0.00550073125905 -0.0817859998265 0)
(-0.00553745989063 -0.0794655375136 0)
(-0.00556578332162 -0.0771318556159 0)
(-0.00558586032796 -0.0747884236784 0)
(-0.00559830335626 -0.0724385366613 0)
(-0.00560323888304 -0.0700853534657 0)
(-0.00560121759554 -0.0677318816177 0)
(-0.0055923493066 -0.0653810073353 0)
(-0.00557714426845 -0.0630354804169 0)
(-0.00555571445334 -0.0606979360784 0)
(-0.00552855432376 -0.0583708766608 0)
(-0.0054957971537 -0.0560566862722 0)
(-0.00545794349164 -0.0537576129572 0)
(-0.00541516494975 -0.0514757741507 0)
(-0.00536798568313 -0.0492131361156 0)
(-0.00531662786521 -0.0469715211796 0)
(-0.00526165141783 -0.0447525795925 0)
(-0.00520333453726 -0.0425577900918 0)
(-0.00514227617772 -0.0403884482115 0)
(-0.00507880955421 -0.0382456508513 0)
(-0.00501356737391 -0.036130287139 0)
(-0.00494692908946 -0.0340430351156 0)
(-0.0048795471795 -0.0319843471241 0)
(-0.0048118286001 -0.0299544473178 0)
(-0.00474442280342 -0.0279533358918 0)
(-0.00467773569293 -0.0259807740056 0)
(-0.0046123708145 -0.0240362954296 0)
(-0.00454868074737 -0.022119210727 0)
(-0.00448714374321 -0.0202286046068 0)
(-0.00442793983664 -0.0183633469523 0)
(-0.00437122121547 -0.0165220673761 0)
(-0.00431666604797 -0.0147031041392 0)
(-0.00426353107957 -0.0129042951441 0)
(-0.00421002344171 -0.0111224679175 0)
(-0.00415296334427 -0.00935228702496 0)
(-0.0040866289633 -0.00758280588801 0)
(-0.00400179238988 -0.00578593943061 0)
(-0.00391162884104 -0.00388224907141 0)
(-0.0040188615046 -0.0020434304954 0)
(-0.00398835543179 -0.000558204863781 0)
(0.0214952641634 -0.00298843330715 0)
(0.02381938111 -0.0101155658278 0)
(0.0237309872996 -0.017195779886 1.24056445186e-27)
(0.0233977464612 -0.0242931275373 0)
(0.0229488459515 -0.0312573830173 0)
(0.0223987988439 -0.038063942478 0)
(0.0217570052917 -0.0446832994816 0)
(0.0210336031803 -0.0510890840323 0)
(0.0202391938091 -0.0572583479781 0)
(0.0193846878218 -0.0631716853823 0)
(0.0184807408947 -0.0688132074195 0)
(0.0175377352504 -0.0741703954748 0)
(0.0165652915641 -0.0792339005973 0)
(0.0155724167775 -0.0839972612265 0)
(0.0145670947443 -0.0884566147171 0)
(0.013556585849 -0.0926103715597 0)
(0.012547072503 -0.0964589206116 0)
(0.011544074359 -0.100004323319 0)
(0.0105521115067 -0.103250058575 0)
(0.00957519669674 -0.106200773183 0)
(0.00861648375299 -0.108862086081 0)
(0.0076788035888 -0.111240401955 0)
(0.00676427600212 -0.113342775301 0)
(0.00587486793842 -0.115176778059 0)
(0.00501195829099 -0.116750414326 0)
(0.00417690495682 -0.118072027596 0)
(0.00337056361483 -0.119150244784 0)
(0.00259386034697 -0.119993915953 0)
(0.00184727162904 -0.120612071213 0)
(0.0011313981599 -0.121013877081 0)
(0.000446415843395 -0.121208600529 0)
(-0.000207343769715 -0.121205574989 0)
(-0.000829960312246 -0.121014159809 0)
(-0.00142133987489 -0.120643701025 0)
(-0.00198179749091 -0.120103511259 0)
(-0.00251146810165 -0.119402832648 0)
(-0.00301087922675 -0.11855080067 0)
(-0.00348037255909 -0.117556418686 0)
(-0.00392066654586 -0.116428518571 0)
(-0.0043322862384 -0.11517574574 0)
(-0.00471611105076 -0.113806522527 0)
(-0.0050728175542 -0.112329033883 0)
(-0.00540340891892 -0.110751203131 0)
(-0.00570867525959 -0.109080674693 0)
(-0.00598970092976 -0.1073248019 0)
(-0.00624734928349 -0.105490646049 0)
(-0.00648274078581 -0.103584950619 0)
(-0.00669676912094 -0.101614160883 0)
(-0.00689055007803 -0.099584405131 0)
(-0.00706496812728 -0.0975015127335 0)
(-0.00722109453546 -0.0953710071506 0)
(-0.00735977059155 -0.0931981280682 0)
(-0.00748199238151 -0.0909878294705 0)
(-0.00758853007832 -0.0887448072146 0)
(-0.00768028219516 -0.0864734957213 0)
(-0.00775793146398 -0.0841781046489 0)
(-0.0078222701915 -0.0818626172982 0)
(-0.00787388811748 -0.0795308200695 0)
(-0.00791347089375 -0.0771863086772 0)
(-0.00794152178823 -0.0748325130393 0)
(-0.00795863432603 -0.072472702273 0)
(-0.00796524235513 -0.0701100053045 0)
(-0.00796187027946 -0.0677474139975 0)
(-0.00794890807528 -0.0653877971221 0)
(-0.00792683972269 -0.0630339010615 0)
(-0.00789604168073 -0.0606883585348 0)
(-0.00785699283444 -0.0583536798334 0)
(-0.00781008567464 -0.0560322579698 0)
(-0.00775582170406 -0.0537263610905 0)
(-0.00769463701621 -0.0514381258413 0)
(-0.00762708147652 -0.0491695474915 0)
(-0.00755365207216 -0.0469224717436 0)
(-0.00747496361416 -0.0446985807145 0)
(-0.00739158586793 -0.0424993858285 0)
(-0.00730420182343 -0.0403262073474 0)
(-0.00721345190525 -0.0381801692318 0)
(-0.0071200808273 -0.0360621859601 0)
(-0.0070247860821 -0.0339729522595 0)
(-0.00692835603269 -0.0319129342099 0)
(-0.00683152020255 -0.029882362313 0)
(-0.00673507839191 -0.0278812260405 0)
(-0.00663975819976 -0.0259092714219 0)
(-0.00654632224961 -0.0239659948096 0)
(-0.00645543581747 -0.022050652436 0)
(-0.00636775117655 -0.0201622325804 0)
(-0.00628377483068 -0.0182994688147 0)
(-0.00620391656078 -0.016460771737 0)
(-0.00612834804899 -0.0146441430689 0)
(-0.00605705658633 -0.0128470110084 0)
(-0.00598975981132 -0.0110657530174 0)
(-0.00592641763987 -0.00929515422141 0)
(-0.00586820504395 -0.00752691647781 0)
(-0.00582119264387 -0.00574809077774 0)
(-0.00580928621451 -0.00393877940204 0)
(-0.00589330110322 -0.0021762076822 0)
(-0.0054565632404 -0.00059569961284 0)
(0.0280193918641 -0.00304775653805 0)
(0.0310520321476 -0.0103126293435 0)
(0.0309324194877 -0.0175248723692 0)
(0.0304906369476 -0.0247510751618 0)
(0.0298960454372 -0.0318361741371 0)
(0.0291682672933 -0.0387538505221 0)
(0.028320166409 -0.0454731659527 0)
(0.0273654334209 -0.0519668384322 0)
(0.0263184248858 -0.0582114756203 0)
(0.0251937325028 -0.0641876530776 0)
(0.0240056622098 -0.0698798129331 0)
(0.0227679417537 -0.0752760552395 0)
(0.0214933593289 -0.080367853606 0)
(0.0201936607626 -0.0851497099628 0)
(0.0188793467935 -0.0896187916671 0)
(0.017559736367 -0.0937745611768 0)
(0.0162428803936 -0.0976184251073 0)
(0.0149357362985 -0.10115340687 0)
(0.0136441447979 -0.104383860275 0)
(0.0123730620677 -0.107315216265 0)
(0.0111265509502 -0.109953775559 0)
(0.00990802928245 -0.11230653052 0)
(0.00872024385779 -0.114381030481 0)
(0.00756550982589 -0.116185267887 0)
(0.00644565109191 -0.117727591341 0)
(0.00536221781521 -0.119016638807 0)
(0.00431639452121 -0.120061280301 0)
(0.00330919664567 -0.120870580811 0)
(0.00234134683365 -0.12145375354 0)
(0.0014134559539 -0.121820133956 0)
(0.000525878601046 -0.121979140805 0)
(-0.000321114456987 -0.121940257833 0)
(-0.00112749072675 -0.121712977802 0)
(-0.00189328692619 -0.121306782554 0)
(-0.00261876958531 -0.120731112074 0)
(-0.00330426854282 -0.119995333055 0)
(-0.0039503296239 -0.119108699895 0)
(-0.00455755249167 -0.118080325607 0)
(-0.00512673575403 -0.116919150969 0)
(-0.00565871591858 -0.115633910962 0)
(-0.0061545070107 -0.114233118876 0)
(-0.00661514000044 -0.112725026249 0)
(-0.0070417957803 -0.111117622932 0)
(-0.0074356498131 -0.10941860207 0)
(-0.00779799251931 -0.107635358664 0)
(-0.00813008746635 -0.105774974767 0)
(-0.00843328092854 -0.10384421214 0)
(-0.00870886718688 -0.101849515133 0)
(-0.00895819097992 -0.0997970007904 0)
(-0.00918252439856 -0.0976924771742 0)
(-0.00938316031951 -0.0955414393178 0)
(-0.00956130347191 -0.0933490859128 0)
(-0.00971815332813 -0.0911203274693 0)
(-0.00985481075845 -0.0888598042069 0)
(-0.00997235297419 -0.0865719018188 0)
(-0.0100717532911 -0.0842607651919 0)
(-0.0101539537454 -0.0819303233039 0)
(-0.010219795559 -0.079584302841 0)
(-0.0102700848653 -0.0772262472007 0)
(-0.0103055392177 -0.0748595347641 0)
(-0.0103268487754 -0.072487392473 0)
(-0.0103346309739 -0.0701129109415 0)
(-0.0103294897584 -0.0677390550399 0)
(-0.010311976828 -0.0653686722846 0)
(-0.0102826474786 -0.0630045013692 0)
(-0.0102420357777 -0.0606491726401 0)
(-0.0101906951939 -0.0583052001309 0)
(-0.0101291734734 -0.0559749950209 0)
(-0.0100580591741 -0.0536608486123 0)
(-0.00997795880201 -0.0513649271743 0)
(-0.00988953060829 -0.0490892618913 0)
(-0.00979345976213 -0.0468357369543 0)
(-0.00969049581006 -0.0446060773201 0)
(-0.00958142222529 -0.0424018327699 0)
(-0.00946708407016 -0.0402243653989 0)
(-0.00934835656255 -0.0380748351887 0)
(-0.00922617216411 -0.0359541914181 0)
(-0.00910148517014 -0.0338631552007 0)
(-0.00897529168163 -0.0318022111085 0)
(-0.00884859099106 -0.0297715993018 0)
(-0.00872240576379 -0.0277713078949 0)
(-0.00859774006894 -0.0258010672936 0)
(-0.00847559125796 -0.0238603492253 0)
(-0.00835690840824 -0.0219483517428 0)
(-0.00824260031523 -0.0200639995284 0)
(-0.00813349291602 -0.0182059201128 0)
(-0.00803034294137 -0.0163724133548 0)
(-0.0079338088132 -0.0145613807683 0)
(-0.00784453777221 -0.0127701942121 0)
(-0.00776333872866 -0.0109956012154 0)
(-0.00769156230244 -0.00923339629849 0)
(-0.00763223447798 -0.00747875495117 0)
(-0.00759175956854 -0.00572686864257 0)
(-0.00758195097263 -0.00397540030481 0)
(-0.00758921152894 -0.00227562017264 0)
(-0.00689337545427 -0.000655113595789 0)
(0.0346877617066 -0.00312293491147 0)
(0.0384398298615 -0.0105649037492 0)
(0.0382843803269 -0.0179485484355 0)
(0.0377260409048 -0.0253408317449 0)
(0.0369753831181 -0.0325809881787 0)
(0.0360576552778 -0.0396406119346 0)
(0.0349897266415 -0.0464870228435 0)
(0.0337894214279 -0.0530918404799 0)
(0.0324753418791 -0.0594311858705 0)
(0.0310662369162 -0.0654857020167 0)
(0.029580398965 -0.0712403634709 0)
(0.0280352144194 -0.0766841693652 0)
(0.0264467943222 -0.0818097529741 0)
(0.0248297727525 -0.0866129381006 0)
(0.0231971671069 -0.0910922898791 0)
(0.0215603815806 -0.0952486695872 0)
(0.019929228413 -0.0990848270114 0)
(0.0183120616391 -0.102605033919 0)
(0.0167158826104 -0.105814771087 0)
(0.0151465287171 -0.108720462116 0)
(0.0136088002153 -0.111329264837 0)
(0.0121066514987 -0.113648900218 0)
(0.0106432980786 -0.115687525299 0)
(0.00922138041637 -0.11745363848 0)
(0.00784303132656 -0.118956004388 0)
(0.00651000347004 -0.120203605545 0)
(0.00522369819583 -0.121205607245 0)
(0.0039852564282 -0.121971319245 0)
(0.0027955533164 -0.122510178321 0)
(0.00165526502589 -0.122831718249 0)
(0.000564841310043 -0.122945543158 0)
(-0.000475443245936 -0.122861319175 0)
(-0.00146552227102 -0.122588701479 0)
(-0.0024054918078 -0.122137341491 0)
(-0.00329565114834 -0.121516843608 0)
(-0.00413645501845 -0.120736729644 0)
(-0.00492855003548 -0.11980640639 0)
(-0.0056727259259 -0.118735125758 0)
(-0.00636994618617 -0.117531964582 0)
(-0.00702129600734 -0.116205775008 0)
(-0.0076280086446 -0.114765179791 0)
(-0.00819141107037 -0.113218526624 0)
(-0.00871294452769 -0.111573882348 0)
(-0.00919411350846 -0.109839006351 0)
(-0.00963649997456 -0.10802134207 0)
(-0.0100417140645 -0.106127999052 0)
(-0.0104114058329 -0.104165757453 0)
(-0.0107472202876 -0.102141059377 0)
(-0.0110508065313 -0.100060011317 0)
(-0.0113237758262 -0.0979283926848 0)
(-0.0115677110503 -0.0957516552562 0)
(-0.0117841320916 -0.0935349476776 0)
(-0.0119745042032 -0.0912831200677 0)
(-0.0121402112671 -0.0890007443612 0)
(-0.0122825636698 -0.0866921338388 0)
(-0.0124027791882 -0.0843613566153 0)
(-0.0125019949149 -0.0820122657643 0)
(-0.0125812563109 -0.0796485120393 0)
(-0.0126415297964 -0.0772735699259 0)
(-0.0126836987314 -0.0748907488925 0)
(-0.0127085836225 -0.0725032224741 0)
(-0.012716935094 -0.0701140300449 0)
(-0.0127094620765 -0.0677260988606 0)
(-0.0126868406821 -0.06534226401 0)
(-0.0126497182987 -0.0629652307455 0)
(-0.012598740757 -0.0605976327449 0)
(-0.0125345564237 -0.0582419967271 0)
(-0.0124578298977 -0.0559007594349 0)
(-0.0123692589442 -0.0535762388616 0)
(-0.0122695846138 -0.0512706427944 0)
(-0.0121595959756 -0.0489860500114 0)
(-0.0120401368057 -0.0467243961554 0)
(-0.0119121152137 -0.0444874563695 0)
(-0.0117765020317 -0.0422768379257 0)
(-0.0116343336243 -0.0400939607815 0)
(-0.0114867010876 -0.0379400323759 0)
(-0.0113347514509 -0.0358160442193 0)
(-0.011179679388 -0.0337227532439 0)
(-0.0110227230444 -0.0316606771299 0)
(-0.0108651414329 -0.0296300713044 0)
(-0.0107082103969 -0.0276309254918 0)
(-0.0105532083768 -0.0256629659335 0)
(-0.0104013983399 -0.0237256339177 0)
(-0.010254015143 -0.0218180912797 0)
(-0.0101122558399 -0.019939212753 0)
(-0.00997726510188 -0.0180875689305 0)
(-0.00985013878768 -0.016261405592 0)
(-0.00973194903732 -0.0144586308127 0)
(-0.00962381814915 -0.0126767349417 0)
(-0.00952714295622 -0.010912906132 0)
(-0.00944368135768 -0.00916386374637 0)
(-0.00937619610652 -0.00742651355599 0)
(-0.00932895162389 -0.00569898591582 0)
(-0.00930520581917 -0.00398101714929 0)
(-0.00926185976684 -0.00230914815089 0)
(-0.00833993306419 -0.000675210396271 0)
(0.0415373190692 -0.00321605331523 0)
(0.0460246311898 -0.0108781042437 0)
(0.0458269026652 -0.0184751430453 1.23093736297e-27)
(0.0451411490529 -0.0260735175064 0)
(0.0442206254436 -0.0335053444687 0)
(0.0430968816893 -0.0407395795654 0)
(0.0417915028956 -0.0477414379815 0)
(0.0403271768094 -0.0544812648879 0)
(0.038727413436 -0.0609347078833 0)
(0.037015709322 -0.0670826494291 0)
(0.0352148019299 -0.0729108946391 0)
(0.0333460938691 -0.0784097256912 0)
(0.03142923414 -0.0835733661668 0)
(0.029481878073 -0.0883994124736 0)
(0.0275195728841 -0.0928882630759 0)
(0.0255557761198 -0.0970425849466 0)
(0.0236019479311 -0.10086683484 0)
(0.0216677203307 -0.104366847702 0)
(0.019761085895 -0.107549492449 0)
(0.0178886220389 -0.110422401736 0)
(0.0160556951062 -0.112993758857 0)
(0.0142666716191 -0.115272142326 0)
(0.0125250914277 -0.117266416107 0)
(0.0108338315588 -0.118985654462 0)
(0.00919522682994 -0.120439090881 0)
(0.00761118524671 -0.121636095088 0)
(0.00608325262385 -0.12258615257 0)
(0.00461267909337 -0.12329885154 0)
(0.00320044668708 -0.123783872671 0)
(0.00184730142971 -0.124050975181 0)
(0.000553756152971 -0.124109976937 0)
(-0.000679897128867 -0.123970753361 0)
(-0.00185358101355 -0.123643155103 0)
(-0.00296743342773 -0.123137037637 0)
(-0.0040218124809 -0.122462200367 0)
(-0.00501728363071 -0.121628357573 0)
(-0.0059546229082 -0.120645097149 0)
(-0.0068347993562 -0.11952184856 0)
(-0.00765897333941 -0.118267846755 0)
(-0.00842847217807 -0.116892097048 0)
(-0.00914478147296 -0.115403351866 0)
(-0.00980952109287 -0.113810077908 0)
(-0.0104244310604 -0.112120439047 0)
(-0.0109913431934 -0.110342268717 0)
(-0.0115121660958 -0.10848306828 0)
(-0.0119888574963 -0.106549987617 0)
(-0.0124234071091 -0.10454982539 0)
(-0.0128178097298 -0.102489018396 0)
(-0.0131740497091 -0.100373656162 0)
(-0.0134940773663 -0.0982094792804 0)
(-0.0137797938292 -0.0960018912092 0)
(-0.0140330321776 -0.0937559749519 0)
(-0.0142555454243 -0.0914765002317 0)
(-0.0144489941278 -0.0891679545321 0)
(-0.0146149391996 -0.0868345586699 0)
(-0.0147548326362 -0.0844802835867 0)
(-0.0148700184011 -0.0821088878485 0)
(-0.0149617319792 -0.0797239225856 0)
(-0.015031104345 -0.077328775149 0)
(-0.0150791654368 -0.0749266727181 0)
(-0.0151068614779 -0.0725207127481 0)
(-0.0151150693799 -0.0701138954564 0)
(-0.0151045946982 -0.0677090728109 0)
(-0.015076210036 -0.0653090493176 0)
(-0.0150306545223 -0.0629165241369 0)
(-0.0149686572314 -0.0605341235998 0)
(-0.0148909613957 -0.0581644010311 0)
(-0.0147983288514 -0.0558098101029 0)
(-0.0146915615945 -0.0534727109134 0)
(-0.0145715206645 -0.051155367035 0)
(-0.0144391251533 -0.0488599153991 0)
(-0.0142953685769 -0.046588358712 0)
(-0.0141413230668 -0.0443425426987 0)
(-0.0139781396668 -0.0421241460814 0)
(-0.0138070486297 -0.0399346475538 0)
(-0.0136293623401 -0.0377753331935 0)
(-0.0134464565381 -0.0356472472417 0)
(-0.0132597712166 -0.0335511987727 0)
(-0.0130707949744 -0.0314877337368 0)
(-0.0128810579333 -0.0294571418207 0)
(-0.0126921093783 -0.0274594217404 0)
(-0.0125055090157 -0.0254942954094 0)
(-0.0123228084733 -0.0235611903759 0)
(-0.0121455329248 -0.0216592346295 0)
(-0.0119751774117 -0.0197872643305 0)
(-0.0118131952152 -0.0179438083791 0)
(-0.0116610040665 -0.0161270961122 0)
(-0.0115200034714 -0.0143350482997 0)
(-0.0113916346761 -0.0125652877023 0)
(-0.0112775135576 -0.0108152293711 0)
(-0.0111795077346 -0.0090822464546 0)
(-0.0110997247326 -0.00736383921648 0)
(-0.0110405648732 -0.0056584447662 0)
(-0.0110013297734 -0.00396482210892 0)
(-0.0109252234199 -0.00231221274645 0)
(-0.00981088846294 -0.000679436164074 0)
(0.0486090674715 -0.003329246782 0)
(0.0538515110834 -0.0112588645246 0)
(0.0536031378267 -0.0191151474167 -1.23028010207e-27)
(0.0527758894686 -0.0269631738312 0)
(0.0516676865874 -0.0346261540817 0)
(0.0503173274811 -0.0420697713558 0)
(0.0487520695287 -0.049256714455 0)
(0.0470004124325 -0.0561559131005 0)
(0.0450916384058 -0.0627426355716 0)
(0.0430547310732 -0.0689982949855 0)
(0.0409174494924 -0.0749099608396 0)
(0.0387056270211 -0.0804697192647 0)
(0.036442702098 -0.0856739498379 0)
(0.0341494653856 -0.0905225806618 0)
(0.0318439856682 -0.0950183736382 0)
(0.0295416838925 -0.0991662770849 0)
(0.0272555083484 -0.102972867012 0)
(0.0249961792248 -0.106445881126 0)
(0.0227724667235 -0.109593854764 0)
(0.0205914811684 -0.112425839408 0)
(0.018458949911 -0.114951203025 0)
(0.0163794767566 -0.117179493595 0)
(0.014356763346 -0.119120360892 0)
(0.0123937986466 -0.120783497939 0)
(0.0104930132674 -0.122178646026 0)
(0.00865639620812 -0.123315576235 0)
(0.00688557628 -0.124204110041 0)
(0.00518188098973 -0.124854123418 0)
(0.00354636812259 -0.125275557343 0)
(0.00197984614398 -0.125478411322 0)
(0.000482878518892 -0.125472738314 0)
(-0.00094422316568 -0.125268657318 0)
(-0.00230137655443 -0.124876235867 0)
(-0.0035887587806 -0.124305572146 0)
(-0.00480679666768 -0.123566692728 0)
(-0.00595616530617 -0.122669540441 0)
(-0.00703778565941 -0.121623922639 0)
(-0.00805281153756 -0.120439478194 0)
(-0.00900261976885 -0.119125635079 0)
(-0.00988878869205 -0.117691580341 0)
(-0.0107130830146 -0.116146225474 0)
(-0.0114774286198 -0.114498172282 0)
(-0.0121838909918 -0.112755699949 0)
(-0.01283464585 -0.110926736803 0)
(-0.0134319561209 -0.109018851705 0)
(-0.0139781430678 -0.107039234804 0)
(-0.0144755625324 -0.104994704121 0)
(-0.0149265755169 -0.102891696472 0)
(-0.0153335256592 -0.100736273243 0)
(-0.0156987163069 -0.0985341312037 0)
(-0.016024385707 -0.0962906043134 0)
(-0.0163126912005 -0.0940106962369 0)
(-0.0165656890402 -0.0916990796762 0)
(-0.01678532192 -0.0893601380937 0)
(-0.016973408441 -0.086997970225 0)
(-0.0171316359565 -0.0846164366015 0)
(-0.0172615564289 -0.0822191661904 0)
(-0.0173645896566 -0.0798095993059 0)
(-0.0174420201177 -0.0773910084449 0)
(-0.0174950203694 -0.0749665285349 0)
(-0.0175246578004 -0.0725391631623 0)
(-0.0175319049821 -0.0701118092898 0)
(-0.0175176610956 -0.06768729427 0)
(-0.0174827702086 -0.0652683708203 0)
(-0.0174280447453 -0.0628577266648 0)
(-0.017354287156 -0.0604579900575 0)
(-0.0172623103014 -0.0580717139368 0)
(-0.0171529640113 -0.0557014088018 0)
(-0.0170271414438 -0.05334947759 0)
(-0.0168858097039 -0.0510182504803 0)
(-0.0167300146531 -0.0487099465223 0)
(-0.0165608875093 -0.0464266387577 0)
(-0.0163796653214 -0.0441702739829 0)
(-0.0161876806584 -0.0419426144869 0)
(-0.0159863655242 -0.0397452320524 0)
(-0.015777249692 -0.0375794842656 0)
(-0.0155619512343 -0.0354464959686 0)
(-0.0153421620489 -0.0333471319637 0)
(-0.0151196447376 -0.0312820021188 0)
(-0.0148962069228 -0.029251419449 0)
(-0.0146736864882 -0.0272554045068 0)
(-0.0144539422802 -0.0252936849502 0)
(-0.01423882382 -0.0233656710257 0)
(-0.0140301643633 -0.0214704712802 0)
(-0.0138297608565 -0.0196068819323 0)
(-0.013639369042 -0.0177733936574 0)
(-0.0134607045041 -0.0159682090251 0)
(-0.0132954362798 -0.0141892370402 0)
(-0.0131452417037 -0.0124341638867 0)
(-0.0130118374452 -0.0107005091774 0)
(-0.0128970078487 -0.00898577444564 0)
(-0.0128025182119 -0.00728761507425 0)