/*--------------------------------*- C++ -*----------------------------------*\
| =========                 |                                                 |
| \\      /  F ield         | OpenFOAM: The Open Source CFD Toolbox           |
|  \\    /   O peration     | Version:  v1906                                 |
|   \\  /    A nd           | Web:      www.OpenFOAM.com                      |
|    \\/     M anipulation  |                                                 |
\*---------------------------------------------------------------------------*/
FoamFile
{
    version     2.0;
    format      ascii;
    class       surfaceScalarField;
    location    "522";
    object      phi;
}
// * * * * * * * * * * * * * * * * * * * * * * * * * * * * * * * * * * * * * //

dimensions      [0 3 -1 0 0 0 0];
oriented        oriented;


internalField   nonuniform List<scalar> 
18240
(
-0.000198881743164
0.000198849212011
-0.000407185265753
0.000208261539031
-0.000614082260005
0.000206865569344
-0.000817961255103
0.000203834728805
-0.00101774190679
0.000199751847173
-0.00121252106601
0.000194732835146
-0.00140144037451
0.000188893141227
-0.00158381337731
0.000182324790077
-0.0017589798432
0.000175143012348
-0.00192646757727
0.000167437832221
-0.00208581179674
0.00015932362132
-0.00223674314602
0.000150879959845
-0.00237897198596
0.000142211164595
-0.00251240328355
0.000133378638178
-0.00263688874332
0.0001244708355
-0.00275246992155
0.000115527484409
-0.00285910106501
0.00010661962217
-0.00295692113395
9.77656085257e-05
-0.00304594993232
8.90205076926e-05
-0.00312638877743
8.0383908082e-05
-0.0031982918004
7.18979987581e-05
-0.0032618941463
6.35472533476e-05
-0.00331726027574
5.53644804721e-05
-0.00336463792619
4.73227365367e-05
-0.00340408500201
3.94487938154e-05
-0.00343584710326
3.17077211591e-05
-0.0034599650666
2.4123100595e-05
-0.00347667355612
1.66549986205e-05
-0.00348599143998
9.32635173623e-06
-0.00348813877539
2.09510352215e-06
-0.00348311265243
-5.01436046792e-06
-0.00347111924957
-1.20440049543e-05
-0.00345213887549
-1.89655014836e-05
-0.00342637004735
-2.58174068864e-05
-0.00339378659052
-3.25656040773e-05
-0.00335458959567
-3.92431478258e-05
-0.00330876056574
-4.58084695209e-05
-0.00325651669262
-5.22871697816e-05
-0.00319786404957
-5.86295960249e-05
-0.00313305083112
-6.48532270722e-05
-0.00306212452841
-7.09011307347e-05
-0.00298537734079
-7.6783474626e-05
-0.00290291194385
-8.24384191005e-05
-0.00281507332951
-8.78707798737e-05
-0.00272202838349
-9.30165891495e-05
-0.00262417943001
-9.78766507659e-05
-0.00252176422155
-0.00010238583225
-0.00241524811746
-0.00010653912324
-0.00230495142219
-0.000110266736257
-0.00219141845899
-0.000113551307755
-0.00207507742253
-0.000116310884653
-0.00195658333108
-0.000118508048305
-0.00183650900969
-0.00012004442122
-0.00171565407772
-0.000120865048375
-0.00159475671522
-0.000120868116453
-0.00147475701691
-0.000120006661223
-0.00135651724127
-0.000118211551829
-0.00124103651253
-0.000115485020886
-0.00112918248217
-0.000111827013255
-0.00102187115417
-0.000107312922241
-0.000919825879494
-0.000102019529215
-0.000823737595254
-9.60870225456e-05
-0.000734059902811
-8.96533434298e-05
-0.000651152072684
-8.29041369915e-05
-0.000575124616703
-7.60049387101e-05
-0.000505987079796
-6.91325281387e-05
-0.000443550735169
-6.24161802533e-05
-0.000387573531331
-5.59720672719e-05
-0.000337687070989
-4.9868966644e-05
-0.000293513049657
-4.41692615864e-05
-0.000254594122331
-3.89038875099e-05
-0.000220487912752
-3.4101686976e-05
-0.000190712171203
-2.97626210224e-05
-0.000164827104872
-2.58806026967e-05
-0.000142390357715
-2.24252151138e-05
-0.000123019487352
-1.93665170613e-05
-0.000106345145497
-1.66642995426e-05
-9.20533847022e-05
-1.42876786425e-05
-7.98426580419e-05
-1.22020424089e-05
-6.94583395303e-05
-1.0380605958e-05
-6.06591582513e-05
-8.79166915498e-06
-5.32502969599e-05
-7.40551099929e-06
-4.70677214414e-05
-6.17603492373e-06
-4.20596713184e-05
-5.00508061486e-06
-3.80975821901e-05
-3.95635370246e-06
-3.45863012886e-05
-3.50811309245e-06
-3.13838091821e-05
-3.19683980044e-06
-2.86298815005e-05
-2.74994320759e-06
-2.59257997429e-05
-2.69770141268e-06
-2.3001851599e-05
-2.91855542632e-06
-2.00089207033e-05
-2.98504433284e-06
-1.69374397287e-05
-3.06406786948e-06
-1.34461030947e-05
-3.48271425157e-06
-9.28500664596e-06
-4.1504464282e-06
-4.50321736995e-06
-4.76747047802e-06
-4.49616697442e-06
-0.000210423050584
0.000409236161532
-0.00043338177207
0.000431179815139
-0.000654115613435
0.000427562083322
-0.00087137941872
0.00042105782852
-0.00108415742615
0.000412493293739
-0.00129150890178
0.000402043372282
-0.00149255276669
0.000389901323172
-0.00168653698529
0.00037626793441
-0.00187278993501
0.000361361325806
-0.00205078375295
0.000345390606591
-0.00222006380351
0.000328570220793
-0.00238031633518
0.000311091649022
-0.0025312810567
0.000293143783029
-0.00267282629986
0.000274883419021
-0.00280484796108
0.000256461875341
-0.00292735451622
0.000237994146317
-0.00304035498825
0.000219591129774
-0.00314395531825
0.000201326823667
-0.0032382372248
0.000183275256888
-0.00332336646607
0.000165475033789
-0.00339946372384
0.000147970096151
-0.00346672452051
0.00013077116991
-0.00352528279578
0.000113899745628
-0.00357534171784
9.73462497531e-05
-0.00361703043793
8.11168323817e-05
-0.00365054479663
6.51883790713e-05
-0.00367599781024
4.95578861289e-05
-0.00369356916057
3.41945775488e-05
-0.00370335013186
1.90916818789e-05
-0.00370550068226
4.2160243153e-06
-0.00370009013373
-1.04378888557e-05
-0.00368726100093
-2.49004302009e-05
-0.0036670657979
-3.91709440894e-05
-0.00363963598781
-5.32719817674e-05
-0.00360501714901
-6.71919151617e-05
-0.00356334165273
-8.09407025572e-05
-0.00351466302277
-9.44917726804e-05
-0.00345913029869
-0.000107839069648
-0.0033968227612
-0.000120939024089
-0.00332792346356
-0.000133768659862
-0.00325255523957
-0.000146268487321
-0.00317095055774
-0.000158401108714
-0.00308328990588
-0.000170095515131
-0.00298986533035
-0.000181305008213
-0.00289092302466
-0.00019195272246
-0.00278681908417
-0.000201986855937
-0.0026778696621
-0.000211326577487
-0.00256449935788
-0.000219912292279
-0.00244710368977
-0.00022765138789
-0.00232619190244
-0.000234462698515
-0.00220226572132
-0.000240223996027
-0.00207595637633
-0.000244814055315
-0.00194791758506
-0.000248068518376
-0.00181894888263
-0.000249827994112
-0.00168989003674
-0.000249911182142
-0.00156171444451
-0.000248174711808
-0.00143540875954
-0.000244500936107
-0.00131202908453
-0.000238855883415
-0.00119257129734
-0.000231268238358
-0.00107800778898
-0.000221866469664
-0.000969169972145
-0.000210840552442
-0.000866787782104
-0.000198457971847
-0.000771389308459
-0.000185034901933
-0.000683334998295
-0.000170946315529
-0.000602753687441
-0.000156569836436
-0.000529608880058
-0.000142265298541
-0.000463688203659
-0.00012832183922
-0.00040468765768
-0.000114961697962
-0.000352209413342
-0.000102334095195
-0.000305819549436
-9.05496234536e-05
-0.000265030143886
-7.9681878538e-05
-0.000229342731856
-6.97805799804e-05
-0.000198240139899
-6.08550160977e-05
-0.000171231704595
-5.28811794172e-05
-0.000147849112652
-4.57986420736e-05
-0.000127676014807
-3.95325104239e-05
-0.000110330106926
-3.40021546035e-05
-9.54743513423e-05
-2.91371389958e-05
-8.27972043923e-05
-2.48721570704e-05
-7.20229262993e-05
-2.11493237734e-05
-6.28963733115e-05
-1.79120639198e-05
-5.51891049555e-05
-1.51078254093e-05
-4.8676300558e-05
-1.26834333754e-05
-4.30906438247e-05
-1.05863530789e-05
-3.81872181426e-05
-8.85506669498e-06
-3.39547070799e-05
-7.73641503859e-06
-3.05604691882e-05
-6.58621347818e-06
-2.7763364183e-05
-5.54232630329e-06
-2.52081146349e-05
-5.24748138432e-06
-2.26254813587e-05
-5.49511484278e-06
-1.97662352352e-05
-5.83722038356e-06
-1.67034463005e-05
-6.11946020137e-06
-1.33943372505e-05
-6.78285597213e-06
-9.48632768656e-06
-8.04808165917e-06
-4.66162908907e-06
-9.57989234669e-06
-9.15111306653e-06
-0.000213287311555
0.000622486553312
-0.000438535383465
0.000656388666284
-0.000661743218044
0.000650730930285
-0.000881400145878
0.000640675203587
-0.00109641786515
0.000627472474306
-0.00130581075763
0.00061139684649
-0.00150868695406
0.000592739486051
-0.00170427447269
0.000571816322787
-0.00189191033589
0.000548959776008
-0.00207105913801
0.000524500731847
-0.00224128935965
0.000498763815768
-0.00240228778157
0.000472052009726
-0.00255382685262
0.000444647157853
-0.00269577851284
0.000416797802947
-0.00282807610372
0.000388724878723
-0.00295073050102
0.000360612228317
-0.00306378915364
0.000332616463997
-0.00316735639655
0.000304858906928
-0.00326155120176
0.000277438216222
-0.00334653247273
0.000250422501897
-0.00342245613263
0.000223863560433
-0.00348950542889
0.000197788234074
-0.00354784749249
0.000172213477537
-0.00359766823385
0.000147136536229
-0.00363912822002
0.000122550520754
-0.00367240161737
9.84333039002e-05
-0.00369763133021
7.47635274251e-05
-0.00371497146206
5.15084008047e-05
-0.00372454174118
2.86402489105e-05
-0.00372647312522
6.12343535116e-06
-0.003720861796
-1.60684190089e-05
-0.00370781755373
-3.79661636229e-05
-0.00368741779802
-5.95872975821e-05
-0.00365975845231
-8.09501972372e-05
-0.00362490833649
-0.000102055912682
-0.00358296213777
-0.000122903034117
-0.00353399541836
-0.000143469601069
-0.00347811880133
-0.000163728972875
-0.00341543353615
-0.000183632551721
-0.00334608552845
-0.000203127025659
-0.00327022089663
-0.000222138515075
-0.00318803810589
-0.000240591251958
-0.00309974290971
-0.000258393194476
-0.00300559698859
-0.000275455208339
-0.00290587228811
-0.000291676973065
-0.00280089587904
-0.000306964393737
-0.00269100566935
-0.000321213361361
-0.00257659365469
-0.000334322257578
-0.00245806748237
-0.000346171220404
-0.00233589663046
-0.000356628409581
-0.00221058517036
-0.000365526405003
-0.00208272381427
-0.000372667504357
-0.00195297325932
-0.000377807734403
-0.00182211447269
-0.000380676650663
-0.00169102634256
-0.000380986329151
-0.00156071002812
-0.000378479415909
-0.0014322346368
-0.000372962416167
-0.00130672011981
-0.000364357921912
-0.00118526033379
-0.000352713655167
-0.00106889130151
-0.00033822241245
-0.000958523408508
-0.000321193625882
-0.000854935957648
-0.000302031554043
-0.000758712484496
-0.000281243037736
-0.000670216398548
-0.00025942809597
-0.000589558924588
-0.000237212153866
-0.000516637069023
-0.000215173444026
-0.000451173909181
-0.000193771102465
-0.000392794738843
-0.000173328820851
-0.000341061209143
-0.000154055692102
-0.000295500757589
-0.000136099712742
-0.000255599416884
-0.00011957288596
-0.000220818512763
-0.000104552076951
-0.000190607627212
-9.10564647744e-05
-0.000164440255453
-7.90399094427e-05
-0.000141832643173
-6.83977084481e-05
-0.000122360967909
-5.8996554202e-05
-0.00010565096177
-5.0704725167e-05
-9.13696871719e-05
-4.34117358861e-05
-7.92126824775e-05
-3.70226561039e-05
-6.89050989855e-05
-3.14510329975e-05
-6.01957688721e-05
-2.66156534023e-05
-5.28561661274e-05
-2.24422037854e-05
-4.6670617246e-05
-1.88638561298e-05
-4.14191188525e-05
-1.58332503213e-05
-3.69352944694e-05
-1.33343312792e-05
-3.30613257268e-05
-1.16058218763e-05
-2.94854091396e-05
-1.01572032614e-05
-2.61626117167e-05
-8.8601251123e-06
-2.34937581171e-05
-7.9108616663e-06
-2.13302512146e-05
-7.65236805299e-06
-1.85391516091e-05
-8.621072875e-06
-1.51767584901e-05
-9.47424309853e-06
-1.166099128e-05
-1.0290822928e-05
-7.78739775983e-06
-1.19120402504e-05
-3.96965437862e-06
-1.33865180114e-05
-1.31153299978e-05
-0.000216719544508
0.000839168883499
-0.000445334223828
0.000884963494199
-0.000671832486896
0.000877189865459
-0.000894603426929
0.000863406575527
-0.0011124955019
0.000845325442918
-0.0013244753092
0.000823337419469
-0.00152962507817
0.000797850513551
-0.00172715555292
0.00076930796487
-0.00191640536425
0.000738171373376
-0.00209684447517
0.000704901559759
-0.00226806310915
0.000669944916361
-0.00242976820008
0.000633719526043
-0.00258176570956
0.000596607984303
-0.00272395421722
0.000558949610722
-0.00285630455191
0.000521039540414
-0.00297885391993
0.000483125946355
-0.00309168565127
0.000445413722058
-0.00319492590871
0.000408064754526
-0.00328872495863
0.000371204175184
-0.00337325721962
0.000334921791264
-0.00344870441559
0.00029927925683
-0.00351525888611
0.00026431137637
-0.00357310836896
0.000230033241949
-0.00362244209648
0.000196440777957
-0.00366343678334
0.000163517472014
-0.00369626499097
0.000131234059107
-0.00372108195201
9.95549025728e-05
-0.00373803580478
6.84370052363e-05
-0.00374725510086
3.78362753497e-05
-0.00374886073488
7.70617974597e-06
-0.0037429541756
-2.19958018886e-05
-0.00372963107084
-5.1309664542e-05
-0.00370897048915
-8.02661280735e-05
-0.00368105030821
-0.000108888161134
-0.00364593767439
-0.000137184127233
-0.00360370611935
-0.000165149660597
-0.00355442729106
-0.000192761251906
-0.00349818937975
-0.00021997916024
-0.00343508963573
-0.000246742302123
-0.00336525301563
-0.000272973058929
-0.00328882433328
-0.000298574322314
-0.00320598539696
-0.00032343666178
-0.00311694519487
-0.000347437566593
-0.00302195371118
-0.000370450123497
-0.00292128908548
-0.000392342690138
-0.00281526770334
-0.000412986017629
-0.00270422966151
-0.000432249278163
-0.00258854815315
-0.00045000069647
-0.00246861877664
-0.000466095183206
-0.00234487573551
-0.000480365117449
-0.00221779388031
-0.000492599774569
-0.00208791966514
-0.000502532413472
-0.00195588978331
-0.000509826607791
-0.00182247055642
-0.00051408422146
-0.00168857263159
-0.000514871493347
-0.00155526050499
-0.000511778437623
-0.00142371549243
-0.000504493705221
-0.00129518047454
-0.000492879311808
-0.00117088931694
-0.000476990590295
-0.00105199384234
-0.000457104080743
-0.000939505270963
-0.000433667622281
-0.000834301764471
-0.000407220445902
-0.000737052636835
-0.000378477102478
-0.000648143624358
-0.000348321959616
-0.000567640383723
-0.000317700639097
-0.000495327737531
-0.000287471633106
-0.000430800561534
-0.000258284971651
-0.000373573485749
-0.000230543557404
-0.000323144674055
-0.000204473230825
-0.000279001453295
-0.000180232607934
-0.000240592584998
-0.000157971841454
-0.000207323278009
-0.000137811884394
-0.000178580626428
-0.000119789844821
-0.000153782074804
-0.000103829583441
-0.000132415374536
-8.97560354359e-05
-0.000114055544043
-7.73487306231e-05
-9.83462561539e-05
-6.64069000763e-05
-8.49695276436e-05
-5.67818079872e-05
-7.36304005067e-05
-4.83555013511e-05
-6.40596482417e-05
-4.10159283033e-05
-5.60133580915e-05
-3.46563783858e-05
-4.92711212278e-05
-2.9179214196e-05
-4.36323069274e-05
-2.44977174282e-05
-3.8877466593e-05
-2.05833984905e-05
-3.48591783479e-05
-1.73480865521e-05
-3.11025075267e-05
-1.53576365471e-05
-2.76385137283e-05
-1.36160301772e-05
-2.46031452795e-05
-1.18900922139e-05
-2.15823374764e-05
-1.09258657116e-05
-1.84965073712e-05
-1.07318314708e-05
-1.61819543264e-05
-1.0928931546e-05
-1.30141370635e-05
-1.2634704412e-05
-9.29748632634e-06
-1.3999321245e-05
-6.13047901735e-06
-1.50711965035e-05
-3.16915296661e-06
-1.63387462518e-05
-1.62790706249e-05
-0.000221301434007
0.0010604327636
-0.000454601866264
0.00111822459598
-0.00068561091067
0.00110815903936
-0.000912621697628
0.00109037774609
-0.00113440866243
0.00106707290152
-0.00134988041265
0.00103876981166
-0.00155808266167
0.0010060136517
-0.00175820728513
0.000969393640582
-0.00194959339422
0.000929518877428
-0.00213172462984
0.000886994415637
-0.00230421912491
0.000842401469963
-0.00246681849063
0.000796281241701
-0.00261937165575
0.000749124028085
-0.00276182067828
0.000701361878804
-0.00289418324206
0.000653365978709
-0.00301653929279
0.000605446315339
-0.00312901527235
0.00055785474883
-0.00323177370474
0.000510788766537
-0.00332500044806
0.000464397337793
-0.00340889776718
0.000418786149162
-0.00348367459756
0.000374024071437
-0.0035495427151
0.000330148192008
-0.00360670942418
0.000287169704363
-0.00365537610814
0.000245078013991
-0.00369573263219
0.000203845699756
-0.00372795761471
0.000163431629738
-0.00375221402568
0.00012378514661
-0.00376865075226
8.48485197728e-05
-0.00377739913617
4.65607671089e-05
-0.00377857570813
8.85988493443e-06
-0.00377227972638
-2.83132577981e-05
-0.00375859723465
-6.5012548687e-05
-0.00373759989763
-0.000101282411767
-0.00370935069505
-0.00013715517235
-0.00367390443533
-0.00017264670309
-0.00363131530659
-0.000207753926352
-0.00358163917767
-0.000242450996364
-0.00352494280199
-0.00027668792847
-0.00346130738445
-0.000310388561914
-0.00339083835115
-0.000343451670053
-0.00331366861654
-0.000375752049666
-0.00322996677449
-0.000407145164072
-0.00313993757218
-0.000437471774591
-0.00304382582269
-0.00046656544462
-0.00294191175811
-0.00049425856199
-0.00283450931358
-0.00052038869704
-0.00272195691277
-0.000544800018242
-0.00260461344605
-0.000567340830051
-0.00248285151854
-0.000587851876383
-0.00235706228377
-0.000606147565761
-0.00222766596727
-0.000621987509413
-0.00209514219508
-0.000635046459644
-0.00196007036016
-0.000644887080638
-0.0018231861301
-0.000650956526004
-0.00168542711484
-0.000652617318515
-0.00154795525453
-0.000649236992453
-0.00141211743809
-0.000640317698245
-0.00127934741145
-0.000625635307344
-0.00115108906472
-0.000605235107909
-0.00102866160247
-0.000579517486216
-0.000913191277832
-0.000549123601363
-0.000805720184858
-0.000514676913797
-0.000707070966767
-0.000477110899995
-0.000617682999048
-0.000437695081626
-0.000537538530634
-0.000397829749115
-0.000466227216988
-0.000358768907555
-0.000403112713201
-0.000321385850975
-0.00034753964387
-0.000286104849305
-0.000298932190506
-0.000253069632915
-0.000256758260859
-0.00022239661251
-0.000220433301337
-0.000194287154919
-0.000189282468058
-0.000168953132729
-0.000162586302995
-0.000146476621535
-0.000139668694419
-0.000126738204573
-0.00011997275751
-0.000109443487766
-0.000103087026645
-9.42270626625e-05
-8.86994034978e-05
-8.07875080873e-05
-7.65226607597e-05
-6.89520165212e-05
-6.62712961816e-05
-5.86006612131e-05
-5.76822447811e-05
-4.95992104339e-05
-5.05210869093e-05
-4.18120843768e-05
-4.45816578903e-05
-3.51135511655e-05
-3.96963631353e-05
-2.93780733115e-05
-3.57526953092e-05
-2.45224196159e-05
-3.23025712451e-05
-2.07934878588e-05
-2.90461199626e-05
-1.86089521293e-05
-2.58429567885e-05
-1.68137344618e-05
-2.22313306198e-05
-1.54959490761e-05
-1.88905725785e-05
-1.42605723174e-05
-1.57870165702e-05
-1.38289523768e-05
-1.32238088531e-05
-1.34853828504e-05
-1.09555576274e-05
-1.4896076784e-05
-7.77833871404e-06
-1.71700507488e-05
-4.81456460887e-06
-1.80273506742e-05
-2.43357645293e-06
-1.871114858e-05
-1.87087405671e-05
-0.00022717635986
0.00128757139933
-0.000466548498534
0.00135755635387
-0.000703379144407
0.00134494976525
-0.000935839674148
0.00132279826521
-0.00116260942725
0.00129380291164
-0.00138252537336
0.00125864612294
-0.00159458755031
0.00121803642019
-0.00179796745335
0.00117273433629
-0.00199200764024
0.00112352014801
-0.00217621472508
0.0010711628637
-0.00235024607519
0.00101639455485
-0.00251389331033
0.000959890570338
-0.00266706295561
0.000902256226966
-0.00280975724079
0.000844019155452
-0.00294205466992
0.000785626949309
-0.00306409289246
0.000727448605277
-0.00317605261884
0.000669779192074
-0.00327814468799
0.00061284616882
-0.00337059832905
0.000556817060974
-0.00345365254839
0.000501807163627
-0.00352754825162
0.000447887423426
-0.0035925230793
0.000395091474012
-0.00364880633635
0.000343422366661
-0.00369661619298
0.000292858172644
-0.00373615641977
0.000243357274489
-0.00376761508206
0.000194862616426
-0.00379116238009
0.000147305896769
-0.00380695032945
0.000100610971522
-0.00381511141082
5.46975544788e-05
-0.00381575913529
9.4844275234e-06
-0.00380898760368
-3.51067021269e-05
-0.00379487325722
-7.91476396908e-05
-0.00377347579276
-0.000122699294141
-0.00374484164161
-0.0001658075317
-0.00370900686587
-0.000208498317277
-0.00366600289996
-0.000250773486203
-0.00361586179659
-0.000292606284693
-0.00355862428401
-0.000333938350868
-0.00349434693188
-0.000374677374435
-0.00342311141922
-0.000414697318933
-0.00334503173862
-0.000453840350583
-0.00326026188763
-0.000491922224222
-0.00316899952507
-0.000528739715267
-0.00307148792793
-0.000564081062131
-0.00296801195659
-0.000597736749857
-0.002858891021
-0.000629510076847
-0.00274446635036
-0.000659223173277
-0.00262508763116
-0.000686716173222
-0.00250109984447
-0.000711834454336
-0.00237283879518
-0.000734401574401
-0.00224064119808
-0.000754176735472
-0.00210487854101
-0.000770798896337
-0.00196602202178
-0.000783732863753
-0.00182473200957
-0.000792233982863
-0.00168195867957
-0.000795378133008
-0.00153899760656
-0.00079218460756
-0.00139745025334
-0.000781851465429
-0.00125902479381
-0.000764047380694
-0.0011254903746
-0.000738755586694
-0.000998390638385
-0.00070660381497
-0.00087891551074
-0.000668584613584
-0.000768380913699
-0.000625196557828
-0.000667906940884
-0.000577570261776
-0.000578048154111
-0.000527538058669
-0.000498648148491
-0.000477215548613
-0.00042894179987
-0.00042846033075
-0.000367878748878
-0.000382436269116
-0.000314536984614
-0.000339434763187
-0.00026829434132
-0.000299301824258
-0.000228676569487
-0.00026200485814
-0.00019510163185
-0.000227852508469
-0.000166775266152
-0.000197269840063
-0.000142791105979
-0.000170451339868
-0.000122309317864
-0.00014721046226
-0.000104704903384
-0.000127039688193
-8.96163915704e-05
-0.000109308000922
-7.68407513757e-05
-9.35565445777e-05
-6.61464398756e-05
-7.96396393408e-05
-5.7244777785e-05
-6.74961952467e-05
-4.98712409434e-05
-5.69669802849e-05
-4.37987018544e-05
-4.78792844205e-05
-3.88218429722e-05
-4.00853910212e-05
-3.47709313849e-05
-3.34241804021e-05
-3.15004192531e-05
-2.77882518486e-05
-2.83222300811e-05
-2.39668221673e-05
-2.52802491772e-05
-2.1645770033e-05
-2.25392827377e-05
-1.95490879227e-05
-1.9999780938e-05
-1.802946475e-05
-1.6993427221e-05
-1.7260362739e-05
-1.38476148745e-05
-1.69680955364e-05
-1.05781568063e-05
-1.67488360606e-05
-8.38825590949e-06
-1.70798841049e-05
-6.49474341587e-06
-1.90566211929e-05
-4.01670321289e-06
-2.04992749238e-05
-2.00827662374e-06
-2.07130572227e-05
-2.07129719693e-05
-0.000234491085912
0.00152202433956
-0.000481434205157
0.00160445964421
-0.000725507612036
0.00158898265702
-0.000964721173152
0.00156197164648
-0.00119763319295
0.00152667478955
-0.00142299153062
0.00148396452886
-0.00163974209539
0.00143474722815
-0.00184703595219
0.00137998866754
-0.00204422599051
0.00132067092206
-0.00223085460773
0.00125775252056
-0.00240663474162
0.00119213607232
-0.00257142691361
0.00112464451129
-0.0027252144009
0.00105600590888
-0.00286807867169
0.000986846094009
-0.00300017628755
0.000917687747003
-0.00312171841906
0.000848954483714
-0.00323295320935
0.00078097833515
-0.00333415132188
0.000714009297281
-0.00342559427371
0.000648225732299
-0.00350756547067
0.00058374484124
-0.0035803432926
0.00052063252495
-0.00364419606066
0.000458912380301
-0.00369937823271
0.000398573569425
-0.00374612774396
0.000339577662861
-0.00378466393778
0.000281864423196
-0.00381518614663
0.000225356811443
-0.00383787248872
0.000169965277511
-0.00385287908012
0.00011559170464
-0.00386033935068
6.21330829849e-05
-0.0038603638023
9.48530591514e-06
-0.00385304003062
-4.24528712169e-05
-0.00383843348455
-9.37753594647e-05
-0.00381658884495
-0.000144563888801
-0.0037875326101
-0.000194882451819
-0.0037512768325
-0.000244771527082
-0.00370782447154
-0.000294241971447
-0.00365717626926
-0.000343269328351
-0.00359933932104
-0.000391788783935
-0.00353433696145
-0.000439691888298
-0.00346221954217
-0.000486825460682
-0.00338307518884
-0.000532994004601
-0.0032970392872
-0.000577965863217
-0.00320430116526
-0.000621483990767
-0.00310510609508
-0.000663280516275
-0.00299975101392
-0.000703094362294
-0.0028885727015
-0.00074068894126
-0.00277192827507
-0.000775866143054
-0.00265016996584
-0.000808471151895
-0.00252361815851
-0.000838380889056
-0.00239254232877
-0.000865470772124
-0.00225715932682
-0.000889550961634
-0.00211767133316
-0.000910277735492
-0.00197435143694
-0.00092704129161
-0.00182769832604
-0.000938875761344
-0.00167862327092
-0.000944440413511
-0.00152860432744
-0.00094219078756
-0.00137965756899
-0.000930785523118
-0.00123385274324
-0.000909838657796
-0.00109351651522
-0.00087907915627
-0.000960486135678
-0.000839621003149
-0.000835731734742
-0.000793324903494
-0.000721075110553
-0.000739839346697
-0.000618248377022
-0.000680381232381
-0.000528062754261
-0.000617709790047
-0.000450119504434
-0.000555143360068
-0.00038300828383
-0.000495558026476
-0.000324887017804
-0.000440544492986
-0.000274417343213
-0.000389893331831
-0.000231047581965
-0.000342661809001
-0.000194578247478
-0.00029846503607
-0.000164530448781
-0.000257891213906
-0.000139908125109
-0.000221882649242
-0.000119454369482
-0.000190895031162
-0.000102030802633
-0.000164624926182
-8.68989516582e-05
-0.000142162497714
-7.38387438736e-05
-0.000122361447127
-6.29082084859e-05
-0.000104480040105
-5.39740324527e-05
-8.85672476161e-05
-4.66840810982e-05
-7.47796914033e-05
-4.0754806901e-05
-6.28905475315e-05
-3.59746741408e-05
-5.2653976528e-05
-3.21306003348e-05
-4.39246176353e-05
-2.90533292852e-05
-3.64966311383e-05
-2.66042057893e-05
-3.02326452812e-05
-2.40244528612e-05
-2.65416613624e-05
-2.17057341129e-05
-2.3959067146e-05
-1.91799590294e-05
-2.20691199107e-05
-1.66866980335e-05
-2.05165309122e-05
-1.40508447285e-05
-1.98898241459e-05
-1.16958438553e-05
-1.93167722555e-05
-8.98817658228e-06
-1.94501826104e-05
-6.42347089406e-06
-1.96389049823e-05
-5.10250660786e-06
-2.03729332198e-05
-3.31253080553e-06
-2.22832171852e-05
-1.65277010325e-06
-2.23663276285e-05
-2.23630198029e-05
-0.00024341955279
0.00176540555422
-0.000499598395585
0.00186059736376
-0.000752481051272
0.0018418247286
-0.000999871212801
0.00180932110172
-0.00124017328351
0.00176693642138
-0.00147202661229
0.00171577752747
-0.00169431498396
0.00165699547805
-0.00190617212549
0.0015918058963
-0.00210697307603
0.00152143222715
-0.00229631454558
0.00144705463737
-0.00247398754461
0.00136977006645
-0.00263994598054
0.00129056431776
-0.00279427414855
0.0012102958825
-0.00293715570829
0.0011296899198
-0.00306884563347
0.00104934046441
-0.0031896462707
0.000969718464943
-0.00329988762573
0.000891183657496
-0.00339991196865
0.000813998253729
-0.00349006208565
0.000738341184258
-0.00357067283789
0.000664321670846
-0.00364206511858
0.000591991702342
-0.00370454187433
0.000521356866641
-0.00375838535397
0.000452385689993
-0.00380385544672
0.000385017315598
-0.00384118843227
0.000319167963237
-0.00387059622112
0.00025473614824
-0.00389226554797
0.000191607220381
-0.00390635740164
0.000129657233453
-0.00391300627471
6.8756763977e-05
-0.00391231971997
8.77467338787e-06
-0.00390437792306
-5.0417555055e-05
-0.00388923402201
-0.00010894098764
-0.00386691491895
-0.000166903482152
-0.003837423558
-0.000224393110513
-0.00380074243805
-0.000281470668645
-0.00375683935459
-0.000338161850995
-0.00370567500831
-0.000394449145284
-0.00364721330334
-0.000450264683013
-0.00358143347397
-0.000505484506887
-0.00350834428815
-0.000559926056891
-0.00342799852714
-0.000613349634356
-0.00334050690765
-0.000665465793269
-0.00324604842549
-0.000715949017359
-0.00314487511708
-0.000764458493083
-0.00303730764078
-0.000810664503931
-0.00292371942333
-0.000854277699633
-0.00280450784855
-0.000895076345853
-0.00268005259813
-0.000932922829602
-0.00255066741683
-0.000967761242362
-0.00241655154884
-0.000999579526746
-0.00227776547453
-0.0010283295595
-0.00213424926396
-0.00105378391296
-0.0019859362421
-0.00107534458617
-0.00183298308606
-0.00109181712697
-0.00167613945419
-0.00110127241244
-0.00151711639048
-0.00110120207109
-0.0013586976644
-0.00108919181143
-0.00120330093965
-0.0010652239896
-0.00105437113199
-0.00102799671425
-0.000914195599916
-0.000979784040816
-0.000782457419136
-0.000925050274166
-0.000662084689378
-0.000860197025889
-0.000556154356767
-0.000786298009691
-0.000466008668624
-0.000707839686089
-0.000390839710031
-0.00063029859623
-0.000328029580148
-0.000558353376742
-0.000274135663996
-0.00049442591652
-0.000227148535325
-0.000436869999715
-0.000186941464991
-0.000382859317924
-0.000154125521891
-0.000331272987234
-0.000128559554219
-0.000283448457093
-0.000108841979353
-0.000241590330464
-9.30167476066e-05
-0.000206710993606
-7.93785296629e-05
-0.000178252413166
-6.69875614138e-05
-0.00015454560338
-5.59636119956e-05
-0.000133377596363
-4.70093547661e-05
-0.000113428039002
-4.01479578324e-05
-9.54212030964e-05
-3.47521986385e-05
-8.01691371005e-05
-3.04868810378e-05
-6.71495793783e-05
-2.72073406304e-05
-5.59282479156e-05
-2.46632938596e-05
-4.64636207544e-05
-2.2679383436e-05
-3.84757320743e-05
-2.10368524137e-05
-3.18703288121e-05
-1.93002618649e-05
-2.82730103236e-05
-1.76866467647e-05
-2.55670483733e-05
-1.5892263408e-05
-2.38575027118e-05
-1.36854063587e-05
-2.27170792066e-05
-1.1534759517e-05
-2.20340449697e-05
-9.18429326915e-06
-2.16610227616e-05
-7.45041274972e-06
-2.11785237726e-05
-5.46081338314e-06
-2.16232992481e-05
-3.88651145766e-06
-2.1941587685e-05
-2.77944349637e-06
-2.33858994306e-05
-1.35430498733e-06
-2.37867719073e-05
-2.37140150208e-05
-0.00025418331538
0.00201954997349
-0.000521477564086
0.00212785108401
-0.000784925935636
0.0021052317798
-0.00104206780884
0.00206642202019
-0.00129111610708
0.00201594377511
-0.00153057934196
0.00195520003037
-0.00175927327994
0.00188564884377
-0.00197632221787
0.00180881449071
-0.0021811424149
0.0017262123292
-0.00237341154904
0.00163928397909
-0.00255302957739
0.00154934863418
-0.00272007578796
0.00145757145587
-0.00287476625789
0.00136494769599
-0.00301741463564
0.00127230012069
-0.00314839825383
0.00118028641136
-0.00326813028843
0.00108941340379
-0.00337703816746
0.00100005503995
-0.00347554753118
0.000912471795228
-0.00356407109451
0.000826829620551
-0.00364300122977
0.000743217450724
-0.00371270553516
0.000661662440186
-0.00377352430329
0.000582142931359
-0.00382576942418
0.00050459898182
-0.00386972391561
0.000428940925626
-0.00390564192144
0.000355056038176
-0.00393374861246
0.000282813929992
-0.0039542400627
0.000212070778702
-0.00396728271456