/*--------------------------------*- C++ -*----------------------------------*\
| =========                 |                                                 |
| \\      /  F ield         | OpenFOAM: The Open Source CFD Toolbox           |
|  \\    /   O peration     | Version:  v1906                                 |
|   \\  /    A nd           | Web:      www.OpenFOAM.com                      |
|    \\/     M anipulation  |                                                 |
\*---------------------------------------------------------------------------*/
FoamFile
{
    version     2.0;
    format      ascii;
    class       volScalarField;
    location    "4";
    object      p;
}
// * * * * * * * * * * * * * * * * * * * * * * * * * * * * * * * * * * * * * //

dimensions      [0 2 -2 0 0 0 0];


internalField   nonuniform List<scalar> 
9216
(
17.646169544
18.3367317288
19.2745269497
20.3441590633
21.5098537286
22.7845750245
24.1815648152
25.7266693356
27.4301183359
29.3144280529
31.3819315632
33.6510011757
36.1167980126
38.7945027747
41.6733173731
44.7661058911
48.0571465801
51.5576300235
55.2478124168
59.1377122927
63.2043352071
67.4569159815
71.8699262057
76.4521522461
81.1761588574
86.0505585074
91.0466031458
96.1729851073
101.400153672
106.737089955
112.153896525
117.660000133
123.227873641
128.87193245
134.563383726
140.313735148
146.095705192
151.922493349
157.765131716
163.632095586
169.491477162
175.35236191
181.184707669
186.999204731
192.767694063
198.502108789
204.175995754
209.80215286
215.355663224
220.8498558
226.261261977
231.603487357
236.854445546
242.027800443
247.102830504
252.093089883
256.979196526
261.774440902
266.460780093
271.051120325
275.528738176
279.906041067
284.167621166
288.325298334
292.36495561
296.297740007
300.110812398
303.814582576
307.39745671
310.869045389
314.218975616
317.456013679
320.570964284
323.571706725
326.450183478
329.213358798
331.854254322
334.378895969
336.7813238
339.066616235
341.229752602
343.274861829
345.197780287
347.001699868
348.683226671
350.244639274
351.683227192
353.000379665
354.193937153
355.26438367
356.209885621
357.030006495
357.723199204
358.288559534
358.721484489
359.0038433
16.8747446384
17.5523509532
18.4802997117
19.5448157081
20.7116748164
21.9920765892
23.4022875601
24.9635145052
26.6894154757
28.5966580772
30.6923627635
32.988170085
35.4853791974
38.1915603251
41.103249414
44.2248344126
47.5489933016
51.0776433375
54.8003622286
58.7171720604
62.815201914
67.0930667916
71.5360247646
76.1417055964
80.8940143772
85.789973349
90.8126058571
95.958666376
101.210729807
106.565616218
112.00590606
117.528933164
123.118824551
128.775790479
134.48359372
140.242199595
146.039199193
151.877096028
157.738918584
163.618654938
169.49632724
175.368188817
181.216831313
187.040493019
192.823575968
198.565735229
204.252836354
209.885607839
215.451159811
220.951042172
226.373460629
231.720593117
236.981634
242.159236937
247.243508756
252.237455305
257.132034498
261.93050056
266.624613891
271.217788235
275.702541025
280.082367424
284.350502731
288.510455141
292.556137807
296.491010595
300.309628647
304.015349399
307.603331561
311.07678065
314.431423104
317.67026833
320.789570338
323.792100877
326.674601866
329.439570019
332.084189653
334.610647209
337.016522662
339.303660996
341.469984421
343.516967452
345.442821206
347.248628152
348.9328374
350.496126699
351.937136708
353.256121931
354.451830639
355.524019972
356.471381144
357.293055369
357.987688201
358.554374001
358.98806014
359.27522438
15.6354169748
16.3001243176
17.2112819272
18.2596331961
19.419578739
20.703664242
22.1291913034
23.7141222832
25.4723457287
27.4167387103
29.5554867844
31.8963993079
34.4426964475
37.1980130542
40.1615234669
43.3335199964
46.7099175999
50.288354617
54.0621517004
58.0268710052
62.1738017215
66.4969239403
70.9859970713
75.6338583939
80.4291809425
85.364052646
90.4264715892
95.6081403436
100.896757968
106.283992954
111.75764289
117.309782033
122.929014213
128.609423091
134.337622484
140.110209655
145.926161424
151.784571874
157.672720879
163.576494783
169.480039306
175.373801661
181.245612818
187.088448571
192.892077271
198.651009789
204.356389662
210.003878811
215.585730537
221.098533563
226.535488173
231.893951169
237.167942991
242.355462031
247.451256616
252.453866471
257.358685769
262.164709068
266.867913515
271.467676154
275.960495493
280.346065205
284.621356079
288.786321471
292.838353491
296.777611849
300.601868354
304.311441902
307.904439305
311.38129339
314.74040798
317.982288359
321.105593202
324.1108591
326.996961405
329.764428817
332.412310528
334.94108797
337.349943516
339.639272953
341.808346752
343.857436754
345.785859282
347.593729181
349.280370893
350.845718914
352.28907489
353.610161617
354.808195015
355.882589823
356.832328945
357.656388236
358.353581599
358.923223363
359.361205413
359.655441288
13.9470233246
14.5946357111
15.4910000405
16.5291817996
17.6909745264
18.9903468925
20.4441546583
22.0679353841
23.8741719542
25.8731809233
28.0722440915
30.4769297332
33.090117838
35.9134728347
38.946292525
42.1870938765
45.632296669
49.2779071996
53.1180553034
57.1467677033
61.3563851508
65.7394144258
70.2868451337
74.9900698798
79.8391231401
84.8246551865
89.9361068255
95.1637248916
100.496690554
105.925163343
111.438371139
117.026693168
122.679948706
128.39100765
134.142979202
139.932215742
145.769326933
151.65480745
157.575060136
163.510883688
169.446326563
175.369610464
181.269894117
187.138627945
192.967194063
198.748707552
204.475921268
210.143115996
215.744103892
221.274107962
226.727829358
232.101286342
237.38994636
242.590510307
247.699113369
252.713044917
257.629025613
262.444854815
267.157768206
271.766005861
276.267256475
280.660140707
284.942745112
289.11401595
293.172387167
297.117081503
300.946834346
304.661098892
308.258868468
311.739784273
315.103056797
318.348474114
321.47542341
324.483799854
327.373127853
330.143369889
332.794147093
335.325449693
337.736955375
340.028642071
342.200202341
344.251561795
346.182388159
347.992519589
349.681565963
351.249253716
352.695109837
354.018717794
355.219465952
356.296700955
357.249545796
358.076979893
358.778009232
359.35224015
359.795798646
360.09480221
11.81902925
12.4506292315
13.3380931148
14.3764432377
15.5528069148
16.881726259
18.3787910996
20.057325674
21.9278525108
23.9984950422
26.274937795
28.7609327506
31.4582095177
34.366986648
37.4858166997
40.812093656
44.3418350051
48.0701871823
51.9911555949
56.0981113341
60.3834803547
64.8392579075
69.4566684803
74.2266879269
79.1396803401
84.1859283693
89.3552520494
94.6375409575
100.022354597
105.49945107
111.058363251
116.688951419
122.381338964
128.128572592
133.909877103
139.719867273
145.580820858
151.499153624
157.457583844
163.432416274
169.406029529
175.365361799
181.299642474
187.199905147
193.058000952
198.866798182
204.619565782
210.310346722
215.933443293
221.483826514
226.956657583
232.347695731
237.652841156
242.868534461
247.991320224
253.018232093
257.94637664
262.773303967
267.496613327
272.114305131
276.624408318
281.025314316
285.315427381
289.49347727
293.558192469
297.508592566
301.343685158
305.062735388
308.66498626
312.149906487
315.516934525
318.765702737
321.895804696
324.906996919
327.798989432
330.571623809
333.224686547
335.758064843
338.171582503
340.4651326
342.638535694
344.691650885
346.624257255
348.436145287
350.12702186
351.696586534
353.144452443
354.470199812
355.673300692
356.753125117
357.708884947
358.53965771
359.24458586
359.823398124
360.272080594
360.574263208
9.25269298735
9.87220050906
10.7593877267
11.8102425131
13.0155308508
14.3895007483
15.9459778378
17.6960130106
19.6479173083
21.8076348976
24.1789468518
26.7637997222
29.5624385515
32.573688978
35.7950353786
39.2228639408
42.8524949268
46.6783938081
50.6941688562
54.8927626831
59.2664294276
63.8069162599
68.505428974
73.3528100935
78.3394988705
83.4557061409
88.6913681411
94.03631559
99.4802182991
105.012739849
110.623467687
116.302120446
122.039091499
127.827532329
133.643790146
139.479371361
145.368003537
151.32495001
157.327721129
163.348020901
169.365971315
175.367345771
181.341065041
187.278000085
193.170179027
199.01052606
204.792564354
210.510409642
216.158604525
221.732173452
227.226491099
232.637350365
237.960843234
243.19343028
248.331829105
253.373082967
258.314456622
263.15350276
267.887964516
272.515839145
277.035287493
281.44469417
285.742583381
289.927675225
293.998808085
297.954990684
301.795330487
305.519081239
309.125577426
312.614277116
315.984701924
319.236474874
322.369265753
325.382824011
328.276929095
331.051418258
333.706141829
336.240986208
338.655833845
340.950581119
343.125103334
345.179267821
347.112905417
348.9258209
350.61777194
352.188480433
353.63761254
354.96478284
356.169521162
357.251253342
358.209270276
359.042710926
359.750828426
360.333424401
360.786109446
361.090080885
6.24440361747
6.85732898737
7.75440143573
8.83131338308
10.0809871711
11.5166564502
13.1499777125
14.9895235488
17.0411614126
19.308488125
21.7931506971
24.4951423953
27.4130207161
30.5441232797
33.8847159049
37.4301462723
41.1749370091
45.1128950844
49.237169185
53.540334228
58.0144303084
62.6510382254
67.4413120525
72.3760536221
77.4457430185
82.6406139598
87.9506816708
93.3658148504
98.8757552489
104.470180294
110.138718458
115.871139035
121.658414811
127.492812037
133.348752006
139.215198093
145.136659168
151.138184315
157.191449268
163.263390019
169.331601308
175.380643559
181.398989896
187.377398877
193.308003139
199.183869942
204.998729314
210.746866931
216.423023431
222.022371391
227.540457353
232.973197804
238.316832327
243.567924633
248.723320602
253.780150857
258.735792186
263.587871531
268.334230674
272.97293065
277.502219175
281.920535659
286.226481318
290.418823935
294.496470227
298.458470589
302.303993641
306.032330241
309.642869811
313.135103845
316.508603851
319.763023703
322.898078847
325.913547707
328.809252087
331.585057221
334.240853247
336.77655423
339.192080773
341.487357453
343.662296996
345.716796348
347.650724123
349.4639173
351.156173258
352.727250908
354.176860214
355.504660052
356.710234567
357.793060588
358.752488272
359.587745711
360.298129763
360.883399675
361.33892688
361.643691181
2.78409224103
3.3968081565
4.31511654149
5.43280055488
6.74366387202
8.25923197081
9.98857500192
11.9374644884
14.109004366
16.5041679901
19.1221889234
21.9608966417
25.0169601665
28.2861082198
31.7632728391
35.442723232
39.3181389549
43.3826869459
47.6290551226
52.049501617
56.6358744835
61.379653091
66.2719686527
71.3036478998
76.465239962
81.7470630678
87.1392356792
92.6317222075
98.2143628045
103.876911662
109.609085809
115.400834491
121.244064934
127.128832552
133.028397386
138.931867339
144.892612434
150.944486599
157.054314126
163.183869679
169.30802997
175.410062249
181.477941463
187.502318006
193.475426601
199.390510729
205.241518704
211.022945827
216.729744512
222.357274317
227.901264576
233.357789954
238.723245678
243.994329193
249.168019314
254.241560295
259.212443595
264.078393497
268.83735099
273.487460744
278.027057007
282.454651572
286.768921282
290.968696817
295.052951654
299.020791422
302.87144392
306.604248907
310.218648971
313.71417955
317.090460271
320.347185007
323.484113481
326.501061231
329.397891247
332.17450381
334.830828158
337.366812232
339.782414368
342.077592696
344.252297316
346.30645933
348.239985276
350.052748038
351.744584891
353.315293729
354.764628574
356.092293071
357.297918428
358.381038207
359.341062609
360.177245976
360.88893896
361.475923543
361.933301455
362.238109643
-1.14540410867
-0.525810251544
0.426183071056
1.60083589958
2.99150650294
4.60731068208
6.45420536543
8.53470004837
10.8487031176
13.3941684444
16.167581344
19.1643306649
22.3789951564
25.8055496895
29.4375128091
33.2680364247
37.2899626579
41.4958465405
45.8779684085
50.4283312124
55.1386618087
60.0004092789
65.0047529249
70.1426127817
75.4046689971
80.7813848455
86.2630347273
91.8397337501
97.5014676781
103.238125187
109.039566711
114.896025702
120.800664015
126.740051858
132.686719449
138.633772185
144.641172728
150.749303745
156.921775085
163.114786074
169.300354698
175.460419759
181.582442075
187.656982576
193.676391502
199.634120512
205.524357498
211.34184099
217.081755781
222.739678896
228.311540114
233.793598909
239.182419751
244.47485632
249.668030739
254.7593202
259.746338104
264.626922462
269.399118696
274.06116945
278.611498798
283.048703361
287.371537798
291.578906845
295.66985182
299.643543482
303.499269387
307.236427229
310.854512758
314.353113506
317.731897052
320.990604788
324.129040297
327.147063064
330.044576896
332.821523418
335.477870535
338.013605775
340.428724895
342.723224723
344.897092422
346.950297776
348.882784961
350.694466441
352.385218774
353.954881923
355.403251861
356.730077673
357.935040214
359.017716968
359.977561932
360.81390417
361.526107632
362.11390566
362.572353623
362.876736439
-5.56885648864
-4.93460801396
-3.93498927323
-2.68520732006
-1.19362840615
0.545600393328
2.53464524967
4.77212248043
7.25416008323
9.97519021249
12.9285262989
16.10680541
19.5022863714
23.1070628062
26.9131699807
30.9126465899
35.0975299612
39.4598408585
43.9915346261
48.6844647141
53.5303336907
58.5206665428
63.6467818736
68.8997860256
74.2705683022
79.7498139414
85.32801797
90.9955097326
96.7424782242
102.559002831
108.435152234
114.361553973
120.33294489
126.331067817
132.328393506
138.325093671
144.386622407
150.557899237
156.799335041
163.061549115
169.313759706
175.536609575
181.717081466
187.845674551
193.914888389
199.918411239
205.850702385
211.70677001
217.482059606
223.17238843
228.773910543
234.283088576
239.696676054
245.011697372
250.225434157
255.335407571
260.339366471
265.235271048
270.021282426
274.69574751
279.257189931
283.704295914
288.035906347
292.251003526
296.348704164
300.328246819
304.18898557
307.930377997
311.551979275
315.05343054
318.434453085
321.69483695
324.834434994
327.853151576
330.750936352
333.527773038
336.183672938
338.718663815
341.132783206
343.426067192
345.598543974
347.650222452
349.581087881
351.391092617
353.080155311
354.648157236
356.094938947
357.420294037
358.62394705
359.705528958
360.664547933
361.500344499
362.212335314
362.800315048
363.25922474
363.562789348
-10.5193296944
-9.86164614542
-8.79859379279
-7.4528186788
-5.83592548928
-3.946339699
-1.78660851824
0.637143974478
3.31651117993
6.24176245174
9.40254818546
12.7883902538
16.3890080446
20.1944915216
24.1953749782
28.382619275
32.7475539582
37.2817789823
41.9770671805
46.8252587205
51.8181766712
56.9475501703
62.2049635533
67.5818176461
73.0693128173
78.6584427321
84.3400029231
90.1046063557
95.9427067826
101.844634971
107.800729621
113.802157931
119.845481459
125.906280176
131.957965669
138.010035642
144.133302943
150.375614834
156.692591072
163.029669714
169.353512207
175.643599816
181.886507215
188.07272775
194.194947446
200.247130017
206.22403501
212.12097228
217.933671565
223.658216878
229.291005275
234.828724343
240.26833089
245.607037768
250.842296721
255.971787522
260.993402134
265.90523511
270.705568779
275.392864729
279.965749954
284.423009324
288.763572611
292.986507752
297.091008594
301.076388792
304.94207012
308.68757679
312.312524124
315.816613113
319.199619255
322.461387117
325.601819138
328.620870064
331.518535655
334.294846907
336.949858728
339.483643961
341.896282149
344.187853099
346.35842625
348.408053658
350.33676186
352.144546494
353.831368276
355.397153097
356.841784761
358.165102944
359.366881986
360.446794313
361.404388919
362.239087672
362.950324823
363.537872088
363.996769546
364.299294928
-16.0393027723
-15.3481311074
-14.2031291932
-12.7368687748
-10.965838752
-8.89410230357
-6.53013779036
-3.8859311801
-0.975394829479
2.18680553709
5.58607588414
9.20844932777
13.0408872967
17.0714124061
21.2890840671
25.6839022229
30.2466381123
34.9686615245
39.8417493347
44.8579258763
50.0093108652
55.2880096094
60.6860186872
66.1951701504
71.8070897189
77.5131836396
83.3046347798
89.1724164621
95.1073133472
101.099959882
107.141026319
113.222462818
119.342388765
125.469497318
131.579626905
137.693058045
143.886151819
150.208037061
156.607265118
163.024727363
169.424932187
175.786395251
182.09539915
188.342497525
194.52061689
200.624033431
206.647844018
212.587687088
218.439605641
224.199970984
229.865446293
235.432959422
240.899688994
246.263047443
251.520671552
256.670407525
261.710302704
266.638591396
271.453687426
276.154170639
280.738780303
285.206402241
289.556062997
293.786917535
297.898244021
301.889431991
305.759977552
309.509471913
313.137596784
316.644113151
320.028856609
323.29172625
326.432679711
329.45172208
332.348900556
335.124293379
337.778004122
340.310150721
342.720859468
345.010253963
347.178449276
349.225540733
351.151600084
352.956666483
354.640746191
356.203809155
357.645786307
358.966563612
360.165959871
361.243703581
362.199401697
363.032486407
363.742459863
364.329195015
364.787702549
365.088945717
-22.1821857479
-21.445569237
-20.1965590706
-18.580377988
-16.6205663858
-14.328576724
-11.720474224
-8.81557326724
-5.63450614441
-2.19780804924
1.47504923708
5.36622303028
9.45976275035
13.7416204008
18.1995138657
22.8226762813
27.6015743649
32.5276034187
37.5928133801
42.7896551332
48.1107787153
53.5488647373
59.0965050915
64.7461148038
70.4898806994
76.3197331001
82.2273414361
88.2041232974
94.2412667468
100.329783772
106.46081913
112.627803439
118.827363224
125.02327079
131.197447733
137.379131468
143.650609779
150.060906056
156.549079114
163.052273859
169.533308738
175.96998241
182.348419883
188.659327005
194.895928285
201.052861981
207.125596331
213.11013236
219.002849787
224.800432747
230.49982722
236.098221094
241.593026435
246.981870795
252.262583872
257.433190788
262.491899368
267.437093971
272.267323067
276.98129356
281.577858754
286.056013178
290.41488099
294.65371123
298.771866609
302.76881909
306.644138972
310.397490658
314.028621891
317.537359563
320.923598936
324.187299309
327.32847308
330.347181141
333.243521754
336.01762564
338.669644755
341.199747106
343.608105573
345.89489223
348.060267731
350.104375014
352.027331145
353.829222598
355.510101276
357.069985271
358.508851683
359.826635406
361.023208496
362.098342875
363.051689275
363.88277483
364.59112795
365.176612594
365.634419578
365.934271137
-29.0144905689
-28.2179456633
-26.8378312404
-25.0356577045
-22.8446764231
-20.2861601977
-17.3859592277
-14.1726209639
-10.6750069179
-6.92059494921
-2.93441881213
1.26147756158
5.64815828782
10.2096437878
14.9325588742
19.805708737
24.8196080438
29.9660473436
35.2376859145
40.6277213793
46.1296068739
51.7368451311
57.4428261747
63.2407259733
69.1234362802
75.0835364735
81.1132841835
87.204629731
93.3492476809
99.5386234698
105.764623181
112.02321293
118.304066468
124.570357295
130.815770127
137.073970414
143.432875401
149.939959646
156.523603791
163.117726881
169.683843313
176.199283637
182.650185964
189.027514825
195.324872468
201.537310971
207.660714919
213.691477839
219.626345998
225.462335515
231.196696729
236.826890101
242.350577419
247.76560938
253.070021275
258.262022
263.339990095
268.302462642
273.148131341
277.875831332
282.484537463
286.973353188
291.341507081
295.588341866
299.713311154
303.715968602
307.595964756
311.353036311
314.987002895
318.497756369
321.885257343
325.149524433
328.290630326
331.308690938
334.203860952
336.976322934
339.626282385
342.153956913
344.559570909
346.843344628
349.00548895
351.046194293
352.965627292
354.763921917
356.441179654
357.997466248
359.432809703
360.747194659
361.940540592
363.0126808
363.9633307
364.792028599
365.498384363
366.082388711
366.539237727
366.837517051
-36.6186988187
-35.7440389175
-34.1989707879
-32.1656814572
-29.6908835938
-26.8089489297
-23.5584879753
-19.9797250191
-16.1115728135
-11.9896632715
-7.64524077343
-3.10477587248
1.60992581442
6.48126377222
11.4952236716
16.6406731037
21.9086894012
27.2919310105
32.7841111559
38.3795527
44.0728486976
49.8585985112
55.7312265844
61.6848577983
67.713247424
73.809748288
79.9673093623
86.1784983098
92.4355434698
98.7304895658
105.056187865
111.411798425
117.776134872
124.115253539
130.439287818
136.783396661
143.239502286
149.851293513
156.536665774
163.22667543
169.881828692
176.479260644
183.005309493
189.451331598
195.811391083
202.08101849
208.256556008
214.334826479
220.312965781
226.188346137
231.958536058
237.621285754
243.174514959
248.61631038
253.944917461
259.158738953
264.256326219
269.236377345
274.097727763
278.839348008
283.460333965
287.959904471
292.337391421
296.592237285
300.723985166
304.732276245
308.616839794
312.377490501
316.014118372
319.526685846
322.915217482
326.179796741
329.320555357
332.337669694
335.231349818
338.001835423
340.649384731
343.17427006
345.576766711
347.857147992
350.015674623
352.052589093
353.968107493
355.762415388
357.435663873
358.987970945
360.419414487
361.730031947
362.919800737
363.988600794
364.936195039
365.76222981
366.466345898
367.048525903
367.504190122
367.800844513
-45.097233333
-44.1211626338
-42.3676864565
-40.0458420699
-37.2208464661
-33.9447948367
-30.273011175
-26.2604966369
-21.9583678974
-17.4116690745
-12.6583977495
-7.72942899333
-2.64906769027
2.5640728811
7.89602795461
13.3364548286
18.8776679372
24.513821116
30.2402149772
36.0527642292
41.9475790376
47.9206736065
53.9677562706
60.0841063572
66.2645007446
72.5031936461
78.7939224517
85.1299413595
91.5040844118
97.9090122015
104.33892799
110.79572682
117.246375834
123.662361724
130.072800394
136.512620748
143.076636281
149.801805984
156.594910391
163.385250775
170.132865495
176.815015109
183.418443705
189.935023876
196.359369285
202.687543084
208.916389484
215.043187861
221.065490368
226.981040335
232.787742362
238.483644688
244.066937881
249.535948768
254.889142718
260.12511775
265.24260589
270.24046593
275.117683707
279.873363807
284.506729165
289.017112092
293.403953467
297.666793333
301.805269802
305.819109353
309.708125456
313.472208644
317.111324771
320.625504876
324.014842936
327.279485497
330.419628786
333.435508109
336.327394285
339.095582904
341.740390161
344.262142119
346.661170058
348.937799642
351.092346265
353.125104046
355.036343013
356.82630031
358.49518086
360.043154217
361.470353353
362.776869419
363.962730671
365.027883977
365.972163289
366.795225169
367.49680106
368.077015568
368.531302784
368.826178745
-54.5777940053
-53.4694428309
-51.4507727836
-48.7658928605
-45.5059130492
-41.7470431482
-37.5666067291
-33.0382263722
-28.2276352893
-23.1904821093
-17.9717477302
-12.6063135466
-7.12017417238
-1.53197949278
4.1453992813
9.90338770825
15.7364390225
21.6409672813
27.6145178694
33.6551240152
39.7608479171
45.9294544631
52.1582061415
58.4437406249
64.7820181042
71.1683149501
77.5972503033
84.0628384975
90.5585886917
97.0779648503
103.617621836
110.176977952
116.715254211
123.214956595
129.720953353
136.267182285
142.951038576
149.798917436
156.705340088
163.5997834
170.442625376
177.21164001
183.894176506
190.482744654
196.972577596
203.360323474
209.643359623
215.819450661
221.886580745
227.842882522
233.686604648
239.416105953
245.029851213
250.526416574
255.904487837
261.16286547
266.300460886
271.3162996
276.209515544
280.979352769
285.625158414
290.146383415
294.542574599
298.813374682
302.958513765
306.977808785
310.871154547
314.638522685
318.279952283
321.795548328
325.185471884
328.44993799
331.589205349
334.603573624
337.493372696
340.258959411
342.900706566
345.418999201
347.814223523
350.08676259
352.23698571
354.265243426
356.171859293
357.95712633
359.621303075
361.164615544
362.587250423
363.889355665
365.071022121
366.132246193
367.072912065
367.892795341
368.591659296
369.169613816
369.622342468
369.915421096
-65.2208029175
-63.938236284
-61.578228422
-58.4321445941
-54.6275113711
-50.2736769672
-45.4768669146
-40.3339432553
-34.9277739154
-29.3254469541
-23.5786096679
-17.7250922684
-11.7911849017
-5.79405017294
0.255979877365
6.35342071472
12.4959813217
18.6832793227
24.9158526809
31.1944568616
37.5195647342
43.8910514
50.307998552
56.7686058938
63.2701639934
69.8090829846
76.3809491381
82.9806075928
89.6023474382
96.2408807738
102.89695507
109.557797024
116.18334151
122.776566381
129.387651199
136.053761189
142.871761744
149.850167331
156.874639592
163.876270529
170.816502795
177.673989706
184.43688698
191.098450715
197.654604775
204.102622414
210.440446923
216.666345426
222.778752673
228.776198131
234.657286431
240.420689323
246.065154087
251.589505492
256.992656005
262.273606062
267.431451599
272.465381388
277.374682087
282.158733294
286.817010848
291.34908029
295.754598962
300.03330835
304.185035295
308.209683536
312.10723418
315.877736637
319.521308382
323.038125394
326.428421143
329.69247659
332.830618324
335.843208179
338.730640528
341.493331657
344.131716337
346.646237134
349.037340407
351.305465504
353.451040668
355.474472067
357.376141456
359.156397431
360.815556549
362.353900246
363.771674424
365.069084563
366.246275492
367.303315472
368.240164942
369.056606905
369.752501463
370.328110437
370.779126688
371.07026605
-77.2297464896
-75.7138434336
-72.9083226514
-69.1694536077
-64.6768407121
-59.5854338166
-54.0392363428
-48.1635907476
-42.0607217514
-35.809221976
-29.4660849197
-23.0700881107
-16.6455534443
-10.2059771373
-3.75717259188
2.70013024979
9.16827677462
15.6511689235
22.153188883
28.6784496612
35.2303186724
41.8111289369
48.4220392489
55.0629903364
61.7327325288
68.4288976973
75.1480940161
81.8860354077
88.6378582264
95.4001011009
102.177723893
108.940467471
115.655425956
122.352972807
129.078797256
135.88029527
142.847586271
149.962403083
157.108794181
164.22013686
171.259437904
178.206556442
185.050647546
191.785834156
198.408798102
204.917484674
211.310427116
217.586416494
223.744346235
229.783154174
235.701802138
241.499281918
247.174621093
252.726898022
258.155247854
263.45887496
268.637054939
273.689143449
278.614574702
283.412867503
288.083621254
292.626520002
297.04132671
301.32788587
305.486116535
309.516013833
313.417641074
317.191130357
320.83667391
324.354523881
327.74498297
331.008403426
334.145177002
337.155733169
340.040528503
342.800044212
345.434775159
347.945226835
350.331904265
352.595308315
354.735925022
356.754221169
358.650635981
360.425578086
362.079421553
363.612508375
365.02514183
366.317587943
367.490058369
368.542673141
369.475444599
370.288284147
370.981082525
371.55407686
372.003224853
372.292428795
-90.8659855272
-89.0304374802
-85.6332476334
-81.1226573617
-75.753096267
-69.7422657364
-63.2828360797
-56.5339979741
-49.6185574712
-42.6251437444
-35.6132264304
-28.6191047827
-21.661773291
-14.7480239683
-7.87661400919
-1.04145349388
5.7660309578
12.555247602
19.33531508
26.1143621723
32.8991102417
39.6946777124
46.5045185526
53.3304647159
60.1728212548
67.0304997075
73.9011687862
80.7814423654
87.6674998988
94.5590541694
101.45899954
108.324840422
115.137460968
121.951091245
128.805373394
135.757784905
142.884791325
150.141231073
157.413072093
164.6363144
171.775988246
178.813501
185.739233451
192.548307472
199.238245795
205.807708502
212.255848986
218.581993712
224.785506942
230.865735197
236.822003198
242.653618729
248.359892934
253.940151888
259.393755848
264.720106556
269.918661614
274.988936902
279.930516802
284.743052903
289.42627124
293.979968362
298.404016451
302.698357509
306.863006919
310.89804626
314.803625634
318.579955452
322.227307673
325.746006793
329.136430017
332.39899759
335.534171899
338.542447257
341.424348006
344.180417944
346.811217578
349.317313432
351.699274627
353.957662047
356.093024761
358.105889033
359.996756414
361.766094992
363.41434092
364.941895313
366.349124583
367.636355817
368.803857356
369.851825376
370.780352791
371.589354471
372.278822592
372.849153719
373.296303625
373.583433752
-106.470027547
-104.183230853
-99.9850813276
-94.4562190901
-87.9592224364
-80.7972587019
-73.2241879702
-65.4374111405
-57.5792324856
-49.7442650086
-41.9891759717
-34.3424751845
-26.8130382719
-19.3969835571
-12.0828470314
-4.85532571902
2.30216677628
9.40581533515
16.4703788432
23.5086111858
30.5310019566
37.5457165862
44.5586716885
51.573684997
58.5926683613
65.6158427308
72.6419557877
79.6686112445
86.6936901405
93.7224435494
100.741586003
107.709653453
114.63464912
121.579073612
128.577030347
135.695209227
142.990971121
150.393801336
157.793741564
165.130226199
172.370852378
179.498921506
186.506241576
193.389053313
200.145781645
206.775839237
213.279013141
219.655176496
225.90416252
232.025729503
238.019558194
243.885273081
249.622460444
255.230694374
260.709551517
266.058631631
271.277565859
276.366031597
281.32375547
286.150523903
290.846182297
295.41064252
299.843879413
304.145936031
308.316918232
312.356998231
316.266407752
320.045440241
323.694442876
327.213817641
330.60401235
333.865520681
336.998872331
340.004632074
342.883389217
345.635755832
348.262355751
350.763822155
353.140786389
355.393874826
357.523698087
359.530847135
361.415884829
363.179343351
364.821720137
366.343480802
367.745052595
369.026826626
370.189141895
371.2322481
372.156291038
372.961322342
373.647362787
374.214773127
374.659783641
374.944860163
-124.491795087
-121.54573841
-116.240545358
-109.350510907
-101.393463586
-92.7868516131
-83.8582555268
-74.8443909889
-65.9016306802
-57.1223107591
-48.551660678
-40.2026016375
-32.0674943024
-24.1267969032
-16.3551414737
-8.72535357378
-1.21100058101
6.21212951229
13.5652434486
20.866237822
28.1296743613
35.3669398235
42.5864939559
49.7941690003
56.9934791846
64.1859221254
71.3712866767
78.5482217193
85.7172956514
92.8885346236
100.026133743
107.099518498
114.15435908
121.246011979
128.4015076
135.699580897
143.174774627
150.728029839
158.2574148
165.707322351
173.04856909
180.266653538
187.354964474
194.310933643
201.13392685
207.824120148
214.381940958
220.807802327
227.102004692
233.264706769
239.295942113
245.195639884
250.963658796
256.59980942
262.103883175
267.475667161
272.714965661
277.821607889
282.795463496
287.636445031
292.344519139
296.919705257
301.362083732
305.671791822
309.849029556
313.894053768
317.807182206
321.588786107
325.239292827
328.759177305
332.14896334
335.409214162
338.540532427