/*--------------------------------*- C++ -*----------------------------------*\
| =========                 |                                                 |
| \\      /  F ield         | OpenFOAM: The Open Source CFD Toolbox           |
|  \\    /   O peration     | Version:  v1906                                 |
|   \\  /    A nd           | Web:      www.OpenFOAM.com                      |
|    \\/     M anipulation  |                                                 |
\*---------------------------------------------------------------------------*/
FoamFile
{
    version     2.0;
    format      ascii;
    class       volScalarField;
    location    "4";
    object      pa;
}
// * * * * * * * * * * * * * * * * * * * * * * * * * * * * * * * * * * * * * //

dimensions      [0 2 -2 0 0 0 0];


internalField   nonuniform List<scalar> 
9216
(
-1990.23761225
-1989.24741455
-1987.61903615
-1985.29448803
-1982.25876462
-1978.47177722
-1974.00519619
-1968.84071369
-1963.08985693
-1956.71719553
-1949.81663679
-1942.30507736
-1934.31113903
-1925.76163945
-1916.80777616
-1907.35930865
-1897.58244107
-1887.37251525
-1876.90917319
-1866.07457408
-1855.0594524
-1843.73397362
-1832.29724336
-1820.60848614
-1808.87266995
-1796.9394939
-1785.017575
-1772.94868538
-1760.94124323
-1748.82531645
-1736.81048204
-1724.72731498
-1712.78154225
-1700.7950869
-1688.97520323
-1677.14961744
-1665.52456214
-1653.92567755
-1642.55363849
-1631.22870568
-1620.14383481
-1609.11898391
-1598.3433537
-1587.64028792
-1577.19587647
-1566.83809567
-1556.74880847
-1546.7609161
-1537.05082978
-1527.45679601
-1518.14856909
-1508.97009367
-1500.083618
-1491.33936653
-1482.89130654
-1474.59640028
-1466.59986634
-1458.76600357
-1451.23085896
-1443.86654266
-1436.79980803
-1429.91130248
-1423.31861263
-1416.91228288
-1410.80301318
-1404.88524498
-1399.2350666
-1393.74602674
-1388.50650918
-1383.43753518
-1378.61713524
-1373.97357243
-1369.57382827
-1365.35424768
-1361.37171143
-1357.57054693
-1353.99823804
-1350.60676746
-1347.43481867
-1344.44152353
-1341.65743439
-1339.04830031
-1336.63723996
-1334.3955984
-1332.33880763
-1330.44342848
-1328.71928738
-1327.14746821
-1325.7319472
-1324.45759303
-1323.32407142
-1322.32077926
-1321.4468995
-1320.70284836
-1320.10720629
-1319.71560724
-1991.08249909
-1989.81403035
-1987.79469304
-1984.93456166
-1981.18795643
-1976.556132
-1971.11440785
-1964.90364582
-1958.01021067
-1950.45407611
-1942.30443851
-1933.56426368
-1924.31698606
-1914.56657758
-1904.40417829
-1893.82606274
-1882.92700975
-1871.69498686
-1860.22723232
-1848.50347302
-1836.62216448
-1824.55493226
-1812.40024293
-1800.12187369
-1787.81714925
-1775.44243697
-1763.09311153
-1750.71881995
-1738.41103718
-1726.11148742
-1713.91138047
-1701.7496821
-1689.71328134
-1677.73403865
-1665.90100681
-1654.15497161
-1642.58892885
-1631.14083036
-1619.8978858
-1608.79171648
-1597.90438106
-1587.16609343
-1576.65617503
-1566.30545621
-1556.19152841
-1546.2466778
-1536.54639513
-1527.02456972
-1517.75400758
-1508.67032406
-1499.84315188
-1491.20999215
-1482.83693902
-1474.66361855
-1466.7523362
-1459.0450842
-1451.6002245
-1444.36239369
-1437.3859354
-1430.61839603
-1424.11011328
-1417.81185786
-1411.76996981
-1405.93838902
-1400.35788151
-1394.97759116
-1389.82440066
-1384.85644345
-1380.10882243
-1375.54788641
-1371.20496408
-1367.0492366
-1363.10732212
-1359.35112577
-1355.80288832
-1352.43724146
-1349.27235882
-1346.2855175
-1343.49106321
-1340.8687577
-1338.42935081
-1336.15490298
-1334.05276785
-1332.10682326
-1330.32080045
-1328.6804778
-1327.18671589
-1325.82670331
-1324.59826099
-1323.48996795
-1322.49780392
-1321.61418085
-1320.83851018
-1320.17454379
-1319.64386332
-1319.29441706
-1992.25801314
-1990.63330379
-1988.27452069
-1985.03476807
-1980.83445078
-1975.6952507
-1969.69404497
-1962.9010071
-1955.39394202
-1947.2259187
-1938.45879975
-1929.13285834
-1919.30852458
-1909.02398735
-1898.33959259
-1887.28920189
-1875.9311064
-1864.29406212
-1852.43361903
-1840.37319867
-1828.1651497
-1815.82746694
-1803.40882729
-1790.92167536
-1778.41060533
-1765.88252114
-1753.37767715
-1740.89761377
-1728.47804244
-1716.11602713
-1703.84534553
-1691.65919186
-1679.58609838
-1667.61364388
-1655.77937223
-1644.08054305
-1632.54746201
-1621.17343791
-1609.98766013
-1598.97793518
-1588.1705516
-1577.55114605
-1567.14325738
-1556.93178952
-1546.93950013
-1537.15144614
-1527.58967041
-1518.23936874
-1509.12163678
-1500.22171944
-1491.55948158
-1483.12012788
-1474.92215116
-1466.95074886
-1459.2229286
-1451.7239231
-1444.4692572
-1437.44431863
-1430.66314122
-1424.11135915
-1417.80155953
-1411.71967909
-1405.87665272
-1400.25816399
-1394.87199942
-1389.70055589
-1384.74693417
-1379.99621782
-1375.45549027
-1371.11385579
-1366.97838634
-1363.03904008
-1359.30146237
-1355.75591629
-1352.406473
-1349.24363573
-1346.26996357
-1343.4761916
-1340.86340725
-1338.42253857
-1336.1532464
-1334.04659198
-1332.1007886
-1330.30682939
-1328.66140142
-1327.15547813
-1325.78427269
-1324.53847749
-1323.41178894
-1322.39509357
-1321.48225773
-1320.6679116
-1319.95367881
-1319.34997392
-1318.88286429
-1318.58894403
-1993.60917909
-1991.55031005
-1988.93466845
-1985.53531708
-1981.19092619
-1975.90714092
-1969.75648217
-1962.81490757
-1955.15518427
-1946.83810404
-1937.92235196
-1928.45820054
-1918.49904246
-1908.0915434
-1897.28660858
-1886.12751645
-1874.66206019
-1862.9295648
-1850.97420231
-1838.83098621
-1826.54005949
-1814.13182146
-1801.6420465
-1789.09626299
-1776.525527
-1763.95028736
-1751.39679263
-1738.88067735
-1726.42381237
-1714.03779843
-1701.741053
-1689.54038505
-1677.44620586
-1665.45813429
-1653.60916057
-1641.92187681
-1630.40147788
-1619.04792333
-1607.87379177
-1596.88221809
-1586.0850586
-1575.48317486
-1565.08531653
-1554.8911744
-1544.90884156
-1535.13776436
-1525.5856678
-1516.25179424
-1507.14334976
-1498.25920718
-1489.60586274
-1481.18169439
-1472.99235875
-1465.03567426
-1457.31640518
-1449.83181723
-1442.58578045
-1435.57504026
-1428.80259455
-1422.26470674
-1415.96349224
-1409.89466038
-1404.05922106
-1398.45186005
-1393.07164089
-1387.91124769
-1382.967964
-1378.23527326
-1373.7122885
-1369.3944087
-1365.28137477
-1361.36896431
-1357.65649435
-1354.13952965
-1350.81666909
-1347.68311474
-1344.73668812
-1341.97218447
-1339.38662637
-1336.97436945
-1334.73161987
-1332.65224786
-1330.73158951
-1328.96292849
-1327.34065216
-1325.85738949
-1324.50648014
-1323.27974792
-1322.16959016
-1321.16781137
-1320.2681658
-1319.46854136
-1318.77592044
-1318.21166843
-1317.81595016
-1317.60721618
-1995.10369144
-1992.50523955
-1989.65982617
-1986.22261451
-1981.8945238
-1976.63718345
-1970.51101991
-1963.58855033
-1955.93800856
-1947.62028052
-1938.69249898
-1929.20748919
-1919.21730735
-1908.77126799
-1897.9186458
-1886.70584487
-1875.1791141
-1863.38142151
-1851.3553781
-1839.13993779
-1826.77354509
-1814.29068251
-1801.72518821
-1789.10667058
-1776.46397976
-1763.82157821
-1751.20325879
-1738.62866455
-1726.11710373
-1713.68380104
-1701.34344893
-1689.10481939
-1676.97138358
-1664.94219348
-1653.05429565
-1641.34918987
-1629.82805276
-1618.47919333
-1607.30386142
-1596.30926056
-1585.50466775
-1574.89483266
-1564.48544852
-1554.27985898
-1544.28301836
-1534.49785968
-1524.9289576
-1515.57890183
-1506.45180959
-1497.54978894
-1488.87632853
-1480.43291003
-1472.2222898
-1464.24525652
-1456.50377916
-1448.99793231
-1441.728906
-1434.69608226
-1427.89987857
-1421.33898619
-1415.01303409
-1408.91994781
-1403.05839297
-1397.42524651
-1392.01785813
-1386.83186097
-1381.86372973
-1377.10927086
-1372.56575293
-1368.22988983
-1364.09943808
-1360.17131817
-1356.44313367
-1352.91155185
-1349.57372478
-1346.42588356
-1343.46462497
-1340.68567307
-1338.0850157
-1335.6578247
-1333.3994431
-1331.30444575
-1329.36747506
-1327.58243531
-1325.94318989
-1324.44286013
-1323.07439646
-1321.83004551
-1320.70200653
-1319.68285206
-1318.76754621
-1317.95713028
-1317.26734151
-1316.7382994
-1316.43086184
-1316.34207095
-1996.75691172
-1993.48759719
-1990.39950356
-1986.97845222
-1982.73659234
-1977.57435685
-1971.53589845
-1964.68782705
-1957.09446327
-1948.81528332
-1939.90675298
-1930.42275499
-1920.41600803
-1909.9376393
-1899.03798601
-1887.76567546
-1876.16824653
-1864.29111276
-1852.17821457
-1839.8709799
-1827.40903688
-1814.82920538
-1802.16626208
-1789.45193498
-1776.71569466
-1763.98385019
-1751.28052767
-1738.62701596
-1726.04260901
-1713.54344312
-1701.14283639
-1688.84827123
-1676.65832977
-1664.56942487
-1652.62499505
-1640.88174189
-1629.34762579
-1617.99768551
-1606.81676266
-1595.81263569
-1584.99456049
-1574.36864428
-1563.94032379
-1553.71413193
-1543.69463472
-1533.88579437
-1524.29171134
-1514.91589553
-1505.76193266
-1496.83276125
-1488.13131677
-1479.65984669
-1471.42053621
-1463.41487197
-1455.64425
-1448.10938396
-1440.81088172
-1433.74869415
-1426.9226548
-1420.3319583
-1413.97564794
-1407.85211001
-1401.95950685
-1396.2952976
-1390.85666507
-1385.64020532
-1380.64252613
-1375.86014643
-1371.28995054
-1366.92884213
-1362.77396033
-1358.82229206
-1355.07086511
-1351.51643071
-1348.15566457
-1344.98491245
-1342.00038154
-1339.19792789
-1336.57322677
-1334.12159311
-1331.83812568
-1329.71755339
-1327.75434894
-1325.94259211
-1324.27604997
-1322.74803492
-1321.35146697
-1320.07881199
-1318.92247855
-1317.87556677
-1316.93431069
-1316.10443391
-1315.41200449
-1314.91955818
-1314.72073775
-1314.78823966
-1998.59642842
-1994.50712536
-1991.14483239
-1987.76146011
-1983.63629704
-1978.59756239
-1972.67134694
-1965.91786025
-1958.39788373
-1950.169359
-1941.2883314
-1931.80952964
-1921.78685681
-1911.27334586
-1900.32116956
-1888.98130751
-1877.30339443
-1865.33533547
-1853.12316234
-1840.71069729
-1828.13947869
-1815.44848259
-1802.67410208
-1789.8498884
-1777.00657979
-1764.17195062
-1751.37105694
-1738.62631685
-1725.95747594
-1713.38083832
-1700.90846883
-1688.5450645
-1676.28413043
-1664.12119794
-1652.107064
-1640.3131031
-1628.75368292
-1617.39461857
-1606.20599948
-1595.18866113
-1584.35280765
-1573.70545749
-1563.25257344
-1552.99939468
-1542.95084166
-1533.11143183
-1523.48547866
-1514.07691935
-1504.88945076
-1495.92634559
-1487.19057461
-1478.68464354
-1470.41072109
-1462.37049532
-1454.56530375
-1446.99600917
-1439.66312997
-1432.56672387
-1425.70650898
-1419.08175196
-1412.6913773
-1406.53385008
-1400.60727474
-1394.90929555
-1389.43722448
-1384.18802848
-1379.15854174
-1374.34552477
-1369.74581835
-1365.35627815
-1361.17380843
-1357.19523888
-1353.41733945
-1349.83670918
-1346.44980441
-1343.25285216
-1340.24188847
-1337.41268634
-1334.76079546
-1332.28148166
-1329.96976266
-1327.82035483
-1325.82769798
-1323.98590228
-1322.28875458
-1320.7296341
-1319.30154145
-1317.99708958
-1316.80883781
-1315.73051363
-1314.75997085
-1313.90661016
-1313.20873616
-1312.75806213
-1312.6875208
-1312.94393199
-2000.65152324
-1995.58118513
-1991.90434628
-1988.5664577
-1984.57238797
-1979.67080244
-1973.86884429
-1967.22015942
-1959.78204747
-1951.61070175
-1942.76174911
-1933.29051634
-1923.2522537
-1912.70183267
-1901.69362925
-1890.28101561
-1878.5161536
-1866.44948123
-1854.12954949
-1841.60259439
-1828.91245266
-1816.10023435
-1803.20429143
-1790.25994125
-1777.29946893
-1764.35200979
-1751.44377202
-1738.59813763
-1725.83538237
-1713.17163249
-1700.6173656
-1688.17335138
-1675.82743519
-1663.57735617
-1651.4825962
-1639.62721859
-1628.02933414
-1616.65229285
-1605.45341342
-1594.41915261
-1583.56100786
-1572.88699607
-1562.40381491
-1552.11744973
-1542.03338241
-1532.15669971
-1522.49212188
-1513.04400259
-1503.81631229
-1494.81261647
-1486.03605957
-1477.48934971
-1469.17475175
-1461.09408592
-1453.24872966
-1445.6396268
-1438.26729087
-1431.13182067
-1424.23290138
-1417.56982081
-1411.14146447
-1404.9463325
-1398.98253572
-1393.24782887
-1387.73962937
-1382.45510064
-1377.39121048
-1372.54483954
-1367.91280769
-1363.49191863
-1359.27891979
-1355.2705015
-1351.46323605
-1347.85357357
-1344.43778705
-1341.21197796
-1338.17202994
-1335.31362221
-1332.63218842
-1330.12293546
-1327.78080307
-1325.6004862
-1323.57639001
-1321.70264512
-1319.97304877
-1318.38105261
-1316.91971511
-1315.58176992
-1314.36004511
-1313.24862929
-1312.2465485
-1311.36826276
-1310.66454336
-1310.25785691
-1310.33344071
-1310.81166867
-2002.94873947
-1996.7244896
-1992.69068727
-1989.40118783
-1985.54709976
-1980.79160625
-1975.12252689
-1968.58667378
-1961.23754186
-1953.12928103
-1944.31676737
-1934.85577025
-1924.80273216
-1914.21444435
-1903.14751723
-1891.657946
-1879.80054358
-1867.62856063
-1855.19320814
-1842.5433977
-1829.72539336
-1816.7826599
-1803.75560476
-1790.68146621
-1777.5941353
-1764.52419729
-1751.4990317
-1738.54298201
-1725.67676123
-1712.91611927
-1700.2694802
-1687.73269256
-1675.28734663
-1662.93668489
-1650.75065333
-1638.82235867
-1627.17454897
-1615.77194594
-1604.55790345
-1593.50187507
-1582.6162309
-1571.90982888
-1561.39022308
-1551.06417354
-1540.93788487
-1531.01706053
-1521.30696239
-1511.81238865
-1502.53768936
-1493.48673181
-1484.66291245
-1476.06913051
-1467.70780931
-1459.5808791
-1451.68980696
-1444.03558611
-1436.61877191
-1429.43947177
-1422.49738295
-1415.79178093
-1409.32155875
-1403.08521423
-1397.08089504
-1391.30639707
-1385.75922768
-1380.43662929
-1375.33566117
-1370.45323041
-1365.78615538
-1361.33115892
-1357.0848929
-1353.04389864
-1349.20461425
-1345.56332569
-1342.1161745
-1338.85911224
-1335.78791322
-1332.89813394
-1330.18512862
-1327.64401431
-1325.26968552
-1323.05678484
-1320.99971018
-1319.09258304
-1317.32923855
-1315.70316016
-1314.20750174
-1312.83510965
-1311.57891704
-1310.43354424
-1309.39948302
-1308.49457032
-1307.78317142
-1307.42436528
-1307.66133018
-1308.39041543
-2005.51032354
-1997.94722227
-1993.5133301
-1990.27525186
-1986.56940919
-1981.9688571
-1976.44161586
-1970.0272155
-1962.77484273
-1954.73606623
-1945.96472122
-1936.51670929
-1926.44967336
-1915.82225705
-1904.69354235
-1893.1222307
-1881.166123
-1868.8814126
-1856.32231492
-1843.54053967
-1830.58507846
-1817.50183715
-1804.33351265
-1791.11930385
-1777.89486028
-1764.69220478
-1751.53996608
-1738.46336443
-1725.48344938
-1712.61531838
-1699.86489215
-1687.22216453
-1674.66188912
-1662.1963517
-1649.90787156
-1637.89621876
-1626.18902028
-1614.75302563
-1603.51713648
-1592.43351332
-1581.51435231
-1570.76922179
-1560.20651504
-1549.83388508
-1539.65832267
-1529.68625943
-1519.92355546
-1510.37553802
-1501.04697186
-1491.94208391
-1483.06453903
-1474.41746822
-1466.00345332
-1457.82456293
-1449.88234387
-1442.17786271
-1434.71169935
-1427.48399165
-1420.49442855
-1413.74229585
-1407.226468
-1400.94545693
-1394.89740657
-1389.08015132
-1383.491219
-1378.12790459
-1372.98727937
-1368.06626624
-1363.36163464
-1358.87005355
-1354.5880611
-1350.51209486
-1346.63844656
-1342.96328292
-1339.48259792
-1336.19223304
-1333.0878322
-1330.16486399
-1327.41857948
-1324.84403714
-1322.43606135
-1320.18927028
-1318.09803075
-1316.15647886
-1314.35846115
-1312.69752937
-1311.16689316
-1309.75950421
-1308.46854996
-1307.28886684
-1306.22179889
-1305.29003416
-1304.57086425
-1304.25959848
-1304.67014081
-1305.67678584
-2008.35540597
-1999.25087364
-1994.37514005
-1991.19417087
-1987.64752365
-1983.21333021
-1977.83941041
-1971.55730873
-1964.41116125
-1956.44943926
-1947.72449592
-1938.29227504
-1928.21152123
-1917.54296361
-1906.34827068
-1894.68923838
-1882.6268483
-1870.22064875
-1857.528042
-1844.60389715
-1831.50006911
-1818.2651862
-1804.94430898
-1791.57878206
-1778.20602381
-1764.85958847
-1751.56930607
-1738.36122682
-1725.25648142
-1712.26917641
-1699.40217895
-1686.63886831
-1673.94685786
-1661.3514843
-1648.94920241
-1636.84541728
-1625.07182928
-1613.59343938
-1602.3270014
-1591.20960075
-1580.25026071
-1569.45935979
-1558.84630033
-1548.41969028
-1538.18743211
-1528.1567341
-1518.33414744
-1508.72555735
-1499.33620984
-1490.17070213
-1481.23301361
-1472.52650155
-1464.05394004
-1455.8175198
-1447.8188935
-1440.05917676
-1432.53899762
-1425.25849581
-1418.2173741
-1411.41489508
-1404.84993458
-1398.52097725
-1392.42617393
-1386.56334066
-1380.93002237
-1375.52349716
-1370.34084247
-1365.37893623
-1360.63451356
-1356.10415163
-1351.78430983
-1347.67129763
-1343.76130334
-1340.05035292
-1336.53433482
-1333.20895701
-1330.06977181
-1327.11213453
-1324.33122834
-1321.72202678
-1319.27931647
-1316.99766519
-1314.87143699
-1312.89475886
-1311.06151858
-1309.36529806
-1307.79940591
-1306.3569014
-1305.03102512
-1303.81705955
-1302.71755574
-1301.7578394
-1301.02881353
-1300.76716988
-1301.36160459
-1302.66777985
-2011.49258271
-2000.62805004
-1995.27010474
-1992.15678206
-1988.7850901
-1984.53358563
-1979.32890129
-1973.19362557
-1966.16598213
-1958.29066909
-1949.61831525
-1940.20475067
-1930.11006827
-1919.39725149
-1908.13104248
-1896.37661857
-1884.19867264
-1871.66037995
-1858.82279621
-1845.74415162
-1832.47952499
-1819.08038431
-1805.59439761
-1792.06508833
-1778.53177519
-1765.02950707
-1751.58934599
-1738.23798055
-1724.99633236
-1711.87692542
-1698.87869729
-1685.97775842
-1673.13592916
-1660.39578525
-1647.8689009
-1635.66564009
-1623.82017353
-1612.29020543
-1600.98360376
-1589.82551564
-1578.81844409
-1567.97396717
-1557.30261846
-1546.81410736
-1536.51729731
-1526.42026847
-1516.53029007
-1506.85387173
-1497.39674868
-1488.16393379
-1479.1597136
-1470.3877038
-1461.85085139
-1453.55149339
-1445.49136103
-1437.67164009
-1430.09297373
-1422.75552328
-1415.65896823
-1408.80256692
-1402.18515379
-1395.80520123
-1389.66081564
-1383.74980263
-1378.06966299
-1372.61766119
-1367.39081868
-1362.38597949
-1357.59979424
-1353.02877481
-1348.66926557
-1344.51748566
-1340.56949082
-1336.82120764
-1333.26839155
-1329.90665759
-1326.73143844
-1323.73801427
-1320.92147188
-1318.2767354
-1315.79852547
-1313.48139175
-1311.31966931
-1309.30750389
-1307.43879535
-1305.70719849
-1304.1060752
-1302.62858259
-1301.26820393
-1300.02029695
-1298.88789584
-1297.900689
-1297.16197897
-1296.94799866
-1297.73529416
-1299.36529119
-2014.9180442
-2002.05489752
-1996.18021564
-1993.15246064
-1989.97931726
-1985.93412723
-1980.92113864
-1974.95260524
-1968.05973724
-1960.28288698
-1951.67065729
-1942.27898508
-1932.16955188
-1921.40821781
-1910.06323923
-1898.20388231
-1885.89897494
-1873.21594162
-1860.21980699
-1846.97263827
-1833.5329304
-1819.95531485
-1806.29014482
-1792.5833048
-1778.87600129
-1765.20485509
-1751.60206081
-1738.09478957
-1724.70334276
-1711.43783432
-1698.29143687
-1685.23178191
-1672.2218685
-1659.32348353
-1646.66141649
-1634.35208614
-1622.42935665
-1610.83982761
-1599.48411134
-1588.27665981
-1577.21315357
-1566.30636241
-1555.56808051
-1545.00915664
-1534.63951163
-1524.46811786
-1514.50302774
-1504.75137748
-1495.21943489
-1485.91261586
-1476.8355433
-1467.99206717
-1459.38532895
-1451.01777997
-1442.89124813
-1435.00695173
-1427.36556657
-1419.9672341
-1412.81162796
-1405.89795673
-1399.22503004
-1392.79125724
-1386.59471378
-1380.63313763
-1374.90399589
-1369.40447896
-1364.13156495
-1359.08200817
-1354.25239685
-1349.63913186
-1345.23847512
-1341.04651823
-1337.05922327
-1333.2723845
-1329.68166495
-1326.28255518
-1323.07040795
-1320.04039721
-1317.18755111
-1314.50671368
-1311.99257466
-1309.63963611
-1307.44223495
-1305.39450923
-1303.49040327
-1301.72360077
-1300.08756437
-1298.57555336
-1297.18105401
-1295.8997947
-1294.73575609
-1293.7203818
-1292.96994459
-1292.80522305
-1293.79368966
-1295.76845154
-2018.61756222
-2003.49437587
-1997.07357314
-1994.15999164
-1991.21962075
-1987.41469915
-1982.62491372
-1976.85038416
-1970.1140627
-1962.45128031
-1953.90867676
-1944.54257528
-1934.41703085
-1923.60144293
-1912.16855109
-1900.19237289
-1887.74673164
-1874.90380152
-1861.73322764
-1848.30122682
-1834.6701503
-1820.89794229
-1807.03789554
-1793.13827822
-1779.2422992
-1765.38810714
-1751.60899115
-1737.93233958
-1724.37742589
-1710.95086603
-1697.63755158
-1684.39482909
-1671.19873593
-1658.13027864
-1645.3226719
-1632.90091834
-1620.8947515
-1609.23839832
-1597.82492138
-1586.55800322
-1575.4281549
-1564.44938561
-1553.63475263
-1542.99633017
-1532.54510629
-1522.29100551
-1512.24285755
-1502.40846293
-1492.7946017
-1483.40711657
-1474.25093601
-1465.33016091
-1456.6480891
-1448.20730019
-1440.00967577
-1432.05648079
-1424.34837727
-1416.88550208
-1409.66747377
-1402.69346744
-1395.9622153
-1389.47207972
-1383.22104859
-1377.20680737
-1371.4267298
-1365.87794832
-1360.55733913
-1355.46158827
-1350.58716907
-1345.93040089
-1341.4874183
-1337.25422171
-1333.22664018
-1329.40037565
-1325.77096238
-1322.33380716
-1319.08414806
-1316.01709238
-1313.12757581
-1310.41039977
-1307.86019032
-1305.47143638
-1303.23844674
-1301.15538108
-1299.21619467
-1297.4146459
-1295.7442446
-1294.19833771
-1292.77064558
-1291.45684762
-1290.26106789
-1289.2185859
-1288.45710785
-1288.33894521
-1289.53565715
-1291.8783644
-2022.56371599
-2004.88989357
-1997.9026198
-1995.14546655
-1992.48699017
-1988.97018102
-1984.44726019
-1978.90373365
-1972.35277863
-1964.82428267
-1956.36310011
-1947.02686749
-1936.88296728
-1926.00567814
-1914.47325147
-1902.36567766
-1889.76257161
-1876.74177636
-1863.37806415
-1849.7424137
-1835.90129429
-1821.91631912
-1807.84379535
-1793.73453748
-1779.63371701
-1765.58106048
-1751.61076064
-1737.75012523
-1724.01677865
-1710.41267387
-1696.91227895
-1683.46178184
-1670.06062502
-1656.81022971
-1643.84804175
-1631.30831831
-1619.2119932
-1607.48148164
-1596.00144645
-1584.6637069
-1573.45651591
-1562.39515364
-1551.49402471
-1540.76642769
-1530.22446981
-1519.87901075
-1509.73968656
-1499.81493136
-1490.11205307
-1480.63728111
-1471.3958589
-1462.39209217
-1453.62944314
-1445.11056993
-1436.83741721
-1428.81124449
-1421.03271199
-1413.50189814
-1406.21838102
-1399.18124644
-1392.38916577
-1385.84039624
-1379.53285579
-1373.46411719
-1367.63147977
-1362.03195776
-1356.66234786
-1351.51921087
-1346.59893351
-1341.89770236
-1337.41155913
-1333.13636739
-1329.06786215
-1325.20161138
-1321.53306159
-1318.05749669
-1314.77008096
-1311.66581764
-1308.7395894
-1305.98611899
-1303.40000595
-1300.9756919
-1298.70748999
-1296.58955096
-1294.61587484
-1292.78024359
-1291.0762658
-1289.49738221
-1288.03727006
-1286.69192557
-1285.46620643
-1284.39628024
-1283.62187158
-1283.55180091
-1284.96350469
-1287.6934367
-2026.71376934
-2006.16605864
-1998.60056848
-1996.06086987
-1993.75314655
-1990.59110496
-1986.39472623
-1981.13170003
-1974.80381858
-1967.43522175
-1959.06990386
-1949.76810157
-1939.60237118
-1928.65344613
-1917.00685766
-1904.74982991
-1891.96910089
-1878.74899906
-1865.17029813
-1851.30917836
-1837.23673394
-1823.01841033
-1808.71376022
-1794.37612678
-1780.05270125
-1765.78467129
-1751.6069145
-1737.54610578
-1723.61730241
-1709.81614474
-1696.10540736
-1682.42248478
-1668.79737682
-1655.35318029
-1642.22917568
-1629.56818192
-1617.37618517
-1605.56425258
-1594.00812534
-1582.58692226
-1571.29027706
-1560.13484825
-1549.13637652
-1538.30942617
-1527.66719428
-1517.22149436
-1506.98272629
-1496.95996279
-1487.1609883
-1477.5924186
-1468.25975607
-1459.16751119
-1450.31925236
-1441.71771929
-1433.36486068
-1425.26193794
-1417.40954998
-1409.80772855
-1402.45595116
-1395.35322988
-1388.49811417
-1381.88877452
-1375.5229969
-1369.39826218
-1363.51173311
-1357.8603296
-1352.44070852
-1347.24933383
-1342.28244928
-1337.53614234
-1333.00631039
-1328.68871839
-1324.57896021
-1320.67251089
-1316.96468534
-1313.45068648
-1310.12556328
-1306.98425608
-1304.02155488
-1301.23214318
-1298.61055614
-1296.15122423
-1293.84843043
-1291.69634679
-1289.68897957
-1287.82018348
-1286.08360439
-1284.47275836
-1282.98155257
-1281.60583276
-1280.35031351
-1279.25451731
-1278.46840845
-1278.44323838
-1280.07539296
-1283.21459621
-2031.02014557
-2007.22255661
-1999.07710239
-1996.84103085
-1994.98040178
-1992.26487433
-1988.47566113
-1983.55842966
-1977.50190306
-1970.32495514
-1962.07227964
-1952.80921769
-1942.61588162
-1931.58205688
-1919.80254665
-1907.37377884
-1894.39092425
-1880.94607279
-1867.12672135
-1853.01498317
-1838.6868846
-1824.21204653
-1809.65329876
-1795.06660012
-1780.50104317
-1765.99915978
-1751.5960448
-1737.31705045
-1723.17321726
-1709.15097357
-1695.19972047
-1681.26034384
-1667.39558318
-1653.74668133
-1640.45637899
-1627.67351325
-1615.38175634
-1603.48108137
-1591.8382351
-1580.31950622
-1568.92027373
-1557.6584987
-1546.55125546
-1535.61432416
-1524.86199647
-1514.30698536
-1503.96044734
-1493.83203009
-1483.92998222
-1474.26123815
-1464.83154861
-1455.64556049
-1446.70694312
-1438.01845031
-1429.58203598
-1421.39889713
-1413.46957898
-1405.79400111
-1398.37155376
-1391.20111016
-1384.28111574
-1377.6095893
-1371.1842064
-1365.00229136
-1359.06089545
-1353.35678095
-1347.88649396
-1342.64634114
-1337.63245688
-1332.84077304
-1328.26708061
-1323.90699359
-1319.75600584
-1315.80945071
-1312.06255419
-1308.51039228
-1305.14794135
-1301.97003527
-1298.9714128
-1296.14667665
-1293.49033659
-1290.99677272
-1288.66027175
-1286.47499211
-1284.43498191
-1282.53411057
-1280.76611743
-1279.12460209
-1277.60338718
-1276.19860285
-1274.91553838
-1273.79379841
-1272.99424784
-1273.01561432
-1274.87367807
-1278.43986565
-2035.42244977
-2007.93667055
-1999.21583528
-1997.40220871
-1996.12177278
-1993.97836445
-1990.70404938
-1986.21729798
-1980.49263042
-1973.54513536
-1965.42349282
-1956.20171328
-1945.97134127
-1934.8343675
-1922.8978453
-1910.26950096
-1897.05483849
-1883.35487266
-1869.26489141
-1854.87346725
-1840.26206664
-1825.50460689
-1810.66733749
-1795.80871508
-1780.97966929
-1766.22369339
-1751.57551052
-1737.05816082
-1722.67680777
-1708.40480339
-1694.17618466
-1679.95717517
-1665.84123306
-1651.97915879
-1638.52309127
-1625.61887065
-1613.22184134
-1601.22510727
-1589.48324058
-1577.85172465
-1566.33591817
-1554.95488857
-1543.72694756
-1532.66908155
-1521.79661466
-1511.1231405
-1500.66049663
-1490.41887916
-1480.4069198
-1470.63184781
-1461.09958189
-1451.81488933
-1442.78146284
-1434.00206347
-1425.47857594
-1417.21213483
-1409.2031598
-1401.45146802
-1393.9562924
-1386.71638353
-1379.73001403
-1372.99507235
-1366.50905586
-1360.26915813
-1354.27225249
-1348.51497351
-1342.99369237
-1337.70459254
-1332.64363808
-1327.80664343
-1323.18923595
-1318.78692018
-1314.59503629
-1310.60881945
-1306.82335624
-1303.23363988
-1299.83452634
-1296.62078643
-1293.58706222
-1290.7279171
-1288.03779218
-1285.51105531
-1283.14195775
-1280.924676
-1278.85325655
-1276.92163648
-1275.12357952
-1273.45274712
-1271.90319163
-1270.47081101
-1269.16051612
-1268.01485287
-1267.20361821
-1267.26798307
-1269.35603044
-1273.37022217
-2039.8369225
-2008.14578506
-1998.86481052
-1997.63723618
-1997.12251114
-1995.72264827
-1993.10578301
-1989.15735469
-1983.83793213
-1977.16284286
-1969.1900526
-1960.00813823
-1949.72512463
-1938.45981629
-1926.3348864
-1913.47224417
-1899.98958838
-1885.99843369
-1871.60271574
-1856.89820633
-1841.97206668
-1826.90273541
-1811.75978959
-1796.6041131
-1781.48820861
-1766.45604871
-1751.54112385
-1736.76283809
-1722.11802438
-1707.56408384
-1693.02170766
-1678.50007959
-1664.12277332
-1650.04265695
-1636.42495836
-1623.39899165
-1610.8903683
-1598.78830521
-1586.93148709
-1575.17190803
-1563.52513836
-1552.01147226
-1540.65054861
-1529.4605365
-1518.45777909
-1507.65666805
-1497.06968078
-1486.70746532
-1476.57899628
-1466.6917026
-1457.05164122
-1447.66361008
-1438.53130808
-1429.65741941
-1421.04375421
-1412.69130524
-1404.60037145
-1396.77059172
-1389.20105501
-1381.89031587
-1374.83649432
-1368.03727698
-1361.49000881
-1355.19168281
-1349.13902494
-1343.32847433
-1337.7562621
-1332.41838351
-1327.31067113
-1322.4287602
-1317.76815663
-1313.32419709
-1309.09211259
-1305.066985
-1301.24380705
-1297.61743702
-1294.1826558
-1290.93412157
-1287.86642357
-1284.97403871
-1282.25138081
-1279.6927613
-1277.29243176
-1275.04454751
-1272.94319119
-1270.9823028
-1269.15573208
-1267.45721261
-1265.88067477
-1264.42228498
-1263.08741652
-1261.91796624
-1261.09343938
-1261.20264753
-1263.52506987
-1268.00347745
-2044.17105522
-2007.64279469
-1997.82061987
-1997.4111609
-1997.92418062
-1997.50217875
-1995.7289735
-1992.45259745
-1987.62381836
-1981.26605442
-1973.45577548
-1964.30437809
-1953.94371704
-1942.51490255
-1930.16070878
-1917.02020299
-1903.22563291
-1888.9003678
-1874.15805962
-1859.10212285
-1843.82575118
-1828.41184994
-1812.93326251
-1797.45301915
-1782.02489012
-1766.69258832
-1751.48736192
-1736.42308917
-1721.48441367
-1706.61034307
-1691.72381286
-1676.88161109
-1662.2334699
-1647.93355523
-1634.15782718
-1621.00679564
-1608.38138077
-1596.16174492
-1584.17010553
-1572.26719335
-1560.47457355
-1548.81443309
-1537.30790479
-1525.97437662
-1514.83113336
-1503.89330755
-1493.17390136
-1482.68395291
-1472.43266599
-1462.42762145
-1452.67490972
-1443.17932872
-1433.94448786
-1424.97297958
-1416.26645119
-1407.82575209
-1399.65097786
-1391.74159846
-1384.09648021
-1376.7139998
-1369.59204885
-1362.72813726
-1356.11938413
-1349.76261269
-1343.65433022
-1337.79081601
-1332.16809224
-1326.78200569
-1321.62819147
-1316.70214875
-1311.99919913
-1307.5145571
-1303.24328483
-1299.18035799
-1295.32061886
-1291.658838
-1288.18966746
-1284.90769897
-1281.80741784
-1278.88325875
-1276.1295598
-1273.54061643
-1271.11063677
-1268.83378839
-1266.70414184
-1264.71569753
-1262.86231482
-1261.1377751
-1259.53624065
-1258.05357908
-1256.69459297
-1255.50377873
-1254.66822748
-1254.81849985
-1257.37816096
-1262.34080299
-2048.37019128
-2006.22516744
-1995.85551184
-1996.56026552
-1998.47820945
-1999.35222681
-1998.66053171
-1996.21562064
-1991.97012385
-1985.97051847
-1978.32572504
-1969.18211407
-1958.70452726
-1947.06352405
-1934.42676904
-1920.95405341
-1906.7942812
-1892.08420764
-1876.9478954
-1861.49687353
-1845.83035289
-1830.0356302
-1814.18847352
-1798.35375494
-1782.58585301
-1766.92724494
-1751.40553543
-1736.02646733
-1720.75714055
-1705.51561728
-1690.25908814
-1675.08610033
-1660.15882312
-1645.63981262
-1631.7118197
-1618.43325729
-1605.68575491
-1593.33498018