/*--------------------------------*- C++ -*----------------------------------*\
| =========                 |                                                 |
| \\      /  F ield         | OpenFOAM: The Open Source CFD Toolbox           |
|  \\    /   O peration     | Version:  v1906                                 |
|   \\  /    A nd           | Web:      www.OpenFOAM.com                      |
|    \\/     M anipulation  |                                                 |
\*---------------------------------------------------------------------------*/
FoamFile
{
    version     2.0;
    format      ascii;
    class       volVectorField;
    location    "458";
    object      Ua;
}
// * * * * * * * * * * * * * * * * * * * * * * * * * * * * * * * * * * * * * //

dimensions      [0 1 -1 0 0 0 0];


internalField   nonuniform List<vector> 
9216
(
(-0.00661901186602 0.00662224668259 0)
(-0.00680426388442 0.0206522366632 2.38350405099e-27)
(-0.00678984137369 0.0347608815236 -4.58173512765e-31)
(-0.00674132712742 0.0488596691939 0)
(-0.00667354100064 0.0628120631932 0)
(-0.0065879203904 0.076582706817 0)
(-0.00648598380491 0.0901320278503 0)
(-0.00636863586595 0.103423380471 0)
(-0.0062369243948 0.116422407099 0)
(-0.00609167853191 0.129097221105 0)
(-0.00593399641886 0.141418352185 0)
(-0.00576472485777 0.153358914989 0)
(-0.00558498907852 0.1648945131 0)
(-0.00539559303677 0.176003305553 0)
(-0.00519761074244 0.186665827508 0)
(-0.0049917270466 0.196864948379 0)
(-0.00477888824587 0.206585617892 0)
(-0.00455959568501 0.215814732497 0)
(-0.00433460953789 0.224540832596 0)
(-0.00410420707872 0.232753907718 0)
(-0.0038689329744 0.240445078128 0)
(-0.00362883201479 0.247606374892 0)
(-0.00338423714742 0.254230444048 0)
(-0.00313498531955 0.260310339705 0)
(-0.00288123390467 0.265839283956 0)
(-0.00262266601046 0.270810504013 0)
(-0.00235932502677 0.275217074784 0)
(-0.0020908159435 0.279051824031 0)
(-0.00181714976161 0.282307275971 0)
(-0.00153794875335 0.28497562868 0)
(-0.00125328156051 0.287048867879 0)
(-0.000962865768649 0.288518730214 0)
(-0.000666935794354 0.289376955332 0)
(-0.000365451752138 0.289615466182 0)
(-5.89151052827e-05 0.289226655815 0)
(0.000252388915487 0.288203662965 0)
(0.000567599278948 0.286540774886 0)
(0.000886018017389 0.284233771398 0)
(0.00120635939333 0.281280409947 0)
(0.00152746230719 0.277680801515 0)
(0.00184759093723 0.273437938517 0)
(0.00216510935421 0.268558059575 0)
(0.00247784156305 0.263051188767 0)
(0.00278369067327 0.256931462815 0)
(0.00308006491389 0.25021767142 0)
(0.00336442325662 0.24293354703 0)
(0.00363378030764 0.235108313492 0)
(0.00388517212681 0.226776945209 0)
(0.00411526835538 0.217980694795 0)
(0.00432077796603 0.208767264911 0)
(0.00449821041634 0.199191156099 0)
(0.00464426539405 0.189313553989 0)
(0.0047557620738 0.179202156278 0)
(0.00483004824154 0.168930461659 0)
(0.00486503320024 0.158576683904 0)
(0.00485960610373 0.148222245252 0)
(0.00481360474428 0.137949651807 0)
(0.00472822812926 0.127840363742 0)
(0.00460574366697 0.117971946766 0)
(0.00444987792271 0.108415877115 0)
(0.00426500419337 0.0992348362519 0)
(0.00405646039136 0.0904815915612 0)
(0.00382926100624 0.08219784593 0)
(0.00358885636972 0.0744147575797 0)
(0.00333991017917 0.0671529019271 0)
(0.00308754936115 0.0604230651279 0)
(0.00283588125969 0.0542264357907 0)
(0.00258933761489 0.0485556175028 0)
(0.00235097656299 0.0433954579846 0)
(0.00212402373382 0.0387244772924 0)
(0.00191017137336 0.0345161661061 0)
(0.00171127047002 0.0307404644401 0)
(0.00152766789575 0.0273651699356 0)
(0.00135996555073 0.0243571746998 0)
(0.00120746421862 0.0216836651159 0)
(0.00106991964334 0.0193128342629 0)
(0.000946072920288 0.0172146336107 0)
(0.00083526767189 0.0153609634164 0)
(0.000736031832696 0.0137261035933 0)
(0.000647485207843 0.0122866602048 0)
(0.000567893894465 0.0110220112179 0)
(0.00049556754843 0.00991457366031 0)
(0.000425881815783 0.00895562391997 0)
(0.000347049473632 0.00809934477375 0)
(0.000291782595525 0.00739540316338 0)
(0.000286354077987 0.0068768612342 0)
(0.000270282156446 0.0062662484601 0)
(0.00023788106955 0.00575935400791 0)
(0.000246248740735 0.00532373733258 0)
(0.000274589738179 0.00480010343616 0)
(0.000280498759815 0.00426330676543 0)
(0.000290225398372 0.00367814965833 0)
(0.000335260705749 0.00303011661447 0)
(0.000384758177281 0.00231068725801 0)
(0.000436595321695 0.00143060249998 0)
(0.000469402197418 0.00045797274311 0)
(-0.0206820665326 0.00684459161852 0)
(-0.0218346625332 0.0219368388372 0)
(-0.0217604034207 0.0369413772706 -2.45000369502e-27)
(-0.021573846739 0.0519481938162 0)
(-0.0213199877551 0.0667873710092 0)
(-0.0210038387034 0.0814292381515 0)
(-0.0206291456521 0.0958334059855 0)
(-0.0201992686857 0.109961395076 0)
(-0.0197180153594 0.123776821883 0)
(-0.0191890309462 0.13724579857 0)
(-0.0186164496564 0.15033704898 0)
(-0.018004081949 0.163022039227 0)
(-0.0173561335588 0.175274961247 0)
(-0.0166762817178 0.187072733916 0)
(-0.0159684890899 0.198394876407 0)
(-0.0152360019312 0.209223396891 0)
(-0.0144822604831 0.219542573594 0)
(-0.0137098420126 0.229338753224 0)
(-0.0129214632625 0.238600067818 0)
(-0.0121188886627 0.247316176014 0)
(-0.0113040172556 0.255477953145 0)
(-0.0104777715955 0.263077215973 0)
(-0.00964125605595 0.270106427704 0)
(-0.00879463672134 0.276558447155 0)
(-0.00793835402861 0.282426286239 0)
(-0.00707199898386 0.287702917354 0)
(-0.00619556101094 0.292381111567 0)
(-0.00530830560227 0.296453327513 0)
(-0.0044100412191 0.29991164758 0)
(-0.00350000602877 0.302747766576 0)
(-0.00257814041859 0.304953010887 0)
(-0.0016439591616 0.306518524641 0)
(-0.00069785407192 0.307435361172 0)
(0.000260000151114 0.307694705155 0)
(0.00122841704998 0.307288176444 0)
(0.00220625896005 0.306208150328 0)
(0.00319125350879 0.304448165571 0)
(0.00418103821801 0.302003332363 0)
(0.00517205296987 0.298870818715 0)
(0.0061605633613 0.295050302664 0)
(0.00714164575719 0.290544491607 0)
(0.00811017008017 0.285359570639 0)
(0.0090598813731 0.27950571488 0)
(0.00998430504253 0.272997504537 0)
(0.0108759207952 0.265854419284 0)
(0.0117269527197 0.25810122727 0)
(0.0125286497096 0.249768482172 0)
(0.0132719614018 0.240892909944 0)
(0.0139469949531 0.231517905316 0)
(0.014543658786 0.22169387051 0)
(0.0150514279708 0.211478568149 0)
(0.0154601030791 0.200937178712 0)
(0.0157599815431 0.190142138276 0)
(0.0159428141164 0.179172494317 0)
(0.0160022450024 0.168112763599 0)
(0.0159348337641 0.157051269622 0)
(0.0157403405937 0.146077881682 0)
(0.0154226052594 0.135281486196 0)
(0.0149892461218 0.124746937226 0)
(0.0144521642285 0.11455218847 0)
(0.013825952307 0.104765338704 0)
(0.0131275124659 0.095442956834 0)
(0.0123733232661 0.086629320376 0)
(0.0115801012137 0.0783570514452 0)
(0.0107630253231 0.0706475887459 0)
(0.00993763405852 0.0635117662649 0)
(0.00911750571377 0.0569501053864 0)
(0.00831593616328 0.0509536634848 0)
(0.00754321221445 0.0455051096501 0)
(0.00680869338038 0.0405802375982 0)
(0.006118304009 0.0361494963378 0)
(0.00547698281994 0.0321796010451 0)
(0.00488633846356 0.0286350964872 0)
(0.00434730960146 0.0254797826342 0)
(0.00385813113491 0.0226779841949 0)
(0.00341710856026 0.0201953961248 0)
(0.00302072092722 0.0179997349008 0)
(0.00266610761177 0.0160609917065 0)
(0.00234914509067 0.0143516683099 0)
(0.00206655858748 0.0128466855658 0)
(0.00181392536393 0.0115232733466 0)
(0.00158705304448 0.0103602841382 0)
(0.00137906383777 0.00933699001847 0)
(0.00117470478724 0.00842737436506 0)
(0.00100760973518 0.00751185729494 0)
(0.000932944331907 0.00679894052887 0)
(0.000819964053862 0.00614534703684 0)
(0.000719731975093 0.00565678856774 0)
(0.000725552059818 0.00513519521558 0)
(0.000796402474057 0.00471255064772 0)
(0.000839255071979 0.00425379650533 0)
(0.000900657108936 0.00363720292372 0)
(0.00100491010584 0.00297130437411 0)
(0.00125178114116 0.00236317219969 0)
(0.00153765407927 0.00151380222613 0)
(0.00138950606917 0.00041373588254 0)
(-0.0349510682605 0.00689993788035 0)
(-0.0369203352781 0.0221195427659 0)
(-0.0367684235379 0.0372163525473 -2.45335016746e-27)
(-0.0364474839968 0.0523327161496 0)
(-0.0360194611551 0.067279352972 0)
(-0.0354894319969 0.0820252099121 0)
(-0.0348621636655 0.0965289218486 0)
(-0.0341429882261 0.110751483616 0)
(-0.0333378885801 0.124656124088 0)
(-0.0324531154567 0.138208651146 0)
(-0.0314953128132 0.151377602247 0)
(-0.0304710979058 0.164134351468 0)
(-0.0293872211837 0.176453123437 0)
(-0.028250111562 0.188310964882 0)
(-0.0270660804342 0.199687636382 0)
(-0.0258408531603 0.210565467601 0)
(-0.0245798288014 0.220929146285 0)
(-0.0232876180756 0.230765480999 0)
(-0.0219683682355 0.240063117281 0)
(-0.0206253248142 0.248812243437 0)
(-0.0192612260791 0.257004274054 0)
(-0.0178778985494 0.264631542751 0)
(-0.0164767164934 0.271686998755 0)
(-0.0150582313926 0.278163931117 0)
(-0.0136226829129 0.284055718637 0)
(-0.0121696549531 0.289355620547 0)
(-0.0106986207626 0.294056608604 0)
(-0.00920861790655 0.298151246691 0)
(-0.00769881353473 0.301631622209 0)
(-0.00616819361772 0.304489323684 0)
(-0.00461615852721 0.306715502637 0)
(-0.0030421949432 0.308300946876 0)
(-0.00144647790576 0.309236248571 0)
(0.000170411529471 0.309512035468 0)
(0.00180692382401 0.309119260837 0)
(0.0034608273148 0.308049546472 0)
(0.00512868644328 0.306295593823 0)
(0.0068061712393 0.303851626722 0)
(0.00848760581719 0.30071388396 0)
(0.0101663138866 0.296881112936 0)
(0.011834250528 0.292355087947 0)
(0.0134823711857 0.287141096376 0)
(0.0151003310156 0.281248431484 0)
(0.0166768333759 0.274690834958 0)
(0.0181993589421 0.267486952691 0)
(0.0196544442117 0.259660752203 0)
(0.021027427721 0.251241987931 0)
(0.0223026736774 0.242266656652 0)
(0.0234634284138 0.232777522617 0)
(0.0244921490907 0.222824613211 0)
(0.0253707099443 0.212465701183 0)
(0.0260811177205 0.201766595545 0)
(0.0266063089512 0.190801154086 0)
(0.0269313892395 0.179650800207 0)
(0.0270448803597 0.168403434202 0)
(0.0269401200575 0.157151677984 0)
(0.0266162979826 0.145990475145 0)
(0.0260794649151 0.135014237889 0)
(0.0253429031629 0.124313446526 0)
(0.0244272293025 0.113971018149 0)
(0.0233588732306 0.104058546563 0)
(0.0221674355043 0.0946339621036 0)
(0.0208821001646 0.0857413616904 0)
(0.0195307663341 0.0774125196026 0)
(0.0181397611403 0.0696680937094 0)
(0.0167350032837 0.0625179224939 0)
(0.0153406409678 0.0559610120918 0)
(0.0139788787035 0.0499862005017 0)
(0.0126681561464 0.0445734429999 0)
(0.0114236376891 0.0396955467163 0)
(0.0102561215083 0.0353199178006 0)
(0.0091730609753 0.0314102968702 0)
(0.00817773304951 0.0279284653576 0)
(0.0072705879088 0.0248358732192 0)
(0.00644897751553 0.0220950259875 0)
(0.00570891523712 0.019670381155 0)
(0.00504487399319 0.0175288548685 0)
(0.00445116029827 0.0156400005477 0)
(0.00392141176216 0.0139760860089 0)
(0.00344967773461 0.0125119644917 0)
(0.00302985312013 0.0112248033302 0)
(0.00265660176673 0.0100934411808 0)
(0.0023249930905 0.00909708026799 0)
(0.00203239524221 0.00822034654716 0)
(0.00178853076936 0.00732497218715 0)
(0.00162251065974 0.00665849967713 0)
(0.00145407219079 0.00614102133312 0)
(0.00127257325205 0.00542596958245 0)
(0.00117353907016 0.00480166098257 0)
(0.00123754506395 0.00442720345484 0)
(0.00144327608554 0.00412344223498 0)
(0.00150339166262 0.0033051384289 0)
(0.00173152486469 0.00273540169714 0)
(0.00204010501826 0.00200071950077 0)
(0.00230752707267 0.00120534763268 0)
(0.00224590627456 0.000371336413547 0)
(-0.0494171843768 0.00695745811937 0)
(-0.0522250572425 0.0223234884232 0)
(-0.0520077915687 0.0375443756342 2.4530256938e-27)
(-0.0515496537756 0.0527900375995 0)
(-0.0509393477909 0.0678623473998 0)
(-0.0501845197964 0.0827290423957 0)
(-0.0492918361339 0.0973475960919 0)
(-0.0482689243 0.111678190282 0)
(-0.0471242687341 0.125683456892 0)
(-0.0458669175769 0.139328786531 0)
(-0.0445063473143 0.1525824803 0)
(-0.0430521680224 0.165415845921 0)
(-0.0415140046869 0.177803216462 0)
(-0.0399012017172 0.18972190721 0)
(-0.0382227319913 0.201152102964 0)
(-0.0364869199566 0.212076690648 0)
(-0.0347013973128 0.222481033822 0)
(-0.0328728672345 0.232352705379 0)
(-0.0310071258987 0.24168118038 0)
(-0.0291088879792 0.250457507046 0)
(-0.0271818869475 0.258673962734 0)
(-0.0252287713621 0.26632371293 0)
(-0.0232512829575 0.273400481971 0)
(-0.0212502178006 0.279898250101 0)
(-0.0192256663525 0.285810984105 0)
(-0.017177021627 0.291132410048 0)
(-0.0151032592841 0.295855832395 0)
(-0.0130029755634 0.299974002447 0)
(-0.010874691995 0.303479040464 0)
(-0.00871691488661 0.306362400892 0)
(-0.00652847490907 0.308614940863 0)
(-0.0043085667121 0.310226967691 0)
(-0.00205711822945 0.311188415158 0)
(0.000225124442282 0.311489080069 0)
(0.00253627174453 0.311118917016 0)
(0.00487321619059 0.310068402137 0)
(0.00723134949947 0.308328964618 0)
(0.00960454174806 0.305893466046 0)
(0.011984942833 0.302756723234 0)
(0.0143630437557 0.298916044938 0)
(0.0167275792682 0.294371775141 0)
(0.0190656621253 0.289127810223 0)
(0.0213627551678 0.283192091261 0)
(0.0236028152967 0.276577050059 0)
(0.0257682573454 0.269300034022 0)
(0.0278400228883 0.261383713346 0)
(0.0297974819909 0.25285652369 0)
(0.0316184302074 0.243753164083 0)
(0.0332790385346 0.234115198973 0)
(0.0347540194408 0.223991747402 0)
(0.0360170085575 0.213440222939 0)
(0.0370413844504 0.20252698229 0)
(0.0378015587338 0.191327686541 0)
(0.0382747462473 0.179927105808 0)
(0.0384430466649 0.168418135843 0)
(0.0382955122898 0.156899921582 0)
(0.0378299136808 0.145475201755 0)
(0.0370541086398 0.134247110305 0)
(0.035987269072 0.123315215244 0)
(0.0346601493837 0.112770754749 0)
(0.0331137658892 0.10269093228 0)
(0.0313934006379 0.0931351720348 0)
(0.0295422539384 0.0841461289061 0)
(0.0275994921035 0.0757536252346 0)
(0.0256022770707 0.0679771557841 0)
(0.0235876487468 0.0608253938659 0)
(0.0215911558096 0.0542951475705 0)
(0.0196449675045 0.0483717511095 0)
(0.0177759756367 0.0430308045656 0)
(0.0160054996771 0.0382404195853 0)
(0.0143489753574 0.0339632840861 0)
(0.0128164116355 0.0301585353246 0)
(0.0114121668697 0.0267836539598 0)
(0.0101357423606 0.0237964523224 0)
(0.00898261115594 0.0211567561301 0)
(0.00794596793699 0.018827321265 0)
(0.00701756758116 0.0167741007574 0)
(0.00618867525654 0.0149661978481 0)
(0.00545021878506 0.0133758089594 0)
(0.0047934831291 0.0119780684875 0)
(0.00421025476837 0.0107507817853 0)
(0.00369366357603 0.00967393904036 0)
(0.00323900810856 0.00872938966762 0)
(0.00285184593755 0.00790253437002 0)
(0.00249092329113 0.00700510110122 0)
(0.00227948473871 0.00648274778107 0)
(0.00206290023211 0.00585109348462 0)
(0.00185333087403 0.00513864474012 0)
(0.00177738188033 0.00465499119482 0)
(0.00173255463707 0.00399934356819 0)
(0.00188122389995 0.00344748259678 0)
(0.0022440916975 0.00306588533938 0)
(0.00237488566906 0.00223278470436 0)
(0.00270035473509 0.00156285831592 0)
(0.00302728568265 0.00095182626778 0)
(0.00301597271262 0.000311392802094 0)
(-0.0640303287596 0.00703175355146 0)
(-0.0676732010484 0.0225929932537 0)
(-0.0673891542535 0.0379860191447 0)
(-0.0667905663593 0.0534062573431 0)
(-0.0659931832553 0.0686475266179 0)
(-0.0650074305587 0.0836763555529 0)
(-0.0638422041942 0.0984488333466 0)
(-0.062507648924 0.112924056965 0)
(-0.0610149983271 0.127063829804 0)
(-0.0593762741885 0.140832964435 0)
(-0.05760402361 0.154199432708 0)
(-0.0557110134436 0.167134456239 0)
(-0.0537099753358 0.179612521347 0)
(-0.0516133109357 0.19161132302 0)
(-0.0494328634699 0.203111638275 0)
(-0.0471796569823 0.214097134805 0)
(-0.0448637201094 0.224554118947 0)
(-0.042493888068 0.234471232532 0)
(-0.0400777071113 0.243839107791 0)
(-0.0376213264353 0.252649994274 0)
(-0.035129504209 0.260897371555 0)
(-0.03260560227 0.268575564087 0)
(-0.0300516944008 0.275679372893 0)
(-0.0274686529244 0.282203737715 0)
(-0.0248563365866 0.288143439933 0)
(-0.0222137399236 0.293492853153 0)
(-0.0195392290088 0.298245745532 0)
(-0.0168307263226 0.302395134733 0)
(-0.0140859745076 0.305933198001 0)
(-0.0113027469224 0.308851222262 0)
(-0.00847915315423 0.311139673784 0)
(-0.00561383240248 0.312788220736 0)
(-0.00270630720343 0.313785911975 0)
(0.000242770583585 0.314121415796 0)
(0.00323130967441 0.313783324003 0)
(0.00625554447547 0.312760539599 0)
(0.00930977479988 0.311042741594 0)
(0.0123862100873 0.308620912102 0)
(0.015474821028 0.305487911037 0)
(0.0185633124729 0.301639071003 0)
(0.0216371167137 0.297072788541 0)
(0.0246794908159 0.291791079839 0)
(0.0276716060408 0.285800083239 0)
(0.030592676299 0.279110493669 0)
(0.0334200121783 0.27173794324 0)
(0.0361290294416 0.263703356594 0)
(0.0386931400572 0.255033344312 0)
(0.0410835916282 0.245760706496 0)
(0.0432692974895 0.235925126766 0)
(0.0452168232212 0.225574099554 0)
(0.0468907253378 0.214764065933 0)
(0.0482544836116 0.203561612941 0)
(0.0492722247605 0.192044436642 0)
(0.0499112722903 0.180301650768 0)
(0.0501452540843 0.168432995986 0)
(0.0499572237803 0.156546768841 0)
(0.0493421172874 0.144756722858 0)
(0.0483085290673 0.133178676365 0)
(0.046881412838 0.121926011433 0)
(0.0451033385112 0.111103495259 0)
(0.0430352939345 0.100797256295 0)
(0.040743746436 0.0910674153862 0)
(0.0382878759347 0.0819519575413 0)
(0.035716615077 0.0734766190211 0)
(0.0330767111893 0.0656599296719 0)
(0.0304173787375 0.0585101129976 0)
(0.0277873722412 0.0520213034299 0)
(0.0252304224987 0.0461736815657 0)
(0.0227823883169 0.0409363523923 0)
(0.0204708865884 0.0362706662805 0)
(0.0183157626204 0.0321327179726 0)
(0.0163295105104 0.0284751696068 0)
(0.014516987842 0.0252492934428 0)
(0.0128757768021 0.0224076520879 0)
(0.0113980308932 0.0199064420837 0)
(0.0100731095852 0.0177064004615 0)
(0.00888924984887 0.0157725119128 0)
(0.00783431200427 0.0140735012261 0)
(0.00689598636109 0.0125816546682 0)
(0.00606243693535 0.0112726829246 0)
(0.00532258045812 0.0101255968538 0)
(0.00466660767676 0.00912273814442 0)
(0.00408654561928 0.00825555239211 0)
(0.0035874693017 0.00746902740976 0)
(0.00319401155778 0.00676286880589 0)
(0.00295667222194 0.00624778878062 0)
(0.00277457733102 0.00563521705864 0)
(0.00254942645602 0.00493240416127 0)
(0.0023163825928 0.0041131137726 0)
(0.00232807982125 0.00358436939007 0)
(0.00238510321661 0.0029066312938 0)
(0.00276996605647 0.00249680732922 0)
(0.00319930247801 0.00196847226715 0)
(0.00331370505625 0.00125268443474 0)
(0.00350444226556 0.000729551807863 0)
(0.00349099436995 0.000241485145949 0)
(-0.0788404928622 0.00712439892924 0)
(-0.0833252813394 0.0229334322961 0)
(-0.0829711914557 0.0385466769721 0)
(-0.0822268126584 0.0541891216928 0)
(-0.0812352391138 0.0696449330584 0)
(-0.080009822877 0.0848792596193 0)
(-0.0785619575192 0.0998465348513 0)
(-0.0769045743005 0.114504502006 0)
(-0.0750519478423 0.128813911975 0)
(-0.0730193465078 0.142738839671 0)
(-0.0708226815783 0.156246838199 0)
(-0.0684781426866 0.169309027289 0)
(-0.066001849613 0.181900101561 0)
(-0.0634095018309 0.193998261126 0)
(-0.0607160592309 0.205585065064 0)
(-0.0579354347147 0.216645211957 0)
(-0.0550802367399 0.227166251736 0)
(-0.0521615422537 0.237138237703 0)
(-0.049188740523 0.24655332942 0)
(-0.0461694247382 0.25540536207 0)
(-0.0431093685607 0.26368939958 0)
(-0.0400125557044 0.271401291288 0)
(-0.0368812914271 0.278537250708 0)
(-0.033716353739 0.285093472912 0)
(-0.0305172061576 0.291065802372 0)
(-0.0272822256407 0.296449457789 0)
(-0.02400896887 0.301238815706 0)
(-0.0206944363125 0.305427250932 0)
(-0.017335365643 0.309007033219 0)
(-0.0139285225201 0.311969258764 0)
(-0.0104710437334 0.314303918029 0)
(-0.00696071551762 0.315999883692 0)
(-0.00339638733483 0.317045089576 0)
(0.000221679657321 0.317426766046 0)
(0.00389143753091 0.317131754436 0)
(0.00760870761002 0.316146922435 0)
(0.0113668629303 0.314459674747 0)
(0.0151565881524 0.312058544341 0)
(0.0189657122007 0.308933843942 0)
(0.0227791532449 0.305078344422 0)
(0.026578956452 0.30048794249 0)
(0.0303444327352 0.295162274042 0)
(0.0340523464137 0.289105237592 0)
(0.0376771158119 0.282325404958 0)
(0.0411909443235 0.274836326184 0)
(0.0445638244202 0.266656773739 0)
(0.0477633558332 0.257811016031 0)
(0.0507543838115 0.248329254251 0)
(0.0534985364333 0.238248371261 0)
(0.0559538557153 0.227613129106 0)
(0.0580748506072 0.216477854508 0)
(0.0598133729759 0.204908472404 0)
(0.0611207709141 0.192984484918 0)
(0.0619514445404 0.180800160485 0)
(0.0622675595999 0.168464122763 0)
(0.0620436786973 0.156096823688 0)
(0.0612699682567 0.143826542608 0)
(0.0599533939365 0.131786431189 0)
(0.0581235201908 0.120110033209 0)
(0.0558356661523 0.108924622209 0)
(0.0531817499223 0.0983313053214 0)
(0.0502605871006 0.0883877060099 0)
(0.0471499449175 0.0791189478457 0)
(0.0439024233636 0.070542417658 0)
(0.0405707542277 0.0626778865123 0)
(0.0372185731056 0.0555360306715 0)
(0.0339118428683 0.0491081729077 0)
(0.0307084535507 0.0433667518756 0)
(0.0276537962343 0.0382712544623 0)
(0.0247814357406 0.033773779601 0)
(0.0221152508382 0.0298218933653 0)
(0.0196703166446 0.0263597464369 0)
(0.0174515447486 0.0233299083795 0)
(0.0154529226922 0.0206774873024 0)
(0.0136609047674 0.0183540852438 0)
(0.0120593144304 0.0163185405374 0)
(0.0106320751822 0.0145353065739 0)
(0.00936328487239 0.0129729399632 0)
(0.0082368617115 0.0116039410191 0)
(0.00723747459643 0.0104046706352 0)
(0.00635066753964 0.00935495807785 0)
(0.00556279436104 0.00843780605674 0)
(0.00486091565642 0.00764669844147 0)
(0.00424114768069 0.00689175148353 0)
(0.00381998159135 0.00626528729226 0)
(0.00357297282325 0.00572983385219 0)
(0.00330511402904 0.00501342941299 0)
(0.00318021130249 0.00447298379311 0)
(0.00309785683754 0.00388630120967 0)
(0.00310927091969 0.00330355650122 0)
(0.00295408599059 0.00247481451729 0)
(0.00315841739004 0.00191517248138 0)
(0.00369709498311 0.00157124432797 0)
(0.00389303647297 0.00106661788264 0)
(0.00394983477701 0.000598195246581 0)
(0.00394252568767 0.000197931060952 0)
(-0.0938938173743 0.00723695873208 0)
(-0.099231485029 0.0233489560832 0)
(-0.0988028054065 0.039231752486 2.47082861845e-27)
(-0.0979054988416 0.0551459089606 0)
(-0.0967104808553 0.0708636678945 0)
(-0.0952342130169 0.0863484946704 0)
(-0.0934908625154 0.101552809156 0)
(-0.0914964652704 0.116432702902 0)
(-0.089268683079 0.130947637035 0)
(-0.0868263823197 0.145060784474 0)
(-0.0841891983278 0.158739191826 0)
(-0.0813770932498 0.171953867598 0)
(-0.0784099207415 0.18467978344 0)
(-0.0753069992349 0.19689578954 0)
(-0.0720867075982 0.208584445198 0)
(-0.0687661070443 0.219731765817 0)
(-0.0653606076144 0.230326890619 0)
(-0.0618836867157 0.240361678205 0)
(-0.05834668046 0.249830242749 0)
(-0.0547586535261 0.258728448109 0)
(-0.0511263624276 0.267053382459 0)
(-0.047454306994 0.274802838098 0)
(-0.0437448709913 0.281974821424 0)
(-0.0399985317505 0.288567113751 0)
(-0.0362141276085 0.294576897448 0)
(-0.0323891569198 0.300000452969 0)
(-0.0285200994327 0.304832925029 0)
(-0.0246027438524 0.309068150423 0)
(-0.0206325273426 0.312698541655 0)
(-0.0166048856342 0.315714996431 0)
(-0.0125156501294 0.318106958862 0)
(-0.00836139375092 0.319862359816 0)
(-0.00413993025642 0.320967789319 0)
(0.000149240170625 0.321408718984 0)
(0.00450445580895 0.321169823666 0)
(0.00892143523176 0.320235427912 0)
(0.0133928634324 0.318590074678 0)
(0.0179080625716 0.316219202597 0)
(0.0224527763125 0.31310990572 0)
(0.0270090990651 0.309251733516 0)
(0.0315555576622 0.304637475886 0)
(0.0360673377589 0.299263868815 0)
(0.0405166090856 0.293132158763 0)
(0.0448728751141 0.28624848057 0)
(0.049103236046 0.278624041498 0)
(0.0531724427307 0.270275163714 0)
(0.0570426276382 0.261223311868 0)
(0.0606726612724 0.251495315608 0)
(0.0640171927705 0.241124056099 0)
(0.0670256200265 0.230149908555 0)
(0.0696414400247 0.218623122501 0)
(0.071802724514 0.206607121186 0)
(0.073444506071 0.194182144694 0)
(0.0745038015107 0.181448119816 0)
(0.0749268412666 0.168524946239 0)
(0.0746765531735 0.155548920238 0)
(0.0737362665085 0.142666198638 0)
(0.072106404259 0.13003199705 0)
(0.069817369286 0.117808049713 0)
(0.0669324881017 0.106161474917 0)
(0.0635987680205 0.0952219092387 0)
(0.0599713961081 0.0850353378703 0)
(0.0561499093542 0.0755935381975 0)
(0.0521709929141 0.0668972042641 0)
(0.0480845720173 0.0589758901247 0)
(0.0439751556644 0.0518510423519 0)
(0.0399347328817 0.0455110475384 0)
(0.0360396681751 0.0399155156102 0)
(0.0323447076123 0.0350092278264 0)
(0.0288876039091 0.0307320232197 0)
(0.0256955190297 0.0270215081087 0)
(0.0227869352367 0.0238113796248 0)
(0.0201672367861 0.021031824601 0)
(0.0178239197352 0.0186169486418 0)
(0.0157333552021 0.0165127825 0)
(0.0138711419467 0.0146775304011 0)
(0.0122164321509 0.0130764505373 0)
(0.010749743016 0.011678262672 0)
(0.00945052616671 0.0104558246416 0)
(0.00829977895968 0.00938647309096 0)
(0.00727978089578 0.00845089862782 0)
(0.00637339250184 0.00763278153734 0)
(0.00556497502124 0.00692745818284 0)
(0.00484821356143 0.00621603938152 0)
(0.00445837769495 0.00571276813291 0)
(0.00418814083867 0.00514625123123 0)
(0.00394505634749 0.00454657956297 0)
(0.0037260686614 0.00390831335739 0)
(0.00370224912312 0.00338236306531 0)
(0.0036291088085 0.00272382533154 0)
(0.00374335907206 0.00222051771464 0)
(0.00366354704027 0.00155433348415 0)
(0.00392166260565 0.00116129696228 0)
(0.00430033569493 0.000867140317365 0)
(0.00431451299951 0.000486738645653 0)
(0.00430885548378 0.000161135658406 0)
(-0.109239811085 0.00737065061278 0)
(-0.115444293865 0.0238440520566 0)
(-0.114935431391 0.0400480254179 -2.47044915223e-27)
(-0.113876260592 0.0562857935596 0)
(-0.112466230537 0.0723151353209 0)
(-0.110725189195 0.0880974350934 0)
(-0.108670419073 0.103582679142 0)
(-0.106321449656 0.118724967638 0)
(-0.103699749993 0.133482214386 0)
(-0.100828217781 0.147816516573 0)
(-0.0977306520169 0.161694326126 0)
(-0.0944312213316 0.175086538292 0)
(-0.0909539380288 0.187968485064 0)
(-0.0873221425483 0.200319835267 0)
(-0.0835580084901 0.212124399732 0)
(-0.0796820771062 0.223369841208 0)
(-0.0757128389242 0.234047289658 0)
(-0.0716663790018 0.244150869415 0)
(-0.0675561089558 0.253677150662 0)
(-0.0633926020619 0.262624546733 0)
(-0.05918354721 0.270992685487 0)
(-0.0549338226756 0.278781788469 0)
(-0.0506456842081 0.285992091421 0)
(-0.0463190449378 0.292623334747 0)
(-0.0419518217141 0.298674341901 0)
(-0.0375403149773 0.304142690248 0)
(-0.0330795999775 0.3090244661 0)
(-0.0285639134873 0.313314087024 0)
(-0.0239870398753 0.317004176284 0)
(-0.0193427067721 0.320085447221 0)
(-0.014625035045 0.322546750689 0)
(-0.00982894451761 0.324374948779 0)
(-0.00495075278583 0.325555068097 0)
(1.127233829e-05 0.326070492119 0)
(0.00505630770305 0.325903281572 0)
(0.01018037631 0.325034651551 0)
(0.0153757981875 0.32344561107 0)
(0.0206307436593 0.321117752514 0)
(0.0259289398953 0.318034161596 0)
(0.0312495781054 0.314180393078 0)
(0.0365674484388 0.30954543562 0)
(0.0418533003911 0.304122568743 0)
(0.0470743792064 0.2979100096 0)
(0.0521950327854 0.290911261483 0)
(0.0571772246301 0.283135123103 0)
(0.0619807417388 0.274595400821 0)
(0.0665628804199 0.265310484602 0)
(0.0708774471936 0.255303094247 0)
(0.0748730607156 0.244600641521 0)
(0.078490979398 0.233236736685 0)
(0.0816630919195 0.221254378742 0)
(0.0843111602674 0.208711024102 0)
(0.086349014923 0.195685113409 0)
(0.0876893742697 0.182282105503 0)
(0.088255703813 0.168636529607 0)
(0.0879957720712 0.154905937105 0)
(0.086886381179 0.141256105348 0)
(0.0849114233817 0.127867258095 0)
(0.0820936751837 0.11493583882 0)
(0.0784759561474 0.102705706808 0)
(0.0743181380513 0.0913698539944 0)
(0.0698871507756 0.0809384673692 0)
(0.0653078531639 0.0713181891418 0)
(0.0605422275063 0.0624767777189 0)
(0.0556193502247 0.0544818038578 0)
(0.0506644445077 0.0473859921214 0)
(0.0458154946113 0.0411725182796 0)
(0.0411737048143 0.0357765822261 0)
(0.0367999707948 0.0311190622449 0)
(0.0327308678039 0.0271244738334 0)
(0.0289950997811 0.0237211134095 0)
(0.025617836962 0.0208313576183 0)
(0.0226082935254 0.0183667950526 0)
(0.0199422660797 0.0162435224131 0)
(0.0175769197482 0.0144012412191 0)
(0.0154752506091 0.0128015664338 0)
(0.0136128408746 0.0114138679302 0)
(0.0119684620624 0.0102070025797 0)
(0.0105154735687 0.00915395207907 0)
(0.00923118159379 0.00823390538807 0)
(0.00809513941344 0.00742854626825 0)
(0.00708662972834 0.0067226689995 0)
(0.00618970626194 0.00611110871167 0)
(0.00538276121808 0.00544736661032 0)
(0.00504196994218 0.00504265378789 0)
(0.00473356244515 0.0044818141426 0)
(0.00456777087813 0.00400455140001 0)
(0.0043863472785 0.0034263815031 0)
(0.00427467531882 0.00285531951712 0)
(0.00414590020146 0.00224875494914 0)
(0.00414794656353 0.001754350408 0)
(0.00428075737575 0.00134444360952 0)
(0.00423003414258 0.000897553561319 0)
(0.00463099048268 0.000664714127772 0)
(0.0046093734146 0.000394102875532 0)
(0.00458912806625 0.000125895184924 0)
(-0.124931171717 0.00752678555602 0)
(-0.132019050698 0.0244239804428 0)
(-0.131423223568 0.0410037801693 0)
(-0.130191272729 0.0576200842727 0)
(-0.128552090154 0.0740133747003 0)
(-0.126529288562 0.0901425112807 0)
(-0.124143695438 0.105954560496 0)
(-0.121418812685 0.121401254035 0)
(-0.118380426092 0.136438676334 0)
(-0.115055989383 0.151027664525 0)
(-0.111473994209 0.165133986929 0)
(-0.107663340423 0.178728430562 0)
(-0.103652712519 0.191786786988 0)
(-0.0994699665801 0.204289737308 0)
(-0.0951415335313 0.216222633123 0)
(-0.0906918506402 0.227575167155 0)
(-0.0861428398787 0.238340930274 0)
(-0.0815134595989 0.248516856602 0)
(-0.0768193593198 0.258102569732 0)
(-0.0720726673229 0.267099654724 0)
(-0.0672819323095 0.275510893871 0)
(-0.0624522273614 0.28333951218 0)
(-0.0575854049551 0.290588481058 0)
(-0.0526804738769 0.297259920758 0)
(-0.0477340535756 0.303354626467 0)
(-0.0427408584214 0.308871720413 0)
(-0.0376941717219 0.313808411176 0)
(-0.0325862905866 0.318159826668 0)
(-0.0274089466078 0.32191888918 0)
(-0.0221537297098 0.325076173134 0)
(-0.0168125744163 0.32761992676 0)
(-0.0113782197692 0.329535851957 0)
(-0.0058449146407 0.330807215428 0)