/*--------------------------------*- C++ -*----------------------------------*\
| =========                 |                                                 |
| \\      /  F ield         | OpenFOAM: The Open Source CFD Toolbox           |
|  \\    /   O peration     | Version:  v1906                                 |
|   \\  /    A nd           | Web:      www.OpenFOAM.com                      |
|    \\/     M anipulation  |                                                 |
\*---------------------------------------------------------------------------*/
FoamFile
{
    version     2.0;
    format      ascii;
    class       volVectorField;
    location    "78";
    object      U;
}
// * * * * * * * * * * * * * * * * * * * * * * * * * * * * * * * * * * * * * //

dimensions      [0 1 -1 0 0 0 0];


internalField   nonuniform List<vector> 
9216
(
(0.00283337857407 -0.0028442653745 0)
(0.00298679342614 -0.00918184347605 1.3147038651e-27)
(0.00298031896409 -0.0156225264122 1.93091371119e-31)
(0.00294309317778 -0.0220671842175 0)
(0.00289211729773 -0.0284101433034 0)
(0.00282640277351 -0.0346249573197 0)
(0.00275090402121 -0.0406873644861 0)
(0.00266430082507 -0.046574390095 0)
(0.00257069199329 -0.0522654248102 0)
(0.00246777748236 -0.0577430847945 0)
(0.00236067908415 -0.0629922801456 0)
(0.00224565814031 -0.0680005764606 0)
(0.00212739875937 -0.0727568873783 0)
(0.00200201760537 -0.0772481241964 0)
(0.00187839267915 -0.0814716843425 0)
(0.00175191162951 -0.0854242870942 0)
(0.00162752444576 -0.0891039764124 0)
(0.0014982500315 -0.0925082283259 0)
(0.00137086766958 -0.0956343968194 0)
(0.00124064704814 -0.0984826936504 0)
(0.00111450003332 -0.101053499817 0)
(0.000986013509899 -0.10334938752 0)
(0.000863255880198 -0.105372281636 0)
(0.000737444534366 -0.107125726288 0)
(0.00061679780706 -0.108611301093 0)
(0.000493257326585 -0.109828464057 0)
(0.000373222454404 -0.110788048214 0)
(0.000249454958057 -0.111480081165 0)
(0.00013361795441 -0.1119131228 0)
(1.51048387367e-05 -0.112092856139 0)
(-9.35623646011e-05 -0.112014950291 0)
(-0.000211258413444 -0.111709525919 0)
(-0.000329443988084 -0.111134881871 0)
(-0.000446948592526 -0.110303913188 0)
(-0.000553170615222 -0.109237207526 0)
(-0.000662338204577 -0.107934567484 0)
(-0.000765005090151 -0.106396572936 0)
(-0.000871039261383 -0.104634392946 0)
(-0.000969397235172 -0.102646871158 0)
(-0.00106801235946 -0.100446994586 0)
(-0.00115414832433 -0.0980414156429 0)
(-0.00124144247926 -0.0954528537702 0)
(-0.00131891458473 -0.0926772038166 0)
(-0.00139334156588 -0.0897395246072 0)
(-0.0014548823323 -0.0866535941609 0)
(-0.00151091721309 -0.0834392992242 0)
(-0.00155176323418 -0.0801183502189 0)
(-0.00158805394329 -0.0767119018172 0)
(-0.00160822785926 -0.0732433712555 0)
(-0.00162218891662 -0.0697368692083 0)
(-0.00162077563576 -0.0662162473185 0)
(-0.00161244009869 -0.0627052330769 0)
(-0.00158900373091 -0.0592288030075 0)
(-0.00156031640219 -0.0558082573074 0)
(-0.00151833947538 -0.0524644667626 0)
(-0.00147282171447 -0.0492152556933 0)
(-0.00141722706707 -0.0460777348087 0)
(-0.00135993165184 -0.0430602255495 0)
(-0.00129340977891 -0.0401791128908 0)
(-0.00122788377277 -0.0374395491982 0)
(-0.00115786341346 -0.0348469469626 0)
(-0.00109124295004 -0.0324021962399 0)
(-0.00102155178661 -0.0301054301285 0)
(-0.000956337230423 -0.0279537484673 0)
(-0.000891272629713 -0.0259434186715 0)
(-0.000832932242705 -0.0240683357345 0)
(-0.000773021397199 -0.0223208571157 0)
(-0.000718913791578 -0.0206963284995 0)
(-0.000664444598028 -0.0191911795759 0)
(-0.000616910645412 -0.0177952050968 0)
(-0.000570601995451 -0.0165014824537 0)
(-0.000530716038957 -0.0153001855973 0)
(-0.000491015268349 -0.0141852482885 0)
(-0.000457487043764 -0.0131487557009 0)
(-0.000424794278116 -0.0121838322287 0)
(-0.000397151502849 -0.0112831017596 0)
(-0.000369537951288 -0.0104421157067 0)
(-0.000346170405912 -0.00965543305878 0)
(-0.000322688581872 -0.00891948932338 0)
(-0.000303428245658 -0.00822915478912 0)
(-0.000283486347305 -0.00758071752463 0)
(-0.000266827836558 -0.00697082684469 0)
(-0.000249790121016 -0.00639714311239 0)
(-0.000234578753539 -0.00585744965323 0)
(-0.000217931588415 -0.00535167383241 0)
(-0.000201913680547 -0.00488237620283 0)
(-0.00017931904975 -0.00445170058792 0)
(-0.000142905284277 -0.00406648527225 0)
(-0.00010423284916 -0.00368132471249 0)
(-0.000119737550932 -0.00347214769319 0)
(-0.0001654908732 -0.00320458321886 0)
(-0.000190669290042 -0.00279858957849 0)
(-0.000220591938048 -0.00233727171762 0)
(-0.000275403494651 -0.0018182789621 0)
(-0.000316922046281 -0.00110244765121 0)
(-0.000336332817524 -0.000342707094366 0)
(0.00917604693234 -0.00302729160912 0)
(0.0101505038242 -0.0102498018651 0)
(0.0101326098275 -0.0174631467453 -1.38050833992e-27)
(0.0100037986747 -0.0246869183355 0)
(0.00982620513268 -0.0317860013744 0)
(0.00960420593555 -0.0387393845815 0)
(0.00934661623147 -0.045520714012 0)
(0.00905289028427 -0.0521034880939 0)
(0.0087318474884 -0.0584638538028 0)
(0.0083822559903 -0.0645832039605 0)
(0.00801415241675 -0.0704434826908 0)
(0.00762445452595 -0.0760311777731 0)
(0.0072219399954 -0.0813357246436 0)
(0.00680420563954 -0.0863462253307 0)
(0.00638321159923 -0.0910681291713 0)
(0.00595166714314 -0.0954749099354 0)
(0.00552077251755 -0.0995781541485 0)
(0.00508384766579 -0.103359547429 0)
(0.00465359164141 -0.106843693804 0)
(0.00421850058008 -0.110016887127 0)
(0.00379050709604 -0.112885670351 0)
(0.00335899943267 -0.115450313202 0)
(0.00293614492958 -0.117708782795 0)
(0.00251085080271 -0.119661915776 0)
(0.00209596312229 -0.121316022912 0)
(0.00167843082265 -0.122672346135 0)
(0.00127094716539 -0.123732101605 0)
(0.000861843630836 -0.12451521184 0)
(0.000463705027226 -0.125004765101 0)
(6.48342888808e-05 -0.125209388559 0)
(-0.000319010934167 -0.125136748336 0)
(-0.000714269855855 -0.12476721329 0)
(-0.00110808407954 -0.124135047172 0)
(-0.00150134486415 -0.123221640889 0)
(-0.00187219548826 -0.122037434096 0)
(-0.00224195060421 -0.12058297089 0)
(-0.00259839520259 -0.118865344208 0)
(-0.00295372032404 -0.116891408961 0)
(-0.00328931882896 -0.114668670354 0)
(-0.00361866663455 -0.112214208255 0)
(-0.0039232414316 -0.10952911513 0)
(-0.00421897096791 -0.106621373366 0)
(-0.00448662914907 -0.103512695689 0)
(-0.00473444981344 -0.100220333989 0)
(-0.00494532926302 -0.0967614122512 0)
(-0.00513244000144 -0.0931684770308 0)
(-0.00528147641094 -0.0894443738409 0)
(-0.0054020474395 -0.0856241422058 0)
(-0.00547477699159 -0.0817325631522 0)
(-0.00551781797567 -0.0777984124744 0)
(-0.00551760291642 -0.0738483162328 0)
(-0.00548366852785 -0.0699093095616 0)
(-0.00540705029543 -0.0660096609717 0)
(-0.00530484166502 -0.0621742489264 0)
(-0.00516522931446 -0.0584262475688 0)
(-0.00500490045889 -0.0547873242602 0)
(-0.0048166182087 -0.0512755233803 0)
(-0.00461577990502 -0.04790582777 0)
(-0.00439529445495 -0.0446913098072 0)
(-0.00417095760862 -0.0416313468989 0)
(-0.00393639210575 -0.0387375859409 0)
(-0.00370606815298 -0.0360104248218 0)
(-0.00347276053696 -0.0334495726001 0)
(-0.00325012471595 -0.0310530701728 0)
(-0.00302940180363 -0.0288068498248 0)
(-0.0028239916534 -0.0267243845487 0)
(-0.00262222732336 -0.0247828849505 0)
(-0.00243501933812 -0.0229821093846 0)
(-0.00225436321876 -0.0213129417762 0)
(-0.00208974508135 -0.0197628018259 0)
(-0.00193507139563 -0.018328433813 0)
(-0.00179757651529 -0.0169968592392 0)
(-0.00166560138913 -0.0157606513084 0)
(-0.00155042746252 -0.0146114962401 0)
(-0.00144323831687 -0.0135413752985 0)
(-0.00134777121949 -0.012541920928 0)
(-0.00125660521646 -0.0116078437285 0)
(-0.00117620508117 -0.0107347090365 0)
(-0.00109767844004 -0.00991438885694 0)
(-0.00103079060127 -0.00914751402936 0)
(-0.000967979594262 -0.0084273716014 0)
(-0.000910590957396 -0.0077438444808 0)
(-0.000854723516292 -0.00710463054085 0)
(-0.000801699148836 -0.00649859720321 0)
(-0.000746553325718 -0.00593191304537 0)
(-0.000693502956041 -0.0053999867487 0)
(-0.000626436442726 -0.00490322968958 0)
(-0.000532777552723 -0.00444850018639 0)
(-0.000424287196779 -0.00396867734652 0)
(-0.000428218393583 -0.0035473826087 0)
(-0.000530991539666 -0.00326478544704 0)
(-0.000604381741561 -0.002851055625 0)
(-0.00070735347877 -0.00236182908341 0)
(-0.000921081907129 -0.00184959929852 0)
(-0.00118732963515 -0.00121172405692 0)
(-0.00109587818013 -0.000331491488155 0)
(0.0157095178334 -0.0030741603937 0)
(0.0174018346139 -0.0104135699212 0)
(0.0173474625707 -0.0177190234344 -1.37830696235e-27)
(0.0171185166591 -0.0250464843911 0)
(0.016808629786 -0.0322451739129 0)
(0.0164268600057 -0.0392932186078 0)
(0.0159814046959 -0.0461612773218 0)
(0.0154774614085 -0.0528262224851 0)
(0.0149228758884 -0.0592615686118 0)
(0.0143234969197 -0.065449099323 0)
(0.0136884951484 -0.071373450173 0)
(0.0130206286293 -0.0770160373451 0)
(0.0123294750057 -0.0823685281343 0)
(0.0116192421679 -0.0874219157405 0)
(0.0108963514082 -0.092170181201 0)
(0.0101605486612 -0.096614302498 0)
(0.00941968238525 -0.100744386936 0)
(0.00867720593033 -0.104568499333 0)
(0.00793896125307 -0.108072908061 0)
(0.00719972136999 -0.111264324034 0)
(0.00646614895348 -0.114143451237 0)
(0.00573240201184 -0.116712564499 0)
(0.00500542389304 -0.118974998034 0)
(0.00428274648645 -0.120933551204 0)
(0.00357123486804 -0.122593125613 0)
(0.00286757293707 -0.123953317436 0)
(0.00217496184552 -0.125035992718 0)
(0.00148348877753 -0.125822774313 0)
(0.000799323977305 -0.126312104573 0)
(0.000118174822439 -0.126524350343 0)
(-0.000553201822433 -0.126434765913 0)
(-0.00122320924645 -0.126070452244 0)
(-0.00188836216522 -0.125419950035 0)
(-0.00254836486613 -0.124493278756 0)
(-0.00319201850994 -0.123305678989 0)
(-0.00382744560592 -0.121832698616 0)
(-0.00444711307167 -0.120093812253 0)
(-0.00505149989204 -0.118092294636 0)
(-0.00562870546097 -0.115837058887 0)
(-0.00618774542663 -0.113338381781 0)
(-0.00671895693848 -0.110606444338 0)
(-0.00722459006232 -0.107653285009 0)
(-0.00768620727082 -0.10449455454 0)
(-0.00809990859014 -0.101145274005 0)
(-0.00846611990204 -0.0976391592156 0)
(-0.00878357473624 -0.093973558343 0)
(-0.00904125280402 -0.0901832497273 0)
(-0.00924333606339 -0.0863059145873 0)
(-0.00937776349894 -0.0823539834978 0)
(-0.00944839506791 -0.0783466297202 0)
(-0.00945134652601 -0.0743321597508 0)
(-0.00939331926218 -0.0703321570578 0)
(-0.00926978897711 -0.0663603783203 0)
(-0.00908914103059 -0.0624563532521 0)
(-0.00885019448403 -0.0586424126658 0)
(-0.00856729687273 -0.0549440213643 0)
(-0.00824334958892 -0.0513791457983 0)
(-0.00789079604643 -0.0479616718805 0)
(-0.00751384225101 -0.0447032585092 0)
(-0.00712411557657 -0.0416124314103 0)
(-0.00672344205224 -0.0386940114262 0)
(-0.00632318828813 -0.0359489295971 0)
(-0.0059251029322 -0.0333765522355 0)
(-0.0055395824563 -0.0309724248285 0)
(-0.00516352051289 -0.0287318687979 0)
(-0.00480488609921 -0.0266508057198 0)
(-0.00446147956967 -0.0247182400693 0)
(-0.00413920900585 -0.0229253193611 0)
(-0.00383586318066 -0.0212638585926 0)
(-0.00355600595799 -0.0197246986413 0)
(-0.00329459147815 -0.018289023054 0)
(-0.0030567181877 -0.0169628287091 0)
(-0.00283750136801 -0.0157319398881 0)
(-0.0026378485172 -0.0145790333069 0)
(-0.00245522734863 -0.0135141057178 0)
(-0.0022902803458 -0.0125205416166 0)
(-0.00213828944199 -0.0115921445728 0)
(-0.00200138965557 -0.0107226343951 0)
(-0.00187495361062 -0.0099096469648 0)
(-0.00175680301975 -0.00913129036281 0)
(-0.00164958117282 -0.00841353531814 0)
(-0.00154940657226 -0.00773119470681 0)
(-0.00145584402496 -0.0070925293511 0)
(-0.00136629581073 -0.00648941981426 0)
(-0.00127930008927 -0.00592064819393 0)
(-0.00119363501356 -0.00537768602612 0)
(-0.00109347262474 -0.00486868757374 0)
(-0.000980964697603 -0.00439093593125 0)
(-0.000850944049809 -0.00389098992248 0)
(-0.000768344658984 -0.00330840022626 0)
(-0.000887668437741 -0.00311402767105 0)
(-0.0010743715752 -0.00273755672641 0)
(-0.00121772634081 -0.00211638407218 0)
(-0.001469890345 -0.00152864505493 0)
(-0.0017783699374 -0.000958468320354 0)
(-0.00175268943449 -0.000290201756619 0)
(0.0223930618153 -0.00311927195159 0)
(0.0248269417628 -0.0105638141795 0)
(0.024746235923 -0.0179647249405 1.37769403853e-27)
(0.0244141843618 -0.0253877999144 0)
(0.0239659922448 -0.0326776662143 0)
(0.0234159625003 -0.039810080895 0)
(0.022774647771 -0.046757019355 0)
(0.0220490872221 -0.0534883540554 0)
(0.0212524569289 -0.0599856175417 0)
(0.0203922308307 -0.0662244535098 0)
(0.0194794494977 -0.0721897752745 0)
(0.0185225177121 -0.0778676901256 0)
(0.0175330394015 -0.0832480429354 0)
(0.0165194744506 -0.0883263419463 0)
(0.0154880532535 -0.0930963447532 0)
(0.0144404161948 -0.0975480264777 0)
(0.0133860049388 -0.101684544014 0)
(0.0123283523283 -0.105504324756 0)
(0.01127268896 -0.109007735544 0)
(0.010219710023 -0.112196271052 0)
(0.00917395702261 -0.115072531892 0)
(0.00813448312245 -0.117637608365 0)
(0.00710176722843 -0.119903233962 0)
(0.00607874799833 -0.121855416624 0)
(0.00507183190452 -0.123518411201 0)
(0.00407885631429 -0.124885021852 0)
(0.00309307110917 -0.125953783381 0)
(0.00210837830846 -0.126731982615 0)
(0.00113433623964 -0.127214656382 0)
(0.000166522504965 -0.127408310596 0)
(-0.000793471946527 -0.127325779795 0)
(-0.00174733250368 -0.126944636768 0)
(-0.00269381126613 -0.126284481475 0)
(-0.00362588293537 -0.125344954234 0)
(-0.00454256227358 -0.124129176912 0)
(-0.00544865656714 -0.122641773808 0)
(-0.00633290328063 -0.120883106979 0)
(-0.00719750781004 -0.118873494223 0)
(-0.00802927070637 -0.116592152058 0)
(-0.00882951650267 -0.114063838554 0)
(-0.00958762241636 -0.111299884472 0)
(-0.0102980221598 -0.108305055439 0)
(-0.0109595657311 -0.10513003733 0)
(-0.011557489813 -0.101741308849 0)
(-0.012088608806 -0.0981625685968 0)
(-0.0125499417196 -0.0944459542918 0)
(-0.0129254037249 -0.0905773300619 0)
(-0.0132113735734 -0.0866046404187 0)
(-0.0134055048737 -0.0825544931857 0)
(-0.0135059713208 -0.0784595257047 0)
(-0.0135071300048 -0.0743488064754 0)
(-0.0134186738236 -0.0702555623931 0)
(-0.0132393946597 -0.0662073682405 0)
(-0.0129795150111 -0.0622456414381 0)
(-0.0126359623011 -0.0583683041492 0)
(-0.0122222668949 -0.0546159221161 0)
(-0.0117536029307 -0.0510066058075 0)
(-0.0112423324805 -0.0475541101329 0)
(-0.0106981317808 -0.0442696931695 0)
(-0.0101320724735 -0.0411622283194 0)
(-0.00955507939298 -0.0382358360449 0)
(-0.00897687504512 -0.0354904300883 0)
(-0.00840541866176 -0.0329247388964 0)
(-0.00785091016385 -0.0305317199948 0)
(-0.00730918012034 -0.0283050799865 0)
(-0.00679031698212 -0.0262471926227 0)
(-0.00629952813456 -0.0243409919073 0)
(-0.00584140461736 -0.0225747005566 0)
(-0.00541225648368 -0.0209404038035 0)
(-0.00501785973673 -0.0194274050207 0)
(-0.00465442510646 -0.018022769175 0)
(-0.00431871111239 -0.0167184053777 0)
(-0.00400869392445 -0.0155025368117 0)
(-0.00372641887045 -0.0143793033114 0)
(-0.00346750945638 -0.0133317563346 0)
(-0.00323350199719 -0.0123539182878 0)
(-0.00301986900174 -0.0114405405485 0)
(-0.00282541163207 -0.0105867667607 0)
(-0.00264984239949 -0.00978802977662 0)
(-0.00248705622639 -0.00903841659489 0)
(-0.00233516698767 -0.00833289245 0)
(-0.00219842715405 -0.0076675633275 0)
(-0.00206742967973 -0.0070284864867 0)
(-0.00194487840847 -0.00643270208111 0)
(-0.00182259498718 -0.00584993685644 0)
(-0.00170705954478 -0.00530775995994 0)
(-0.00158788398931 -0.00479693558969 0)
(-0.00145163443097 -0.00427359994246 0)
(-0.00132348712982 -0.00377202001811 0)
(-0.00118440845714 -0.00319894233946 0)
(-0.00126433021391 -0.00283635380855 0)
(-0.001512876173 -0.00237887798809 0)
(-0.00183501288005 -0.0019182421713 0)
(-0.00202416815416 -0.001267740251 0)
(-0.00231645470655 -0.000767844287035 0)
(-0.00233680356124 -0.000251293207321 0)
(0.0291835164597 -0.00317844175823 0)
(0.0323589796315 -0.0107602704505 0)
(0.0322494055054 -0.018292879518 0)
(0.0318096752501 -0.0258447861303 0)
(0.0312165986079 -0.0332558077322 0)
(0.030489986217 -0.0405004322185 0)
(0.0296420644112 -0.0475468317279 0)
(0.0286877055997 -0.0543716909239 0)
(0.0276369335918 -0.0609443264996 0)
(0.0265053713833 -0.0672493514465 0)
(0.0253065779071 -0.0732694303289 0)
(0.0240532232527 -0.0789910517224 0)
(0.0227602454535 -0.0844085917391 0)
(0.0214364902173 -0.0895145277898 0)
(0.020086321874 -0.0942974320919 0)
(0.0187199156319 -0.0987601940451 0)
(0.0173463062116 -0.102901392269 0)
(0.0159705383486 -0.10672107249 0)
(0.0145987997676 -0.110222275436 0)
(0.0132336645797 -0.113405623054 0)
(0.0118770747063 -0.116282323554 0)
(0.0105292212548 -0.118840198128 0)
(0.00919076325477 -0.121088140184 0)
(0.00787016285153 -0.123039928631 0)
(0.00657140311522 -0.124691771218 0)
(0.00528125937347 -0.126057150384 0)
(0.00399797861966 -0.127107976764 0)
(0.00272286913079 -0.127883006472 0)
(0.00145641568904 -0.128354501006 0)
(0.000201690047119 -0.128538627376 0)
(-0.00104591218797 -0.128432635076 0)
(-0.00228295856353 -0.128043010423 0)
(-0.00350532876408 -0.127370288872 0)
(-0.00471624790158 -0.126433289477 0)
(-0.00591191297789 -0.125201529055 0)
(-0.00709060034907 -0.123694564481 0)
(-0.00824002642687 -0.12191344018 0)
(-0.00936344830023 -0.119859990713 0)
(-0.0104504582998 -0.117565071387 0)
(-0.0114901078694 -0.114994628141 0)
(-0.0124851352175 -0.112220426544 0)
(-0.0134135627986 -0.109166595304 0)
(-0.0142835536473 -0.105915701885 0)
(-0.0150819343532 -0.102435325856 0)
(-0.0157861761498 -0.0987714380133 0)
(-0.0163898963255 -0.0949434430476 0)
(-0.0168886766167 -0.0909752350519 0)
(-0.0172730127597 -0.0869148493487 0)
(-0.0175337397198 -0.0827551311009 0)
(-0.0176647874517 -0.0785492395843 0)
(-0.0176644035589 -0.0743256925579 0)
(-0.0175406284191 -0.0701220566658 0)
(-0.0172930451713 -0.0659710353036 0)
(-0.0169371939563 -0.0619005230295 0)
(-0.0164823231037 -0.0579529664498 0)
(-0.0159300206727 -0.0541267983784 0)
(-0.0153056018258 -0.0504602522116 0)
(-0.0146250850506 -0.04696306892 0)
(-0.013901371788 -0.0436465746587 0)
(-0.0131479445045 -0.0405194288597 0)
(-0.0123840674554 -0.0375863464609 0)
(-0.011621357465 -0.0348440720139 0)
(-0.0108705658799 -0.0322929296212 0)
(-0.0101328937956 -0.0299204980527 0)
(-0.00941019384823 -0.0277283119286 0)
(-0.00873056526534 -0.0257201563849 0)
(-0.008097316827 -0.0238523295769 0)
(-0.0075068488551 -0.0221255474888 0)
(-0.006952125557 -0.0205260919522 0)
(-0.00644386916653 -0.0190445909159 0)
(-0.005978561148 -0.017669372382 0)
(-0.00554636924703 -0.0163908293566 0)
(-0.00514701363082 -0.0152055763449 0)
(-0.00478466100495 -0.0141050444638 0)
(-0.00445562077574 -0.0130792739272 0)
(-0.00415428112174 -0.0121160405223 0)
(-0.00387797675388 -0.0112179874364 0)
(-0.00362766328159 -0.0103797285786 0)
(-0.00340088390912 -0.00959392028783 0)
(-0.0031912368372 -0.00885526946973 0)
(-0.00299813057523 -0.00815888675141 0)
(-0.00282226334384 -0.00749860041581 0)
(-0.00266016540417 -0.00688169066343 0)
(-0.00250802602848 -0.00629423755281 0)
(-0.00236342034879 -0.0057354096905 0)
(-0.00222112683562 -0.00519662467734 0)
(-0.00208973703515 -0.00468361139942 0)
(-0.00194528875883 -0.00418253801865 0)
(-0.00179091153138 -0.00362712847046 0)
(-0.00173367045585 -0.00318125332783 0)
(-0.00172579137381 -0.00254285120321 0)
(-0.00194470823027 -0.00204391432561 0)
(-0.00225927714534 -0.00159949072562 0)
(-0.00260246953046 -0.0011330306516 0)
(-0.00270334662143 -0.000617244963852 0)
(-0.00276872521069 -0.000207953654496 0)
(0.0361163539348 -0.00325320360428 0)
(0.0400458330291 -0.0110115721155 0)
(0.0399030529983 -0.0187150159528 0)
(0.0393477224954 -0.026432802237 0)
(0.0385996175758 -0.033999014432 0)
(0.0376845662827 -0.0413862723899 0)
(0.036619978144 -0.0485637038955 0)
(0.0354185230358 -0.0554977453326 0)
(0.0341022285001 -0.0621700933898 0)
(0.032686081298 -0.0685568288726 0)
(0.0311884711144 -0.0746441347034 0)
(0.0296281133404 -0.080419120182 0)
(0.0280218156001 -0.0858829009173 0)
(0.0263734529971 -0.0910132321701 0)
(0.0246983355044 -0.0958167163681 0)
(0.0230073764125 -0.100291116628 0)
(0.0213094006641 -0.104437135239 0)
(0.0196125638909 -0.108255960898 0)
(0.0179231395542 -0.111758847609 0)
(0.0162412163973 -0.114934094845 0)
(0.0145696375328 -0.117793287594 0)
(0.0129099507528 -0.120339084258 0)
(0.0112700994982 -0.122571471976 0)
(0.00965539486605 -0.124519631468 0)
(0.00805972723426 -0.126165553504 0)
(0.00647122577836 -0.127499734942 0)
(0.00489272615712 -0.128554960057 0)
(0.00332410371059 -0.129302761853 0)
(0.00176658947118 -0.12976360761 0)
(0.000222246856874 -0.129936598532 0)
(-0.00130826847633 -0.129819532877 0)
(-0.00282528824239 -0.12943317053 0)
(-0.00432921367824 -0.128747001219 0)
(-0.00582066796633 -0.127780401411 0)
(-0.00729843737496 -0.126531998943 0)
(-0.00875198607121 -0.125000828719 0)
(-0.0101734237118 -0.123210037616 0)
(-0.0115556242419 -0.121121539086 0)
(-0.0128999584217 -0.118808041444 0)
(-0.0141914925129 -0.116186809493 0)
(-0.0154343696294 -0.113337818197 0)
(-0.0166092361195 -0.110215018329 0)
(-0.0177003179855 -0.106863271823 0)
(-0.0186972012458 -0.103288247727 0)
(-0.0195875668604 -0.0995381991742 0)
(-0.0203513277243 -0.0955908815874 0)
(-0.0209745134286 -0.091496629171 0)
(-0.0214506040382 -0.0872829480996 0)
(-0.0217769353744 -0.0829826083051 0)
(-0.0219466275708 -0.078649718297 0)
(-0.0219478804161 -0.0742819797803 0)
(-0.0217850514447 -0.0699387165353 0)
(-0.0214630408882 -0.0656537914659 0)
(-0.0210005545944 -0.0614597094008 0)
(-0.0204140904533 -0.05740481868 0)
(-0.0197108555534 -0.0534867883618 0)
(-0.01891233622 -0.0497476419349 0)
(-0.0180430898059 -0.0461935333209 0)
(-0.0171289928621 -0.042851196145 0)
(-0.0161740130028 -0.0397017759337 0)
(-0.015219361697 -0.0367793019567 0)
(-0.0142458530932 -0.0340519857229 0)
(-0.0132714957122 -0.0315137393892 0)
(-0.0123581608057 -0.0292357271212 0)
(-0.0114653776919 -0.0270966098903 0)
(-0.0106289580863 -0.0251301238862 0)
(-0.00985044164529 -0.0233015221405 0)
(-0.00912997838967 -0.0216279166581 0)
(-0.00845400612441 -0.0200720542693 0)
(-0.0078361732477 -0.0186331183452 0)
(-0.00727428395156 -0.017300681565 0)
(-0.00675295073241 -0.0160645367418 0)
(-0.00626692296381 -0.0149030179705 0)
(-0.00582058593531 -0.013818365766 0)
(-0.00542363286761 -0.0128191395913 0)
(-0.0050645809932 -0.0118824412194 0)
(-0.00473074253135 -0.0110008363607 0)
(-0.00441878012034 -0.0101652296354 0)
(-0.00414139765168 -0.00938979663969 0)
(-0.00388951706095 -0.00866377234401 0)
(-0.00365349793748 -0.00797124409184 0)
(-0.00344221397481 -0.00732589366493 0)
(-0.00324422731562 -0.00671011192369 0)
(-0.00305852369285 -0.00611999654599 0)
(-0.00288688753242 -0.00555995364479 0)
(-0.00272969631297 -0.00502652618506 0)
(-0.00257500366718 -0.00450226450772 0)
(-0.00241672444241 -0.00400522366116 0)
(-0.00225608869767 -0.00345407888898 0)
(-0.00230586272917 -0.00304854236554 0)
(-0.00236921319028 -0.00246030402754 0)
(-0.00242530716498 -0.00182644981484 0)
(-0.00265163765838 -0.00135426148433 0)
(-0.00305692843681 -0.00101335660459 0)
(-0.00312374852545 -0.000562299584882 0)
(-0.00314213995742 -0.000175320017126 0)
(0.0432307227033 -0.00334603765334 0)
(0.0479287859532 -0.0113234940759 0)
(0.0477466382945 -0.0192392927449 1.36748327806e-27)
(0.0470653601469 -0.0271626886415 0)
(0.0461493992329 -0.0349205078038 0)
(0.0450318267588 -0.0424847681707 0)
(0.0437298670835 -0.049817711288 0)
(0.0422664283522 -0.0568893869035 0)
(0.0406666263916 -0.0636794854075 0)
(0.0389482870712 -0.0701639191175 0)
(0.0371369657062 -0.0763296178167 0)
(0.0352576479858 -0.0821746743181 0)
(0.0333174305831 -0.0876763481796 0)
(0.0313351391529 -0.0928399060753 0)
(0.029326437417 -0.0976643113128 0)
(0.0273023216498 -0.102149960924 0)
(0.0252748103543 -0.106298364854 0)
(0.0232536381713 -0.110120926746 0)
(0.0212378345856 -0.113607778204 0)
(0.0192338989334 -0.116771304053 0)
(0.0172464410897 -0.119615759298 0)
(0.0152775760958 -0.122143132704 0)
(0.0133426606244 -0.124368551367 0)
(0.0114330546291 -0.12630733378 0)
(0.00953004020431 -0.127932514536 0)
(0.00764254799823 -0.129252397599 0)
(0.00576852377347 -0.130279469739 0)
(0.00390660874811 -0.131012634537 0)
(0.00206351031218 -0.131459887588 0)
(0.000237454116106 -0.131618229478 0)
(-0.00157617998262 -0.131505436542 0)
(-0.00338053711339 -0.131089897104 0)
(-0.00517403732795 -0.130390641116 0)
(-0.00694750576513 -0.129407634243 0)
(-0.00870068480524 -0.128138592222 0)
(-0.0104288161145 -0.126600182055 0)
(-0.012124596114 -0.124777329838 0)
(-0.0137787018845 -0.122672560353 0)
(-0.01539630207 -0.120294946496 0)
(-0.0169662641284 -0.117619794213 0)
(-0.0184666315148 -0.114679374081 0)
(-0.0198860327113 -0.111473380225 0)
(-0.0212150182036 -0.108044128701 0)
(-0.0224274085291 -0.104355678594 0)
(-0.0235060750878 -0.100458611416 0)
(-0.0244357689101 -0.0963673499326 0)
(-0.0252070517224 -0.0921373955744 0)
(-0.0257945193929 -0.0877541648339 0)
(-0.0261893655119 -0.0832783990634 0)
(-0.0263856198547 -0.0787471494629 0)
(-0.0263806432792 -0.0741974377027 0)
(-0.0261780528959 -0.0696949598245 0)
(-0.025774412011 -0.0652423538703 0)
(-0.025188569306 -0.0608966908697 0)
(-0.0244540621675 -0.0567092375859 0)
(-0.0235749833854 -0.0526778292923 0)
(-0.0225883381411 -0.0488631715622 0)
(-0.0215130773009 -0.0452412127258 0)
(-0.0203910408624 -0.0418569172195 0)
(-0.0191985595468 -0.0386919424835 0)
(-0.017974185814 -0.0357474156254 0)
(-0.0168100131697 -0.0331361447237 0)
(-0.0156374839224 -0.0306654570722 0)
(-0.0145279800341 -0.0284175346272 0)
(-0.013475385607 -0.0263316307704 0)
(-0.0124684795183 -0.0243949431577 0)
(-0.0115532292526 -0.0226390597844 0)
(-0.0107057239528 -0.0210209680849 0)
(-0.00990596595488 -0.0195096991774 0)
(-0.00917905458998 -0.0181230132752 0)
(-0.00851687195476 -0.0168377186947 0)
(-0.00790840794508 -0.0156477779054 0)
(-0.00735162932066 -0.0145359156884 0)
(-0.00684095665814 -0.013503205596 0)
(-0.00636439566185 -0.0125153284588 0)
(-0.00594272654859 -0.0116081385326 0)
(-0.00555779527374 -0.0107530594976 0)
(-0.00520618180462 -0.00995347969028 0)
(-0.00487733741043 -0.00918565388702 0)
(-0.00458059167156 -0.00847305934113 0)
(-0.00430574563883 -0.00779140202898 0)
(-0.00405611816252 -0.00714892229801 0)
(-0.00383317654608 -0.00654260034793 0)
(-0.00362199214296 -0.00595487365604 0)
(-0.00342515394016 -0.00539239591529 0)
(-0.0032413990547 -0.00484285051064 0)
(-0.00307082838029 -0.00431353116952 0)
(-0.00290035649114 -0.00378602903337 0)
(-0.00274309434367 -0.00323240371192 0)
(-0.00273714978455 -0.00272091502967 0)
(-0.00291460053189 -0.00228543563972 0)
(-0.00300996733775 -0.0017454633521 0)
(-0.00301678352725 -0.00117114754382 0)
(-0.003365919575 -0.000862897776678 0)
(-0.0035263660476 -0.00052978196873 0)
(-0.0034985430188 -0.000158083128891 0)
(0.0505656577742 -0.00345858440842 0)
(0.0560523332448 -0.0117019740779 0)
(0.0558228516732 -0.0198755752593 -1.36672786255e-27)
(0.0550020011914 -0.0280474369469 0)
(0.053901190799 -0.0360365274293 0)
(0.0525600088122 -0.0438109308442 0)
(0.0510006203244 -0.0513301844991 0)
(0.0492527058441 -0.0585641269938 0)
(0.0473472828342 -0.0654916683936 0)
(0.0453064509937 -0.07208813927 0)
(0.0431639892187 -0.0783480054157 0)
(0.0409393083656 -0.0842565269441 0)
(0.038651313569 -0.0898076758481 0)
(0.0363224481355 -0.0950054970842 0)
(0.0339692887068 -0.0998507955065 0)
(0.0316041976276 -0.104344879826 0)
(0.0292411658946 -0.108499663504 0)
(0.0268829248623 -0.112306811278 0)
(0.0245373771546 -0.115780609778 0)
(0.0222104659702 -0.118926791037 0)
(0.0199050094967 -0.121751104993 0)
(0.017634099297 -0.124252806932 0)
(0.0154036845366 -0.12648784423 0)
(0.0131849379768 -0.128374486623 0)
(0.0109801812027 -0.129983923341 0)
(0.00879245701718 -0.131283897058 0)
(0.00662503858544 -0.132294105648 0)
(0.00447865761146 -0.133011408221 0)
(0.00235196496222 -0.133458613227 0)
(0.000239540468936 -0.133602942849 0)
(-0.00186241092395 -0.133462568835 0)
(-0.00395526152215 -0.133034609097 0)
(-0.0060295723228 -0.132319146361 0)
(-0.00808674719049 -0.131335845259 0)
(-0.0101207253974 -0.130044382753 0)
(-0.0121274032188 -0.128481334984 0)
(-0.0141049375769 -0.126624709955 0)
(-0.0160491842773 -0.124483745759 0)
(-0.0179571387602 -0.122035707923 0)
(-0.0198069627045 -0.119298684782 0)
(-0.0215826668639 -0.116299394574 0)
(-0.0232635447309 -0.11299839571 0)
(-0.0248391692799 -0.109436586831 0)
(-0.026284529063 -0.10561674027 0)
(-0.0275792248507 -0.101586408511 0)
(-0.0286928016596 -0.097323089016 0)
(-0.0296143885837 -0.0928847443054 0)
(-0.0303219825698 -0.0883009640353 0)
(-0.0307921777557 -0.0836074126613 0)
(-0.0310323602018 -0.0788753947603 0)
(-0.0310129907733 -0.074101303016 0)
(-0.0307573521351 -0.0693847274145 0)
(-0.0302585229885 -0.0647257903132 0)
(-0.02954446796 -0.0602124543187 0)
(-0.0286299962538 -0.0558415088056 0)
(-0.0275580517369 -0.0516916466589 0)
(-0.0263451412044 -0.047754449963 0)
(-0.0250404227744 -0.044061051307 0)
(-0.0236307226565 -0.0406194597327 0)
(-0.0221792554238 -0.0374794345117 0)
(-0.0207338758012 -0.0346223840855 0)
(-0.0193035169558 -0.0319771361771 0)
(-0.0179299548775 -0.0295573124951 0)
(-0.0166291546302 -0.0273472383104 0)
(-0.015408036382 -0.0253306424501 0)
(-0.0142625279652 -0.0235012134266 0)
(-0.0131830486931 -0.0217870551617 0)
(-0.0122071610623 -0.020247297005 0)
(-0.0112915817349 -0.018804122563 0)
(-0.010454426503 -0.0174778244485 0)
(-0.00970829636353 -0.0162721917154 0)
(-0.00900706574163 -0.015121412321 0)
(-0.00837422471349 -0.0140652421221 0)
(-0.00779979081926 -0.0130789412869 0)
(-0.00727339134512 -0.0121520813066 0)
(-0.00679282962541 -0.0112777272584 0)
(-0.00635808843777 -0.0104577178142 0)
(-0.00595001146842 -0.00966663477321 0)
(-0.00558459572673 -0.00893406874396 0)
(-0.00525277418881 -0.00823981783491 0)
(-0.00493941569721 -0.00756989931573 0)
(-0.00466072081167 -0.00694234618386 0)
(-0.00440390662579 -0.00633839839428 0)
(-0.00417339569574 -0.00576587805667 0)
(-0.003961497988 -0.00521652224236 0)
(-0.00376725077879 -0.00467620500359 0)
(-0.00360054746112 -0.00415498906871 0)
(-0.003425535197 -0.00360554244795 0)
(-0.00327091103986 -0.00304295494631 0)