/*--------------------------------*- C++ -*----------------------------------*\
| =========                 |                                                 |
| \\      /  F ield         | OpenFOAM: The Open Source CFD Toolbox           |
|  \\    /   O peration     | Version:  v1906                                 |
|   \\  /    A nd           | Web:      www.OpenFOAM.com                      |
|    \\/     M anipulation  |                                                 |
\*---------------------------------------------------------------------------*/
FoamFile
{
    version     2.0;
    format      ascii;
    class       volScalarField;
    location    "84";
    object      alpha;
}
// * * * * * * * * * * * * * * * * * * * * * * * * * * * * * * * * * * * * * //

dimensions      [0 0 -1 0 0 0 0];


internalField   nonuniform List<scalar> 
9216
(
128.258856811
199.9147508
199.921298425
199.921298425
199.921298425
199.926692857
199.926692857
199.926692857
199.926692857
199.926692857
199.921389743
199.910548468
199.911959692
199.89927005
199.89927005
199.89927005
199.910548468
199.919683986
199.919683986
199.919683986
199.919683986
199.899513976
199.895077387
199.895077387
199.895077387
199.895077387
199.879525624
199.872470996
199.866528795
199.854959851
199.851756952
199.81731108
199.828091782
199.862412644
199.865544099
199.883612741
199.884644198
199.884644198
199.884644198
199.884644198
199.884644198
199.874000675
199.855356935
199.853615754
199.867454109
199.867454109
199.867454109
199.867454109
199.867454109
199.866592561
199.870858012
199.875357491
199.880327146
199.884644198
199.884644198
199.881740318
199.871945487
199.859362675
199.838694882
199.808462
199.781971514
199.758163605
199.739864633
199.717557677
199.675826466
199.614497843
199.557822812
199.53888355
199.4743232
199.392947355
199.318125802
199.227405464
199.147986734
199.070964979
198.931948643
198.692725672
198.422432581
198.129718534
197.654828721
196.778004333
194.439096597
185.184651662
175.149273111
161.435211701
147.073625919
136.602781196
124.934739666
106.322523521
83.4456990727
64.7183222316
48.1408851263
35.7044777274
26.1959439069
17.4290102919
10.8867789066
1.17810763011
199.909389594
199.926132505
199.926692857
199.926692857
199.926692857
199.926692857
199.926692857
199.921298425
199.921298425
199.921298425
199.921298425
199.921298425
199.911147849
199.899869432
199.899869432
199.899869432
199.903996005
199.904488056
199.904488056
199.899546609
199.915304611
199.908644819
199.898494243
199.887452048
199.883023163
199.883023163
199.883023163
199.883023163
199.882833412
199.865833073
199.851909101
199.851909101
199.851909101
199.851909101
199.851909101
199.851909101
199.851909101
199.839377526
199.839377526
199.828099109
199.828099109
199.828099109
199.828099109
199.80899901
199.80899901
199.80899901
199.80899901
199.80899901
199.80899901
199.80899901
199.80899901
199.80899901
199.80899901
199.792702732
199.779887443
199.778105054
199.76522207
199.74346244
199.676454583
199.617181379
199.569401276
199.529789906
199.492648545
199.475022765
199.429857993
199.337115943
199.236173821
199.201561472
199.208644516
199.234052543
199.200682037
199.089213019
198.957247644
198.813052384
198.633650896
198.375745849
198.136587201
198.116057318
198.188996004
197.692960932
196.769872183
192.511438378
184.614959679
174.976889493
163.129153338
150.512644837
139.587537514
119.508032837
101.036091143
77.6932485396
57.8503376817
46.7237720371
37.9420849755
23.9523703364
15.9252551749
13.4006929222
199.921298425
199.927379781
199.925089691
199.928698194
199.921298425
199.921298425
199.921298425
199.921298425
199.921298425
199.921298425
199.915304611
199.915304611
199.915304611
199.915304611
199.887215825
199.898494243
199.898494243
199.898494243
199.898494243
199.898494243
199.898494243
199.898494243
199.898494243
199.883023163
199.883023163
199.868141713
199.854554656
199.840630684
199.840630684
199.840630684
199.828099109
199.828099109
199.80899901
199.80899901
199.80899901
199.80899901
199.80899901
199.80899901
199.80899901
199.80899901
199.80899901
199.80899901
199.787776678
199.787776678
199.758665111
199.758665111
199.732464701
199.732464701
199.708884331
199.676538146
199.676538146
199.676538146
199.676538146
199.676538146
199.676538146
199.676538146
199.676538146
199.663466369
199.627894947
199.560734241
199.499375091
199.450376572
199.404860863
199.349396899
199.260650924
199.135142458
198.999967616
198.888188656
198.762891093
198.586394177
198.395256792
198.36064631
198.108883745
198.205192987
197.913624797
197.491344323
197.167758299
196.843745998
196.362359291
195.939322189
195.182119084
188.677740542
180.249930981
171.902616349
160.848183394
147.638381298
128.814982373
121.245943343
108.783018554
81.4839250042
54.8112788569
51.5187367235
36.768361112
28.1368831225
25.0525789816
16.6481621909
199.926692857
199.928698194
199.928698194
199.928698194
199.921298425
199.921298425
199.921298425
199.921298425
199.915304611
199.915304611
199.915304611
199.915304611
199.915304611
199.898494243
199.898494243
199.898494243
199.898494243
199.898494243
199.898494243
199.898494243
199.898494243
199.887215825
199.887215825
199.871744745
199.854554656
199.840630684
199.828099109
199.828099109
199.80899901
199.80899901
199.80899901
199.80899901
199.80899901
199.80899901
199.80899901
199.80899901
199.787776678
199.787776678
199.787776678
199.787776678
199.735084742
199.708884331
199.676538146
199.676538146
199.676538146
199.676538146
199.676538146
199.676538146
199.676538146
199.676538146
199.64059794
199.64059794
199.64059794
199.64059794
199.64059794
199.64059794
199.64059794
199.64059794
199.63733321
199.587401143
199.52061417
199.459626523
199.39378924
199.333890576
199.247572829
199.121657307
198.974686046
198.846750678
198.726692893
198.560645716
198.379299644
198.151778782
197.882589025
197.803908176
197.379737041
196.941579897
196.578595916
196.215030864
195.734829725
194.880397103
187.982069849
175.152560694
168.976033693
162.711346007
154.638593281
140.294134444
127.632879751
120.624926313
101.126021399
88.3329604101
71.2474792417
47.9872554211
45.4745684045
36.9879202304
30.4200066835
19.1337841951
199.926692857
199.928698194
199.928698194
199.924957808
199.921298425
199.921298425
199.921298425
199.915304611
199.915304611
199.915304611
199.915304611
199.915304611
199.898494243
199.898494243
199.898494243
199.898494243
199.898494243
199.898494243
199.898494243
199.887215825
199.887215825
199.887215825
199.871744745
199.854554656
199.828099109
199.828099109
199.80899901
199.80899901
199.80899901
199.80899901
199.80899901
199.80899901
199.787776678
199.787776678
199.787776678
199.787776678
199.787776678
199.764196308
199.708884331
199.676538146
199.676538146
199.676538146
199.676538146
199.676538146
199.64059794
199.64059794
199.64059794
199.64059794
199.64059794
199.64059794
199.64059794
199.64059794
199.600664378
199.600664378
199.600664378
199.600664378
199.600664378
199.600664378
199.600664378
199.532787686
199.469921142
199.37838932
199.278145448
199.202735956
199.113832963
198.961125312
198.854627862
198.777909272
198.630661973
198.453060847
198.288844525
198.167716952
197.896785383
197.536858495
197.031088265
196.613969013
196.547868335
196.219333399
195.745822639
194.874657167
187.598806111
175.454017997
169.148827927
157.859281502
145.226748982
130.358890432
117.784087486
112.51615216
110.840026385
90.8669809189
79.4279324241
58.5633421306
43.7991815063
44.1733131457
40.1724303528
28.5084464133
199.926692857
199.928698194
199.928698194
199.921298425
199.921298425
199.921298425
199.915304611
199.915304611
199.915304611
199.915304611
199.915304611
199.908644819
199.898494243
199.898494243
199.898494243
199.898494243
199.898494243
199.887215825
199.887215825
199.887215825
199.887215825
199.871744745
199.854554656
199.828099109
199.80899901
199.80899901
199.80899901
199.80899901
199.80899901
199.80899901
199.787776678
199.787776678
199.787776678
199.787776678
199.787776678
199.764196308
199.708884331
199.708884331
199.676538146
199.676538146
199.676538146
199.676538146
199.64059794
199.64059794
199.64059794
199.64059794
199.64059794
199.600664378
199.600664378
199.600664378
199.600664378
199.600664378
199.556293753
199.556293753
199.556293753
199.506993059
199.506993059
199.45221451
199.45221451
199.387726783
199.138253135
198.953723951
198.819698264
198.728839783
198.661211944
198.600199914
198.428966558
198.404090217
198.30374933
198.15943192
198.003072342
197.756311574
197.434204804
196.983609128
196.645793321
196.607205657
196.3039722
195.679688777
195.298541986
194.801362375
187.93985654
173.136897143
162.471944132
156.164839377
144.256007783
130.459383285
126.356081992
112.857401473
97.70121496
82.6534288386
85.4253044685
73.9698300531
53.013265807
49.2953398799
48.6884350177
36.3250199824
199.926692857
199.928698194
199.928698194
199.921298425
199.921298425
199.915304611
199.915304611
199.915304611
199.915304611
199.915304611
199.915304611
199.898494243
199.898494243
199.898494243
199.887215825
199.887215825
199.887215825
199.887215825
199.887215825
199.887215825
199.887215825
199.854554656
199.828099109
199.80899901
199.80899901
199.80899901
199.80899901
199.80899901
199.787776678
199.787776678
199.787776678
199.787776678
199.787776678
199.764196308
199.764196308
199.708884331
199.676538146
199.676538146
199.676538146
199.676538146
199.64059794
199.64059794
199.64059794
199.64059794
199.600664378
199.600664378
199.600664378
199.600664378
199.600664378
199.556293753
199.556293753
199.556293753
199.506993059
199.506993059
199.45221451
199.45221451
199.391349456
199.391349456
199.154049828
198.744703103
198.661211944
198.428966558
198.428966558
198.428966558
198.254407286
198.254407286
198.254407286
198.254407286
198.06045254
198.059929872
197.977655291
197.740139576
197.435098847
197.063269328
196.674014341
196.587299115
196.076530032
195.56916364
195.35786801
193.652382758
180.522449353
171.050831463
158.096024642
149.736455146
140.947960444
130.015538073
121.45495722
113.343653423
97.1024042932
92.2963475773
79.666493611
81.3110802851
70.7597912793
56.8780144959
56.926994155
43.9501964527
199.926692857
199.928698194
199.928698194
199.921298425
199.921298425
199.922704381
199.922704381
199.915304611
199.915304611
199.915304611
199.905154036
199.898494243
199.898494243
199.887215825
199.887215825
199.887215825
199.887215825
199.887215825
199.887215825
199.887215825
199.871744745
199.840630684
199.80899901
199.80899901
199.80899901
199.80899901
199.80899901
199.787776678
199.787776678
199.787776678
199.787776678
199.787776678
199.764196308
199.764196308
199.708884331
199.676538146
199.676538146
199.676538146
199.64059794
199.64059794
199.64059794
199.64059794
199.64059794
199.600664378
199.600664378
199.600664378
199.600664378
199.556293753
199.556293753
199.556293753
199.506993059
199.506993059
199.45221451
199.45221451
199.391349456
199.391349456
199.323721617
198.774584105
198.586069902
198.428966558
198.428966558
198.254407286
198.254407286
198.06045254
198.06045254
197.844947267
197.844947267
197.605496963
197.605496963
197.605496963
197.339441071
197.335898028
197.132585331
196.811298343
196.42603001
196.086300675
195.832698933
195.412780071
195.249948485
192.588626985
181.769102917
168.176543187
158.887617927
151.398028831
138.709725234
130.283870063
116.388492699
107.279001407
99.2297695576
96.3593074097
89.3093661751
79.5296781237
81.163615545
63.9028132101
64.8086542197
51.952724998
199.929841689
199.928698194
199.928698194
199.928698194
199.922704381
199.922704381
199.922704381
199.915304611
199.915304611
199.915304611
199.905154036
199.898494243
199.887215825
199.887215825
199.887215825
199.887215825
199.887215825
199.887215825
199.887215825
199.887215825
199.854554656
199.828099109
199.80899901
199.80899901
199.80899901
199.80899901
199.787776678
199.787776678
199.787776678
199.787776678
199.787776678
199.764196308
199.764196308
199.708884331
199.676538146
199.676538146
199.676538146
199.64059794
199.64059794
199.64059794
199.64059794
199.600664378
199.600664378
199.600664378
199.600664378
199.556293753
199.556293753
199.556293753
199.506993059
199.506993059
199.45221451
199.45221451
199.391349456
199.391349456
199.323721617
199.106117775
198.586069902
198.428966558
198.428966558
198.254407286
198.254407286
198.06045254
198.06045254
197.844947267
197.605496963
197.605496963
197.339441071
197.339441071
197.043823412
197.043823412
197.043823412
196.715359346
196.715359346
196.55301004
196.198223504
195.854609395
195.422774609
195.435636848
194.877084371
189.413002507
178.703781366
165.315424892
157.856811176
149.234974335
141.129384355
132.561387091
121.659521278
108.162334054
99.6546717831
88.3250945877
94.4783519833
88.9618425654
82.0159586502
76.1705227363
70.9279688107
58.9586775001
199.934092627
199.928698194
199.928698194
199.928698194
199.922704381
199.922704381
199.922704381
199.915304611
199.915304611
199.915304611
199.905154036
199.898494243
199.887215825
199.887215825
199.887215825
199.887215825
199.887215825
199.887215825
199.887215825
199.871744745
199.828099109
199.80899901
199.80899901
199.80899901
199.80899901
199.787776678
199.787776678
199.787776678
199.787776678
199.787776678
199.764196308
199.737995898
199.708884331
199.676538146
199.676538146
199.676538146
199.64059794
199.64059794
199.64059794
199.64059794
199.600664378
199.600664378
199.600664378
199.600664378
199.556293753
199.556293753
199.506993059
199.506993059
199.45221451
199.45221451
199.45221451
199.391349456
199.391349456
199.323721617
198.903722024
198.586069902
198.428966558
198.254407286
198.254407286
198.06045254
198.06045254
197.844947267
197.605496963
197.339441071
197.339441071
197.043823412
197.043823412
196.715359346
196.715359346
196.350399274
196.350399274
196.350399274
196.350399274
195.944888082
195.805847414
195.617639023
195.364161366
195.367073414
194.635798091
186.906748897
173.386899249
165.59527881
155.843653284
147.695448843
141.455845751
132.66817367
120.835808166
110.619889759
102.182221675
95.8791131502
90.0558099401
93.5796507063
88.8025105763
86.214806661
77.0536285729
67.1940652891
199.934092627
199.928698194
199.928698194
199.928698194
199.922704381
199.922704381
199.922704381
199.915304611
199.915304611
199.905154036
199.898494243
199.887215825
199.887215825
199.887215825
199.887215825
199.887215825
199.887215825
199.887215825
199.887215825
199.842023081
199.828099109
199.80899901
199.80899901
199.80899901
199.787776678
199.787776678
199.787776678
199.787776678
199.764196308
199.764196308
199.764196308
199.708884331
199.708884331
199.676538146
199.676538146
199.64059794
199.64059794
199.64059794
199.600664378
199.600664378
199.600664378
199.600664378
199.556293753
199.556293753
199.556293753
199.506993059
199.506993059
199.45221451
199.45221451
199.391349456
199.391349456
199.323721617
199.323721617
198.903722024
198.428966558
198.428966558
198.254407286
198.254407286
198.06045254
197.844947267
197.605496963
197.339441071
197.339441071
197.043823412
196.715359346
196.715359346
196.350399274
196.350399274
195.944888082
195.944888082
195.944888082
195.494320091
195.494320091
195.494320091
195.494320091
195.494320091
195.407466404
194.980483606
193.914399647
184.028594976
172.813061438
166.284812962
156.760545048
149.539299615
141.770144354
128.716608839
119.208054879
111.968051595
108.74771825
102.777965491
98.3428617042
90.4704480246
94.2510471292
97.938506716
84.1242659329
73.2247899573
199.934092627
199.928698194
199.928698194
199.928698194
199.922704381
199.922704381
199.922704381
199.915304611
199.915304611
199.905154036
199.898494243
199.887215825
199.887215825
199.887215825
199.887215825
199.887215825
199.887215825
199.887215825
199.87468425
199.828099109
199.80899901
199.80899901
199.80899901
199.787776678
199.787776678
199.787776678
199.787776678
199.764196308
199.764196308
199.764196308
199.708884331
199.708884331
199.676538146
199.676538146
199.64059794
199.64059794
199.64059794
199.600664378
199.600664378
199.600664378
199.600664378
199.556293753
199.556293753
199.556293753
199.506993059
199.506993059
199.45221451
199.45221451
199.391349456
199.391349456
199.323721617
199.323721617
198.903722024
198.428966558
198.254407286
198.254407286
198.06045254
198.06045254
197.844947267
197.605496963
197.339441071
197.043823412
196.715359346
196.715359346
196.350399274
196.350399274
195.944888082
195.494320091
195.494320091
195.494320091
194.99368899
194.99368899
194.99368899
194.437432211
194.437432211
194.437432211
194.437432211
194.402863607
192.477828036
182.237504277
173.424444075
167.753417103
157.477967588
150.974104044
141.04503914
129.80453856
122.728234574
116.659216886
110.250832885
106.542467006
102.403467251
99.2646823039
93.9472872286
102.060785386
91.0474005769
77.9347872246
199.943228145
199.937833713
199.928698194
199.928698194
199.922704381
199.922704381
199.922704381
199.915304611
199.915304611
199.905154036
199.898494243
199.887215825
199.887215825
199.887215825
199.887215825
199.887215825
199.887215825
199.87468425
199.842023081
199.828099109
199.80899901
199.80899901
199.80899901
199.787776678
199.787776678
199.787776678
199.764196308
199.764196308
199.764196308
199.737995898
199.708884331
199.676538146
199.676538146
199.64059794
199.64059794
199.64059794
199.600664378
199.600664378
199.600664378
199.556293753
199.556293753
199.556293753
199.506993059
199.506993059
199.506993059
199.45221451
199.45221451
199.391349456
199.391349456
199.323721617
199.323721617
199.134051237
198.428966558
198.254407286
198.254407286
198.06045254
197.844947267
197.605496963
197.605496963
197.291498125
197.043823412
196.715359346
196.350399274
195.944888082
195.944888082
195.494320091
195.494320091
194.99368899
194.99368899
194.437432211
194.437432211
193.819369123
193.819369123
193.819369123
193.819369123
193.819369123
193.819369123
192.784217372
190.915952529
185.34043549
175.258363177
164.67558457
157.190432073
152.597882898
141.343853169
134.521569808
127.230273501
119.944861221
113.41219947
109.525484323
105.101652472
101.878190089
100.215450819
104.379004381
97.1704789629
82.5538526351
199.943228145
199.937833713
199.937833713
199.928698194
199.922704381
199.922704381
199.922704381
199.915304611
199.915304611
199.905154036
199.898494243
199.887215825
199.887215825
199.887215825
199.887215825
199.887215825
199.87468425
199.87468425
199.828099109
199.828099109
199.80899901
199.80899901
199.787776678
199.787776678
199.787776678
199.764196308
199.764196308
199.764196308
199.737995898
199.708884331
199.676538146
199.676538146
199.64059794
199.64059794
199.64059794
199.600664378
199.600664378
199.600664378
199.556293753
199.556293753
199.556293753
199.506993059
199.506993059
199.45221451
199.45221451
199.45221451
199.391349456
199.391349456
199.323721617
199.323721617
199.248579575
198.428966558
198.254407286
198.254407286
198.06045254
197.844947267
197.605496963
197.339441071
197.043823412
196.715359346
196.350399274
196.350399274
195.944888082
195.494320091
195.494320091
194.99368899
194.437432211
194.437432211
193.819369123
193.819369123
193.819369123
193.132632359
193.132632359
193.132632359
193.132632359
192.36959151
192.119593161
190.836992506
186.656653371
180.640009095
172.816553159
167.867783419
160.989456911
154.106622679
147.713144549
136.642633189
130.380758852
122.58081361
116.509938615
114.927283719
108.913130768
106.256504951
103.633294862
102.047538301
105.737574812
86.7881001265
199.943228145
199.937833713
199.937833713
199.937833713
199.922704381
199.922704381
199.922704381
199.915304611
199.915304611
199.898494243
199.898494243
199.887215825
199.887215825
199.887215825
199.887215825
199.87468425
199.87468425
199.85921317
199.828099109
199.80899901
199.80899901
199.80899901
199.787776678
199.787776678
199.764196308
199.764196308
199.764196308
199.737995898
199.708884331
199.708884331
199.676538146
199.676538146
199.64059794
199.64059794
199.600664378
199.600664378
199.600664378
199.556293753
199.556293753
199.556293753
199.506993059
199.506993059
199.45221451
199.45221451
199.391349456
199.391349456
199.391349456
199.323721617
199.323721617
199.248579575
198.428966558
198.254407286
198.254407286
198.06045254
197.844947267
197.605496963
197.339441071
197.043823412
196.715359346
196.350399274
195.944888082
195.494320091
194.99368899
194.99368899
194.437432211
193.819369123
193.819369123
193.132632359
193.132632359
193.132632359
192.36959151
192.36959151
192.36959151
192.36959151
192.36959151
191.227932006
190.311418251
186.990054661
182.784576175
178.053099989
172.255323384
165.692383604
165.356530398
159.390381363
148.53002946
141.533095884
130.046904237
125.257226677
122.504502895
119.515145073
113.475170004
110.241522443
106.697241668
105.06747096
111.366561243
90.8279064185
199.943228145
199.946055679
199.937833713
199.937833713
199.931839899
199.922704381
199.922704381
199.922704381
199.905154036
199.898494243
199.898494243
199.887215825
199.887215825
199.887215825
199.887215825
199.87468425
199.87468425
199.845289198
199.828099109
199.80899901
199.80899901
199.787776678
199.787776678
199.787776678
199.764196308
199.764196308
199.737995898
199.708884331
199.708884331
199.676538146
199.676538146
199.64059794
199.64059794
199.600664378
199.600664378
199.600664378
199.556293753
199.556293753
199.556293753
199.506993059
199.506993059
199.45221451
199.45221451
199.391349456
199.391349456
199.391349456
199.323721617
199.323721617
199.248579575
198.586069902
198.254407286
198.254407286
198.06045254
197.844947267
197.605496963
197.043823412
196.715359346
196.350399274
195.944888082
195.494320091
194.99368899
194.99368899
194.437432211
193.819369123
193.132632359
193.132632359
192.36959151
192.36959151
192.36959151
191.521768345
191.521768345
191.521768345
191.521768345
191.506324859
191.382386957
191.063884977
186.283552076
182.530905388
178.836823033
174.939346108
170.019319371
166.086892485
167.92986587
161.172664635
151.614702855
141.958684147
133.940743938
133.252848703
129.079961347
122.166339453
116.252271917
113.420055905
111.216493967
107.798060297
112.224124683
94.2976923811
199.943228145
199.946055679
199.946055679
199.937833713
199.931839899
199.922704381
199.922704381
199.922704381
199.905154036
199.898494243
199.887215825
199.887215825
199.887215825
199.887215825
199.87468425
199.87468425
199.860760278
199.828099109
199.828099109
199.80899901
199.80899901
199.787776678
199.787776678
199.764196308
199.764196308
199.737995898
199.737995898
199.708884331
199.676538146
199.676538146
199.64059794
199.64059794
199.600664378
199.600664378
199.600664378
199.556293753
199.556293753
199.506993059
199.506993059
199.506993059
199.45221451
199.45221451
199.391349456
199.391349456
199.323721617
199.323721617
199.323721617
199.248579575
199.165088416
198.254407286
198.254407286
198.06045254
197.844947267
197.339441071
197.043823412
196.715359346
196.350399274
195.494320091
194.99368899
194.437432211
193.819369123
193.132632359
192.36959151
192.36959151
190.909268747
191.021351609
191.521768345
191.339602012
189.812108986
190.127308341
190.196273366
190.201732163
190.10374076
189.896481135
189.454429473
188.080301731
183.100343876
178.108906354
175.019355431
171.986746596
168.766619322
171.283484988
167.39316387
160.637073923
151.711728774
141.4186749
138.736391677
137.180002963
126.197116148
121.868475731
119.94489008
115.883130874
114.195359155
110.760644791
112.844565748
96.9984792165
199.951450111
199.946055679
199.946055679
199.946055679
199.940061865
199.931839899
199.922704381
199.922704381
199.905154036
199.898494243
199.887215825
199.887215825
199.887215825
199.887215825
199.87468425
199.87468425
199.845289198
199.828099109
199.80899901
199.80899901
199.787776678
199.787776678
199.764196308
199.764196308
199.737995898
199.737995898
199.708884331
199.676538146
199.676538146
199.64059794
199.64059794
199.600664378
199.600664378
199.600664378
199.556293753
199.556293753
199.506993059
199.506993059
199.45221451
199.45221451
199.45221451
199.391349456
199.391349456
199.323721617
199.323721617
199.248579575
199.248579575
199.165088416
198.428966558
198.254407286
198.06045254
197.844947267
197.339441071
197.043823412
196.350399274
195.944888082
194.99368899
193.27589219
191.521768345
190.579742606
189.533047339
189.533047339
189.533047339
188.114682404
181.360978635
189.106438913
188.789814503
185.605971682
186.907676632
188.039130005
187.267696644
187.560162348
187.17641313
186.269408193
184.77279007
183.222494664
181.312492053
178.663825414
176.014913586
174.051272285
171.753308004
168.895308112
164.741506459
159.249330521
150.827049417
142.05438621
142.249850495
135.197315572
129.338807423
126.32231811
123.433098192
120.736194757
115.302889499
114.105776143
112.428004371
99.4319904845
199.951450111
199.946055679
199.946055679
199.946055679
199.940061865
199.940061865
199.922704381
199.915304611
199.898494243
199.898494243
199.887215825
199.887215825
199.887215825
199.87468425
199.87468425
199.860760278
199.845289198
199.828099109
199.80899901
199.80899901
199.787776678
199.787776678
199.764196308
199.737995898
199.737995898
199.708884331
199.708884331
199.676538146
199.64059794
199.64059794
199.600664378
199.600664378
199.600664378
199.556293753
199.556293753
199.506993059
199.506993059
199.45221451
199.45221451
199.391349456
199.391349456
199.391349456
199.323721617
199.323721617
199.248579575
199.248579575
199.165088416
198.586069902
198.254407286
198.06045254
197.605496963
197.339441071
196.715359346
195.944888082
187.387778334
0
0
0
0
0
0
0
0
0
140.755687743
177.510435764
168.462183231
146.853140996
184.943829941
183.727841479
176.850118822
179.971601512
176.181911863
177.383416854
179.75043112
178.836843602
177.098670031
170.336172845
172.79699834
171.339121343
168.946916115
165.760813185
162.328901707
157.807027832
150.510485815
144.558149924
147.43551455
139.427191949
134.998372598
131.472945584
127.783466395
123.278822885
118.758323804
116.604254613
112.877045556
102.245643378
199.951450111
199.946055679
199.946055679
199.946055679
199.940061865
199.940061865
199.931839899
199.915304611
199.898494243
199.898494243
199.887215825
199.887215825
199.887215825
199.87468425
199.860760278
199.845289198
199.828099109
199.828099109
199.80899901
199.787776678
199.787776678
199.764196308
199.764196308
199.737995898
199.708884331
199.708884331
199.676538146
199.64059794
199.64059794
199.600664378
199.600664378
199.600664378
199.556293753
199.556293753
199.506993059
199.506993059
199.45221451
199.45221451
199.391349456
199.391349456
199.323721617
199.323721617
199.323721617
199.248579575
199.248579575
199.165088416
199.072320463
198.254407286
198.06045254
197.605496963
197.339441071
196.350399274
0
0
0
0
0
0
0
0
0
0
0
0
0
0
0
119.118884501
162.567897546
155.245336373
155.102651816
176.367382603
168.808396056
170.891878402
169.308818182
169.126730061
168.155716999
166.356983298
170.351415449
168.502327863
166.211278082
163.196261858
160.218468436
156.493719981
151.57521587
152.768362124
149.578409626
141.52285393
139.419177263
135.856242181
131.611853964
127.474263988
124.144645897
118.623684085
116.029115296
105.130855743
199.951450111
199.946055679
199.946055679
199.946055679
199.940061865
199.940061865
199.931839899
199.915304611
199.898494243
199.898494243
199.887215825
199.887215825
199.87468425
199.87468425
199.860760278
199.845289198
199.828099109
199.80899901
199.80899901
199.787776678
199.764196308
199.764196308
199.737995898
199.708884331
199.708884331
199.676538146
199.64059794
199.64059794
199.600664378
199.600664378
199.556293753
199.556293753
199.506993059
199.506993059
199.45221451
199.45221451
199.45221451
199.391349456
199.391349456
199.323721617
199.323721617
199.248579575
199.248579575
199.165088416
199.165088416
199.072320463
198.254407286
198.06045254
197.605496963
197.043823412
1.67495096754
0
0
0
0
0
0
0
0
0
0
0
0
0
0
0
0
0
0
11.4834710218
147.005584474
158.070792531
141.346082678
166.71182952
159.5279496
166.040928521
165.392756518
163.324857829
162.881089221
166.260122885
163.26024464
160.161979294
158.136262502
155.073877306
151.683628256
153.861718999
149.754885794
144.679589786
142.705285472
138.797056279
134.806203975
130.475246732
128.443276955
121.982363922
119.321867068
107.581385055
199.951450111
199.946055679
199.946055679
199.946055679
199.940061865
199.940061865
199.931839899
199.908644819
199.898494243
199.898494243
199.887215825
199.887215825
199.87468425
199.860760278
199.845289198
199.828099109
199.828099109
199.80899901
199.787776678
199.787776678
199.764196308
199.737995898
199.737995898
199.708884331
199.676538146
199.64059794
199.64059794
199.600664378
199.600664378
199.556293753
199.556293753
199.506993059
199.506993059
199.45221451
199.45221451
199.391349456
199.391349456
199.323721617
199.323721617
199.323721617
199.248579575
199.248579575
199.165088416
199.165088416
199.072320463
198.428966558
198.06045254
197.605496963
196.715359346
0
0
0
0
0
0
0
0
0
0
0
0
0
0
0
0
0
0
0
0
0
0
0
114.193444478
150.036557992
144.420734376
160.768302791
156.573047434
159.566087539
159.661135249
157.894982588
155.26788328
158.342691281
156.259470862
153.17149825
150.439467699
153.599134053
149.494246376
149.639560817
141.094173821
138.614339273
136.567769413
132.290285846
130.306687511
125.589471125
120.985703273
108.694753989
199.951450111
199.946055679
199.946055679
199.946055679
199.940061865
199.940061865
199.931839899
199.908644819
199.898494243
199.898494243
199.887215825
199.887215825
199.87468425
199.860760278
199.845289198
199.828099109
199.80899901
199.787776678
199.787776678
199.764196308
199.737995898
199.737995898
199.708884331
199.676538146
199.64059794
199.64059794
199.600664378
199.600664378
199.556293753
199.556293753
199.506993059
199.45221451
199.45221451
199.45221451
199.391349456
199.391349456
199.323721617
199.323721617
199.248579575
199.248579575
199.165088416
199.165088416
199.072320463
198.969244959
198.727462912
198.06045254
197.605496963
196.350399274
0
0
0
0
0
0