/*--------------------------------*- C++ -*----------------------------------*\
| =========                 |                                                 |
| \\      /  F ield         | OpenFOAM: The Open Source CFD Toolbox           |
|  \\    /   O peration     | Version:  v1906                                 |
|   \\  /    A nd           | Web:      www.OpenFOAM.com                      |
|    \\/     M anipulation  |                                                 |
\*---------------------------------------------------------------------------*/
FoamFile
{
    version     2.0;
    format      ascii;
    class       volScalarField;
    location    "453";
    object      pa;
}
// * * * * * * * * * * * * * * * * * * * * * * * * * * * * * * * * * * * * * //

dimensions      [0 2 -2 0 0 0 0];


internalField   nonuniform List<scalar> 
9216
(
914.721898558
914.417246673
913.786988258
912.825656611
911.538640931
909.931997346
908.01324286
905.791276634
903.276194897
900.479214096
897.412479239
894.08898682
890.522387425
886.726911775
882.71717978
878.508134915
874.114870273
869.552574077
864.836380143
859.981324566
855.002224813
849.913645408
844.72980717
839.464558382
834.131313816
828.7430275
823.312160078
817.850649754
812.369906111
806.880776612
801.393564496
795.917990903
790.463235193
785.037886516
779.65000486
774.307068724
769.016052297
763.78336543
758.614945503
753.516191396
748.492067025
743.547030136
738.68514467
733.910005481
729.224856865
724.632514241
720.135486292
715.735894656
711.435597406
707.236107588
703.138715981
699.144409247
695.253990308
691.467996612
687.786816817
684.2106096
680.739415813
677.373078069
674.111347915
670.953806403
667.899966275
664.949193607
662.100805273
659.353991786
656.70791058
654.161610102
651.714119521
649.364374209
647.11130249
644.953752651
642.890577188
640.920561587
639.04250635
637.255157844
635.557288071
633.947628031
632.424944939
630.987978633
629.635515607
628.366329156
627.179249351
626.073107685
625.046801858
624.099245783
623.229427889
622.436367229
621.7191638
621.07696106
620.508985883
620.014515304
619.592898353
619.243511379
618.965717349
618.758635655
618.618542846
618.563381364
915.02557675
914.7191996
914.087297609
913.121617317
911.828412223
910.214016407
908.28612233
906.053764738
903.527189462
900.717747909
897.637740059
894.30029921
890.719228967
886.908889978
882.884043651
878.659749089
874.251222467
869.673749022
864.942563595
860.072779377
855.079292002
849.9767242
844.779353338
839.501069461
834.155324602
828.75510105
823.312880107
817.840617582
812.349729697
806.851073457
801.354947881
795.871076351
790.408621163
784.976169989
779.581760658
774.232866886
768.936433623
763.698863547
758.526060052
753.423413587
748.395850781
743.447820433
738.58334718
733.806017018
729.11903402
724.525205313
720.026999437
715.626530733
711.32561805
707.125768459
703.028235174
699.034000487
695.143831953
691.358264437
687.677653818
684.102158079
680.63178805
677.266387504
674.005680729
670.849251668
667.796588377
664.847061316
661.999964945
659.254495368
656.609789468
654.064902148
651.618843484
649.27055583
647.018949482
644.862879908
642.801182325
640.832649337
638.956064689
637.170181574
635.473755658
633.865524317
632.344238857
630.908644911
629.557513618
628.289623413
627.103789776
625.998848641
624.973684192
624.027214126
623.158414869
622.366308876
621.649986602
621.008595973
620.441360568
619.947571762
619.526604803
619.17792321
618.901119249
618.696039608
618.563234837
618.508170979
915.657324024
915.346228354
914.708579026
913.734215477
912.429493078
910.800879946
908.856266023
906.604902923
904.057277785
901.224987621
898.120591803
894.757476395
891.149701943
887.311870428
883.258980869
879.006308435
874.569276206
869.963352148
865.203941675
860.306304729
855.285470509
850.156174089
844.932792188
839.629296887
834.259209893
828.835570178
823.370903825
817.877202601
812.365906829
806.847892544
801.333465395
795.832354228
790.353714624
784.906128284
779.497613764
774.135629971
768.827093524
763.578385482
758.39537373
753.283422008
748.247416157
743.291774727
738.420477989
733.637079531
728.944737044
724.346224356
719.843963049
715.440034433
711.136211152
706.933968586
702.83451566
698.838805236
694.947563464
691.161298763
687.480329191
683.904789736
680.434657378
677.069756529
673.809781654
670.654300859
667.602776159
664.654565334
661.808940092
659.065086453
656.422121189
653.879091054
651.434987934
649.088747298
646.839262487
644.685382735
642.62592697
640.659681712
638.785414675
637.001872778
635.307795683
633.701914114
632.18296336
630.749681993
629.400825243
628.135164165
626.951498707
625.848657317
624.825509424
623.880965468
623.013988489
622.223594542
621.508863132
620.868938181
620.303037472
619.810455355
619.390574007
619.042874237
618.766962906
618.562635426
618.430160411
618.368168084
916.62854142
916.312012396
915.665381311
914.677452815
913.354778369
911.704056989
909.73347419
907.452618127
904.87234551
902.004640339
898.862461852
895.459594981
891.810495667
887.930145841
883.833908751
879.537398605
875.05635415
870.406528912
865.603587227
860.663017189
855.600049788
850.42959358
845.166174939
839.823891436
834.416369831
828.956734477
823.457579586
817.93094942
812.388322056
806.840599
801.298098478
795.770552776
790.267109922
784.796336651
779.366226598
773.98420923
768.657163069
763.391428491
758.192825127
753.066667626
748.017786151
743.050544263
738.168861595
733.376233117
728.675753154
724.070135361
719.561737306
715.152580512
710.844374863
706.638538096
702.536219344
698.538317501
694.645503297
690.858236053
687.176783805
683.601238092
680.131531828
676.76745192
673.508654791
670.354676815
667.304947583
664.358798323
661.515473168
658.774135866
656.133879448
653.593731608
651.152663223
648.809592828
646.563394435
644.412901491
642.356914391
640.394204244
638.523520383
636.743594167
635.053146663
633.450892641
631.935548476
630.505836382
629.160492501
627.898271343
626.717953931
625.618352363
624.598317827
623.65674516
622.792580533
622.004825921
621.292546327
620.654874295
620.091016983
619.60026151
619.18198339
618.835655975
618.56086251
618.357314017
618.225102674
618.161662118
917.943253473
917.619735608
916.960826835
915.954320603
914.607068277
912.92610606
910.920029851
908.598894399
905.974065687
903.058063014
899.864395357
896.407397508
892.702066679
888.763906107
884.608774989
880.25275013
875.711997471
871.002657697
866.140743125
861.14204896
856.022075398
850.795962723
845.478435564
840.083757827
834.625694645
829.117482625
823.571805313
818.000775111
812.415919293
806.828171258
801.247865257
795.684735603
790.147919397
784.645960709
779.186819634
773.777883393
768.425979481
763.137390807
757.917872612
752.772670707
747.706541146
742.723770678
737.828198344
733.023237385
728.311898011
723.696810057
719.180246209
714.764144721
710.450132391
706.239546665
702.133457689
698.132689156
694.237838827
690.449297572
686.767267869
683.191780632
679.72271138
676.359794638
673.102637663
669.950732432
666.903467033
663.960135434
661.119946843
658.382033615
655.745459018
653.209223725
650.772272471
648.43349963
646.191755233
644.045850078
641.994561516
640.03663846
638.170807253
636.395776815
634.710244773
633.11290289
631.60244351
630.177565302
628.836979974
627.579418262
626.403636801
625.308424231
624.292608047
623.35506066
622.494706048
621.710525635
621.001564627
620.366937742
619.8058353
619.317529201
618.901379288
618.556838629
618.283459168
618.080894686
617.949158872
617.885472769
919.608093125
919.275733113
918.601097231
917.570756023
916.191971062
914.472233522
912.420680658
910.047979026
907.366158488
904.388434978
901.129029587
897.602988302
893.826004962
889.814252617
885.584224236
881.152586655
876.53604735
871.751236685
866.814604058
861.742329427
856.550247725
851.253786662
845.867914945
840.407100875
834.885278481
829.315821147
823.711520552
818.084571169
812.446558891
806.808454203
801.180608978
795.572757325
789.994020347
784.452910979
778.957345379
773.514655256
768.131602463
762.814395401
757.568707168
752.399694917
747.312020576
742.30987232
737.396987086
732.57667344
727.851835175
723.224994899
718.698318018
714.273636353
709.9524718
705.736059278
701.625369341
697.621129787
693.723846567
689.933823438
686.251180641
682.675872158
679.207701808
675.846337879
672.59132654
669.442103863
666.398006686
663.45828227
660.622096966
657.888543931
655.256650095
652.72538246
650.293653929
647.96032874
645.724227697
643.584133231
641.538794497
639.586932447
637.727245126
635.958413013
634.279104706
632.687982654
631.183709291
629.76495315
628.430395399
627.178736251
626.008701748
624.919050318
623.90857962
622.976133049
622.120606439
621.340954337
620.636196401
620.005423335
619.447802934
618.962585525
618.549109228
618.206804606
617.93519572
617.733899965
617.602902856
617.539448894
921.631481899
921.288225023
920.594173117
919.534392705
918.116673369
916.349091057
914.241473153
911.805261592
909.053323629
905.999750228
902.659653268
899.048964744
895.184242756
891.082487771
886.760972168
882.237084902
877.528192852
872.651519275
867.624039648
862.462394041
857.182815087
851.801069734
846.332412993
840.791551557
835.192615437
829.549135982
823.874029067
818.179582737
812.477448764
806.778638097
801.093519918
795.43182453
789.802650004
784.214468484
778.675139994
773.19192644
767.771507727
762.419999939
757.142974688
751.945480076
746.832062388
741.806789034
736.873271886
732.034691546
727.293821685
722.653053984
718.114422821
713.679630183
709.350069984
705.12685221
701.010826111
697.002602834
693.10257677
689.310945994
685.627731172
682.05279331
678.585849834
675.226489387
671.974184983
668.828305884
665.788127993
662.852843123
660.021567042
657.293346641
654.667166219
652.141953166
649.716583137
647.389884892
645.160644968
643.027612246
640.989502617
639.045003724
637.192779964
635.431477675
633.759730667
632.176165973
630.679409935
629.268094506
627.940863806
626.696380858
625.53333444
624.450446061
623.4464769
622.520234774
621.670580937
620.896436803
620.196790379
619.570702558
619.017312887
618.535845276
618.12561277
617.786020358
617.516567979
617.316852572
617.186842657
617.123865
924.023786827
923.66737807
922.949914548
921.854642882
920.390012904
918.564834271
916.389795442
913.877301194
911.041252996
907.896817449
904.460195622
900.748397878
896.779028538
892.570084975
888.139773167
883.506342502
878.687940224
873.702486839
868.567571452
863.300366839
857.917561876
852.435309721
846.869188507
841.234172336
835.544609569
829.814206785
824.056016718
818.282429692
812.505168211
806.735284828
800.983163973
795.258526339
789.570437959
783.927318789
778.336958842
772.806534087
767.342624797
761.951235276
756.637815178
751.407281695
746.264042989
741.212022161
736.254682193
731.39505115
726.635748058
721.979008746
717.42671203
712.980405512
708.641331323
704.410451095
700.288470445
696.275862302
692.37288931
688.579624748
684.895972166
681.321683316
677.856374579
674.499541634
671.250572546
668.108759229
665.073307425
662.143345324
659.31793095
656.596058546
653.976664062
651.458630046
649.040790001
646.721932517
644.500805214
642.37611876
640.346550972
638.410751189
636.567344917
634.814938839
633.152126195
631.577492517
630.089621763
628.687102723
627.368535793
626.13253989
624.977759653
623.902872638
622.906596688
621.987697129
621.144994022
620.377369087
619.683772545
619.063229495
618.514846098
618.037814943
617.631419904
617.295040613
617.028153646
616.830335393
616.701544922
616.63920729
926.79750028
926.425450174
925.680198494
924.542821073
923.022584587
921.129207284
918.874439349
916.271865961
913.336649383
910.085259549
906.535209819
902.70480194
898.61288612
894.278639503
889.721366361
884.960321152
880.0145562
874.902793619
869.643321697
864.25391371
858.751767529
853.153462328
847.474929311
841.731432176
835.937554341
830.107189984
824.253537606
818.389095432
812.525658994
806.674321368
800.845477675
795.048831195
789.293404701
783.587552412
777.938978167
772.354754126
766.841341167
761.404610965
756.049868906
750.781878289
745.604885009
740.522643345
735.538441994
730.655131001
725.875148697
721.20054925
716.633029908
712.173958485
707.824400152
703.585144006
699.456728516
695.439466239
691.533466984
687.738659787
684.054812993
680.481552805
677.018379761
673.664683536
670.419755692
667.282800802
664.252945757
661.329247685
658.510700432
655.796240013
653.184749121
650.675060996
648.265962852
645.956199062
643.744474322
641.629456893
639.609782155
637.684056435
635.850861344
634.108758505
632.456294838
630.892008262
629.414433901
628.022110682
626.713588286
625.487434434
624.342242331
623.276638348
622.289289663
621.378912008
620.544277175
619.784220495
619.097647885
618.483542737
617.940972097
617.469092775
617.06715644
616.734512838
616.470614507
616.275021817
616.147676062
616.086109233
929.967450027
929.576984376
928.79909492
927.612299595
926.026869826
924.053643413
921.705671041
918.997974772
915.947240851
912.571504025
908.889842113
904.922086401
900.688552563
896.209796472
891.506396436
886.598764181
881.506984676
876.250685772
870.848936279
865.320171406
859.68214195
853.951883624
848.145700974
842.279161041
836.367091725
830.423581701
824.461980003
818.494895327
812.53419608
806.591012451
800.675743266
794.798064239
788.966941235
783.190646308
777.476778757
771.832286523
766.263489521
760.776103764
755.375266662
750.065562725
744.851050289
739.735288525
734.721365383
729.811925686
725.00919997
720.315033225
715.730914071
711.258003481
706.897163481
702.648984947
698.513814817
694.491781884
690.582821428
686.786697952
683.103026261
679.531290328
676.070860203
672.721006623
669.480913606
666.349688917
663.32637271
660.409944433
657.599328279
654.893397444
652.290977417
649.790848659
647.391748821
645.092374876
642.891385255
640.787402282
638.779014964
636.86478232
635.043237261
633.312891102
631.672238696
630.119764159
628.653947201
627.273269903
625.976224025
624.761318572
623.627087756
622.572099015
621.594961262
620.69433298
619.868930381
619.117535188
618.439002324
617.832267029
617.296351775
616.830372251
616.433542932
616.10518273
615.844717262
615.651683521
615.526007726
615.465336886
933.551054343
933.139045844
932.323084679
931.078696714
929.417390536
927.351381405
924.895309583
922.065939365
918.88179007
915.362762992
911.529787614
907.404491338
903.008898291
898.365159291
893.49531531
888.421094704
883.163745744
877.743903911
872.181494103
866.495665001
860.704752536
854.826266179
848.876891601
842.87250169
836.828169674
830.75817938
824.676031158
818.594444117
812.525357323
806.479932704
800.468563344
794.500884694
788.585788726
782.73144617
776.945330271
771.234241977
765.604336024
760.061147971
754.609621358
749.254135671
743.998534429
738.846154225
733.79985391
728.862044704
724.034720333
719.319487874
714.717598337
710.229977557
705.857256386
701.599800622
697.457739667
693.430994224
689.519302111
685.722242453
682.039257467
678.469672151
675.01271129
671.667514172
668.433146659
665.308611082
662.292853836
659.384771187
656.583213336
653.886987275
651.294858573
648.805552569
646.417755205
644.130113807
641.941238101
639.849701593
637.8540436
635.952771885
634.144366159
632.427282267
630.799957266
629.260815167
627.808273443
626.440750111
625.156671364
623.954479661
622.832642095
621.789659077
620.824073022
619.934477181
619.119524223
618.377934764
617.70850543
617.110116719
616.581740056
616.122444858
615.731404543
615.40790062
615.151328931
614.961205801
614.83743136
614.777776883
937.568637032
937.131520073
936.271326805
934.960105359
933.210891396
931.037599223
928.456812395
925.487405201
922.150094919
918.466999774
914.461228019
910.156502657
905.576824437
900.746175003
895.688259637
890.426290809
884.982812408
879.379566144
873.637399213
867.776212032
861.814940852
855.771568373
849.663151907
843.505858542
837.31499715
831.105041029
824.889639341
818.68162009
812.492989851
806.334935404
800.217832472
794.151260105
788.144016029
782.204146597
776.338974328
770.555127062
764.858567868
759.254624506
753.748019181
748.342897988
743.042861106
737.850993061
732.769893991
727.801711071
722.948170862
718.210611647
713.590016394
709.087045335
704.702068642
700.435198141
696.286318366
692.255115902
688.34110722
684.54366407
680.862036629
677.295373704
673.842740261
670.503131864
667.275486406
664.158693005
661.151598506
658.253011765
655.461706113
652.776420417
650.195859058
647.718691355
645.34355065
643.06903359
640.893699695
638.816071652
636.834636333
634.947846806
633.154125296
631.451867161
629.83944587
628.315218857
626.877534285
625.524738464
624.255184012
623.067238406
621.959293075
620.929772601
619.977144239
619.099927274
618.296702473
617.566121113
616.90691388
616.317899137
615.797990969
615.346206178
614.961670888
614.643627521
614.391437699
614.20458737
614.082954519
614.02444378
942.043818333
941.577476734
940.665986256
939.277367297
937.426553549
935.129564179
932.405364847
929.275385693
925.762975304
921.892875514
917.690746271
913.182740967
908.395132992
903.353990769
898.084900104
892.612732552
886.961461589
881.154027643
875.212254003
869.156811793
863.007229693
856.781937951
850.498332989
844.172845709
837.820998819
831.457443424
825.09597377
818.749526248
812.430172651
806.149117419
799.91670522
793.742438156
787.63499485
781.602269931
775.651406068
769.788828731
764.020279679
758.350849635
752.785009708
747.326642925
741.979075525
736.745109221
731.627053691
726.626760221
721.745655556
716.984776711
712.344805742
707.826105064
703.428752207
699.15257439
694.997181719
690.961999186
687.046296322
683.249214633
679.569791856
676.006983268
672.559679376
669.226720396
666.006907167
662.899009098
659.901769058
657.01390595
654.234115075
651.561067066
648.993405642
646.529744855
644.168666162
641.908715804
639.748402826
637.68619795
635.720533626
633.849805194
632.072373426
630.386568212
628.790693564
627.283033628
625.861859789
624.525438601
623.272040468
622.099948959
621.007470509
619.992944544
619.05475364
618.191333876
617.401184896
616.682879932
616.035075267
615.456519456
614.946061643
614.502659877
614.125388271
613.813441964
613.566144636
613.382954986
613.263716617
613.20647719
947.004003144
946.503625821
945.532634176
944.054401821
942.086241158
939.646797458
936.757967899
933.444283102
929.732237783
925.649669017
921.225210502
916.487818572
911.466363063
906.189276591
900.684256105
894.978015953
889.096093597
883.062713113
876.900709987
870.631519152
864.275220925
857.850632653
851.375425027
844.86623802
838.338772244
831.807841061
825.287383084
818.790448077
812.329174975
805.914780293
799.557561129
793.266915451
787.051373238
780.918643537
774.875655244
768.928597889
763.082959765
757.343562778
751.714595879
746.199647348
740.80173775
735.523353133
730.366479609
725.332638386
720.422922093
715.63803139
710.978312606
706.4437953
702.034230267
697.749126695
693.587788693
689.549349806
685.632805544
681.837042707
678.16086555
674.603017908
671.162201524
667.837090106
664.62633959
661.528594537
658.542491291
655.666658207
652.899713587
650.2402619
647.686888869
645.238156095
642.892595657
640.648705338
638.504944696
636.459732483
634.511445427
632.658418675
630.898947766
629.231292197
627.653680457
626.16431635
624.761386583
623.443069257
622.207543356
621.052998761
619.977646963
618.97973194
618.057541443
617.209418099
616.433770622
615.729084541
615.093932744
614.526985299
614.027018965
613.592925503
613.223719501
612.91854674
612.676687574
612.497562137
612.380984989
612.325155502
952.480996198
951.940881694
950.900739295
949.318596287
947.214782211
944.611246982
941.533515029
938.009884704
934.070608015
929.7471595
925.071619785
920.076156671
914.792587591
909.252007115
903.484470031
897.518726487
891.382014157
885.099915763
878.696292793
872.193301071
865.611486095
858.969941766
852.286502832
845.577930545
838.860051997
832.147828156
825.455352579
818.795807219
812.181409824
805.623385797
799.131963626
792.716403299
786.385047074
780.145376711
774.004066748
767.967033263
762.039475802
756.225914398
750.530223063
744.955662857
739.504915066
734.180116054
728.982892979
723.914401187
718.975362227
714.166103298
709.48659712
704.936502924
700.51520736
696.221865566
692.055440942
688.014743486
684.098465188
680.305212303
676.633533279
673.081942394
669.648938341
666.333018167
663.132686266
660.046459193
657.072866331
654.210447462
651.457747497
648.813309518
646.275666512
643.843332862
641.514795999
639.288509015
637.162884578
635.136290547
633.207047543
631.37342846
629.63366008
627.985926468
626.428374268
624.959119431
623.576255436
622.277862592
621.06201835
619.926808389
618.870338231
617.890745361
616.986211419
616.154974605
615.395341774
614.705700415
614.084530008
613.530413012
613.042044807
612.618243552
612.257958708
611.960276957
611.724431003
611.549806217
611.43617429
611.381895281
958.511785594
957.925078036
956.804271941
955.101269299
952.84028027
950.047458189
946.752842611
942.989318766
938.791615784
934.19546104
929.236901546
923.951756101
918.375163103
912.541196613
906.482532865
900.230164374
893.813169464
887.258555397
880.591195105
873.833874386
867.007452148
860.131115762
853.222687266
846.298915734
839.37568702
832.468106264
825.59045949
818.756107527
811.977377172
805.265501507
798.630613988
792.081790374
785.627131046
779.27383757
773.028282291
766.896065516
760.882061216
754.990453319
749.224768133
743.587905829
738.082174114
732.709323602
727.470585679
722.366711451
717.398012478
712.564402269
707.865439482
703.300371853
698.868181358
694.567629141
690.397300073
686.355645063
682.441020729
678.651724677
674.986026206
671.442191223
668.018501604
664.713268455
661.524839906
658.451603507
655.491984128
652.644437922
649.907443336
647.279490045
644.75906674
642.344648733
640.034686101
637.82759324
635.721740199
633.715446394
631.806976717
629.994540287
628.276291635
626.650334218
625.11472605
623.667487092
622.306608318
621.03006195
619.835812928
618.721831051
617.686103946
616.726650278
615.841533393
615.028874806
614.286867735
613.613790102
613.008017213
612.468033594
611.992444359
611.579985143
611.229531374
610.940108198
610.710894357
610.541227478
610.430842876
610.378268782
965.139555622
964.497872822
963.282451676
961.438213763
958.994448769
955.982721895
952.438729774
948.400946139
943.909413842
939.004793589
933.727651577
928.117913966
922.214427574
916.054579913
909.673953528
903.106010318
896.381822817
889.529883219
882.576029304
875.543521374
868.453286916
861.324315044
854.174137899
847.019292542
839.875640769
832.758460511
825.682323439
818.660868219
811.706591001
804.830736841
798.043300613
791.353103839
784.767930018
778.294632444
771.939223944
765.706943451
759.602301873
753.629114461
747.790527511
742.089047123
736.526571698
731.104428911
725.823415085
720.683836925
715.685554105
710.828023755
706.110346229
701.53131317
697.089456772
692.783100241
688.61040749
684.569431225
680.658157268
676.874544283
673.216557295
669.682194722
666.269508095
662.976614874
659.801704226
656.743036759
653.798938579
650.967791069
648.248017018
645.638064739
643.136390825
640.741443187
638.451644898
636.265380163
634.180982695
632.196727235
630.310824253
628.521417861
626.826586874
625.22434854
623.712664858
622.289450845
620.952584683
619.699919206
618.529294608
617.438552059
616.425547951
615.488168721
614.624345779
613.832070652
613.109409748
612.454518929
611.865657322
611.341200561
610.879652797
610.479658422
610.140012215
609.859666375
609.637740737
609.473529572
609.366716132
609.316004609
972.415017697
971.707921034
970.380676285
968.37032599
965.712945316
962.447163683
958.615808132
954.264154004
949.438504374
944.185174944
938.54980691
932.576882522
926.309342382
919.788235068
913.052362333
906.137918868
899.078154967
891.903115883
884.63952497
877.310877753
869.937790558
862.538596468
855.13010221
847.728331293
840.349028524
833.007746567
825.719545234
818.4985335
811.357485743
804.307662363
797.358837513
790.519468633
783.79691411
777.19758982
770.727082633
764.390222702
758.191124423
752.133205935
746.219204786
740.451200116
734.83064487
729.358404222
724.034798398
718.859646703
713.832312908
708.951751579
704.216557213
699.625015886
695.175160194
690.864825686
686.691707876
682.653416939
678.747528673
674.971629182
671.323352492
667.800409583
664.400608973
661.12186836
657.962218244
654.91979783
651.992844643
649.179678722
646.478683033
643.888281333
641.406915031
639.033020449
636.765007649
634.601242067
632.540029526
630.579605377
628.718127691
626.953674624
625.284245489
623.70776515
622.222091295
620.825023956
619.51431707
618.287691413
617.142848944
616.077487897
615.089318814
614.176080857
613.335558599
612.565598648
611.864126246
611.22916124
610.658833527
610.151397476
609.705245598
609.318920484
608.991125772
608.720737843
608.506810263
608.348579193
608.245683326
608.197008748
980.398195802
979.612408945
978.15168433
975.944313643
973.035660829
969.473711563
965.310320951
960.599002589
955.393341675
949.746016235
943.708247158
937.329470693
930.657081313
923.736145519
916.609040562
909.315021269
901.889763607
894.364969786
886.76814716
879.122681389
871.44830217
863.761968054
856.079064789
848.414634195
840.784213356
833.203887797
825.68961686
818.256337224
810.917281581
803.683701825
796.564995127
789.569070864
782.702702471
775.971754683
769.381314082
762.935759399
756.63878541
750.493395793
744.501896114
738.665907399
732.986398898
727.463731538
722.097705203
716.887606891
711.832257565
706.930060454
702.179052182
697.576958946
693.121257286
688.809238899
684.638076313
680.604886917
676.706791802
672.94096736
669.30468741
665.79535514
662.410524084
659.147908613
656.005384232
652.98097906
650.072857392
647.279297358
644.598663822
642.029378904
639.569891258
637.218646567
634.974060083
632.834493295
630.798234987
628.863487846
627.028360269
625.290863394
623.648912714
622.100333525
620.642869703
619.274194878
617.991925761
616.79363693
615.676876908
614.639185212
613.678110092
612.7912269
611.976156613
611.230584552
610.552278686
609.939107562
609.389057309
608.900247758
608.470947026
608.099585498
607.784767876
607.525281487
607.320108013
607.1684304
607.06982513
607.02336653
989.160874715
988.279112025
986.65701675
984.213452563
981.00687186
977.097835308
972.549637259
967.425658486
961.787772385
955.695608184
949.206327046
942.37460096
935.252578155
927.889707735
920.332368326
912.623315741
904.801024194
896.899049924
888.945592203
880.963458392
872.97063261
864.981562649
857.009072654
849.066460368
841.168993831
833.333873435
825.578766433
817.920080617
810.37177118
802.944982997
795.648426521
788.48913435
781.473066684
774.605400201
767.890647906
761.332709323
754.934861294
748.699695691
742.629072833
736.724124142
730.985293612
725.412391124
720.004648923
714.760774158
709.678996744
704.757116779
699.992557194
695.382423446
690.923572076
686.612685588
682.446350406
678.42113257
674.533647479
670.780619696
667.158931176
663.66565611
660.29808261
657.053721011
653.93030028
650.925753337
648.038193491
645.265883436
642.607199317
640.060591697
637.624545937
635.297543987
633.078029655
630.964379085
628.954877512
627.047703082
625.240917574
623.532463622
621.920167481
620.40174629
618.974818937
617.63691946
616.385512611
615.218010722
614.131791975
613.124219381
612.192660744
611.33450899
610.547203019
609.828248452
609.17523824
608.585872544
608.057977761
607.589524253
607.178642882
606.823639364
606.523007196
606.275441276
606.07984291
605.935325307
605.841411198
605.797367344
998.790040719
997.789212467
995.968865594
993.238302645
989.675080833
985.356876831
980.361380572
974.763525539
968.634273928
962.040494542
955.045361487
947.708851896
940.088062899
932.237201155
924.207188395
916.04491584
907.792256856
899.485017888
891.152084705
882.815097438
874.4890336
866.184015589
857.90837362
849.672339085
841.490933224
833.38372864
825.371660339
817.473733272
809.704992656
802.076158573
794.594609286
787.265933843
780.09497049
773.086069558
766.243115207
759.569534181
753.068235218
746.741438544
740.590557553
734.616197818
728.818226814
723.195848878
717.74767607
712.471787479
707.36577321
702.426777448
697.651549171
693.036505281
688.5778079
684.271453672
680.11336783
676.099496318
672.225889241
668.48877162
664.884598523
661.410093627
658.062270873
654.838440113
651.736197866
648.753405259
645.888154969
643.13872996
640.503556041
637.981151576
635.570076291
633.268882892
631.076072946
628.990060398
627.009143057
625.131483885
623.355100952
621.67786578
620.097508257
618.611626669
617.217701553
615.913111981
614.695153805
613.561059076
612.508016533
611.533192971
610.633755313
609.806893454
609.049843399
608.359910665
607.734493252
607.171104016
606.667391855
606.221161503
605.830391346
605.493250068
605.208110848
604.973561027
604.788415293
604.651722526
604.562932159
604.521508179
1009.39283119
1008.24127953
1006.17242426
1003.08716608
999.092207548
994.288675042
988.771968341
982.629966158
975.94295922
968.784754407
961.224113459
953.32604883
945.152642813
936.763258892
928.214092024
919.557122198
910.838617379
902.097416917
893.36333843
884.656210067
875.986200808
867.356188183
858.766623264
850.222199604
841.737905693
833.338380988
825.050816368
816.898748814
808.898718442
801.060175965
793.387843354
785.884884648
778.554672958
771.400662859
764.426103344
757.634011961
751.027073554
744.607241447
738.375490382
732.33184196
726.475516155
720.805042468
715.31835446
710.012856498
704.885454327
699.932584178
695.150257858
690.534126652
686.079570586
681.78180761
677.636011201
673.637424489
669.781462279
666.063795011
662.480412473
659.027665871
655.702289204
652.501400532
649.422485743
646.463366519
643.622155919
640.897203783
638.28703568
635.790288015
633.405643197
631.131767914
628.967258117
626.910593496
624.960103507
623.113945877
621.370096993
619.726352556
618.180336242
616.729513881
615.371211409
614.102634834
612.920891744
611.823013424
610.805977946
609.866733749
609.002224255
608.209413135