/*--------------------------------*- C++ -*----------------------------------*\
| =========                 |                                                 |
| \\      /  F ield         | OpenFOAM: The Open Source CFD Toolbox           |
|  \\    /   O peration     | Version:  v1906                                 |
|   \\  /    A nd           | Web:      www.OpenFOAM.com                      |
|    \\/     M anipulation  |                                                 |
\*---------------------------------------------------------------------------*/
FoamFile
{
    version     2.0;
    format      ascii;
    class       volScalarField;
    location    "9";
    object      pa;
}
// * * * * * * * * * * * * * * * * * * * * * * * * * * * * * * * * * * * * * //

dimensions      [0 2 -2 0 0 0 0];


internalField   nonuniform List<scalar> 
9216
(
10982.4073301
10979.594729
10973.7531655
10964.8244513
10952.8619826
10937.8992528
10920.0092169
10899.2473915
10875.713408
10849.4800256
10820.6686842
10789.3648371
10755.7066711
10719.7877628
10681.7579769
10641.7146762
10599.8147381
10556.155541
10510.8968775
10464.133015
10416.0233151
10366.6565703
10316.1890527
10264.7023639
10212.3477405
10159.198523
10105.3995047
10051.0151406
9996.18286648
9940.9579815
9885.46982872
9829.76443747
9773.96319101
9718.10405408
9662.29908683
9606.57582745
9551.04036646
9495.71615213
9440.70378798
9386.02102995
9331.76218349
9277.93942984
9224.64078347
9171.87326391
9119.71877519
9068.17971623
9017.33208848
8967.174195
8917.7764146
8869.13351481
8821.31050554
8774.299124
8728.15930337
8682.88026485
8638.51711622
8595.05701239
8552.55051292
8510.98315508
8470.40118426
8430.78890542
8392.18850371
8354.58343228
8318.01202879
8282.45721758
8247.95371732
8214.48424071
8182.080078
8150.72399777
8120.44406455
8091.22336453
8063.0869056
8036.01831165
8010.03971328
7985.1354853
7961.32503375
7938.59366142
7916.95821293
7896.40508469
7876.94870412
7858.57669271
7841.30121375
7825.11122898
7810.01677049
7796.00822549
7783.0936107
7771.26480178
7760.52786777
7750.87620917
7742.31401678
7734.83625102
7728.44537702
7723.13791181
7718.91447478
7715.77228518
7713.70768919
7712.72264701
10985.3557553
10982.6156901
10976.8483969
10968.0238291
10956.1937859
10941.398454
10923.7004264
10903.162073
10879.869006
10853.9021076
10825.3660262
10794.3560304
10760.9913229
10725.3772155
10687.6429463
10647.8996943
10606.2825127
10562.904696
10517.9034037
10471.3908738
10423.5032852
10374.3492853
10324.0616297
10272.7434663
10220.5222978
10167.4944325
10113.7808269
10059.4700892
10004.6757752
9949.47823635
9893.98288169
9838.26132239
9782.41124916
9726.49818701
9670.61068873
9614.80057596
9559.14863084
9503.70452793
9448.54482486
9393.71330391
9339.28048791
9285.28440613
9231.78960186
9178.82861456
9126.46023274
9074.71189074
9023.6369143
8973.25805644
8923.62351294
8874.75179737
8826.68631589
8779.44177657
8733.05714105
8687.54373677
8642.93641243
8599.24351578
8556.49610649
8514.69993508
8473.88257561
8434.04753531
8395.21919422
8357.3991496
8320.60885688
8284.84830817
8250.13629108
8216.47147761
8183.87022236
8152.33013602
8121.86536285
8092.47269328
8064.16426361
8036.93626178
8010.79900815
7985.74829057
7961.79278832
7938.92807054
7917.16134245
7896.48812096
7876.91428958
7858.43545841
7841.05633426
7824.77275011
7809.58836336
7795.4993351
7782.50837838
7770.61205992
7759.81221223
7750.10585546
7741.4940095
7733.97422751
7727.54685715
7722.21021097
7717.96421027
7714.8083469
7712.74814143
7711.75249207
10991.4289878
10988.7395495
10982.914815
10974.0055301
10962.0616209
10947.1267188
10929.2613773
10908.5341136
10885.0283337
10858.8324943
10830.0485048
10798.7802723
10765.1435177
10729.2529265
10691.2333417
10651.2057659
10609.2998624
10565.6389958
10520.3539231
10473.5670558
10425.4072173
10375.9932549
10325.4497081
10273.8899053
10221.4324052
10168.1836682
10114.2551127
10059.745474
10004.7583352
9949.38413951
9893.71784966
9837.84080089
9781.83999963
9725.79212691
9669.77448364
9613.84713061
9558.08009264
9502.5335125
9447.27364693
9392.35442675
9337.83591011
9283.76606362
9230.19898112
9177.1769443
9124.7484229
9072.95039759
9021.82606936
8971.40752113
8921.73307649
8872.83034159
8824.73314009
8777.465007
8731.05565165
8685.52493933
8640.89882109
8597.1938664
8554.43262127
8512.62872065
8471.80162498
8431.96236582
8393.12763062
8355.3061637
8318.51215895
8282.75236048
8248.03874007
8214.37631364
8181.7750716
8150.23854731
8119.77498248
8090.3866596
8062.08027719
8034.85707569
8008.72240869
7983.67667101
7959.72404672
7936.86426201
7915.10050044
7894.43198432
7874.86104595
7856.38655055
7839.01012067
7822.7303974
7807.54841442
7793.46269927
7780.47379755
7768.58020268
7757.78203462
7748.07780796
7739.46727328
7731.94907688
7725.52275773
7720.18724042
7715.94212347
7712.78733581
7710.72768268
7709.70484695
11000.7619226
10998.1694286
10992.2577292
10983.2208856
10971.1094422
10955.9697064
10937.8638984
10916.8653363
10893.0596554
10866.5408267
10837.4129281
10805.785647
10771.7764472
10735.5057102
10697.0993655
10656.6838084
10614.3890076
10570.3432973
10524.6769501
10477.516904
10428.9907572
10379.2214655
10328.3317086
10276.4385768
10223.6582443
10170.1006569
10115.8744575
10061.0816849
10005.8228722
9950.1916086
9894.27943789
9838.1703589
9781.94779282
9725.69246487
9669.47690762
9613.36190499
9557.41406507
9501.69691425
9446.27354959
9391.20100939
9336.53596515
9282.32936515
9228.63186266
9175.48863729
9122.94472919
9071.03994276
9019.8141042
8969.30205741
8919.5388216
8870.55469294
8822.38028528
8775.04175348
8728.56569738
8682.97451942
8638.29117848
8594.53469657
8551.72474656
8509.87731907
8469.00913336
8429.13347748
8390.26442958
8352.41288059
8315.59055715
8279.80623824
8245.06956945
8211.38748108
8178.76778654
8147.21581173
8116.73776935
8087.3376057
8059.02014473
8031.78816105
8005.64528693
7980.59331667
7956.63487118
7933.770941
7912.00330319
7891.33230645
7871.75903599
7853.28334608
7835.90576933
7819.62579805
7804.44353402
7790.35821917
7777.36962383
7765.4768197
7754.67930866
7744.97604565
7736.36632973
7728.84910385
7722.42358867
7717.08895314
7712.84461245
7709.69057123
7707.63127082
7706.5867779
11013.3932354
11010.9410232
11004.9124995
10995.7051268
10983.3700462
10967.9562139
10949.5293095
10928.167627
10903.9612355
10877.0097468
10847.421871
10815.3130287
10780.8050294
10744.0236517
10705.0985484
10664.1609004
10621.343601
10576.7790363
10530.5995535
10482.9353916
10433.9154187
10383.6652052
10332.3079918
10279.9628943
10226.7460666
10172.7690131
10118.1399076
10062.9620018
10007.3350379
9951.35351742
9895.10773695
9838.68203177
9782.15855394
9725.62009074
9669.13629031
9612.76590945
9556.57429971
9500.62580072
9444.9825049
9389.70215301
9334.84019824
9280.44820454
9226.57551981
9173.26787913
9120.56899703
9068.51920244
9017.15700424
8966.51775283
8916.63517835
8867.54007602
8819.26180824
8771.82702194
8725.26111193
8679.58696843
8634.82639459
8590.99889223
8548.12303212
8506.21527659
8465.29129668
8425.36483942
8386.44899099
8348.55508747
8311.69391917
8275.87469206
8241.1061725
8207.39569837
8174.75026023
8143.17556852
8112.67707056
8083.25907302
8054.92569148
8027.68003393
8001.52508216
7976.46293593
7952.49562331
7929.62441046
7907.85053985
7887.17460531
7867.59721546
7849.11843826
7831.73838787
7815.45673854
7800.2732315
7786.18725884
7773.19828876
7761.30550946
7750.5081803
7740.80534195
7732.19609669
7724.67945611
7718.25452292
7712.92037954
7708.67645125
7705.52312353
7703.46420082
7702.39392173
11029.3887474
11027.1208297
11020.9411418
11011.5152022
10998.8933291
10983.1278914
10964.2895115
10942.4625964
10917.7434839
10890.2386187
10860.0632871
10827.3397419
10792.1960244
10754.7641915
10715.179347
10673.5780645
10630.0976776
10584.8749369
10538.0455652
10489.7431458
10440.0989175
10389.240869
10337.2937394
10284.378285
10230.6114431
10176.1057404
10120.9695912
10065.3068163
10009.2169897
9952.79475138
9896.12966215
9839.30559449
9782.40414882
9725.50952228
9668.68824101
9611.9960888
9555.49830177
9499.2591575
9443.34024557
9387.7991997
9332.69080087
9278.06643123
9223.97468832
9170.46107996
9117.56854308
9065.3371598
9013.80466468
8963.00616346
8912.97462895
8863.74062282
8815.33277939
8767.77753099
8721.09957647
8675.32161092
8630.46477863
8586.54840803
8543.59044676
8501.60720286
8460.61376206
8420.62373629
8381.6496615
8343.70275444
8306.79329128
8270.93037374
8236.12228731
8202.37627754
8169.69888803
8138.09574807
8107.57188953
8078.1315465
8049.77845127
8022.51564718
7996.34576312
7971.27084017
7947.29258454
7924.41220921
7902.63066455
7881.94849538
7862.3660486
7843.88334701
7826.50027244
7810.21645711
7795.03143994
7780.94457374
7767.95515365
7756.06233204
7745.2652236
7735.56283178
7726.95415551
7719.43814954
7713.01380397
7707.68025642
7703.43686435
7700.28421319
7698.22609138
7697.12455629
11048.8338993
11046.7977421
11040.4291189
11030.732484
11017.7554026
11001.5546782
10982.2074783
10959.8058906
10934.4543683
10906.2678499
10875.3700461
10841.8915866
10805.9684312
10767.7402149
10727.3489211
10684.9375094
10640.6488988
10594.624893
10547.005464
10497.9279508
10447.5266056
10395.9320216
10343.2708909
10289.6656159
10235.2342335
10180.0901687
10124.3422898
10068.0947663
10011.4471314
9954.4938193
9897.32363832
9840.01968539
9782.66337857
9725.33992494
9668.11196488
9611.03194942
9554.16571264
9497.57708259
9441.32714504
9385.47308646
9330.06907262
9275.16597267
9220.81170494
9167.05122759
9113.92677762
9061.47788001
9009.74157394
8958.75241891
8908.54271364
8859.14249737
8810.57976025
8762.88044128
8716.06863061
8670.16656289
8625.19481058
8581.17227418
8538.11636713
8496.04300216
8454.96676701
8414.90090856
8375.85749997
8337.84742203
8300.88052119
8264.9655896
8230.11051472
8196.32225754
8163.60699332
8131.9700895
8101.41623809
8071.94943288
8043.57309326
8016.29004208
7990.10262143
7965.01267091
7941.02163499
7918.13054298
7896.34010805
7875.65070859
7856.06247818
7837.57528973
7820.1888353
7803.9026134
7788.7159963
7774.62821907
7761.63843347
7749.74568794
7738.94897778
7729.24722008
7720.63930012
7713.12411931
7706.70060662
7701.36771418
7697.12489405
7693.97338136
7691.91652791
7690.77745686
11071.8334545
11070.0817122
11063.4820026
11053.4579452
11040.0511408
11023.3243358
11003.3629892
10980.2687969
10954.1563704
10925.1511093
10893.3871397
10859.0052585
10822.1510865
10782.9733136
10741.6222071
10698.2482342
10653.0009511
10606.0279962
10557.474326
10507.4815285
10456.1873431
10403.7252295
10350.2241067
10295.8081146
10240.5965159
10184.7036026
10128.2387235
10071.3062856
10014.0057195
9956.43101412
9898.67002285
9840.80491796
9782.91720956
9725.09253265
9667.38876274
9609.85517728
9552.55858233
9495.5621096
9438.92619091
9382.70737002
9326.9590909
9271.7315183
9217.07180593
9163.02418234
9109.63010902
9056.92838265
9004.9552805
8953.74465491
8903.3280705
8853.73489144
8804.99241105
8757.1259322
8710.158889
8664.11292098
8619.00798734
8574.86243532
8531.69310683
8489.51540153
8448.34337645
8408.18980417
8369.06626536
8330.98320254
8293.95000614
8257.97506418
8223.06584181
8189.22892738
8156.470106
8124.79440216
8094.20614764
8064.70902092
8036.30610985
8008.99994834
7982.79257405
7957.68556243
7933.68007995
7910.77691574
7888.97653025
7868.27908466
7848.68448479
7830.19240878
7812.80234513
7796.51361946
7781.32542463
7767.23684412
7754.24687356
7742.35443239
7731.55838159
7721.85752615
7713.25065643
7705.7365569
7699.3140378
7693.98210545
7689.74017067
7686.58984638
7684.53476448
7683.35195151
11098.5134661
11097.1047831
11090.226919
11079.8127339
11065.8940617
11048.5413482
11027.8504991
11003.9351057
10976.9222983
10946.9502479
10914.1657076
10878.7216859
10840.775323
10800.4859995
10758.0136934
10713.517577
10667.1548536
10619.0797986
10569.4430073
10518.3907954
10466.0647662
10412.6014813
10358.1322593
10302.7830378
10246.6743372
10189.92126
10132.6335763
10074.9157964
10016.8671111
9958.58081606
9900.14354754
9841.63645882
9783.14153196
9724.74340065
9666.49473917
9608.44254145
9550.65428106
9493.19225123
9436.11605551
9379.48142559
9323.34094077
9267.74389338
9212.73654775
9158.36224696
9104.66156487
9051.6724268
8999.43024583
8947.96803422
8897.31653021
8847.50430006
8798.55785613
8750.50175059
8703.35868581
8657.14959999
8611.89377031
8567.60889138
8524.31117183
8482.01540595
8440.73506394
8400.48235754
8361.26832455
8323.10288866
8285.99493846
8249.95238214
8214.98222152
8181.09060169
8148.28288029
8116.56367269
8085.93691694
8056.40591464
8027.97339177
8000.64153579
7974.41205281
7949.28620105
7925.26484445
7902.34848293
7880.53730245
7859.83120228
7840.22984098
7821.73266136
7804.33893133
7788.04776731
7772.85816759
7758.76903243
7745.7791891
7733.88739746
7723.09237734
7713.39280313
7704.78732985
7697.27466038
7690.85353668
7685.52273424
7681.28179758
7678.13322887
7676.08043371
7674.84725714
11129.0239334
11128.0246839
11120.8148609
11109.9404278
11095.4180209
11077.3282732
11055.7800704
11030.9016838
11002.8355509
10971.7353035
10937.7628602
10901.0857277
10861.8746141
10820.3013398
10776.5370913
10730.750963
10683.1087998
10633.7722777
10582.8982186
10530.6380808
10477.1376174
10422.5366563
10366.9689917
10310.562357
10253.4384694
10195.7131344
10137.496399
10078.8927038
10020.0007815
9960.91295555
9901.71433574
9842.4850297
9783.30800541
9724.26454993
9665.40215641
9606.76713628
9548.4266575
9490.44215541
9432.87220203
9375.77156656
9319.19179121
9263.18113987
9207.78483643
9153.04519586
9099.00176828
9045.69147813
8993.1487514
8941.40564301
8890.49195281
8840.43534231
8791.26144082
8742.99395285
8695.65475522
8649.26399629
8603.84018505
8559.40028303
8515.9597859
8473.53280895
8432.13216193
8391.76942868
8352.4550356
8314.19832611
8277.00762328
8240.89029951
8205.85283368
8171.90087641
8139.03930232
8107.27227099
8076.6032748
8047.03519586
8018.57034984
7991.21053917
7964.95709326
7939.81091812
7915.77253333
7892.84211818
7871.01954557
7850.3044247
7830.6961316
7812.19384889
7794.79659181
7778.50324582
7763.31258623
7749.22331094
7736.23405305
7724.34340055
7713.54990635
7703.8520972
7695.24851088
7687.73770206
7681.31826872
7675.98904959
7671.74954831
7668.60279537
7666.55285891
7665.26299566
11163.5417707
11163.0271389
11155.4237877
11144.0094988
11128.7794291
11109.8274257
11087.2785948
11061.2792549
11031.9904884
10999.5845626
10964.2414625
10926.1457867
10885.4840389
10842.4423672
10797.2047022
10749.9512914
10700.8575654
10650.0933046
10597.8220511
10544.2007248
10489.3794086
10433.5012573
10376.7025173
10319.1126159
10260.8543233
10202.0439545
10142.7916228
10083.2014445
10023.3714061
9963.3925108
9903.34801572
9843.31695633
9783.38390559
9723.62409341
9664.07984407
9604.79857005
9545.84619616
9487.28324401
9429.16702905
9371.55118564
9314.48604202
9258.01866318
9202.1930797
9147.05042447
9092.62908822
9038.96485668
8986.09104759
8934.03863417
8882.83636953
8832.51089779
8783.08686776
8734.58703343
8687.03235842
8640.44210708
8594.83394099
8550.22400172
8506.62700039
8464.05629303
8422.52396391
8382.04089431
8342.6168403
8304.2604955
8266.97956382
8230.78081676
8195.67016157
8161.65269352
8128.73275982
8096.91400721
8066.19944207
8036.59147372
8008.09197087
7980.70230107
7954.42338393
7929.25572688
7905.19947527
7882.25444485
7860.42016869
7839.69592647
7820.08078792
7801.57363943
7784.17322277
7767.87816002
7752.68698516
7738.59816541
7725.61012506
7713.72125168
7702.92992333
7693.23450358
7684.63336457
7677.12495902
7670.70780251
7665.38045726
7661.14258245
7657.9983183
7655.95185004
7654.59858237
11202.2747622
11202.331089
11194.2621871
11182.2166654
11166.1597735
11146.2028155
11122.4910736
11095.1930927
11064.4926271
11030.5843185
10993.6695815
10953.9530041
10911.6393358
10866.9310338
10820.0263488
10771.1178718
10720.3914934
10668.025692
10614.1911018
10559.050293
10502.7577214
10445.4598041
10387.2950876
10328.3944859
10268.8815662
10208.872879
10148.4783013
10087.8013029
10026.9387217
9965.97979832
9905.00560677
9844.09421551
9783.33227389
9722.78619413
9662.49293198
9602.5028724
9542.87997136
9483.68369982
9424.96985902
9366.79076452
9309.19533149
9252.22925575
9195.93520572
9140.35298175
9085.51966664
9031.46977483
8978.23538387
8925.846268
8874.33001534
8823.71214827
8774.01622839
8725.26396602
8677.47531455
8630.66857068
8584.8604598
8540.0662283
8496.29972095
8453.57346654
8411.89874813
8371.28568292
8331.74328614
8293.27954573
8255.90148056
8219.61521052
8184.42600949
8150.33837119
8117.35605752
8085.48216038
8054.71914584
8025.06891216
7996.53283027
7969.11179816
7942.80627809
7917.61634757
7893.54173353
7870.58185997
7848.73587925
7828.00271637
7808.38109721
7789.86958976
7772.46662819
7756.17055176
7740.97962285
7726.89206096
7713.9060539
7702.01977898
7691.23141155
7681.53913534
7672.94118014
7665.43582107
7659.02140148
7653.69655187
7649.46088
7646.31919608
7644.27687766
7642.85387379
11245.4663015
11246.192717
11237.5738171
11224.7906117
11207.7687431
11186.6423382
11161.5819975
11132.7836528
11100.4586226
11064.828366
11026.1195848
10984.5601158
10940.3755854
10893.7868337
10845.0079814
10794.2450803
10741.6952207
10687.5460222
10631.9754128
10575.1516281
10517.2333754
10458.3701065
10398.7023748
10338.3622339
10277.4736827
10216.153121
10154.5098109
10092.6461533
10030.6573215
9968.63018863
9906.64341589
9844.77458154
9783.11199695
9721.71074198
9660.60256792
9599.84235546
9539.4915843
9479.60842574
9420.24692825
9361.45786734
9303.2885469
9245.78310643
9188.98268536
9132.92558869
9077.64744704
9023.1813609
8969.55804162
8916.80593818
8864.95136305
8814.01860404
8764.03003779
8715.00622919
8666.96603451
8619.9266904
8573.90390839
8528.91195497
8484.9637389
8442.07088352
8400.2438079
8359.49179251
8319.82305493
8281.24480964
8243.76333896
8207.38404757
8172.11152919
8137.94961628
8104.90144285
8072.96948978
8042.15564411
8012.46124028
7983.88711621
7956.43365084
7930.10081722
7904.88821666
7880.79512893
7857.82054325
7835.96320551
7815.22164633
7795.59422486
7777.07915433
7759.67454124
7743.37840926
7728.18873146
7714.10345091
7701.12050513
7689.23783158
7678.45339615
7668.76518756
7660.17123874
7652.66970225
7646.2588228
7640.93690667
7636.70373053
7633.56542682
7631.52799057
7630.02849561
11293.4016599
11294.9133059
11285.643298
11271.9969571
11253.8478148
11231.3602875
11204.7367602
11174.2070443
11140.015986
11102.4171087
11061.6668469
11018.019875
10971.7255079
10923.0250496
10872.1499679
10819.3207298
10764.746174
10708.6232819
10651.1372516
10592.4617815
10532.7594975
10472.182472
10410.8727926
10348.9631609
10286.5774988
10223.8315649
10160.8335142
10097.684163
10034.4763894
9971.29398776
9908.21307689
9845.31169619
9782.67765282
9720.35307737
9658.36574437
9596.77551535
9535.64110073
9475.01902721
9414.96138009
9355.51715438
9296.73183789
9238.64782753
9181.3045553
9124.73867252
9068.98420315
9014.07269722
8960.03336489
8906.89321147
8854.67715447
8803.40814376
8753.1072645
8703.79384522
8655.48554909
8608.19847207
8561.94722449
8516.74502111
8472.60375436
8429.53407776
8387.54547205
8346.64632295
8306.8439811
8268.14483499
8230.55436547
8194.07721438
8158.71723419
8124.47755277
8091.36061868
8059.36826235
8028.5017375
7998.76177889
7970.14864034
7942.66214915
7916.3017412
7891.06651212
7866.95524968
7843.9664818
7822.0985063
7801.34943571
7781.71722411
7763.19970905
7745.79463439
7729.49968994
7714.31252839
7700.23080023
7687.25216414
7675.37430923
7664.5949626
7654.91190098
7646.32298915
7638.82617223
7632.41949352
7627.10132936
7622.87138878
7619.73661174
7617.70486851
7616.12258139
11346.415759
11348.8462639
11338.8034888
11324.1439008
11304.6746228
11280.600115
11252.1630457
11219.6352419
11183.3023522
11143.4561713
11100.3878957
11054.3829622
11005.7172593
10954.6545756
10901.4450051
10846.3241377
10789.5128132
10731.2172977
10671.6297424
10610.9288268
10549.2805129
10486.8388478
10423.7467881
10360.1370098
10296.1327112
10231.8483781
10167.3904573
10102.8575321
10038.3394723
9973.91628899
9909.66163008
9845.65536339
9781.97942167
9718.66357138
9655.73521246
9593.25699691
9531.28505544
9469.87382417
9409.07329017
9348.93040467
9289.48865092
9230.78848519
9172.86745896
9115.76040199
9059.49958331
9004.11485747
8949.63380632
8896.08186489
8843.4824461
8791.85705004
8741.22537504
8691.60541339
8643.01355146
8595.46465433
8548.97215713
8503.54814045
8459.20341453
8415.94758702
8373.78914124
8332.73549743
8292.79308602
8253.9674033
8216.26308036
8179.68393386
8144.23303115
8109.91273666
8076.72477355
8044.67026614
8013.74979846
7983.96345296
7955.31086625
7927.7912644
7901.40351603
7876.14616454
7852.01747852
7829.0154811
7807.13799762
7786.38268218
7766.74706215
7748.22856232
7730.82454491
7714.5323323
7699.34924004
7685.27259664
7672.29976897
7660.42816687
7649.65527322
7639.9786377
7631.39589659
7623.90485112
7617.50342858
7612.18963271
7607.96334904
7604.8330446
7602.80786408
7601.13602921
11404.9035168
11408.4093639
11397.4444056
11381.5895989
11360.5679183
11334.6374222
11304.092001
11269.2557958
11230.4641163
11188.054269
11142.357855
11093.6952045
11042.3716408
10988.6752191
10932.8756149
10875.2238491
10815.9526114
10755.2769731
10693.3953463
10630.490572
10566.7310598
10502.271927
10437.256101
10371.8153751
10306.0714065
10240.1366531
10174.1151043
10108.1023055
10042.184268
9976.43665715
9910.93098181
9845.7503037
9780.96299932
9716.58877531
9652.65994592
9589.2378779
9526.37656183
9464.12792429
9402.53970825
9341.65656322
9281.51976959
9222.16764888
9163.6356901
9105.95673972
9049.16115559
8993.27695987
8938.3299714
8884.34393824
8831.34065116
8779.34006017
8728.36037283
8678.41815816
8629.52843264
8581.70475422
8534.95929835
8489.30294407
8444.74534185
8401.29499342
8358.95931272
8317.74470057
8277.65659989
8238.69956602
8200.87731691
8164.19279979
8128.64823695
8094.24518903
8060.98459699
8028.86684225
7997.89178523
7968.05882252
7939.36692244
7911.81467929
7885.40034622
7860.12188667
7835.97700477
7812.96319385
7791.07776452
7770.31789012
7750.68063214
7732.16298293
7714.76188726
7698.47428281
7683.29711607
7669.22737825
7656.26211489
7644.39844933
7633.63358936
7623.96484029
7615.38964382
7607.90556359
7601.51029595
7596.20191416
7591.9802156
7588.85460698
7586.83694047
7585.06932149
11469.3331379
11474.0971802
11462.0249341
11444.7506794
11421.8934161
11393.7829784
11360.7789579
11323.2707737
11281.6540974
11236.3201078
11187.6469236
11135.9939651
11081.6985724
11025.0744175
10966.4111615
10905.9750018
10844.0097646
10780.7383301
10716.3642127
10651.0731828
10585.0348598
10518.4042221
10451.3230244
10383.9211047
10316.317603
10248.6220401
10180.9350603
10113.3481679
10045.9424581
9978.78888772
9911.95786958
9845.53509438
9779.56933799
9714.0723392
9649.08534581
9584.66574399
9520.86537071
9457.73326814
9395.31471295
9333.6517912
9272.78337387
9212.74544516
9153.57125465
9095.29149658
9037.93446965
8981.52621996
8926.09067888
8871.64978369
8818.22359738
8765.83041168
8714.48685279
8664.20797044
8615.00733271
8566.89710396
8519.88813115
8473.99001284
8429.21117886
8385.55895201
8343.03962247
8301.65850348
8261.42000143
8222.32766651
8184.38425912
8147.59179625
8111.95161464
8077.46441336
8044.13031414
8011.94890047
7980.91927533
7951.04009711
7922.30963491
7894.72580156
7868.2862066
7842.98818652
7818.8288555
7795.80513296
7773.91379183
7753.15148357
7733.51478344
7715.00021335
7697.60428274
7681.32351011
7666.15445701
7652.09374705
7639.13809239
7627.28429752
7616.52929096
7606.87011853
7598.30396156
7590.82821781
7584.44044945
7579.13830903
7574.92177273
7571.80196864
7569.7928327
7567.92271173
11540.2642055
11546.5010689
11533.0873306
11514.1131049
11489.0701899
11458.3855139
11422.5032595
11381.8944353
11337.0278482
11288.3579134
11236.3156529
11181.3034711
11123.6927243
11063.8232742
11002.0043665
10938.5163165
10873.6126425
10807.5223809
10740.452422
10672.5897547
10604.1035638
10535.147152
10465.859681
10396.3677508
10326.7868211
10257.2224269
10187.7708056
10118.5182468
10049.5397377
9980.90153166
9912.67482278
9844.9435217
9777.73394126
9711.05335273
9644.95276574
9579.48448698
9514.69784236
9450.63865745
9387.34946415
9324.86953287
9263.23510502
9202.47963055
9142.63393643
9083.72640416
9025.78311981
8968.82802041
8912.88301938
8857.96813189
8804.10158049
8751.29990433
8699.57804937
8648.94946527
8599.42618342
8551.01890451
8503.73706694
8457.58892727
8412.58162094
8368.72123721
8326.01287375
8284.46070722
8244.06804276
8204.83738106
8166.77046357
8129.86833661
8094.13139286
8059.55943284
8026.1517031
7993.90695531
7962.82348152
7932.89917081
7904.13154206
7876.51779816
7850.05485655
7824.73940086
7800.56790947
7777.53670444
7755.64197799
7734.87983872
7715.24633564
7696.73750164
7679.34937406
7663.0780359
7647.91963094
7633.87040063
7620.92669315
7609.08498807
7598.34190223
7588.69420432
7580.13885414
7572.67298144
7566.29388798
7560.99929305
7556.7890603
7553.6753815
7551.67587582
7549.69712006
11618.3718563
11626.3317153
11611.2762069
11590.2446947
11562.5776665
11528.8337063
11489.5665458
11445.349037
11396.7379995
11344.2611892
11288.4086578
11229.6288954
11168.3281534
11104.8718691
11039.5872925
10972.766733
10904.6710118
10835.5328676
10765.560172
10694.9388692
10623.8356241
10552.4001656
10480.7673666
10409.0590768
10337.3857476
10265.8477009
10194.535504
10123.5289009
10052.8957737
9982.69822929
9913.01082095
9843.90473865
9775.38615428
9707.46590515
9640.19943617
9573.6343226
9507.81699442
9442.78982206
9378.59228278
9315.26059504
9252.82815213
9191.32567115
9130.78138224
9071.22119012
9012.668826
8955.14598034
8898.67243127
8843.26615465
8788.94343454
8735.7189559
8683.60590146
8632.61603097
8582.75976798
8534.04626858
8486.48350074
8440.07830484
8394.83646739
8350.76277519
8307.86108465
8266.13437098
8225.58479406
8186.21374344
8148.02190156
8111.00928512
8075.17530602
8040.51880965
8007.03813365
7974.73114347
7943.59528918
7913.62763838
7884.82493115
7857.18361057
7830.69987578
7805.36971012
7781.18893228
7758.15322216
7736.25816976
7715.4992988
7695.8721128
7677.37211674
7659.99485892
7643.7359514
7628.59110507
7614.556148
7601.62705309
7589.79994115
7579.07111435
7569.43704899
7560.89441236
7553.44014575
7547.07139776
7541.78541953
7537.5822506
7534.47598442
7532.48727954
7530.39325413
11704.4808414
11714.4534522
11697.3623787
11673.8104442
11642.9623539
11605.5564576
11562.2884596
11513.8577748
11460.9259269
11404.104097
11343.946428
11280.9489419
11215.5518605
11148.1437982
11079.0668285
11008.6217357
10937.0730934
10864.6539373
10791.5699603
10718.003197
10644.1152286
10570.0499499
10495.9359602
10421.8886432
10348.011932
10274.399529
10201.1348193
10128.2894636
10055.9236763
9984.09713081
9912.88826017
9842.34241994
9772.45187863
9703.23991058
9634.75864366
9567.05192867
9500.16262251
9434.1295359
9368.9887572
9304.77325405
9241.51335022
9179.23684363
9117.96919239
9057.7336726
8998.55151593
8940.44204272
8883.42277414
8827.50954506
8772.71659689
8719.05667548
8666.54110927
8615.17989616
8564.9817705
8515.95428191
8468.1038538
8421.4358563
8375.95465825
8331.66369591
8288.56551984
8246.66186049
8205.953671
8166.44119041
8128.1239831
8091.00100005
8055.07061548
8020.33068628
7986.77858624
7954.41126376
7923.22527385
7893.21683411
7864.38185479
7836.71599283
7810.21468016
7784.87317571
7760.68659199
7737.64994475
7715.75817787
7695.00621042
7675.38895943
7656.90138441
7639.5385068
7623.29545224
7608.16746486
7594.1499454
7581.23845976
7569.42876497
7558.7168145
7549.09877439
7540.57106275
7533.13032225
7526.77341162
7521.49764381
7517.30291771
7514.20450317
7512.22785322
7510.01257532
11799.6130396
11811.9261391
11792.2737742
11765.5894166
11730.8434473
11689.0198864
11640.998252
11587.6336391
11529.7097346
11467.9298658
11402.9148241
11335.2067778
11265.2761977
11193.52999
11120.3197452
11045.9494709
10970.6825574
10894.7478474
10818.3448621
10741.6482201
10664.8113801
10587.9697771
10511.2434975
10434.7395364
10358.5536431
10282.771277
10207.4669059
10132.702425
10058.5305239
9985.0114524
9912.22179875
9840.17447396
9768.85495829
9698.30188822
9628.56040407
9559.67076101
9491.67151632
9424.59776493
9358.48187959
9293.35337727
9229.23930077
9166.16434411
9104.15103127
9043.2198578
8983.38942611
8924.67656063
8867.09642046
8810.66259317
8755.38719112
8701.28092918
8648.35320931
8596.61218631
8546.06484395
8496.71705184
8448.57363564
8401.63842729
8355.91433103
8311.40336874
8268.10674301
8226.02487865
8185.15748375
8145.5035882
8107.06160313
8069.82935696
8033.80415358
7998.98280622
7965.36169442
7932.93679589
7901.70374232
7871.65784936
7842.7941711
7815.10752824
7788.59256123
7763.24375651
7739.05549812
7716.02209198
7694.13781559
7673.39694036
7653.79377869
7635.32270456
7617.97819651
7601.75485714
7586.64744939
7572.65091436
7559.76040033
7547.97126521
7537.27911182
7527.67978034
7519.16936391
7511.74429337
7505.4012546
7500.13704583
7495.95173365
7492.86265217
7490.89938706
7488.55635873
11905.0571644
11920.0668186
11897.1341426
11866.4933915
11826.914846
11779.718549
11726.0200361
11666.8623915
11603.1674276
11535.7354889
11465.2519539
11392.2991965
11317.3701963
11240.8819167
11163.1874871
11084.5868177
11005.3356039
10925.6528363
10845.7270001
10765.7211674
10685.7771719
10606.0190516
10526.555905
10447.4842679
10368.889859
10290.8480105
10213.422335
10136.6637255
10060.6187243
9985.3519406
9910.92179127
9837.31186493
9764.51400077
9692.57453108
9621.53143445
9551.42116209
9482.27759685
9414.13181598
9347.01218919
9280.94456533
9215.95250229
9152.05741806
9089.27874317
9027.63405703
8967.13920328
8907.80840241
8849.65434368
8792.68828005
8736.9201029
8682.35842434
8629.01063938
8576.88299948
8525.98066557
8476.30777562
8427.86749105
8380.66206037
8334.6928608
8289.96045938
8246.46465104
8204.20451824
8163.17846627
8123.38428197
8084.81916694
8047.47979548
8011.36234612
7976.46255882
7942.77576499
7910.29694391
7879.02075134
7848.9415749
7820.05356144
7792.35067108
7765.82670341
7740.47534987
7716.29021871
7693.26488537
7671.39291606
7650.66791582
7631.08355024
7612.6335911
7595.31193497
7579.11264667