/*--------------------------------*- C++ -*----------------------------------*\
| =========                 |                                                 |
| \\      /  F ield         | OpenFOAM: The Open Source CFD Toolbox           |
|  \\    /   O peration     | Version:  v1906                                 |
|   \\  /    A nd           | Web:      www.OpenFOAM.com                      |
|    \\/     M anipulation  |                                                 |
\*---------------------------------------------------------------------------*/
FoamFile
{
    version     2.0;
    format      ascii;
    class       volVectorField;
    location    "642";
    object      Ua;
}
// * * * * * * * * * * * * * * * * * * * * * * * * * * * * * * * * * * * * * //

dimensions      [0 1 -1 0 0 0 0];


internalField   nonuniform List<vector> 
9216
(
(-0.0103643152668 0.0103714257208 0)
(-0.0109374673635 0.033472272242 3.91473631731e-27)
(-0.0109335723646 0.0569294852536 -7.07835224074e-31)
(-0.0108310311827 0.0803939372062 0)
(-0.0106849572461 0.10346859921 0)
(-0.0104994258644 0.126059208835 0)
(-0.0102790908302 0.148064356457 0)
(-0.0100271193645 0.169391994551 0)
(-0.0097465256701 0.189959343676 0)
(-0.00944019440113 0.209693091352 0)
(-0.00911117429446 0.228529493902 0)
(-0.00876238462308 0.246414551033 0)
(-0.00839687099017 0.263303878325 0)
(-0.00801744528249 0.279162567781 0)
(-0.00762698810816 0.293964762014 0)
(-0.00722805473191 0.30769325235 0)
(-0.00682323591575 0.32033884349 0)
(-0.00641473546247 0.331899791498 0)
(-0.00600478900606 0.342381065399 0)
(-0.00559521358478 0.351793726439 0)
(-0.00518788041889 0.360154178852 0)
(-0.00478423374768 0.367483569391 0)
(-0.00438581068401 0.373807093296 0)
(-0.00399372594158 0.379153463194 0)
(-0.00360923168001 0.383554302979 0)
(-0.00323316505866 0.387043703077 0)
(-0.00286654181504 0.389657708719 0)
(-0.00250996697135 0.391433957965 0)
(-0.00216425970464 0.392411255351 0)
(-0.00182983367183 0.392629286305 0)
(-0.00150735962961 0.392128215575 0)
(-0.00119700903177 0.390948713436 0)
(-0.000899213364256 0.389131072597 0)
(-0.000614058841684 0.386715374761 0)
(-0.000341916185424 0.383741345004 0)
(-8.271275887e-05 0.380248083299 0)
(0.000163332963513 0.37627388516 0)
(0.000396432335601 0.371856115931 0)
(0.000616484949854 0.367031057284 0)
(0.000823818808664 0.361833818135 0)
(0.00101843544624 0.356298222594 0)
(0.00120076237664 0.350456747213 0)
(0.00137088801268 0.34434044619 0)
(0.00152932185157 0.337978911907 0)
(0.00167622249436 0.331400233731 0)
(0.00181216205891 0.324630978774 0)
(0.00193735145437 0.317696182827 0)
(0.00205240500988 0.31061934996 0)
(0.00215756667888 0.303422472607 0)
(0.00225347176625 0.296126047203 0)
(0.00234037840079 0.288749121363 0)
(0.00241892274792 0.281309323226 0)
(0.00248935947259 0.27382293116 0)
(0.00255230762534 0.266304912279 0)
(0.00260800423388 0.258769010465 0)
(0.002657037465 0.251227789665 0)
(0.00269961668232 0.243692733685 0)
(0.00273629012689 0.236174288185 0)
(0.00276723496251 0.228681966742 0)
(0.00279295608991 0.221224386544 0)
(0.00281359883727 0.213809374186 0)
(0.0028296261058 0.206443989766 0)
(0.00284115647653 0.199134628226 0)
(0.00284861637065 0.191887028803 0)
(0.00285210560202 0.184706367978 0)
(0.00285202188263 0.177597252025 0)
(0.00284845602561 0.170563800589 0)
(0.0028417858147 0.163609622679 0)
(0.00283210252595 0.156737890486 0)
(0.00281977189826 0.149951299963 0)
(0.00280489388276 0.143252136985 0)
(0.00278782830524 0.136642225594 0)
(0.00276868937725 0.130122988589 0)
(0.00274783433725 0.123695386559 0)
(0.00272539447955 0.117359976413 0)
(0.00270172497405 0.111116845116 0)
(0.00267697387578 0.104965668877 0)
(0.00265149188275 0.0989056447815 0)
(0.00262544091343 0.0929355538246 0)
(0.00259916244142 0.0870536936255 0)
(0.00257282695524 0.0812579473876 0)
(0.00254675980528 0.0755457200129 0)
(0.00252113275265 0.0699140154792 0)
(0.0024962457818 0.0643593791457 0)
(0.00247226106732 0.058877986716 0)
(0.00244943771232 0.0534655987849 0)
(0.00242790432829 0.0481176733493 0)
(0.00240783350295 0.0428293595989 0)
(0.00238922237748 0.0375956954566 0)
(0.00237192095735 0.0324117985162 0)
(0.0023551864095 0.0272735159584 0)
(0.00233694964199 0.0221789711741 0)
(0.00231141795988 0.0171332569232 0)
(0.00225266985611 0.0121889440175 0)
(0.00214296041444 0.00697661841698 0)
(0.0030721961366 0.00307229646144 0)
(-0.0335512443184 0.0110307529684 0)
(-0.0370882881486 0.0373751920596 0)
(-0.0370009955266 0.0636470186256 -4.10953813415e-27)
(-0.0364985185632 0.0899511039987 0)
(-0.0358004589407 0.115783721055 0)
(-0.0349334413468 0.141060025683 0)
(-0.0339124151909 0.165672266989 0)
(-0.0327515893176 0.189519106072 0)
(-0.0314658876781 0.212508397089 0)
(-0.0300706066217 0.234558308242 0)
(-0.0285815717185 0.255597766154 0)
(-0.0270144528721 0.275566684888 0)
(-0.0253849256884 0.29441588869 0)
(-0.0237079430405 0.312106891296 0)
(-0.0219980270064 0.32861144618 0)
(-0.0202685556008 0.343911019582 0)
(-0.0185322083635 0.357996101777 0)
(-0.0168002765361 0.370865504257 0)
(-0.0150832559239 0.382525558394 0)
(-0.0133901703378 0.392989354875 0)
(-0.0117292914587 0.402275936467 0)
(-0.0101074550221 0.410409571046 0)
(-0.00853087924057 0.417419012431 0)
(-0.00700444993871 0.423336861285 0)
(-0.00553260919421 0.428198929317 0)
(-0.004118589708 0.432043705286 0)
(-0.00276535222752 0.434911825254 0)
(-0.00147476057424 0.436845634731 0)
(-0.000248558190425 0.437888748683 0)
(0.000912512629318 0.43808568486 0)
(0.00200768829772 0.43748152799 0)
(0.00303717977342 0.436121404732 0)
(0.00400113502076 0.434050696036 0)
(0.00490050780736 0.431314520917 0)
(0.00573602193214 0.427957363108 0)
(0.00650922480378 0.424022977255 0)
(0.00722137710073 0.419554188652 0)
(0.00787449945405 0.414592749112 0)
(0.00847024758717 0.409179188218 0)
(0.00901098827039 0.403352701362 0)
(0.00949865858012 0.397151039858 0)
(0.00993586307206 0.390610431634 0)
(0.0103247214593 0.383765507634 0)
(0.0106679800989 0.376649252007 0)
(0.010967852673 0.369292961803 0)
(0.0112271400469 0.361726224131 0)
(0.0114480694887 0.35397690699 0)
(0.0116334169449 0.346071161297 0)
(0.0117853502734 0.338033440464 0)
(0.0119065490388 0.329886524882 0)
(0.0119990580415 0.321651567462 0)
(0.0120653997046 0.313348137304 0)
(0.012107443791 0.304994286974 0)
(0.012127508221 0.296606610766 0)
(0.0121272511141 0.288200328448 0)
(0.012108755417 0.27978935239 0)
(0.0120734484305 0.271386381184 0)
(0.0120231659156 0.26300296907 0)
(0.011959103965 0.254649622707 0)
(0.0118828575082 0.246335866421 0)
(0.0117954081587 0.238070335496 0)
(0.0116981322255 0.229860831476 0)
(0.0115918278229 0.221714406829 0)
(0.0114776869613 0.213637406144 0)
(0.0113563642582 0.205635538485 0)
(0.0112289081902 0.19771390216 0)
(0.0110958737499 0.189877043402 0)
(0.0109582078858 0.182128964533 0)
(0.010816407983 0.174473169301 0)
(0.0106713573956 0.166912655971 0)
(0.0105235319648 0.159449951538 0)
(0.0103737818389 0.152087092766 0)
(0.0102225880837 0.144825652348 0)
(0.0100707879544 0.137666711578 0)
(0.00991888404083 0.130610882314 0)
(0.0097677104737 0.123658275325 0)
(0.00961779691062 0.116808521655 0)
(0.00946997390432 0.110060740324 0)
(0.00932479423379 0.103413562542 0)
(0.00918307574355 0.0968651020084 0)
(0.00904538220662 0.0904129845862 0)
(0.00891250216695 0.0840543236593 0)
(0.00878499117243 0.0777857575149 0)
(0.00866358424977 0.0716034318619 0)
(0.00854879945738 0.0655030467197 0)
(0.0084412782269 0.0594798480753 0)
(0.00834144225605 0.0535286859046 0)
(0.008249738461 0.0476440140943 0)
(0.00816629955203 0.041819944804 0)
(0.00809097307388 0.0360501938775 0)
(0.00802269161631 0.0303278929727 0)
(0.00795859601145 0.0246447166058 0)
(0.00789110657794 0.0189873830745 0)
(0.0077986912073 0.013326433142 0)
(0.00756513092616 0.00754884892088 0)
(0.00697166523867 0.0021373748896 0)
(-0.0574395741845 0.0111779310776 0)
(-0.0635902840549 0.0379917887671 0)
(-0.0633719796916 0.0645955747981 -4.11328252778e-27)
(-0.0625007623076 0.0912828846545 0)
(-0.0613190835627 0.117487515094 0)
(-0.0598609560319 0.143119249462 0)
(-0.05814711989 0.168066497932 0)
(-0.0561999434781 0.192225617707 0)
(-0.0540437252273 0.215502772807 0)
(-0.051703950783 0.23781493504 0)
(-0.0492068546286 0.259090321973 0)
(-0.0465787035842 0.279268584673 0)
(-0.0438454771755 0.298300714161 0)
(-0.0410322401728 0.316148750833 0)
(-0.0381629865791 0.332785297058 0)
(-0.0352601343103 0.348192909183 0)
(-0.0323445486608 0.362363366838 0)
(-0.0294351611566 0.375296891998 0)
(-0.026549160376 0.387001312658 0)
(-0.0237017134338 0.397491236491 0)
(-0.0209062915863 0.406787222763 0)
(-0.0181744558595 0.414915007356 0)
(-0.0155162719453 0.42190476006 0)
(-0.0129401145488 0.427790415953 0)
(-0.0104531256175 0.432609050678 0)
(-0.00806099917483 0.436400330345 0)
(-0.00576845056135 0.439206000771 0)
(-0.00357896215933 0.441069440033 0)
(-0.00149525092364 0.442035239286 0)
(0.000481027638474 0.442148833341 0)
(0.00234882057672 0.441456166546 0)
(0.00410799496174 0.44000336219 0)
(0.00575880592171 0.437836446359 0)
(0.00730233713058 0.435001126106 0)
(0.00873999780057 0.431542527288 0)
(0.010073872359 0.427504997042 0)
(0.0113062379721 0.422931916475 0)
(0.0124399545472 0.417865545799 0)
(0.0134779722769 0.412346882699 0)
(0.0144237355451 0.406415545865 0)
(0.0152806871337 0.400109671191 0)
(0.0160526842197 0.393465829543 0)
(0.016743500632 0.386518957312 0)
(0.0173572513937 0.379302305275 0)
(0.0178978941482 0.371847400445 0)
(0.0183696591436 0.364184023572 0)
(0.0187765516635 0.356340200614 0)
(0.019122785033 0.348342207208 0)
(0.0194122866529 0.34021458755 0)
(0.0196491326015 0.331980183528 0)
(0.0198370606753 0.323660178655 0)
(0.0199799057064 0.315274148796 0)
(0.0200811232947 0.306840126885 0)
(0.0201442253352 0.298374670416 0)
(0.02017231807 0.289892941744 0)
(0.0201685369528 0.281408786389 0)
(0.0201356019192 0.272934821934 0)
(0.0200762501752 0.264482520023 0)
(0.0199928106721 0.256062296939 0)
(0.0198876324103 0.247683592392 0)
(0.0197626789259 0.239354954701 0)
(0.0196199489798 0.231084110096 0)
(0.0194610909896 0.222878037257 0)
(0.0192878122729 0.214743022712 0)
(0.0191015126435 0.206684720889 0)
(0.0189036782808 0.198708193081 0)
(0.0186955335533 0.190817951858 0)
(0.018478415672 0.183017983466 0)
(0.0182534438721 0.175311777097 0)
(0.0180218716419 0.16770233234 0)
(0.0177847728995 0.160192175947 0)
(0.0175433692301 0.152783357594 0)
(0.017298733198 0.145477457497 0)
(0.0170520889254 0.138275574366 0)
(0.0168045333297 0.131178328128 0)
(0.0165573090206 0.124185844295 0)
(0.0163115446593 0.117297755613 0)
(0.0160684997981 0.110513186627 0)
(0.0158293259078 0.103830757909 0)
(0.0155952830281 0.0972485740441 0)
(0.0153675229821 0.090764233014 0)
(0.0151472777496 0.08437481986 0)
(0.0149356660544 0.0780769230833 0)
(0.0147338525969 0.0718666351918 0)
(0.0145428777096 0.065739576234 0)
(0.0143637841467 0.0596908999366 0)
(0.0141974650596 0.0537153199374 0)
(0.0140447478259 0.0478071091556 0)
(0.0139062450061 0.0419600978949 0)
(0.0137823768828 0.0361675918072 0)
(0.0136732312534 0.0304221701543 0)
(0.0135786813753 0.0247151459363 0)
(0.0134987462476 0.0190351549469 0)
(0.0134335137627 0.0133623207329 0)
(0.0133287917612 0.00774108304835 0)
(0.0121584017099 0.00223771379218 0)
(-0.0818861864718 0.0113076408073 0)
(-0.0907254182455 0.0385718212048 0)
(-0.0904050295629 0.0655219982874 4.11137251659e-27)
(-0.0891467731658 0.0925765510083 0)
(-0.0874429057628 0.119132299213 0)
(-0.0853434754862 0.145094007639 0)
(-0.0828782473762 0.170345759341 0)
(-0.0800794693994 0.194780918528 0)
(-0.0769822245516 0.218303590836 0)
(-0.0736234497816 0.240829500485 0)
(-0.0700410696267 0.262286352609 0)
(-0.0662731051174 0.282613941571 0)
(-0.0623569927376 0.301763984598 0)
(-0.0583288848088 0.319699736545 0)
(-0.054223195321 0.336395415844 0)
(-0.0500721192672 0.351835495103 0)
(-0.045905416298 0.366013884353 0)
(-0.0417501439236 0.378933056606 0)
(-0.0376306581766 0.390603139192 0)
(-0.0335685261519 0.401041013641 0)
(-0.0295826954222 0.410269439438 0)
(-0.0256895267874 0.418316233171 0)
(-0.0219030645528 0.425213506157 0)
(-0.0182351189492 0.430996977967 0)
(-0.0146955684705 0.435705356277 0)
(-0.0112924324393 0.43937978849 0)
(-0.0080321587396 0.442063367881 0)
(-0.00491965722912 0.443800694709 0)
(-0.00195855866285 0.444637475262 0)
(0.000848791453704 0.444620160742 0)
(0.00350109784446 0.443795614995 0)
(0.00599815422613 0.442210842133 0)
(0.00834054665571 0.439912593941 0)
(0.0105297939307 0.436947256816 0)
(0.012568088695 0.433360567442 0)
(0.0144583511079 0.429197413985 0)
(0.0162040098155 0.424501658538 0)
(0.0178090759017 0.419315981657 0)
(0.0192779277393 0.413681745903 0)
(0.0206153959396 0.407638880419 0)
(0.0218265530492 0.401225781734 0)
(0.0229168077897 0.394479232655 0)
(0.0238916986393 0.387434335978 0)
(0.0247569945566 0.380124464252 0)
(0.0255184913893 0.372581223821 0)
(0.0261821170887 0.364834433622 0)
(0.0267537309937 0.356912118096 0)
(0.0272392325539 0.34884051365 0)
(0.0276443647368 0.34064408904 0)
(0.0279748267926 0.332345577869 0)
(0.0282360842878 0.323966024192 0)
(0.0284334871913 0.315524838022 0)
(0.0285720895682 0.307039862308 0)
(0.028656774795 0.298527446742 0)
(0.0286920879227 0.290002530457 0)
(0.0286823691596 0.281478727643 0)
(0.0286316009468 0.272968418784 0)
(0.0285435499377 0.264482840562 0)
(0.02842162953 0.256032177882 0)
(0.0282690489356 0.24762565035 0)
(0.0280886903004 0.239271597716 0)
(0.0278832622677 0.230977556231 0)
(0.0276551896059 0.222750331639 0)
(0.0274067674857 0.214596060507 0)
(0.0271400606535 0.20652026696 0)
(0.0268570543904 0.198527906499 0)
(0.0265595601424 0.19062340519 0)
(0.0262493591307 0.182810685857 0)
(0.0259281116462 0.175093190689 0)
(0.0255974901106 0.167473891851 0)
(0.0252590900858 0.159955300394 0)
(0.0249145504201 0.152539464819 0)
(0.0245654649468 0.145227970277 0)
(0.0242134885617 0.13802192945 0)
(0.0238602496157 0.130921976557 0)
(0.0235074416088 0.123928255027 0)
(0.0231567370331 0.117040410579 0)
(0.0228098652156 0.110257579744 0)
(0.0224685289366 0.103578385722 0)
(0.0221344692639 0.0970009309915 0)
(0.0218093864324 0.090522798624 0)
(0.021494992662 0.0841410511149 0)
(0.0211929386265 0.0778522386401 0)
(0.0209048547609 0.0716524047489 0)
(0.0206322839391 0.0655371009349 0)
(0.0203767109758 0.0595013967619 0)
(0.0201395014135 0.0535398952192 0)
(0.0199219196339 0.0476467359629 0)
(0.0197250795068 0.0418155891812 0)
(0.0195499741601 0.0360396117024 0)
(0.0193975097843 0.0303113685543 0)
(0.019268735336 0.0246226649855 0)
(0.0191651658386 0.0189643520609 0)
(0.0190856443639 0.0133216723251 0)
(0.0189405069894 0.00777010128977 0)
(0.0170448589374 0.00228193706995 0)
(-0.106733331532 0.0114744455491 0)
(-0.118268691867 0.0393324752569 0)
(-0.11783986466 0.0667618600368 0)
(-0.116179246187 0.0943088844225 0)
(-0.113931477406 0.121332818624 0)
(-0.111163830553 0.147732923371 0)
(-0.10791641615 0.173388024531 0)
(-0.104232474123 0.198187529205 0)
(-0.100158885823 0.222032782174 0)
(-0.0957449267234 0.244837873554 0)
(-0.0910410444584 0.266529904752 0)
(-0.0860977139998 0.287048986754 0)
(-0.0809644645309 0.306347955467 0)
(-0.075689016955 0.324391854671 0)
(-0.0703166193644 0.341157229864 0)
(-0.0648894963862 0.356631282378 0)
(-0.0594465002447 0.370810924566 0)
(-0.0540228594885 0.38370178142 0)
(-0.0486501149027 0.395317174415 0)
(-0.0433561191614 0.405677125825 0)
(-0.0381651912511 0.414807409895 0)
(-0.0330982845547 0.422738676467 0)
(-0.0281732645176 0.429505658167 0)
(-0.0234051441652 0.435146469333 0)
(-0.0188063869037 0.439701990837 0)
(-0.0143871245544 0.443215334346 0)
(-0.010155421244 0.445731370512 0)
(-0.00611743566715 0.447296310183 0)
(-0.00227763239181 0.44795732457 0)
(0.00136110528727 0.447762198417 0)
(0.00479729941103 0.446759007034 0)
(0.00803082041377 0.444995873408 0)
(0.0110626153721 0.442520514823 0)
(0.0138947661736 0.439380232835 0)
(0.0165302807254 0.435621564102 0)
(0.0189730350824 0.431290106055 0)
(0.0212276291259 0.426430345055 0)
(0.023299337834 0.42108550516 0)
(0.0251939781566 0.415297417297 0)
(0.026917872799 0.409106407744 0)
(0.0284777267969 0.402551203423 0)
(0.0298806011063 0.395668853682 0)
(0.031133796116 0.38849466714 0)
(0.0322448317885 0.381062163516 0)
(0.033221335724 0.37340303978 0)
(0.0340710276667 0.365547150692 0)
(0.0348016112262 0.357522503588 0)
(0.0354207623308 0.349355267161 0)
(0.0359360256253 0.341069794195 0)
(0.0363548083127 0.332688657513 0)
(0.0366842838656 0.32423269906 0)
(0.0369313940326 0.315721090488 0)
(0.0371027634613 0.307171404827 0)
(0.0372047131059 0.298599696856 0)
(0.0372431892023 0.290020591501 0)
(0.0372237906143 0.281447377062 0)
(0.0371517144218 0.272892102441 0)
(0.0370317981733 0.264365674807 0)
(0.0368684824081 0.255877957103 0)
(0.0366658666953 0.247437861621 0)
(0.0364276873408 0.239053439531 0)
(0.036157384166 0.230731962873 0)
(0.035858089882 0.222479999672 0)
(0.0355327031248 0.214303479048 0)
(0.0351838849468 0.206207747827 0)
(0.0348141330463 0.198197616106 0)
(0.0344257806041 0.190277394204 0)
(0.0340210668391 0.182450918859 0)
(0.0336021339999 0.174721571833 0)
(0.0331710903171 0.167092289205 0)
(0.0327300020844 0.159565565116 0)
(0.0322809463747 0.152143448327 0)
(0.0318259965494 0.14482753567 0)
(0.031367263572 0.137618960794 0)
(0.0309068746466 0.130518382415 0)
(0.0304470032115 0.123525970221 0)
(0.0299898415224 0.116641392594 0)
(0.0295376203893 0.10986380402 0)
(0.0290925772585 0.103191836248 0)
(0.028656967288 0.0966235905993 0)
(0.028233028832 0.0901566352795 0)
(0.027822987657 0.0837880046875 0)
(0.027429021754 0.0775142042629 0)
(0.0270532603914 0.0713312172889 0)
(0.02669775011 0.0652345165932 0)
(0.0263644506069 0.0592190768362 0)
(0.0260552050538 0.0532793893418 0)
(0.0257717386123 0.0474094733793 0)
(0.025515645858 0.0416028860001 0)
(0.0252884196113 0.0358527241621 0)
(0.025091512193 0.0301516390793 0)
(0.0249264865129 0.0244918676002 0)
(0.0247949578645 0.0188654017177 0)
(0.0246927257907 0.0132589724526 0)
(0.0244966811579 0.00775212273206 0)
(0.0219860113826 0.00228792619955 0)
(-0.132121118755 0.0116826788811 0)
(-0.146395095537 0.040301441036 0)
(-0.145845333191 0.0683499961255 0)
(-0.14375880296 0.0965292695347 0)
(-0.140935967355 0.124152337287 0)
(-0.137462468048 0.151111883028 0)
(-0.133390108614 0.177280356406 0)
(-0.128774487546 0.202542265011 0)
(-0.123675614419 0.226795548229 0)
(-0.118156333935 0.249952346413 0)
(-0.112280745629 0.271939153587 0)
(-0.10611275961 0.292696671546 0)
(-0.09971484607 0.3121793617 0)
(-0.093146972271 0.330354751899 0)
(-0.0864657581496 0.347202550963 0)
(-0.0797238242176 0.362713623812 0)
(-0.0729693541517 0.376888875243 0)
(-0.0662458324584 0.389738090336 0)
(-0.0595919727268 0.401278774482 0)
(-0.0530417824682 0.411535034301 0)
(-0.0466247709729 0.420536532544 0)
(-0.0403662316403 0.428317543621 0)
(-0.0342875999456 0.434916123499 0)
(-0.028406813318 0.440373397876 0)
(-0.0227386824007 0.444732959373 0)
(-0.0172952104995 0.448040357998 0)
(-0.0120858922495 0.450342663016 0)
(-0.00711794615323 0.451688076659 0)
(-0.0023965320456 0.452125582482 0)
(0.0020750832603 0.451704617832 0)
(0.00629535121432 0.450474765035 0)
(0.010264354206 0.448485542135 0)
(0.0139834958531 0.445785867128 0)
(0.01745554993 0.442424184379 0)
(0.0206844303883 0.438448024419 0)
(0.0236750863382 0.433903867659 0)
(0.0264333651881 0.428836975367 0)
(0.0289659110164 0.423291245413 0)
(0.0312800437622 0.41730908831 0)
(0.033383673326 0.410931321526 0)
(0.0352851922336 0.404197080074 0)
(0.0369934014226 0.397143742381 0)
(0.0385174118685 0.389806870512 0)
(0.039866577473 0.382220164526 0)
(0.041050401902 0.374415430845 0)
(0.0420784757697 0.366422564754 0)
(0.0429603872338 0.358269547209 0)
(0.0437056631285 0.349982456033 0)
(0.0443236844214 0.341585491633 0)
(0.0448236335252 0.333101016861 0)
(0.0452144180216 0.324549610738 0)
(0.0455046281883 0.31595013492 0)
(0.0457024736692 0.307319812021 0)
(0.0458157559356 0.298674313827 0)
(0.0458518224621 0.290027857872 0)
(0.0458175578562 0.281393309714 0)
(0.0457193584366 0.272782289028 0)
(0.0455631436374 0.264205276478 0)
(0.0453543513184 0.255671719486 0)
(0.0450979681898 0.247190133924 0)
(0.0447985433495 0.238768200254 0)
(0.0444602339097 0.230412851589 0)
(0.0440868319732 0.222130352887 0)
(0.043681819722 0.213926369446 0)
(0.0432484036727 0.205806024781 0)
(0.0427895727669 0.19777394683 0)
(0.0423081335509 0.189834303426 0)
(0.041806765084 0.181990826681 0)
(0.0412880494796 0.174246827955 0)
(0.040754518731 0.166605203591 0)
(0.0402086766143 0.159068433562 0)
(0.0396530342478 0.15163857349 0)
(0.0390901212075 0.144317242421 0)
(0.0385225085671 0.137105606866 0)
(0.0379528088889 0.130004363463 0)
(0.0373836870963 0.123013720625 0)
(0.0368178504251 0.116133381342 0)
(0.0362580487246 0.109362527225 0)
(0.0357070564153 0.10269980569 0)
(0.0351676644855 0.0961433199872 0)
(0.0346426569684 0.0896906236418 0)
(0.0341347972258 0.0833387186321 0)
(0.0336468016092 0.0770840584694 0)
(0.0331813226903 0.0709225550887 0)
(0.0327409229754 0.0648495902394 0)
(0.0323280583809 0.0588600299467 0)
(0.031945056443 0.0529482424905 0)
(0.0315941067365 0.0471081187656 0)
(0.0312772545813 0.0413330965254 0)
(0.03099641674 0.035616191508 0)
(0.0307534167434 0.0299500619269 0)
(0.0305500315285 0.0243270844724 0)
(0.030387629858 0.0187395296038 0)
(0.0302593438425 0.0131741727602 0)
(0.0300115898809 0.007708759189 0)
(0.0269157607709 0.00228160768616 0)
(-0.158183687858 0.0119375332005 0)
(-0.17525755254 0.0414966298612 0)
(-0.174569359018 0.0703110288133 4.13489368974e-27)
(-0.172025330777 0.0992709933307 0)
(-0.168586501601 0.127632099169 0)
(-0.164358370111 0.155278889044 0)
(-0.159406038452 0.18207606313 0)
(-0.153799160719 0.20790223984 0)
(-0.147612555226 0.232651357032 0)
(-0.140924214105 0.256233393938 0)
(-0.1338133223 0.278574372695 0)
(-0.126358474875 0.299616020303 0)
(-0.118636140954 0.319315103487 0)
(-0.110719383225 0.337642506441 0)
(-0.102676843548 0.354582114318 0)
(-0.0945719836236 0.370129560522 0)
(-0.0864625807372 0.384290891989 0)
(-0.0784004577265 0.39708120475 0)
(-0.0704314377731 0.408523300068 0)
(-0.0625954884622 0.418646408567 0)
(-0.0549270294934 0.427485023357 0)
(-0.0474553498635 0.435077873078 0)
(-0.0402050957166 0.441467051167 0)
(-0.033196768538 0.446697301247 0)
(-0.026447202701 0.450815442219 0)
(-0.0199699811754 0.453869905054 0)
(-0.0137757883621 0.455910347864 0)
(-0.00787268981039 0.456987318338 0)
(-0.00226636487173 0.45715194071 0)
(0.00303970431584 0.456455609469 0)
(0.00804404043204 0.454949706946 0)
(0.0127470876804 0.452685401648 0)
(0.0171508480829 0.449713063168 0)
(0.0212589191237 0.446082489415 0)
(0.0250762475988 0.441842396043 0)
(0.0286089844623 0.437040313605 0)
(0.0318643343873 0.431722422797 0)
(0.0348504231946 0.425933419549 0)
(0.0375761681169 0.41971639995 0)
(0.0400511653622 0.413112762233 0)
(0.0422855777229 0.406162123759 0)
(0.0442900361604 0.398902251776 0)
(0.0460755378542 0.391369007357 0)
(0.047653355285 0.383596302467 0)
(0.0490349394236 0.375616070388 0)
(0.0502318325213 0.367458250038 0)
(0.0512555743901 0.359150784697 0)
(0.0521176185745 0.35071963566 0)
(0.0528292431635 0.342188811139 0)
(0.0534014733553 0.3335804105 0)
(0.0538450012697 0.324914683536 0)
(0.05417012046 0.31621010402 0)
(0.0543866610153 0.30748345629 0)
(0.0545039424482 0.298749933133 0)
(0.054530730186 0.290023242832 0)
(0.0544752120341 0.281315722807 0)
(0.0543449799824 0.272638457087 0)
(0.0541470324885 0.264001394717 0)
(0.0538877820402 0.255413466262 0)
(0.0535730817829 0.246882695609 0)
(0.0532082555849 0.238416304682 0)
(0.0527981440946 0.230020808868 0)
(0.0523471510539 0.221702101584 0)
(0.0518593014777 0.213465526664 0)
(0.0513382962791 0.205315937955 0)
(0.050787574319 0.197257745819 0)
(0.050210367188 0.189294950881 0)
(0.0496097573677 0.181431165601 0)
(0.0489887261473 0.17366962478 0)
(0.0483502017941 0.166013186237 0)
(0.0476970956261 0.158464323265 0)
(0.0470323363971 0.151025110424 0)
(0.0463588919884 0.143697204465 0)
(0.0456797886429 0.136481821962 0)
(0.0449981180269 0.129379715394 0)
(0.044317042018 0.122391149019 0)
(0.0436397866795 0.115515876026 0)
(0.0429696347852 0.10875311796 0)
(0.0423099093967 0.102101547574 0)
(0.041663957143 0.0955592756701 0)
(0.0410351246565 0.0891238426915 0)
(0.0404267359736 0.0827922152281 0)
(0.0398420652629 0.076560787805 0)
(0.0392843118097 0.0704253897454 0)
(0.038756572629 0.064381297114 0)
(0.0382618189171 0.0584232495033 0)
(0.0378028730682 0.0525454718062 0)
(0.0373823921753 0.0467417010018 0)
(0.0370028566331 0.0410052213497 0)
(0.0366665688825 0.0353289095748 0)
(0.036375658535 0.0297053054633 0)
(0.036132062291 0.0241266913315 0)
(0.0359369800553 0.0185852093507 0)
(0.0357814893186 0.0130672356092 0)
(0.0354831976477 0.00764754100861 0)
(0.0318152367506 0.00226874187461 0)
(-0.185067412157 0.0122432472333 0)
(-0.205017960324 0.0429379399881 0)
(-0.204169171666 0.0726752845661 -4.13269218959e-27)
(-0.201127474233 0.102575092488 0)
(-0.197020791938 0.131822544789 0)
(-0.191976575596 0.160292143664 0)
(-0.186075315499 0.18783926844 0)
(-0.179402883987 0.21433561371 0)
(-0.17205102639 0.239670586815 0)
(-0.164114857891 0.263751934785 0)
(-0.155690422379 0.28650553034 0)
(-0.146872533268 0.307874773402 0)
(-0.137752938036 0.327819641856 0)
(-0.128418812414 0.346315477859 0)
(-0.118951582015 0.363351581941 0)
(-0.10942605987 0.378929678172 0)
(-0.0999098916176 0.393062308418 0)
(-0.0904632922968 0.405771213154 0)
(-0.0811390582616 0.417085756663 0)
(-0.0719828212702 0.427041454261 0)
(-0.063033504006 0.435678653331 0)
(-0.0543239155921 0.443041408102 0)
(-0.0458814222595 0.44917656807 0)
(-0.0377286198791 0.454133076175 0)
(-0.0298839519583 0.457961448308 0)
(-0.022362229427 0.460713388412 0)
(-0.0151750420223 0.462441486351 0)
(-0.00833106745576 0.463198951818 0)
(-0.00183630874198 0.463039353226 0)
(0.0043057156637 0.462016326946 0)
(0.0100937934745 0.46018338769 0)
(0.0155288389958 0.457593483729 0)
(0.0206136607037 0.454298797383 0)
(0.0253528330903 0.450350646892 0)
(0.0297524888317 0.445799122476 0)
(0.0338201291046 0.44069296209 0)
(0.0375644504741 0.435079401091 0)
(0.0409951883746 0.42900404909 0)
(0.0441229722057 0.422510786169 0)
(0.0469591951527 0.415641674569 0)
(0.0495158911529 0.408436883307 0)
(0.0518056212848 0.400934624503 0)
(0.053841362181 0.393171101096 0)
(0.0556363996699 0.38518046636 0)
(0.0572042213678 0.376994795973 0)
(0.0585584126231 0.368644073617 0)
(0.0597125506798 0.360156191172 0)
(0.0606801025667 0.351556964444 0)
(0.0614743227099 0.342870165281 0)
(0.0621081567662 0.334117570437 0)
(0.0625941486001 0.32531902724 0)
(0.0629443574741 0.316492535351 0)
(0.0631702827837 0.307654343452 0)
(0.0632828032781 0.298819058855 0)
(0.0632921277662 0.289999767631 0)
(0.0632077633911 0.281208162209 0)
(0.0630384975809 0.27245467326 0)
(0.0627923984645 0.263748602332 0)
(0.0624768287331 0.255098251935 0)
(0.0620984763631 0.246511049737 0)
(0.0616633962102 0.237993664114 0)
(0.0611770647699 0.229552108452 0)
(0.0606444415133 0.221191832454 0)
(0.0600700383915 0.212917798937 0)
(0.0594579908262 0.204734545571 0)
(0.058812131559 0.196646231242 0)
(0.0581360610566 0.188656667622 0)
(0.0574332160294 0.180769336696 0)
(0.0567069305413 0.172987395735 0)
(0.0559604917317 0.165313671184 0)
(0.0551971856157 0.157750643535 0)
(0.0544203355343 0.150300424958 0)
(0.0536333297531 0.142964731939 0)
(0.0528396412617 0.135744854689 0)
(0.0520428371644 0.128641625371 0)
(0.051246581001 0.121655386661 0)
(0.050454626093 0.114785962298 0)
(0.0496708033218 0.108032630734 0)
(0.0488990019262 0.101394103075 0)
(0.0481431466084 0.0948685059762 0)
(0.0474071698817 0.0884533702107 0)
(0.04669498271 0.0821456251374 0)
(0.0460104426234 0.0759415993696 0)
(0.0453573220659 0.0698370275529 0)
(0.0447392764158 0.0638270632224 0)
(0.0441598141813 0.0579062976707 0)
(0.0436222691301 0.0520687849737 0)
(0.0431297765731 0.0463080739445 0)
(0.0426852534669 0.0406172477153 0)
(0.0422913832238 0.0349889730864 0)
(0.0419505995821 0.0294155761058 0)
(0.0416650302246 0.0238890950911 0)
(0.0414358459286 0.0184013378096 0)
(0.0412524624964 0.0129382366553 0)
(0.0409045076928 0.00757133541076 0)
(0.036672538801 0.00225141566863 0)
(-0.212932624096 0.0126044659493 0)
(-0.235851705198 0.0446494749873 0)
(-0.234814559282 0.0754806261371 0)
(-0.231225065024 0.106492925893 0)
(-0.226385982592 0.136786584788 0)
(-0.220449544484 0.166223887668 0)
(-0.213514364099 0.194649157224 0)
(-0.205685293975 0.221926126632 0)
(-0.197073659932 0.247939261283 0)
(-0.187794135414 0.27259420788 0)
(-0.177961774352 0.295817265907 0)
(-0.167689442333 0.317554435272 0)
(-0.157085672568 0.337770099336 0)
(-0.146252936542 0.356445447138 0)
(-0.135286310546 0.373576714413 0)
(-0.124272519848 0.389173307542 0)
(-0.113289347946 0.403255869225 0)
(-0.102405399369 0.41585434654 0)
(-0.0916802001975 0.427006128794 0)
(-0.081164605071 0.436754326989 0)
(-0.0709014588657 0.445146264548 0)
(-0.0609264359597 0.452232234413 0)
(-0.0512689623875 0.458064550723 0)
(-0.0419531194891 0.462696886504 0)
(-0.0329984423829 0.466183851337 0)
(-0.0244205569876 0.468580734702 0)
(-0.0162316427608 0.469943331705 0)
(-0.00844074598187 0.470327779554 0)
(-0.00105399388099 0.469790362281 0)
(0.00592524015499 0.46838723954 0)
(0.0124962006016 0.466174321031 0)
(0.018660458805 0.463206636707 0)
(0.0244217973783 0.45953836946 0)
(0.0297859748016 0.455222584922 0)
(0.0347604915472 0.450310921658 0)
(0.0393543706705 0.444853473122 0)
(0.043577957942 0.438898653361 0)
(0.0474427428448 0.432493090212 0)
(0.0509611984792 0.425681536592 0)
(0.054146637761 0.418506794376 0)
(0.0570130807145 0.411009647965 0)
(0.0595751296607 0.403228806503 0)
(0.0618478481164 0.395200855074 0)
(0.0638466419329 0.386960215955 0)
(0.0655871402426 0.378539121348 0)
(0.0670850763551 0.369967599278 0)
(0.0683561676054 0.361273474266 0)
(0.0694159956952 0.352482384441 0)
(0.0702798879009 0.343617816389 0)
(0.0709628020439 0.334701158755 0)