/*--------------------------------*- C++ -*----------------------------------*\
| =========                 |                                                 |
| \\      /  F ield         | OpenFOAM: The Open Source CFD Toolbox           |
|  \\    /   O peration     | Version:  v1906                                 |
|   \\  /    A nd           | Web:      www.OpenFOAM.com                      |
|    \\/     M anipulation  |                                                 |
\*---------------------------------------------------------------------------*/
FoamFile
{
    version     2.0;
    format      ascii;
    class       surfaceScalarField;
    location    "987";
    object      phia;
}
// * * * * * * * * * * * * * * * * * * * * * * * * * * * * * * * * * * * * * //

dimensions      [0 3 -1 0 0 0 0];
oriented        oriented;


internalField   nonuniform List<scalar> 
18240
(
0.00134659601884
-0.00134652171545
0.00282082740039
-0.00147414152473
0.00429398295202
-0.0014730806324
0.00574840021544
-0.00145432446574
0.00717603561298
-0.00142756473956
0.00857017448251
-0.00139404389377
0.00992471935598
-0.00135447859646
0.0112342582929
-0.00130944227119
0.0124938551887
-0.00125953520729
0.0136992866911
-0.00120533366577
0.0148468070929
-0.00114746358502
0.0159334151975
-0.00108650958729
0.0169565609226
-0.00102309392044
0.0179144313873
-0.000957771733054
0.0188056022373
-0.000891124236876
0.0196293454923
-0.000823644746998
0.0203852338149
-0.000755846935439
0.0210734744283
-0.000688142755308
0.0216944753728
-0.000620964884092
0.0222492091218
-0.00055463694115
0.0227387486201
-0.000489508717098
0.0231646625606
-0.000425818571019
0.0235285275838
-0.000363839555175
0.0238323550568
-0.000303733901392
0.0240780835955
-0.000245708265806
0.0242680352688
-0.000189860246365
0.0244043914536
-0.000136341083573
0.0244896751642
-8.51947447984e-05
0.0245262123355
-3.6527065144e-05
0.0245166370506
9.66148594373e-06
0.0244633425739
5.32996583294e-05
0.0243689978256
9.44279092469e-05
0.0242359816669
0.00013301663761
0.0240669296313
0.000169131885773
0.0238641661954
0.000202759321236
0.0236302532009
0.000233989297068
0.0233674146872
0.000262830067915
0.0230780957589
0.000289391463294
0.0227643855745
0.000313697558747
0.0224285818797
0.000335872280101
0.0220726141386
0.000355951235025
0.0216986105422
0.000374068069454
0.0213083239975
0.000390266345579
0.0209036986359
0.000404685599228
0.020486301022
0.00041737404883
0.020057883389
0.000428473532623
0.0196198226998
0.000438033974407
0.0191736779258
0.000446196272261
0.0187206391227
0.000453009283955
0.01826207622
0.000458609956429
0.0177990004239
0.000463043708799
0.0173326020317
0.000466440994739
0.0168637259397
0.000468841789741
0.0163933961225
0.000470367979572
0.0159223071157
0.000471052736966
0.0154513328539
0.000471008027573
0.0149810354902
0.000470259475808
0.0145121564636
0.000468908453085
0.0140451441298
0.00046697307621
0.0135806250589
0.000464544241625
0.0131189515493
0.000461633215963
0.0126606514178
0.000458321137758
0.0122059966355
0.000454613688887
0.0117554300818
0.000450583504572
0.0113091562362
0.000446232255288
0.0108675436785
0.000441625562739
0.0104307389492
0.000436762852394
0.00999904380394
0.0004317043237
0.00957255309168
0.000426448808332
0.00915150606088
0.000421052499195
0.00873594922804
0.000415515081559
0.00832606121213
0.00040988990167
0.0079218412976
0.000404178541202
0.00752340748737
0.000398432249597
0.00713071151124
0.000392655156658
0.00674380988902
0.000386896779882
0.00636260586356
0.000381163993327
0.00598709339782
0.000375504535812
0.00561712650806
0.00036992786504
0.00525263614762
0.000364479576572
0.00489342719282
0.0003591712134
0.00453936823009
0.000354045575089
0.00419021647121
0.000349115546484
0.00384578046717
0.000344420224063
0.00350577320176
0.000339972748176
0.00316994800433
0.000335807081116
0.00283798060723
0.000331934528943
0.00250957978876
0.000328380272742
0.00218440207483
0.000325146404032
0.00186214704828
0.000322232401566
0.00154252935232
0.000319588557182
0.00122542658189
0.000317079034857
0.000911101778246
0.000314299507673
0.000601239219013
0.000309838032209
0.000303460071697
0.000297751411911
0.000303445868128
0.00148872270721
-0.00283516273427
0.00315055436228
-0.00313588239074
0.00480327767935
-0.00312571810815
0.00643220145826
-0.00308315755344
0.00802988992858
-0.00302516903418
0.00958941221201
-0.00295347588064
0.0111041614694
-0.00286914573431
0.0125680993914
-0.00277329061907
0.0139757612205
-0.00266711739502
0.0153223900551
-0.00255187408184
0.0166038608044
-0.00242885751904
0.0178167895591
-0.00229935148458
0.0189584111717
-0.00216464187603
0.0200266781549
-0.00202595379002
0.0210201024067
-0.00188447823485
0.021937851298
-0.00174131097352
0.0227795626601
-0.00159749169624
0.0235454452274
-0.0014539452263
0.0242360755065
-0.00131153238733
0.0248525086593
-0.00117099283881
0.0253960644613
-0.001033005753
0.0258684528053
-0.000898132752705
0.0262715538095
-0.000766885912777
0.0266075596682
-0.000639668908764
0.0268787515991
-0.000516849794214
0.0270876575521
-0.000398698857711
0.0272368268787
-0.000285464305346
0.0273290019613
-0.00017730616221
0.0273668905079
-7.43738752844e-05
0.0273533482588
2.32635730029e-05
0.0272911462509
0.000115539028055
0.0271831705091
0.000202459539522
0.027032197065
0.000284023039889
0.0268410835775
0.000360297199334
0.02661253516
0.000431336328097
0.026349314605
0.000497257536568
0.0260540109144
0.000558157998143
0.0257292524269
0.000614193433389
0.0253774756029
0.000665494354931
0.025001141665
0.000712245470785
0.0246025069443
0.000754601727799
0.0241838418061
0.000792768222287
0.0237472034751
0.000826916375137
0.0232946559667
0.000857263907897
0.022828046255
0.000883991498164
0.0223492240412
0.000907322375287
0.0218598221608
0.000927439797571
0.0213614750533
0.000944565909719
0.0208556042036
0.000958880434101
0.0203436342249
0.000970598455744
0.019826784074
0.000979890716028
0.019306279624
0.000986960071528
0.0187831512096
0.000991963800483
0.018258441571
0.000995088479991
0.0177330101935
0.000996474672221
0.0172077354681
0.000996289999442
0.0166833261234
0.00099465654575
0.0161605164985
0.000991721867583
0.0156398853354
0.000987589365399
0.0151220431133
0.000982386969025
0.0146074583955
0.000976200676645
0.0140966363217
0.000969140607456
0.0135899527724
0.000961277829278
0.0130878232612
0.000952707482879
0.0125905451846
0.00094348898101
0.0120984565655
0.000933705895517
0.0116117867659
0.000923409573095
0.0111308047008
0.00091267552181
0.0106556784081
0.000901550484947
0.0101866125353
0.000890105089305
0.00972371723658
0.000878384417288
0.00926713485764
0.000866456747197
0.00881691859058
0.000854367678292
0.00837314839088
0.000842184835326
0.0079358198318
0.000829955612364
0.0075049493319
0.000817747776245
0.00708047355599
0.000805610903849
0.00666234406716
0.000793612851031
0.00625043758588
0.000781804961948
0.00584464016747
0.000770254406117
0.00544476852225
0.000759013228153
0.00505064380781
0.000748146558741
0.00466202418556
0.000737705556364
0.00427866828993
0.000727751474765
0.0039002791335
0.000718332472589
0.00352655731831
0.000709503390501
0.00315715637507
0.000701306158909
0.00279172552198
0.000693784667135
0.00242987513924
0.00068696751367
0.00207120441155
0.000680875858078
0.00171525993407
0.000675504981552
0.001361490525
0.000670821987173
0.00100902059064
0.000666742236674
0.000655799763549
0.000663032504676
0.000296923644426
0.000656601208543
0.000600356155721
0.00151503249759
-0.00435011187953
0.00319814798807
-0.00481890883651
0.00487461748281
-0.00480209873521
0.00652716826128
-0.00473561897926
0.00814763328274
-0.00464554646835
0.00972874677405
-0.00453450090079
0.0112637390333
-0.00440405196499
0.0127464342946
-0.00425589874577
0.014171293643
-0.0040918926199
0.0155334837773
-0.00391397884815
0.0168288678963
-0.00372415981778
0.0180540398003
-0.00352444017006
0.0192062775714
-0.00331680045424
0.0202835549822
-0.00310315047442
0.0212844686627
-0.0028853156702
0.0222082361968
-0.00266500057193
0.0230546062298
-0.00244378867649
0.0238238518378
-0.00222311596281
0.0245166722051
-0.00200428314902
0.0251341885544
-0.00178843761609
0.025677844268
-0.00157659548738
0.0261494085471
-0.00136962897351
0.0265508794592
-0.00116829466787
0.0268844977366
-0.00097322281819
0.0271526544036
-0.000784948246062
0.0273579146196
-0.000603898555634
0.0275029295806
-0.000430425135099
0.0275904688247
-0.000264788861549
0.0276233352176
-0.000107190287792
0.0276044040071
4.22472431075e-05
0.0275365404389
0.000183448328762
0.0274226437428
0.000316404529821
0.027265567935
0.000441140305609
0.0270681703883
0.00055773880132
0.0268332330694
0.000666310776103
0.0265635158561
0.000767014533191
0.0262616800204
0.000860026657907
0.0259303452005
0.000945563744927
0.0255720149293
0.00102385314157
0.0251891363453
0.00109515527153
0.0247840277559
0.00115973459659
0.0243589405281
0.00121788242219
0.0239159888443
0.00126988814814
0.0234572132452
0.00131606230139
0.0229845126767
0.00135670808465
0.0224997092669
0.0013921444806
0.0220044828997
0.001422678204
0.0215004367981
0.00144862672084
0.0209890347325
0.00147029072037
0.0204716670015
0.00148797703211
0.0199495904147
0.00150197183741
0.0194239941668
0.00151256345217
0.0188959425267
0.00152001648179
0.0183664400612
0.00152459452221
0.0178363769528
0.00152653549226
0.0173065929274
0.00152607422629
0.0167778249423
0.00152341912802
0.0162507691825
0.00151877463465
0.0157260309174
0.00151231929741
0.0152041839256
0.00150422797244
0.0146857222497
0.00149465131413
0.0141711165306
0.00148373753503
0.0136607675486
0.00147161325865
0.0131550590441
0.00145840459411
0.0126543129601
0.00144421921708
0.0121588385137
0.0014291665351
0.0116688892488
0.00141334087696
0.0111847082452
0.00139684049411
0.0107064871293
0.00137975172669
0.0102344074692
0.00136216666698
0.00976860203882
0.00134416822797
0.00930919251618
0.00132584631309
0.00885625327911
0.00130728373874
0.00840984560901
0.00128857084982
0.00796998435605
0.00126979231135
0.00753666884354
0.00125104013349
0.00710985266506
0.00123240137024
0.00668947149507
0.00121396958823
0.00627541627591
0.00119583354752
0.00586755808256
0.00117808715006
0.00546572485761
0.00116081917655
0.00506972344824
0.00114412177774
0.00467932001082
0.00112808133736
0.00429425925591
0.00111278552997
0.00391424851945
0.00109831533153
0.00353897413284
0.00108475061455
0.00316808890433
0.00107216322921
0.00280122482107
0.00106062098531
0.00243798213001
0.00105018176068
0.00207793387142
0.00104089615131
0.00172060601182
0.00103280460985
0.00136545400456
0.00102594706683
0.00101179896353
0.00102037144328
0.000658829079789
0.00101597491663
0.000307398001878
0.00100800472153
0.000907741418212
0.00153837488968
-0.00588840256165
0.00324452529815
-0.00652496829407
0.00494415339529
-0.00650163701753
0.00661918371691
-0.00641055927352
0.00826098196971
-0.00628725576972
0.00986195545184
-0.00613538560429
0.0114151144957
-0.00595712341087
0.0129141221826
-0.00575481918382
0.0143533419822
-0.0055310266212
0.0157278809345
-0.00528843247893
0.0170335971346
-0.00502979241237
0.0182671062384
-0.00475786625689
0.019425754406
-0.00447536757483
0.0205075978977
-0.0041849135907
0.0215113519727
-0.00388899155636
0.0224363539351
-0.00358992509618
0.0232824982192
-0.00328985791637
0.0240501925335
-0.00299073604142
0.0247402883045
-0.00269430725024
0.0253540381156
-0.00240211662361
0.025893028801
-0.00211551810042
0.0263591459622
-0.00183567896644
0.0267545140756
-0.00156359847452
0.0270814705962
-0.00130011597595
0.0273425141415
-0.00104593141556
0.0275402876667
-0.000801612670472
0.0276775333465
-0.000567614483756
0.0277570827232
-0.000344282897787
0.0277818163012
-0.000131871693172
0.0277546587998
6.94559141489e-05
0.027678542403
0.000259612668833
0.027556404873
0.000438588983483
0.027391156771
0.000606432044788
0.0271856835642
0.000763254623421
0.0269428149181
0.000909218727966
0.0266653306616
0.00104453707013
0.0263559321759
0.00116946009564
0.0260172515367
0.00128427832344
0.0256518253834
0.00138930991906
0.0252621065572
0.00148490371917
0.0248504401502
0.00157142732819
0.0244190772517
0.0016492706687
0.0239701530201
0.00171883448018
0.0235057022559
0.00178053421368
0.0230276394486
0.00183478884664
0.0225377759951
0.00188202497549
0.0220378022176
0.00192266591231
0.0215293060548
0.0019571359381
0.0210137570374
0.00198584976771
0.020492526263
0.00200921700994
0.0199668722393
0.0020276321507
0.0194379618499
0.00204147935177
0.0189068578687
0.00205112317144
0.0183745405312
0.00205691384587
0.0178418964059
0.00205917893419
0.0173097400731
0.00205822920693
0.0167788039524
0.00205435135848
0.0162497595594
0.00204781452901
0.0157232078591
0.00203886410786
0.0151996995683
0.00202772882
0.014679725645
0.00201461554638
0.0141637362002
0.0019997167936
0.0136521308299
0.00198320634767
0.0131452758176
0.00196524688077
0.01264349415
0.00194598621014
0.0121470808602
0.00192556475548
0.0116562927195
0.00190411214937
0.0111713617115
0.00188175427932
0.0106924845238
0.00185861003453
0.0102198342853
0.00183479770923
0.0097535500841
0.00181043172017
0.00929374717932
0.00178562822587
0.00884050682581
0.00176050173006
0.00839388522381
0.00173516984507
0.0079539039493
0.00170974976198
0.0075205578998
0.00168436216152
0.00709380659968
0.00165912759581
0.00667358137847
0.00163416960016
0.00625977777907
0.00160961106726
0.00585226214587
0.00158557664825
0.00545086529119
0.00156218922107
0.00505538860988
0.001539571678
0.00466559908627
0.00151784358771
0.00428123496154
0.00149712245852
0.0039020020353
0.00147752067767
0.00352757875595
0.00145914632618
0.00315761352282
0.00144210049897
0.0027917286014
0.00142647786589
0.00242951720365
0.00141236476215
0.00207054420344
0.0013998407749
0.00171434089269
0.00138898040728
0.00136040111521
0.00137985988747
0.00100818935401
0.00137255560759
0.000657306997668
0.00136683067593
0.000309383343497
0.00135590167479
0.00121711108409
0.00156834355652
-0.00745666055963
0.00330636647687
-0.00826290070698
0.00503727497913
-0.00823245397131
0.0067423606833
-0.00811555419717
0.00841254708743
-0.0079573518291
0.0100398697554
-0.00776261858685
0.0116170522406
-0.00753421700965
0.0131375466406
-0.00727522546507
0.0145955813617
-0.00698897426643
0.0159861928983
-0.00667895789044
0.0173052331122
-0.00634874776065
0.0185493619734
-0.00600191137242
0.0197160196981
-0.0056419429957
0.0208033905326
-0.00527220339682
0.021810351174
-0.00489587277938
0.0227364171195
-0.00451591302842
0.0235816786357
-0.00413504317101
0.0243467404264
-0.00375572309589
0.0250326552905
-0.00338014926247
0.025640866322
-0.00301025642517
0.026173146298
-0.00264772883864
0.0266315488615
-0.00229401400436
0.0270183582182
-0.00195034239849
0.0273360517042
-0.00161774580962
0.0275872601223
-0.00129707835133
0.0277747402118
-0.000989033123445
0.0279013429758
-0.000694159853168
0.027969992816
-0.000412877233026
0.0279836607834
-0.000145486448999
0.0279453479067
0.000107820065961
0.0278580618919
0.000346947615811
0.0277248024361
0.000571895406746
0.0275485428944
0.000782736179148
0.0273322184344
0.000979621683894
0.0270787092287
0.00116276813689
0.0267908332708
0.00133245123619
0.0264713317808
0.00148899739637
0.0261228649144
0.00163277900416
0.0257479997254
0.0017642065298
0.0253492082517
0.00188372463879
0.0249288576203
0.00199180504001
0.0244892101593
0.00208894325756
0.0240324154339
0.0021756520002
0.0235605121912
0.00225245834352
0.0230754222242
0.00231989742103
0.0225789540729
0.00237850987342
0.0220727987151
0.00242883579502
0.0215585349658
0.00247141241804
0.0210376269497
0.00250676836949
0.020511431103
0.00253542171448
0.0199811953295
0.00255787471624
0.0194480673878
0.00257461244085
0.0189130954687
0.00258609826691
0.0183772376206
0.00259277330635
0.0178413633741
0.00259505291735
0.0173062637205
0.00259332712747
0.0167726532782
0.00258795829883
0.0162411802815
0.00257928264402
0.0157124287757
0.00256760906849
0.0151869280721
0.0025532216979
0.0146651544828
0.00253637975943
0.0141475397957
0.00251732091639
0.0136344722017
0.00249626193502
0.0131263034814
0.00247340250402
0.0126233489145
0.00244892634855
0.0121258930538
0.00242300518519
0.0116341886034
0.00239579994065
0.0111484608154
0.00236746449484
0.0106689054567
0.00233814669575
0.0101956920114
0.00230799162326
0.00972896099047
0.00227714218204
0.00926882620483
0.00224574170168
0.00881537171465
0.00221393398384
0.00836865348599
0.00218186516899
0.0079286963046
0.00214968321822
0.00749549511159
0.00211753905729
0.00706901216331
0.00208558554794
0.00664917830613
0.00205397799709
0.00623589062171
0.00202287272978
0.00582901382827
0.00199242708289
0.00542837856441
0.00196279771619
0.00503378303416
0.00193414023204
0.00464499200485
0.00190660736981
0.00426173871481
0.00188034838691
0.00388372453968
0.0018555072803
0.00351062107166
0.00183222208702
0.00314207027836
0.00181062332837
0.00277768641003
0.00179083351584
0.00241705643453
0.00177296640942
0.00205974148371
0.0017571275309
0.00170527787525
0.00174341567612
0.00135318400522
0.00173192663137
0.00100298086652
0.00172273309314
0.000654336551642
0.00171544715098
0.000308826565222
0.0017013836161
0.00152592487974
0.00160623794114
-0.00906281192991
0.00338546263377
-0.0100420318536
0.0051566194747
-0.0100035183897
0.00690022845732
-0.00985907075641
0.00860668937737
-0.00966372116148
0.0102675935004
-0.00942343166426
0.0118753099171
-0.0091418432149
0.0134230306912
-0.00882285683782
0.0149048180719
-0.00847067327072
0.0163156295042
-0.00808968196757
0.0176513181981
-0.00768435032754
0.0189086146522
-0.00725912290481
0.0200850897059
-0.00681833454327
0.0211791054456
-0.00636613699129
0.022189754167
-0.0059064409315
0.0231167918368
-0.00544287162948
0.0239605655951
-0.00497873958202
0.0247219417813
-0.00451702355348
0.0254022333313
-0.00406036692701
0.0260031328526
-0.00361108378619
0.0265266491577
-0.00317117493659
0.0269750527841
-0.00274234923566
0.0273508266652
-0.00232604992682
0.0276566262922
-0.0019234809738
0.0278952439077
-0.00153563362685
0.0280695802767
-0.00116330910333
0.0281826178267
-0.000807139198918
0.0282373989621
-0.00046760216851
0.0282370036253
-0.000145037152855
0.0281845307842
0.000160344818016
0.0280830788098
0.000448449218345
0.0279357284469
0.000719293311744
0.027745527391
0.000972982454146
0.0275154761825
0.00120971600412
0.0272485144244
0.00142977066877
0.0269475110303
0.00163349328624
0.0266152531377
0.00182129160027
0.0262544391847
0.0019936271562
0.0258676703448
0.00215100723662
0.0254574458797
0.0022939788725
0.0250261566299
0.00242312174792
0.0245760822705
0.00253904300771
0.0241093866139
0.00264237077807
0.0236281166197
0.00273374943109
0.0231341994659
0.00281383344848
0.0226294433081
0.00288328293222
0.0221155361525
0.00294275769871
0.0215940483922
0.00299291301616
0.0210664335067
0.0030343940135
0.0205340323436
0.00306783180081
0.019998075559
0.00309383843234
0.0194596894672
0.00311300370872
0.0189198999725
0.00312589103726
0.0183796396325
0.00313303525585
0.0178397526459
0.00313493971468
0.0173010026081
0.00313207540163
0.0167640779876
0.00312487945986
0.0162295999678
0.00311375572803
0.0156981277988
0.00309907471556
0.01517016612
0.0030811754764
0.0146461696356
0.00306036686557
0.0141265494217
0.00303693047395
0.0136116765128
0.00301112282065
0.0131018868649
0.00298317894755
0.0125974836357
0.00295331511288
0.0120987406831
0.00292173258713
0.0116059035225
0.00288862039495
0.0111191914331
0.002854158882
0.0106387972534
0.00281852211643
0.0101648883258
0.00278188088275
0.00969760541981
0.002744404461
0.0092370628377
0.0027062628326
0.00878334681711
0.00266762769175
0.00833651515919
0.00262867377981
0.00789659546725
0.00258957910736
0.00746358463514
0.00255052545169
0.00703744723699
0.0025116978705
0.00661811516069
0.0024732844784
0.00620548639487
0.00243547539775
0.0057994250116
0.00239846198083
0.00539976051157
0.00236243537536
0.00500628827415
0.00232758537829
0.00461876952938
0.00229409880157
0.00423693230506
0.0022621581462
0.00386047199774
0.00223193995664
0.00348905277041
0.00220361351428
0.00312230865059
0.00217733941366
0.00275984535498
0.002153268577
0.00240124191415
0.00213154135995
0.00204605329892
0.00211228758631
0.00169381465907
0.00209562685337
0.00134404731092
0.00208166693747
0.00099627693272
0.00207047549319
0.000650154821882
0.00206154264176
0.000307143149395
0.00204436852902
0.00183305416447
0.00165288791712
-0.0107156113937
0.0034830959058
-0.0118721465092
0.00530400291927
-0.0118243307548
0.00709512623664
-0.0116501003685
0.00884621196713
-0.0114147135377
0.0105483076158
-0.0111254347563
0.0121933533743
-0.0107867971538
0.0137742317052
-0.0104036442692
0.0152848135974
-0.00998116524223
0.0167199756877
-0.0095247552622
0.0180755906339
-0.00903987766244
0.0193484950445
-0.00853194102402
0.0205364391686
-0.00800619373466
0.0216380226086
-0.00746763699178
0.0226526196683
-0.00692095606413
0.0235802979848
-0.00637046966078
0.0244217336121
-0.00582009656808
0.0251781259209
-0.00527333899341
0.0258511152319
-0.00473328112952
0.0264427061398
-0.00420260146813
0.0269551986468
-0.0036835960752
0.0273911287847
-0.00317820998395
0.0277532190627
-0.00268807275869
0.0280443383902
-0.00221453491343
0.0282674698358
-0.00175870169784
0.028425684449
-0.00132146246987
0.0285221188534
-0.000903514430845
0.0285599551109
-0.000505381435781
0.0285424014926
-0.000127428667024
0.0284726738242
0.000230125119373
0.028353977534
0.000567195974151
0.0281894918342
0.00088382720139
0.0279823517716
0.00118016850586
0.0277356364785
0.00145647498225
0.0274523557447
0.00171309286944
0.0271354395365
0.00195044864785
0.026787728845
0.0021690392258
0.0264119679814
0.00236942264179
0.0260107978913
0.00255220973788
0.0255867505917
0.00271805629014
0.0251422443714
0.00286765590089
0.0246795799588
0.0030017330908
0.0242009373762
0.00312103688198
0.0237083737523
0.00322633436221
0.0232038218462
0.00331840456498
0.0226890895953
0.00339803223838
0.0221658604371
0.0034660018769
0.0216356947199
0.00352309167177
0.0211000319195
0.0035700677917
0.0205601939624
0.00360767873539
0.0200173893098
0.00363665018281
0.0194727180594
0.00365768014876
0.0189271776437
0.00367143485364
0.018381669341
0.00367854514749
0.0178370051071
0.00367960384256
0.0172939149108
0.00367516378401
0.0167530540372
0.00366573692533
0.0162150105434
0.00365179421106
0.0156803123225
0.00363376643279
0.0151494339826
0.00361204581957
0.0146228030221
0.00358698844104
0.0141008055631
0.00355891716262
0.0135837911717
0.00352812515584
0.0130720770837
0.00349487970238
0.0125659514281
0.00345942625092
0.0120656758303
0.00342199249406
0.0115714870443
0.00338279240203
0.011083598045
0.00334203003009
0.010602198277
0.00329990303859
0.0101274535265
0.00325660581112
0.00965950514084
0.00321233211948
0.00919846907311
0.00316727729316
0.0087444344859
0.00312163985858
0.00829746238982
0.0030756226747
0.00785758404437
0.00302943353675
0.007424799575
0.00298328533459
0.00699907652204
0.00293739573436
0.00658034874781
0.00289198651761
0.00616851540298
0.00284728253359
0.0057634403397
0.0028035104304
0.00536495166365
0.00276089710593
0.00497284177234
0.002719668064
0.00458686756548
0.00268004559968
0.00420675113898
0.00264224700858
0.00383218063892
0.00260648273559
0.00346281160124
0.00257295466611
0.00309826844695
0.00254185446709
0.00273814644637
0.00251336218809
0.00238201422745
0.00248764514071
0.00202941670686
0.00246485683596
0.00167987881703
0.0024451361774
0.0013329128265
0.00242860566648
0.000988030277103
0.00241533255965
0.000644844384685
0.0024047004353
0.000304731908877
0.00238445266714
0.00213777334291
0.00170910709189
-0.012424628693
0.00360081367285
-0.0137637558919
0.00548166735823
-0.013705088567
0.00732992817535
-0.0134982652706
0.00913452792966
-0.0132192182719
0.0108858540302
-0.0128766664218
0.0125753355887
-0.012476185147
0.0141954971472
-0.0120237131428
0.0157400000478
-0.0115255765204
0.0172036488009
-0.0109883135016
0.0185823663017
-0.0104185059227
0.0198731446627
-0.00982263144691
0.0210739766634
-0.00920693925989
0.0221837733749
-0.00857734869454
0.0232022714452
-0.00793937075075
0.0241299345612
-0.00729805100237
0.0249678518628
-0.00665793386129
0.0257176377635
-0.00602304661609
0.0263813359183
-0.00539690289126
0.0269613317464
-0.00478252273825
0.0274602754695
-0.00418246722851
0.0278810185993
-0.00359888246676
0.0282265633543
-0.00303354894146
0.028500025044
-0.00248793002974
0.028704603917
-0.00196321614791
0.0288435644146
-0.00146036060663
0.0289202174562
-0.000980107324235
0.0289379044246
-0.00052301037201
0.0288999802084
-8.94486853336e-05
0.0288097961811
0.000320362747081
0.0286706801215
0.000706363318269
0.0284859254162
0.00106863098377
0.0282587696225
0.00140737102034
0.0279923827281
0.00172290636533
0.0276898548579
0.00201566285395
0.0273541865513
0.00228615682607
0.0269882800467
0.00253498322241
0.0265949325893
0.00276280535226
0.026176830135
0.00297034507679
0.0257365426064
0.00315837448136
0.0252765192324
0.00332770759448
0.0247990852777
0.00347919317577
0.0243064388197
0.0036137071701
0.0238006489492
0.00373214591936
0.0232836541251
0.00383541883205
0.0227572620573
0.00392444166608
0.0222231498884
0.00400012923317
0.0216828660062
0.00406338872922
0.0211378322712
0.00411511261071
0.0205893479066
0.00415617225352
0.0200385938206
0.00418741142294
0.0194866384886
0.00420964079302
0.0189344441361
0.00422363261687
0.0183828742181
0.00423011672998
0.0178327009157
0.00422977701267
0.0172846135346
0.00422324938572
0.0167392265438
0.00421112044748
0.0161970880587
0.0041939276839
0.0156586875723
0.0041721603289
0.0151244637
0.00414626166203
0.0145948108454
0.00411663179916
0.0140700855419
0.00408363163507
0.0135506115103
0.0040475870014
0.0130366841915
0.00400879360313
0.012528573939
0.0039675218389
0.0120265286327
0.00392402200388
0.011530775039
0.00387852905855
0.011041519668
0.00383126742717
0.0105589485788
0.00378245511418
0.0100832268483
0.00373230758344
0.00961449725677
0.00368104081221
0.00915287884698
0.00362887395046
0.00869846499058
0.00357603112201
0.00825132153435
0.00352274277972
0.00781148472302
0.00346924626388
0.0073789593756
0.00341578594521
0.00695371706071
0.00336261269945
0.00653569464885
0.00330998304834
0.00612479302869
0.00325815779612
0.00572087626773
0.0032074004399
0.00532377104373
0.00315797525036
0.00493326653606
0.00311014524015
0.00454911463779
0.00306416997121
0.00417103060983
0.00302030335873
0.00379869405956
0.0029787914662
0.00343175034718
0.00293987039196
0.0030698123252
0.00290376428624
0.00271246258429
0.00287068354212
0.00235925598504
0.00284082309044
0.00200972291057
0.0028143611721
0.00166337378547
0.00279145784402
0.00131970238261
0.00277224993874
0.000978196182002
0.00275681039509
0.000638436729437
0.00274443329016
0.000301733260373
0.0027211294088
0.00243949258653
0.00177584844094
-0.0142003848826
0.00374053023693
-0.0157283405199
0.00569242001137
-0.0156568796517
0.00760822607159
-0.0154139736978
0.00947588448295
-0.0150867793983
0.0112849892427
-0.0146856747656
0.0130263720414
-0.014217472309
0.0146921546349
-0.0136894010949
0.0162757810221
-0.013109109305
0.0177720065259
-0.0124844466148
0.0191768522173
-0.0118232604766
0.0204875326748
-0.0111332221852
0.021702364736
-0.0104216830352
0.0228206623409
-0.00969555961047
0.0238426224466
-0.00896124575469
0.0247692051652
-0.00822455036724
0.0256020124578
-0.00749065951749
0.0263431686827
-0.00676412308068
0.0269952081113
-0.00604886438848
0.0275609731678
-0.00534821184684
0.0280435281767
-0.00466494821226
0.0284460905375
-0.0040013728779
0.0287719808005
-0.0033593692585
0.0290245890791
-0.00274047051645
0.0292073547428
-0.00214591609232
0.0293237534241
-0.00157669579145
0.0293772871875
-0.001033579724
0.0293714732878
-0.000517137388306
0.0293098306224
-2.77491190959e-05
0.0291958629836
0.000434384950935
0.0290330389052
0.000869239727812
0.028824780537
0.00127693929775
0.0285744415942
0.00165775763868
0.0282852948776
0.00201209834221
0.027960521167
0.00234047953619
0.0276031997992
0.00264351873745
0.0272163015639
0.00292191970907
0.0268026824214
0.00317646031959
0.0263650786609
0.00340798237989
0.0259061022248
0.00361738205247
0.025428237103
0.0038056015957
0.0249338357588
0.00397362102728
0.0244251166527
0.00412245056943
0.0239041619309
0.00425312261517
0.0233729163818
0.00436668419825
0.0228331867702
0.00446418884332
0.0222866426324
0.00454668884902
0.0217348176636
0.00461522700598
0.0211791127133
0.00467082886249
0.0206207995115
0.00471449467782
0.0200610260209
0.00474719221883
0.0195008224877
0.00476984965239
0.0189411089337
0.00478334967622
0.0183827031059
0.00478852418923
0.0178263294791
0.00478615055082
0.0172726283034
0.00477694870903
0.0167221651874
0.00476158009595
0.0161754402397
0.0047406475126
0.0156328972114
0.00471469672925
0.0150949317438
0.00468421896453
0.0145618991635
0.00464965481306
0.0140341210528
0.00461139875576
0.0135118910681
0.00456980470083
0.0129954793728
0.00452519170212
0.0124851361987
0.00447785022532
0.011981094045
0.00442804816787
0.0114835690579
0.00437603696435
0.0109927612258
0.00432205708136
0.0105088539406
0.00426634322589
0.0100320126586
0.00420912869734
0.00956238318745
0.00415064921278
0.00910008940314
0.0040911457712
0.0086452308637
0.00403086689038
0.00819788017404
0.00397006991087
0.00775808048555
0.00390902168839
0.00732584301669
0.0038479984786
0.00690114488634
0.00378728530422
0.00648392717181
0.00372717469641
0.00607409339069
0.00366796505252
0.00567150834
0.00360995857093
0.00527599740723
0.00355345894926
0.00488734630718
0.00349876885983
0.00450530128333
0.00344618732992
0.00412956975838
0.00339600707869
0.00375982139677
0.00334851188285
0.00339568964528
0.00330397405019
0.0030367736354
0.00326265200496
0.00268264052884
0.00322478807172
0.00233282851126
0.00319060652343
0.00198684985477
0.00316031145818
0.0016441940528
0.00313408482459
0.00130433342952
0.00311208314857
0.000966730426211
0.00309438807043
0.000630930515392
0.00308020486081
0.000298187732002
0.00305384360464
0.00273766763946
0.00185427008371
-0.0160545610233
0.00390461800357
-0.0177785866062
0.00593974152615
-0.0176919028685
0.00793446406837
-0.017408595852
0.00987551245945
-0.0170277283828
0.0117515409508