/*--------------------------------*- C++ -*----------------------------------*\
| =========                 |                                                 |
| \\      /  F ield         | OpenFOAM: The Open Source CFD Toolbox           |
|  \\    /   O peration     | Version:  v1906                                 |
|   \\  /    A nd           | Web:      www.OpenFOAM.com                      |
|    \\/     M anipulation  |                                                 |
\*---------------------------------------------------------------------------*/
FoamFile
{
    version     2.0;
    format      ascii;
    class       surfaceScalarField;
    location    "852";
    object      phi;
}
// * * * * * * * * * * * * * * * * * * * * * * * * * * * * * * * * * * * * * //

dimensions      [0 3 -1 0 0 0 0];
oriented        oriented;


internalField   nonuniform List<scalar> 
18240
(
-0.000199995319684
0.000199947948476
-0.000409478798698
0.000209423143551
-0.000617564923059
0.000208039900101
-0.000822650038893
0.000205021617335
-0.00102364907419
0.000200956137056
-0.00121967268808
0.000195957123492
-0.00140985514211
0.000190142924693
-0.00159352676044
0.000183602232925
-0.00177001670767
0.00017645387882
-0.00193887247633
0.000168783629485
-0.00209961516198
0.000160710268021
-0.00225199804859
0.000152308149319
-0.00239571357218
0.000143686860559
-0.0025306922775
0.000134901559719
-0.00265676382646
0.000126046845481
-0.00277399825545
0.000117155103392
-0.00288232329859
0.000108304408361
-0.00298190913818
9.95046188287e-05
-0.00307274419159
9.08187141595e-05
-0.00315506351283
8.22365323866e-05
-0.00322888450079
7.38090437993e-05
-0.00329447813599
6.55096555002e-05
-0.00335186624636
5.73807694182e-05
-0.0034013339838
4.93829664884e-05
-0.00344289007573
4.15533876841e-05
-0.00347681837952
3.38431702168e-05
-0.00350310330654
2.62869810473e-05
-0.00352201783504
1.88294600122e-05
-0.00353351646898
1.15053524014e-05
-0.00353785675992
4.25573421111e-06
-0.00353496310992
-2.88227883779e-06
-0.00352507799469
-9.96871192742e-06
-0.00350810054665
-1.69616627815e-05
-0.00348426421011
-2.39184896203e-05
-0.00345345426494
-3.07898892438e-05
-0.00341590658188
-3.76278942935e-05
-0.00337150901579
-4.43736006593e-05
-0.00332051582466
-5.10709154953e-05
-0.00326283812501
-5.76500770419e-05
-0.00319876719866
-6.41455996674e-05
-0.00312825888719
-7.04774785567e-05
-0.00305165808293
-7.66718102775e-05
-0.00296898257199
-8.26417759142e-05
-0.00288064047111
-8.8408784749e-05
-0.00278671940296
-9.38848604393e-05
-0.00268768936662
-9.90916582374e-05
-0.00258370545412
-0.000103945459891
-0.00247529072898
-0.000108470489396
-0.00236266321954
-0.000112587117709
-0.00224639632383
-0.000116315969708
-0.00212678338439
-0.000119570796052
-0.00200447364373
-0.00012235143158
-0.00187988436508
-0.000124545862352
-0.00175380342214
-0.000126114897488
-0.00162684589552
-0.000126913456234
-0.00149999824562
-0.000126873983264
-0.00137409858494
-0.000125855826719
-0.001250293461
-0.000123824302771
-0.00112953643283
-0.000120714066801
-0.00101297763453
-0.000116571716141
-0.00090151384905
-0.000111422499957
-0.000796138656583
-0.000105383293592
-0.000697542991121
-9.85568268955e-05
-0.000606422079482
-9.11253975838e-05
-0.000523179235065
-8.32070220835e-05
-0.000448171242051
-7.50097378112e-05
-0.000381387309204
-6.67512970244e-05
-0.000322678038532
-5.87093623617e-05
-0.000271561104589
-5.10876615387e-05
-0.000227511403178
-4.40496045489e-05
-0.000189846479077
-3.76390447351e-05
-0.000157969804095
-3.18766943833e-05
-0.000131202270003
-2.67445583364e-05
-0.000108938967442
-2.22626503381e-05
-9.05005028718e-05
-1.84176028369e-05
-7.53067071625e-05
-1.51925181995e-05
-6.2778051028e-05
-1.25097264167e-05
-5.24904594303e-05
-1.02862897018e-05
-4.40580478835e-05
-8.41534181591e-06
-3.72192653593e-05
-6.83787930624e-06
-3.16955088804e-05
-5.50825043174e-06
-2.72889339762e-05
-4.40575465787e-06
-2.37868444993e-05
-3.48768221238e-06
-2.10682496182e-05
-2.71761354413e-06
-1.90690395773e-05
-1.9855854512e-06
-1.74808657775e-05
-1.58551556653e-06
-1.6050796025e-05
-1.41620077704e-06
-1.48542181222e-05
-1.19086188642e-06
-1.36602988817e-05
-1.17840285207e-06
-1.2329333911e-05
-1.32015222392e-06
-1.09113820465e-05
-1.39876160476e-06
-9.38315120967e-06
-1.51027705631e-06
-7.55033578081e-06
-1.8092816804e-06
-5.27531227982e-06
-2.24851966264e-06
-2.57969797958e-06
-2.66671688087e-06
-2.56521529307e-06
-0.000211592349991
0.000411487924292
-0.000435803357803
0.000433575924897
-0.000657797446796
0.00042997964248
-0.000876335749079
0.000423501055969
-0.00109040403229
0.000414970961706
-0.00129906975277
0.000404563426531
-0.0015014518804
0.000392472555885
-0.00169680741696
0.000378897859976
-0.00188446340712
0.000364058492051
-0.00206390192789
0.000348161889609
-0.00223466550277
0.000331423718405
-0.00239645116934
0.00031403336177
-0.00254899410015
0.000296181106172
-0.00269217417232
0.000278021168487
-0.00282588082422
0.000259706410822
-0.00295013468348
0.000241348701694
-0.00306493611238
0.000223060582472
-0.00317040358796
0.000204912287898
-0.00326660761783
0.000186979525338
-0.00335372655564
0.000169296395564
-0.00343186687863
0.000151908454817
-0.00350123631372
0.000134821051743
-0.00356195104793
0.000118057114347
-0.00361422546267
0.000101600682501
-0.00365816672354
8.54590368545e-05
-0.00369398014245
6.96015337582e-05
-0.00372175172927
5.40259021152e-05
-0.00374166803911
3.86926354525e-05
-0.00375378751661
2.35952938599e-05
-0.00375827359676
8.69086400738e-06
-0.00375515616745
-6.02602507744e-06
-0.00374457706185
-2.05963454175e-05
-0.00372654279213
-3.50189232523e-05
-0.0037011802634
-4.93268873805e-05
-0.00366848304872
-6.35067407456e-05
-0.00362857623889
-7.75776880269e-05
-0.00358145762066
-9.15084449657e-05
-0.00352726912066
-0.00010529927503
-0.00346603452257
-0.000118897492244
-0.00339793440817
-0.000132282206714
-0.00332304151162
-0.000145379743453
-0.00324159528456
-0.000158150887057
-0.00315373576858
-0.000170507186535
-0.00305977353673
-0.000182399906322
-0.00295992333788
-0.000193737367162
-0.00285456603668
-0.000204473485809
-0.00274398522686
-0.000214524827991
-0.00262862034704
-0.000223855054089
-0.00250881287039
-0.000232389142325
-0.00238505366605
-0.000240089550642
-0.00225774885863
-0.000246866023233
-0.00212746642141
-0.000252642731453
-0.00199473003977
-0.000257268725935
-0.00186026282121
-0.000260585665817
-0.00172480224525
-0.000262357137939
-0.00158931590908
-0.000262358932617
-0.00145480367239
-0.000260348478394
-0.00132244434844
-0.00025617783354
-0.00119336641179
-0.000249770480125
-0.00106876301547
-0.000241165692942
-0.000949684106554
-0.000230478953365
-0.000837161735095
-0.000217894260786
-0.000732008595904
-0.000203687736214
-0.000634908689158
-0.000188213245198
-0.000546376486061
-0.000171717818461
-0.000466791540605
-0.000154582571522
-0.000396200241429
-0.000137322371107
-0.000334371423194
-0.000120526550511
-0.00028075810431
-0.000104682598574
-0.000234688406998
-9.01087681485e-05
-0.0001954167336
-7.68946063736e-05
-0.000162267312539
-6.50168631517e-05
-0.000134552529792
-5.44449685861e-05
-0.000111596139833
-4.52101381752e-05
-9.26749060288e-05
-3.73254611108e-05
-7.71155413291e-05
-3.07432219737e-05
-6.43001527579e-05
-2.53127438046e-05
-5.37565682337e-05
-2.08219195457e-05
-4.51193255803e-05
-1.7041399297e-05
-3.81214120449e-05
-1.38287809379e-05
-3.2493972855e-05
-1.11255122844e-05
-2.80059413015e-05
-8.88720273288e-06
-2.44328603692e-05
-7.05114779432e-06
-2.15763360076e-05
-5.56760556769e-06
-1.91591811052e-05
-4.39352137263e-06
-1.71864807516e-05
-3.55087163574e-06
-1.56908846008e-05
-2.90167379112e-06
-1.44947164017e-05
-2.37778683986e-06
-1.33930186818e-05
-2.26808465759e-06
-1.22437546266e-05
-2.45601633911e-06
-1.08989181767e-05
-2.72665883546e-06
-9.36248452535e-06
-3.02812162598e-06
-7.61130949342e-06
-3.53814854278e-06
-5.44432556538e-06
-4.38896092295e-06
-2.69065418282e-06
-5.39307328306e-06
-5.24321497884e-06
-0.000214452721877
0.0006258872935
-0.000440944403903
0.00066001079067
-0.000665406214311
0.000654385080378
-0.00088633076428
0.000644368310549
-0.00110263330258
0.00063121750961
-0.00131333372329
0.000615206540902
-0.00151754332405
0.000596626588018
-0.00171449572431
0.000575793048195
-0.00190353058679
0.000553038297611
-0.00208411816536
0.000528692493184
-0.00225582895472
0.000503080126016
-0.00241835537249
0.000476503198979
-0.00257147111615
0.000449243290856
-0.00271505360877
0.000421547657686
-0.00284903649508
0.000393636771316
-0.00297343580737
0.000365692794512
-0.00308829811735
0.00033787159686
-0.00319373233988
0.000310292318357
-0.00328985508091
0.000283052469256
-0.00337682891549
0.000256217326585
-0.00345480550023
0.000229836977071
-0.00352397037996
0.000203934598601
-0.00358448397915
0.000178524675881
-0.00363653252991
0.000153599742552
-0.00368026675855
0.000129149475873
-0.00371585839874
0.000105145790971
-0.0037434365404
8.15627562535e-05
-0.00376314920185
5.83602502713e-05
-0.00377509739003
3.55048596715e-05
-0.00377940136837
1.29523452664e-05
-0.00377613284211
-9.33031404146e-06
-0.00376538559891
-3.13833569172e-05
-0.00374720632082
-5.32309949304e-05
-0.00372166945996
-7.49006081158e-05
-0.00368880735683
-9.63985094944e-05
-0.0036486889029
-0.000117729931649
-0.00360134945018
-0.000138874341755
-0.00354687250879
-0.000159806752113
-0.00348531956948
-0.000180473491178
-0.00341681331037
-0.000200815561028
-0.00334146663249
-0.000220745968958
-0.00325946503666
-0.000240175895677
-0.00317099361451
-0.000258994408936
-0.00307631566425
-0.00027709729444
-0.00297569626364
-0.000294368561977
-0.00286947493884
-0.000310709876779
-0.00275798632598
-0.0003260208055
-0.00264162764234
-0.000340223944233
-0.00252078112113
-0.000353238245197
-0.00239588238212
-0.00036499331276
-0.00226735535332
-0.000375390789756
-0.00213569257467
-0.000384305467942
-0.00200141510052
-0.000391539558929
-0.00186517075673
-0.000396825360379
-0.00172771481933
-0.000399802598126
-0.0015899989344
-0.000400066294609
-0.00145311783351
-0.00039721560852
-0.00131831619221
-0.000390967509898
-0.00118684245843
-0.000381227293975
-0.00105995952472
-0.000368034285424
-0.000938801619367
-0.000351618521131
-0.000824476508229
-0.000332203795906
-0.000717865227125
-0.000310280893364
-0.000619595225543
-0.000286467940749
-0.000530296271019
-0.000260999679407
-0.000450460877644
-0.00023440300117
-0.000380199780235
-0.000207567541391
-0.000319186846447
-0.000181525110077
-0.000266716177817
-0.000157138568142
-0.000221903428074
-0.000134908814388
-0.000183893911725
-0.000114890912217
-0.000151993620049
-9.6906286473e-05
-0.000125561344139
-8.08652728527e-05
-0.000103901785006
-6.68593939362e-05
-8.62337287882e-05
-5.49819589439e-05
-7.17881046435e-05
-4.51789382488e-05
-5.98895087396e-05
-3.72004186731e-05
-5.00513150025e-05
-3.0650874619e-05
-4.19802137907e-05
-2.51025607174e-05
-3.54805564041e-05
-2.03201455126e-05
-3.03058036889e-05
-1.62912395507e-05
-2.62130671062e-05
-1.29720675288e-05
-2.29882054534e-05
-1.02673544072e-05
-2.0441692014e-05
-8.10641673283e-06
-1.83775907985e-05
-6.44908260313e-06
-1.66910813757e-05
-5.22888303475e-06
-1.51929377198e-05
-4.38998983505e-06
-1.37984352487e-05
-3.76217822581e-06
-1.26899308179e-05
-3.36485244822e-06
-1.17745149282e-05
-3.35766049984e-06
-1.04394207478e-05
-4.04534934383e-06
-8.71689090858e-06
-4.7319421288e-06
-6.80009677609e-06
-5.43273015931e-06
-4.58475716705e-06
-6.58061818986e-06
-2.34015026635e-06
-7.61444786596e-06
-7.5715326121e-06
-0.000217873312884
0.000843706961367
-0.000447717839257
0.000889798184985
-0.000675457027587
0.000882067490552
-0.000899482422404
0.000868336620156
-0.00111864675014
0.000850325212658
-0.00133192131224
0.000828424215268
-0.00153839247634
0.000803041372305
-0.00173727561452
0.000774619534457
-0.00192791322271
0.00074361990182
-0.00210977973433
0.000710502717813
-0.0022824688837
0.000675713785277
-0.00244569181949
0.000639670368426
-0.0025992575416
0.000602754217341
-0.00274306846197
0.000565303513868
-0.00287709781823
0.000527612207267
-0.00300138609042
0.000489926912298
-0.00311601817739
0.000452450875335
-0.00322112272329
0.000415343859018
-0.00331685044117
0.000378728724178
-0.00340337711088
0.000342692397473
-0.00348088339283
0.000307293419047
-0.00354956142238
0.000272562705265
-0.00360959583751
0.000238511121835
-0.00366117348964
0.000205129406771
-0.00370446525276
0.000172395404715
-0.00373963833419
0.000140273062872
-0.00376683848764
0.000108719417619
-0.0037862045306
7.7682873368e-05
-0.00379785082934
4.71102175177e-05
-0.00380188387826
1.69445537432e-05
-0.00379838516436
-1.28672619379e-05
-0.0037874298438
-4.23767710773e-05
-0.00376907035372
-7.16258403556e-05
-0.00374335748058
-0.000100648662497
-0.00371032514094
-0.000129463185706
-0.00367001395054
-0.000158073224681
-0.0036224574984
-0.000186459930645
-0.00356770825607
-0.000214584826092
-0.00350582508688
-0.00024238241608
-0.00343690049745
-0.000269765484702
-0.00336104817472
-0.000296620409377
-0.0032784294449
-0.000322816165674
-0.00318923844438
-0.000348203577586
-0.00309372457589
-0.000372628532698
-0.00299217231885
-0.000395934608168
-0.00288491670527
-0.000417978166437
-0.00277231632324
-0.000438630051802
-0.00265476206031
-0.000457785712708
-0.00253264708454
-0.00047535685413
-0.00240637677148
-0.000491265916827
-0.0022763490729
-0.000505417136965
-0.00214298408005
-0.000517668130919
-0.00200673696103
-0.000527781026219
-0.00186816787441
-0.000535388349822
-0.00172799472322
-0.000539966488905
-0.00158717725705
-0.000540873807395
-0.00144692561511
-0.000537454805366
-0.00130865155656
-0.000529228145727
-0.00117375298917
-0.000516111023307
-0.00104365093287
-0.000498120267225
-0.00091953264629
-0.000475720545834
-0.000802710811013
-0.000449009372894
-0.000694149623588
-0.000418826062585
-0.000594255125059
-0.000386347388003
-0.000503881329605
-0.000351358079224
-0.000423828586842
-0.000314441858185
-0.000354332606809
-0.000277048551163
-0.000294914615852
-0.000240929786416
-0.000244530318003
-0.000207509204804
-0.000201886827122
-0.000177539503475
-0.00016591203994
-0.000150853645149
-0.00013596900297
-0.000126837967409
-0.000111565254038
-0.000105258177427
-9.20085340546e-05
-8.64049924878e-05
-7.63842549643e-05
-7.05956932755e-05
-6.37408961433e-05
-5.78112489454e-05
-5.32712287435e-05
-4.76598938978e-05
-4.44671412908e-05
-3.94445242809e-05
-3.71955606363e-05
-3.23647088291e-05
-3.14447385485e-05
-2.60616292e-05
-2.6972154211e-05
-2.07551615659e-05
-2.34965462117e-05
-1.64390179017e-05
-2.08170613576e-05
-1.29384319104e-05
-1.87551065841e-05
-1.01600078534e-05
-1.7160405846e-05
-8.03537684163e-06
-1.56761701084e-05
-6.70385090699e-06
-1.43550784302e-05
-5.70088295085e-06
-1.32026047968e-05
-4.90393441682e-06
-1.19676842435e-05
-4.58773168726e-06
-1.05973630079e-05
-4.71454806226e-06
-9.48352952277e-06
-5.14335165159e-06
-7.79702073653e-06
-6.39983869013e-06
-5.68768856221e-06
-7.52184805577e-06
-3.78753144905e-06
-8.45949981376e-06
-1.95489047134e-06
-9.42589494267e-06
-9.51597792667e-06
-0.000222438714978
0.00106609186925
-0.000456951170213
0.00112425401489
-0.000689183389283
0.00111424256705
-0.000917431063118
0.00109652728355
-0.00114047301919
0.00107331026217
-0.00135722246915
0.00104511680422
-0.00156672952586
0.00101249177114
-0.0017681905421
0.000976023936406
-0.00196094885104
0.000936321883828
-0.002144492379
0.00089399001133
-0.00231844321569
0.000849608774628
-0.00248254697919
0.000803718436357
-0.00263665618389
0.000756808215558
-0.0027807164957
0.00070930885057
-0.00291474867369
0.000661590022559
-0.00303883571456
0.000613959909782
-0.00315310644
0.000566668297739
-0.00325772565094
0.000519910195371
-0.00335288063547
0.000473831721235
-0.00343877486243
0.000428535174481
-0.00351561739027
0.000384085524221
-0.00358361969907
0.000340515248203
-0.00364298740289
0.000297830232515
-0.00369391949093
0.000256013662124
-0.00373660161634
0.000215030993625
-0.0037712070737
0.000174832846935
-0.00379789113924
0.000135359224745
-0.00381679335331
9.65417719012e-05
-0.0038280326541
5.83077106768e-05
-0.00383171085729
2.05819754317e-05
-0.00382790869972
-1.67085967941e-05
-0.00381669072339
-5.36328283592e-05
-0.00379810260742
-9.02503511379e-05
-0.00377217795954
-0.000126608519808
-0.00373893754925
-0.000162737021433
-0.00369839848985
-0.000198644431776
-0.00365057583335
-0.000234312848321
-0.00359549435138
-0.000269695160151
-0.0035331923967
-0.000304711197681
-0.00346373554852
-0.000339247592924
-0.00338722134783
-0.000373157673192
-0.00330379249371
-0.000406266297329
-0.00321363925349
-0.000438375673752
-0.00311700798845
-0.000469276597091
-0.00301419642905
-0.000498760226757
-0.0029055526752
-0.000526633602687
-0.00279145935691
-0.000552732093487
-0.00267232128132
-0.000576930032425
-0.00254854083176
-0.000599140714187
-0.00242050261378
-0.000619305298825
-0.00228855712777
-0.000637361590662
-0.00215302925604
-0.000653193079241
-0.0020142491983
-0.00066655676093
-0.00187263000389
-0.000677000973702
-0.00172878570445
-0.000683803165556
-0.00158367343603
-0.000685976589343
-0.00143867801482
-0.000682438956471
-0.00129554308785
-0.000672350316435
-0.00115583782706
-0.000655801736866
-0.00102130099043
-0.000632643278296
-0.000892984094388
-0.000604021864095
-0.000772735246137
-0.000569243594114
-0.000661677570402
-0.000529869009063
-0.000559368114566
-0.000488642362132
-0.00046720798151
-0.000443505272707
-0.000386735567348
-0.000394900519169
-0.00031846625039
-0.000345305797881
-0.000261636773928
-0.000297745861586
-0.000214568659125
-0.000254564444205
-0.000175136777952
-0.000216958860111
-0.000141870260166
-0.000184107602851
-0.000114420047277
-0.000154277439208
-9.27387496608e-05
-0.000126927962648
-7.61762890959e-05
-0.000102956829422
-6.35193778432e-05
-8.32407907439e-05
-5.34633636502e-05
-6.78565552388e-05
-4.49245689012e-05
-5.61869881418e-05
-3.73337824362e-05
-4.7025183024e-05
-3.09222625629e-05
-3.87656419038e-05
-2.61352646978e-05
-3.08397158215e-05
-2.26278030685e-05
-2.42531538402e-05
-1.99781236295e-05
-1.90801926289e-05
-1.80200017172e-05
-1.48875607343e-05
-1.6585492165e-05
-1.15859498051e-05
-1.55618238969e-05
-9.05008928068e-06
-1.46086472324e-05
-7.64717576721e-06
-1.35970159013e-05
-6.701852155e-06
-1.22773257761e-05
-6.21227207815e-06
-1.0947760298e-05
-5.90513327807e-06
-9.58896664127e-06
-6.05943843613e-06
-8.30915966249e-06
-6.40798370172e-06
-7.01079010689e-06
-7.6804518572e-06
-5.09657067546e-06
-9.41618019655e-06
-3.21238742251e-06
-1.03244365603e-05
-1.62067911628e-06
-1.09991465674e-05
-1.1127191071e-05
-0.000228292705294
0.00129433070439
-0.000468854430231
0.00136475845935
-0.000706886027829
0.00135221707212
-0.000940561329923
0.00133014540652
-0.00116856428385
0.00130125621319
-0.0013897364435
0.00126623201192
-0.00160308241179
0.00122578092372
-0.00180777818392
0.00118066300624
-0.00200317073254
0.00113165792136
-0.00218877100356
0.00107953395176
-0.00236424056422
0.00102502227207
-0.00252937511318
0.000968797183212
-0.00268408506906
0.000911462731941
-0.0028283763836
0.000853545075274
-0.00296233102788
0.000795490044088
-0.00308608987876
0.000737664594533
-0.00319983652817
0.000680361371922
-0.00330378436428
0.000623805026198
-0.0033981646922
0.000568159761608
-0.00348321812541
0.000513537013739
-0.00355918652086
0.000460003178484
-0.00362630779789
0.000407586593695
-0.00368481061436
0.000356284093012
-0.00373491151236
0.000306066525783
-0.00377681131405
0.000256883854455
-0.00381069370238
0.000208669308945
-0.00383672261035
0.000161343397552
-0.00385504171042
0.000114817236656
-0.00386577248856
6.89961383186e-05
-0.00386901454111
2.37828512699e-05
-0.00386484445574
-2.09184871332e-05
-0.00385331724885
-6.51985857738e-05
-0.00383446658137
-0.000109138097692
-0.00380830807467
-0.000152802764327
-0.00377484172536
-0.000196237526662
-0.00373405796946
-0.000239460886657
-0.00368594314759
-0.000282458639854
-0.00363048897544
-0.000325178697344
-0.00356770131824
-0.00036752630576
-0.00349761267991
-0.000409361870797
-0.00342029300814
-0.000450500828586
-0.00333586266832
-0.000490718055381
-0.00324450127465
-0.000529756025717
-0.00314645553418
-0.000567338865984
-0.0030420391159
-0.000603190373444
-0.00293162739218
-0.000637056390402
-0.00281564056327
-0.000668727096326
-0.00269451966467
-0.000698056593785
-0.00256869177284
-0.00072497174503
-0.00243853409604
-0.000749464399781
-0.00230433949657
-0.00077155557908
-0.00216630500883
-0.000791226055572
-0.00202455656956
-0.000808301515301
-0.00187925049325
-0.000822303238463
-0.00173076434249
-0.000832282890583
-0.00157998957991
-0.000836743268164
-0.00142858011348
-0.000833838394833
-0.00127898504083
-0.000821934724329
-0.00113283567555
-0.000801940473296
-0.000992640834463
-0.000772824588534
-0.000858493671648
-0.000738156343384
-0.000733810374417
-0.000693911195954
-0.000620210422574
-0.000643452436075
-0.000514287490042
-0.000594551808002
-0.00041899903272
-0.000538777577161
-0.000337652173404
-0.000476236042991
-0.000271312765051
-0.000411631021262
-0.000218661022549
-0.000350385062804
-0.000176888686163
-0.000296322433737
-0.000142071787565
-0.000251763712421
-0.000111974373036
-0.000214190506423
-8.71748985376e-05
-0.000179066675002
-6.88604725801e-05
-0.000145231313951
-5.6444307295e-05
-0.000115361768081
-4.80113629814e-05
-9.16626940556e-05
-4.15740664739e-05
-7.42818794569e-05
-3.55071955538e-05
-6.22434403589e-05
-2.90021836407e-05
-5.35194604856e-05
-2.31434662117e-05
-4.4615866739e-05
-1.95571927208e-05
-3.44164973766e-05
-1.73894330054e-05
-2.64128982172e-05
-1.57647867493e-05
-2.06958902662e-05
-1.46840320095e-05
-1.59594575513e-05
-1.39980668893e-05
-1.22628417381e-05
-1.3402711567e-05
-9.6360683159e-06
-1.28439074916e-05
-8.19562717744e-06
-1.22745122575e-05
-7.26018665168e-06
-1.1644400382e-05
-6.8303799162e-06
-1.05902253583e-05
-6.94589103675e-06
-9.12554124201e-06
-7.5096447049e-06
-7.35487651379e-06
-8.16321791535e-06
-5.9900072647e-06
-9.02858958868e-06
-4.66270746201e-06
-1.07253682495e-05
-2.94418188856e-06
-1.20248945962e-05
-1.46913492821e-06
-1.24568443137e-05
-1.25874776793e-05
-0.000235581952388
0.00152985865308
-0.000483687758796
0.00161280752393
-0.000728935148204
0.00159740708392
-0.000969336801811
0.00157048988216
-0.00120345560785
0.00153531785547
-0.00143004415104
0.00149276350177
-0.00164805298268
0.00144373280022
-0.00185663779471
0.00138919098341
-0.00205515601688
0.00133011947453
-0.00224315453467
0.00126747598356
-0.00242035065446
0.00120216215208
-0.00258660918121
0.00113499973331
-0.00274191751009
0.0010667154194
-0.00288636110036
0.000997933384101
-0.00302010028287
0.000929174385693
-0.00314334981606
0.000860859755995
-0.00325636113816
0.000793318876897
-0.00335940794918
0.000726798611063
-0.00345277441174
0.00066147367661
-0.00353674620242
0.000597456970803
-0.00361160343162
0.000534809372156
-0.00367761559027
0.000473548551939
-0.00373503752949
0.000413656744404
-0.00378410671874
0.000355087370072
-0.003825040883
0.000297770683553
-0.00385803640512
0.000241618536037
-0.00388326671746
0.000186528512227
-0.0039008812005
0.000132387645825
-0.00391100394395
7.90759806934e-05
-0.00391373302503
2.64702412343e-05
-0.00390913982194
-2.55521237658e-05
-0.00389726912172
-7.71084168849e-05
-0.00387813968504
-0.000128305314406
-0.00385174618533
-0.000179232622944
-0.00381806227448
-0.000229956320214
-0.00377704568224
-0.000280510787547
-0.00372864516829
-0.000330890821619
-0.00367281005665
-0.00038104369162
-0.0036095019962
-0.00043086238003
-0.00353870914323
-0.000480180685511
-0.00346046183018
-0.000528771953651
-0.00337484886792
-0.000576352435251
-0.00328203247784
-0.000622591292369
-0.00318225957017
-0.000667127896483
-0.00307586601849
-0.00070959726155
-0.00296327069848
-0.000749662214487
-0.00284495586775
-0.000787049816339
-0.00272143186119
-0.000821586161065
-0.00259318575082
-0.000853221684065
-0.00246061721312
-0.000882035041761
-0.00232397135434
-0.000908202867453
-0.00218328377212
-0.000931913548255
-0.00203837644236
-0.00095320892319
-0.00188895363149
-0.000971722894029
-0.00173489602945
-0.000986336786028
-0.00157681980527
-0.000994815135736
-0.00141675678523
-0.000993895185209
-0.00125889172107
-0.000979793149366
-0.00110415610589
-0.000956665715858
-0.000957527340025
-0.000919442262183
-0.000814820503111
-0.000880845663064
-0.00068453422204
-0.000824175337624
-0.000570154404935
-0.000757812654607
-0.000458408883301
-0.00070627777524
-0.000357182338836
-0.000639981531997
-0.000273969407041
-0.000559434054682
-0.000210739038767
-0.000474844519573
-0.000164935694779
-0.000396172816708
-0.000132030979802
-0.000329219495266
-0.000103857215351
-0.0002799154998
-7.66578939864e-05
-0.000241385966534
-5.36216168085e-05
-0.000202087734339
-3.92198373622e-05
-0.000159623853443
-3.27271108632e-05
-0.000121844162474
-3.04333959074e-05
-9.39433867848e-05
-2.91459235872e-05
-7.55617839399e-05
-2.62272914419e-05
-6.51508421264e-05
-1.99833949909e-05
-5.97588620882e-05
-1.34540698698e-05
-5.11384474313e-05
-1.15600283858e-05
-3.63046662924e-05
-1.14836797094e-05
-2.64819764111e-05
-1.10267676945e-05
-2.11451421497e-05
-1.09506210318e-05
-1.60269737616e-05
-1.12189534353e-05
-1.19852303212e-05
-1.12357905937e-05
-9.60933808651e-06
-1.13682342138e-05
-8.0523208054e-06
-1.11789469846e-05
-7.43754881603e-06
-1.07549138896e-05
-7.24144798919e-06
-9.86919793902e-06
-7.81738150131e-06
-8.7237328981e-06
-8.64000223478e-06
-7.09754556256e-06
-9.77332625416e-06
-5.33638729242e-06
-1.07733757705e-05
-4.1821011743e-06
-1.18627183501e-05
-2.73601273934e-06
-1.34535744942e-05
-1.35878392268e-06
-1.381747713e-05
-1.39376795976e-05
-0.000244480552575
0.00177428518386
-0.000501790263426
0.00187005975742
-0.000755815338652
0.00185137488477
-0.0010043621611
0.00181897932516
-0.00124583995222
0.00177673841485
-0.00147889281765
0.00172575918323
-0.00170240933882
0.00166719223237
-0.00191552797099
0.00160225263859
-0.00211762846473
0.00153216313261
-0.00230831216371
0.00145810303084
-0.00248737466502
0.00138116821741
-0.00265477435447
0.0013023432555
-0.00281059992732
0.00122248513263
-0.00295503929725
0.00114231725965
-0.00308835157682
0.00106243158321
-0.00321084306178
0.000983296634853
-0.00332284754624
0.000905269285738
-0.00342471084384
0.000828608426255
-0.00351677905652
0.000753489058652
-0.00359939003087
0.000680015827176
-0.0036728673055
0.000608235300976
-0.00373751599432
0.000538146717797
-0.00379361997313
0.000469711080662
-0.00384144001644
0.000402858692357
-0.00388121239693
0.000337495320368
-0.0039131478187
0.000273507218224
-0.00393743031817
0.000210765333199
-0.00395421622262
0.000149128951297
-0.00396363289786
8.84492004898e-05
-0.00396577760109
2.85726461719e-05
-0.00396071629131
-3.06544934391e-05
-0.00394848295157
-8.93815639091e-05
-0.00392907936244
-0.000147747351003
-0.00390247621942
-0.000205872834599
-0.00386861554529
-0.000263852540425
-0.00382741550702
-0.000321744814646
-0.00377877756384
-0.000379561003553
-0.00372259713195
-0.000437254560109
-0.00365877735588
-0.000494710551091
-0.00358724684469
-0.000551737477279
-0.00350798006208
-0.000608062607152
-0.00342102011027
-0.000663333723413
-0.00332650089953
-0.000717129054879
-0.00322466620734
-0.00076897834278
-0.00311588040902
-0.000818395955103
-0.00300062620812
-0.000864926715078
-0.00287948294573
-0.000908201092575
-0.0027530811538
-0.000947994305628
-0.00262202928375
-0.000984278367867
-0.0024868146986
-0.00101725411404
-0.00234768013252
-0.00104734076937
-0.00220449760515
-0.0010750996826
-0.00205666751878
-0.00110104017902
-0.00190315032523
-0.00112524369902
-0.00174279497073
-0.00114669443104
-0.00157534513394
-0.00116226310974
-0.00140311487047
-0.00116612278832
-0.00123523797177
-0.00114766092608
-0.00106839957251
-0.00112349230632
-0.000916822206286
-0.00107099885643
-0.000759478387594
-0.00103815133987
-0.000622021259577
-0.000961605420143
-0.000514581141217
-0.000865238959739
-0.000391484023719
-0.00082932739802
-0.000277720046232
-0.000753754176899
-0.000190516466346
-0.00064659233449
-0.000132407179503
-0.00053296393432
-9.76988739066e-05
-0.000430855321967
-8.05897329524e-05
-0.000346325585864
-6.20878719269e-05
-0.000298403757157
-3.55378943288e-05
-0.000267932449305
-1.09576084913e-05
-0.000226646288395
-1.31184084318e-06
-0.00016927455754
-4.28497986947e-06
-0.000118840279639
-1.13981269439e-05
-8.68402936268e-05
-1.78084537641e-05
-6.91252838309e-05
-1.9342347141e-05
-6.36260472436e-05
-1.10428861787e-05
-6.80458341242e-05
-2.62299036461e-07
-6.19169793648e-05
-1.61786271196e-06
-3.49440611352e-05
-5.53213449065e-06
-2.25592656854e-05
-6.01212408136e-06
-2.06595797448e-05
-6.88990075201e-06
-1.51420705835e-05
-8.35703255603e-06
-1.0509859762e-05
-9.02297476941e-06
-8.934198813e-06
-1.00363906484e-05
-7.02779571491e-06
-1.04684966349e-05
-6.99298224854e-06
-1.03852029803e-05
-7.31100795634e-06
-9.66737963156e-06
-8.52022248321e-06
-8.34320780965e-06
-9.94832732354e-06
-6.99540757254e-06
-1.11046264058e-05
-5.31833085979e-06
-1.24337698739e-05
-3.82922941969e-06
-1.33351852776e-05
-2.63140200325e-06
-1.46343876797e-05
-1.27511730428e-06
-1.51573593329e-05
-1.52042335868e-05
-0.000255209797566
0.0020294408116
-0.000523598512476
0.0021383915967
-0.000788152787743
0.0021158715921
-0.00104641515227
0.00207718431694
-0.00129660328846
0.0020268691611
-0.00153723064871
0.00196632924568
-0.00176711787492
0.00189702222699
-0.00198539415891
0.0018204717888
-0.00219148060879
0.00173819258101
-0.00238505974099
0.00165162532168
-0.00256603628581
0.00156208813253
-0.00273449427292
0.00147074485688
-0.00289065442661
0.00137858920394
-0.00303483498952
0.00128644208439
-0.00316741776555
0.00119495903021
-0.0032888203288
0.00110464432586
-0.00339947435673
0.00101586896505
-0.00349980964227
0.00092888993986
-0.00359024287125
0.000843869157373
-0.00367117024648
0.000760890766564
-0.00374296294895
0.000679976320234
-0.00380596461487
0.000601097504127
-0.00386049008561
0.000524186523709
-0.00390682487834
0.000449144355738
-0.00394522494471
0.000375847192533
-0.00397591638819
0.000304151448735
-0.00399909494885
0.000233897690371