/*--------------------------------*- C++ -*----------------------------------*\
| =========                 |                                                 |
| \\      /  F ield         | OpenFOAM: The Open Source CFD Toolbox           |
|  \\    /   O peration     | Version:  v1906                                 |
|   \\  /    A nd           | Web:      www.OpenFOAM.com                      |
|    \\/     M anipulation  |                                                 |
\*---------------------------------------------------------------------------*/
FoamFile
{
    version     2.0;
    format      ascii;
    class       surfaceScalarField;
    location    "569";
    object      phi;
}
// * * * * * * * * * * * * * * * * * * * * * * * * * * * * * * * * * * * * * //

dimensions      [0 3 -1 0 0 0 0];
oriented        oriented;


internalField   nonuniform List<scalar> 
18240
(
-0.000352228353422
0.000352277773149
-0.000737891684454
0.000385722148739
-0.00112321193615
0.000385370596675
-0.00150356091616
0.000380409772358
-0.0018768787871
0.000373366038967
-0.00224140833917
0.000364592092903
-0.00259565041871
0.000354288049766
-0.00293822625025
0.000342640056631
-0.00326799479859
0.000329812237065
-0.00358391707576
0.000315988077723
-0.00388520186441
0.000301326026776
-0.00417113767739
0.000286003054342
-0.00444125990845
0.000270160896838
-0.00469515005803
0.000253958663581
-0.0049326263837
0.000237512233305
-0.00515351336552
0.000220956567725
-0.00535785863542
0.000204378300511
-0.00554567559974
0.000187887382354
-0.00571718821646
0.0001715425855
-0.00587254897075
0.000155431738371
-0.00601211196237
0.000139589804809
-0.00613612774106
0.000124087035091
-0.00624504382607
0.00010893958696
-0.00633917748848
9.42048874605e-05
-0.00641904223417
7.9884893095e-05
-0.00648499949837
6.60281418619e-05
-0.00653760889747
5.26260875674e-05
-0.0065772599476
3.97212708084e-05
-0.00660454393342
2.72972361486e-05
-0.00661986715654
1.53924778682e-05
-0.0066238424392
3.98505013744e-06
-0.00661688342846
-6.8910152183e-06
-0.00659961105349
-1.72660054462e-05
-0.00657243695554
-2.71076523419e-05
-0.00653598576481
-3.64482061531e-05
-0.00649066298744
-4.52581468456e-05
-0.00643708859877
-5.35746437967e-05
-0.00637565508381
-6.13709502551e-05
-0.00630697052036
-6.86879888752e-05
-0.00623140885423
-7.55013880174e-05
-0.00614956005488
-8.18551983031e-05
-0.00606177510618
-8.77271610975e-05
-0.00596862062704
-9.31637366024e-05
-0.00587042110145
-9.81444010859e-05
-0.00576771565986
-0.000102717322577
-0.00566079999857
-0.000106863355003
-0.0055501827591
-0.000110631594215
-0.00543612954444
-0.000114003850402
-0.00531911665732
-0.00011702945481
-0.00519937949759
-0.000119690844286
-0.00507736120619
-0.000122036897458
-0.00495326765535
-0.000124050360904
-0.00482750889352
-0.000125779130886
-0.00470026279106
-0.000127206098865
-0.00457190701513
-0.000128377717744
-0.00444259330608
-0.0001292769248
-0.00431266807705
-0.000129948464178
-0.00418225913743
-0.000130375393934
-0.00405168289633
-0.0001306005729
-0.00392104526015
-0.000130607324035
-0.00379063379703
-0.000130436619361
-0.00366053437728
-0.000130072325777
-0.00353100659212
-0.000129553573739
-0.00340211761725
-0.000128865064763
-0.00327409955732
-0.000128044228822
-0.0031470018531
-0.000127076937858
-0.00302102919941
-0.000125999027665
-0.0028962137187
-0.000124797804478
-0.00277273245719
-0.000123507620245
-0.00265060037544
-0.000122117438497
-0.00252996642565
-0.000120660140692
-0.00241082829516
-0.000119126449038
-0.00229330638203
-0.000117547744007
-0.00217738104514
-0.000115916534862
-0.00206314379959
-0.000114262568855
-0.00195055770877
-0.00011258006011
-0.00183968537645
-0.000110896954161
-0.00173047294832
-0.000109209035365
-0.00162295447717
-0.000107542214204
-0.00151705991148
-0.00010589364531
-0.00141279559667
-0.000104286959697
-0.00131007651494
-0.000102720456263
-0.00120888267959
-0.000101215196329
-0.00110911587321
-9.97703318359e-05
-0.00101073185701
-9.8403978037e-05
-0.000913621874671
-9.71156362706e-05
-0.000817720867844
-9.59196218172e-05
-0.000722914574378
-9.48141655603e-05
-0.000629125717389
-9.38062406828e-05
-0.000536251213929
-9.28843718052e-05
-0.000444240037806
-9.20269863112e-05
-0.000353094405034
-9.11568797907e-05
-0.00026303591157
-9.00715373089e-05
-0.000174994468597
-8.80537334418e-05
-9.26149246863e-05
-8.23952041019e-05
-9.26231875214e-05
-0.000389331623651
0.000741663391464
-0.00082398980926
0.0008204399283
-0.00125617851372
0.000817616296433
-0.00168206005825
0.000806351218819
-0.00209971546794
0.000791077805074
-0.00250735512262
0.000772291889071
-0.00290333103223
0.000750319593952
-0.00328613923156
0.000725508604215
-0.00365448733179
0.000698215117166
-0.00400724825121
0.000668809434627
-0.00434351766592
0.00063764923537
-0.00466254399091
0.000605089760247
-0.00496378703309
0.000571456572732
-0.00524683056504
0.000537062346657
-0.00551144702202
0.000502180002737
-0.00575749690477
0.000467066176845
-0.00598500308834
0.000431934268962
-0.0061940402522
0.000396983626549
-0.00638482104253
0.000362371449279
-0.00655757755763
0.000328246454435
-0.00671266024437
0.000294718635413
-0.00685041241597
0.00026189628252
-0.00697128166678
0.000229852873364
-0.00707568772887
0.000198666658697
-0.0071641454914
0.000168384383185
-0.00723712617294
0.000139062926673
-0.00729519067188
0.000110729858841
-0.00733884402209
8.34268969962e-05
-0.00736867769446
5.71675668118e-05
-0.00738521729348
3.19823158157e-05
-0.00738907178042
7.87347971224e-06
-0.00738077721254
-1.5137566906e-05
-0.0073609546739
-3.7057429469e-05
-0.00733014396864
-5.78727372796e-05
-0.00728896534234
-7.75985975882e-05
-0.00723795158616
-9.62288197751e-05
-0.00717771500269
-0.000113785929014
-0.00710877512804
-0.00013027039969
-0.00703172922392
-0.000145711529087
-0.00694707718344
-0.0001601157519
-0.00685539478483
-0.00017351817167
-0.00675715681629
-0.000185930272451
-0.00665291216931
-0.0001973918472
-0.00654310619204
-0.00020791838262
-0.00642825671705
-0.000217553108241
-0.00630877659429
-0.000226314367509
-0.0061851497065
-0.000234247549812
-0.0060577546095
-0.00024137272049
-0.00592703962767
-0.000247736180871
-0.00579334845742
-0.000253358653105
-0.00565709340712
-0.000258286246253
-0.00551858378592
-0.000262539445262
-0.00537819641096
-0.000266163246501
-0.00523620752798
-0.00026917721561
-0.00509295969694
-0.000271624585104
-0.0049486979565
-0.000273523596204
-0.00480373227879
-0.000274915338215
-0.00465827862081
-0.000275816596797
-0.00451261614936
-0.000276266238487
-0.00436693379744
-0.000276279736666
-0.00422148156456
-0.000275893894349
-0.00407642314172
-0.000275123221614
-0.00393198062643
-0.00027400281199
-0.00378829376497
-0.000272546699234
-0.00364555754347
-0.000270788701959
-0.0035038885495
-0.000268742892547
-0.00336345494567
-0.000266442252091
-0.00322435043357
-0.000263901349888
-0.00308671623623
-0.000261152663498
-0.00295062309191
-0.000258211576175
-0.00281618490865
-0.000255110248732
-0.00268344917793
-0.000251865016854
-0.00255250206485
-0.000248507721764
-0.0024233675619
-0.000245055596077
-0.00229610379691
-0.000241539987794
-0.00217071119596
-0.000237978800182
-0.00204721986774
-0.000234402561808
-0.00192560697435
-0.000230829485713
-0.0018058750529
-0.000227288853138
-0.00168797874847
-0.000223798734383
-0.00157189399178
-0.000220386663863
-0.00145755420181
-0.000217070056983
-0.00134491023291
-0.000213874147962
-0.00123387613591
-0.000210815106307
-0.00112437983921
-0.000207915184687
-0.00101631852577
-0.000205188471894
-0.000909599980067
-0.000202653070369
-0.000804107440858
-0.000200319157644
-0.000699731077534
-0.000198197602186
-0.000596339752471
-0.000196289072015
-0.000493793692941
-0.000194587281851
-0.000391895166024
-0.000193068516192
-0.000290292448792
-0.00019168841066
-0.0001879979036
-0.000190361934938
-8.21355013014e-05
-0.000188271301742
-0.000174765942304
-0.000396288808442
0.00113800699393
-0.000836591757784
0.00126080146616
-0.00127503518444
0.00125611824413
-0.00170710294256
0.00123847798501
-0.00213066746524
0.00121470049414
-0.00254385723017
0.00118554060066
-0.00294497164469
0.00115149179849
-0.00333248835641
0.00111308410449
-0.00370509143335
0.00107087553471
-0.00406166095515
0.00102543746043
-0.00440128777026
0.000977332797075
-0.00472324695678
0.00092710701669
-0.00502700575728
0.000875271377953
-0.00531218699872
0.000822301048704
-0.00557857556281
0.000768623634895
-0.00582607655416
0.000714623824576
-0.00605472435106
0.000660636009687
-0.00626463886607
0.000606953775547
-0.00645603959491
0.000553824767088
-0.00662920180566
0.000501463051087
-0.00678447658604
0.000450044444536
-0.00692224754999
0.000399720149563
-0.00704295674632
0.000350611302097
-0.00714706169459
0.00030282280249
-0.00723506645979
0.000256436392719
-0.00730747845598
0.000211524190761
-0.00736484369136
0.000168140138261
-0.00740770275819
0.000126333107736
-0.00743662935391
8.61368516439e-05
-0.00745218502263
4.75828198917e-05
-0.00745496026367
1.06888826875e-05
-0.00744552783207
-2.4527627728e-05
-0.00742448587436
-5.80618638741e-05
-0.00739240981498
-8.9909033634e-05
-0.00734989692854
-0.000120076723418
-0.00729751707108
-0.000148571626552
-0.00723585864824
-0.00017541240906
-0.00716547849373
-0.000200616302936
-0.00708694890955
-0.000224212058101
-0.00700080697107
-0.000246226291066
-0.00690760247938
-0.000266696499341
-0.00680784701628
-0.000285657224873
-0.00670206255335
-0.000303153057556
-0.00659073058328
-0.000319224734644
-0.00647434119415
-0.000333922113667
-0.00635334254575
-0.000347290281446
-0.00622819011282
-0.000359382444213
-0.00609929677143
-0.000370246172175
-0.0059670819827
-0.000379936194455
-0.00583192269343
-0.000388500848703
-0.00569420213541
-0.00039599473138
-0.00555426174336
-0.000402465464648
-0.00541244931839
-0.000407966187292
-0.00526907210861
-0.000412542692039
-0.00512444400326
-0.000416245703351
-0.00497883992681
-0.000419118474514
-0.00483254181297
-0.000421208824604
-0.00468579441759
-0.000422557221957
-0.00453884976256
-0.000423208511433
-0.00439192449399
-0.000423200538095
-0.00424524258479
-0.00042257551479
-0.00409899433936
-0.000421369179436
-0.00395337711185
-0.000419621717205
-0.00380855609585
-0.000417367472396
-0.00366470292458
-0.000414645362452
-0.00352195837087
-0.000411489119999
-0.00338046867861
-0.0004079371174
-0.00324035033411
-0.000404023151462
-0.00310172407668
-0.00039978563058
-0.00296468188124
-0.000395258887726
-0.00282931857326
-0.000390481679975
-0.00269570117887
-0.000385489056251
-0.00256389814022
-0.000380320153959
-0.00243395115068
-0.000375010628909
-0.00230590193194
-0.000369599734729
-0.00217976666916
-0.000364123354102
-0.00205556035567
-0.000358620369948
-0.00193327389687
-0.000353126315553
-0.00181289598986
-0.000347679041427
-0.00169439295874
-0.000342313018854
-0.00157772816593
-0.000337064313281
-0.00146284460321
-0.000331965550318
-0.00134968179847
-0.000327050192078
-0.00123816117655
-0.000322348172563
-0.00112820042444
-0.000317889454387
-0.00101970154554
-0.000313700291835
-0.000912562473063
-0.000309805998597
-0.000806667435499
-0.000306227758199
-0.000701894782458
-0.000302984487318
-0.000598107358415
-0.000300090425989
-0.000495151734222
-0.000297557287003
-0.000392837801108
-0.000295395931427
-0.000290911459446
-0.000293627581857
-0.000189028303111
-0.00029225976533
-8.72932233661e-05
-0.000290021363359
-0.000262065876725
-0.000402492889169
0.00154055492253
-0.000848913721587
0.00170728151712
-0.0012934589473
0.00170072232183
-0.00173138616388
0.00167646429574
-0.00216043067749
0.00164380373501
-0.00257863212998
0.0016038009212
-0.0029842304603
0.00155714863013
-0.00337567336111
0.00150458563101
-0.00375162974873
0.00144689008502
-0.00411098780264
0.00138485378775
-0.00445285408061
0.00131925676758
-0.00477653774998
0.00125084845972
-0.00508154042195
0.00118033110072
-0.00536753271925
0.00110835044387
-0.00563434084735
0.00103548799191
-0.00588192088206
0.000962260082634
-0.00611034656891
0.00088911688494
-0.00631978486685
0.0008164472019
-0.00651048751669
0.000744581348605
-0.00668276950665
0.000673798844643
-0.00683700523328
0.00060433260515
-0.00697361012972
0.000536377289566
-0.00709304112453
0.000470093013177
-0.00719578085792
0.00040561299225
-0.00728234155492
0.000343045858764
-0.00735325092321
0.0002824820108
-0.00740905843436
0.000223994277212
-0.00745032203989
0.00016764296405
-0.00747761598152
0.000113475087005
-0.00749151769907
6.15284072629e-05
-0.00749261663153
1.18296211577e-05
-0.00748150066841
-3.5602256369e-05
-0.0074587655983
-8.07577677024e-05
-0.00742500153641
-0.000123634432504
-0.00738080269173
-0.000164239143712
-0.00732675348422
-0.000202584942407
-0.00726343860797
-0.000238693695692
-0.00719142908543
-0.00027259278186
-0.00711129272743
-0.000304317708331
-0.00702358022483
-0.000333908645267
-0.00692883599904
-0.000361412939717
-0.00682758446258
-0.000386881533726
-0.00672034125885
-0.000410371395851
-0.00660759981541
-0.0004319418696
-0.00648984293775
-0.000451657038499
-0.00636752973451
-0.000469582074834
-0.00624110751085
-0.000485785581727
-0.00611099913004
-0.000500335997301
-0.00597761512114
-0.000513303935062
-0.00584134150006
-0.000524758708315
-0.00570255199201
-0.000534770706638
-0.00556159632448
-0.000543408084761
-0.00541881244304
-0.00055073918828
-0.00527451525371
-0.000556829455842
-0.00512900870189
-0.000561743915794
-0.0049825749388
-0.000565544325513
-0.00483548612451
-0.00056829173062
-0.00468799397255
-0.00057004385859
-0.00454034114423
-0.000570857730567
-0.00439275114122
-0.000570787294235
-0.00424543917443
-0.000569886043501
-0.0040986023777
-0.000568204865964
-0.00395243006227
-0.000565794623006
-0.003807094261
-0.000562704162604
-0.00366275931614
-0.000558982791304
-0.00351957278151
-0.000554678407327
-0.0033776743255
-0.00054983980936
-0.00323718705536
-0.000544514902576
-0.00309822575069
-0.000538752791725
-0.00296088868188
-0.000532602035108
-0.00282526520604
-0.000526112497615
-0.0026914281662
-0.000519333640075
-0.00255944089372
-0.000512316121477
-0.00242935026061
-0.000505110135071
-0.00230119312491
-0.000497766772898
-0.00217499010137
-0.000490336427617
-0.00205075148147
-0.000482869938726
-0.0019284717619
-0.000475417089029
-0.00180813505161
-0.000468027559442
-0.00168971038432
-0.000460749544523
-0.00157315661833
-0.000453630537974
-0.00145841853463
-0.000446716087713
-0.00134543121266
-0.000440050427604
-0.00123411689047
-0.000433675380564
-0.0011243887674
-0.000427630842865
-0.00101614852043
-0.000421953840295
-0.000909289332649
-0.000416678878297
-0.000803693692466
-0.000411837203844
-0.000699235088972
-0.000407457281126
-0.000595775136619
-0.000403564686945
-0.00049316215317
-0.00040018397256
-0.00039122854646
-0.000397343000739
-0.000289795170206
-0.000395075449373
-0.000188730101828
-0.000393338721512
-8.8542358349e-05
-0.000390223324286
-0.0003506158682
-0.000410492017196
0.00195110238791
-0.000865403029899
0.00216225134389
-0.001318212988
0.0021535916928
-0.00176398827832
0.00212229881046
-0.00220032868321
0.00208020331134
-0.0026251690402
0.00202870037317
-0.00303667569538
0.00196871422388
-0.00343325500285
0.00190122381434
-0.00381356108149
0.00182725480947
-0.00417649314596
0.00174784439092
-0.00452118702302
0.00166400886486
-0.00484699833141
0.00157671781705
-0.00515348386054
0.00148687426468
-0.00544037797306
0.00139530193491
-0.00570757095247
0.001302737823
-0.00595508489952
0.00120983053015
-0.00618305411142
0.0011171419536
-0.00639170425236
0.00102515273797
-0.00658133726639
0.000934268985584
-0.0067523152458
0.000844830874613
-0.00690505037827
0.000757120892532
-0.00703999332579
0.000671372702318
-0.00715762748667
0.000587778616888
-0.00725846087108
0.000506497022316
-0.00734302347417
0.000427657971673
-0.00741186139912
0.000351368541459
-0.00746553610016
0.000277716337672
-0.0075046196541
0.000206772883485
-0.00752969492209
0.000138595381511
-0.00754135121544
7.32286450171e-05
-0.00754018481064
1.070573341e-05
-0.0075267943094
-4.89513928985e-05
-0.00750178151131
-0.000105730699202
-0.00746574677489
-0.000159630518768
-0.00741928961554
-0.000210659209924
-0.00736300414883
-0.000258834573163
-0.00729747969411
-0.000304183908903
-0.00722329629638
-0.00034674323091
-0.00714102551666
-0.000386557164421
-0.0070512261421
-0.000423678004333
-0.00695444525865
-0.000458165442797
-0.00685121424665
-0.000490085484722
-0.00674205018314
-0.00051951003757
-0.00662745219521
-0.000546515747244
-0.00650790323052
-0.000571183517366
-0.00638386679953
-0.000593597321011
-0.00625578909599
-0.000613843705503
-0.0061240961358
-0.000632010651066
-0.00598919620642
-0.00064818712707
-0.00585147737624
-0.00066246204573
-0.00571131020431
-0.000674923915711
-0.00556904557841
-0.000685659948736
-0.00542501761954
-0.000694755861813
-0.00527954177922
-0.000702295168582
-0.00513291783137
-0.000708359157629
-0.00498542815098
-0.000713026401879
-0.00483734069945
-0.000716372933107
-0.00468890739133
-0.00071847196588
-0.00454036695654
-0.000719394252793
-0.00439194331648
-0.000719208006297
-0.00424384824286
-0.000717979402221
-0.00409627967675
-0.000715772641934
-0.00394942411155
-0.00071265053795
-0.00380345482898
-0.000708674653374
-0.00365853399088
-0.00070390589952
-0.00351481079559
-0.000698404670762
-0.00337242328327
-0.000692231377905
-0.00323149645805
-0.000685446518129
-0.00309214386061
-0.000678111091693
-0.00295446571749
-0.000670286556998
-0.00281855033627
-0.000662035097181
-0.00268447236023
-0.000653419448395
-0.00255229406015
-0.000644503016196
-0.00242206376035
-0.000635349581195
-0.00229381707812
-0.000626023282457
-0.00216757557931
-0.000616588231748
-0.00204334801229
-0.000607108398534
-0.00192112922498
-0.000597647164675
-0.00180090140931
-0.000588267145589
-0.00168263329858
-0.000579029724389
-0.00156628143023
-0.000569994842522
-0.00145178961683
-0.000561220540255
-0.0013390902075
-0.000552762741607
-0.00122810380422
-0.000544674828322
-0.00111874047672
-0.000537007442404
-0.00101089963063
-0.000529808122733
-0.000904471029049
-0.000523121181974
-0.000799334676924
-0.000516987529307
-0.00069536131695
-0.000511444779742
-0.000592412291659
-0.000506527840013
-0.000490340562731
-0.000502270178182
-0.000388992185543
-0.000498705013531
-0.000288217387456
-0.000495862869253
-0.000187923884507
-0.000493647293516
-8.85937893851e-05
-0.000489568961793
-0.000439216433951
-0.000420663368542
0.00237182138739
-0.000886601493907
0.00262824930696
-0.00135009147496
0.00261714122437
-0.00180595842183
0.00257822544013
-0.00225163908045
0.00252594347622
-0.00268494045124
0.0024620612139
-0.0031039400209
0.00238777315588
-0.0035069950115
0.00230433806973
-0.00389274678874
0.00221306570714
-0.00426011419216
0.00211527075379
-0.00460827823317
0.00201223165044
-0.00493665975929
0.00190515784717
-0.00524489342109
0.0017951661212
-0.0055327992837
0.00168326566067
-0.00580035498264
0.00157035096808
-0.00604766876125
0.00145720131682
-0.00627495556398
0.00134448522302
-0.00648251547087
0.00123276856114
-0.00667071609026
0.00112252485156
-0.00683997738955
0.00101414675054
-0.00699076032988
0.000907957605302
-0.00712355728282
0.000804222642153
-0.00723888560628
0.000703158995569
-0.0073372820675
0.000604944638945
-0.00741929966273
0.000509725665887
-0.0074855043804
0.000417622355554
-0.00753647371988
0.000328733607082
-0.00757279444638
0.000243140441826
-0.00759506168649
0.000160908184723
-0.00760387681883
8.20881582383e-05
-0.00759984665979
6.71859936428e-06
-0.00758358072467
-6.51755610647e-05
-0.00755569052462
-0.000133580569031
-0.00751678681096
-0.000198495217676
-0.00746747826292
-0.000259930235409
-0.00740836875122
-0.00031790792283
-0.0073400560154
-0.000372462019869
-0.00726312897195
-0.000423637038655
-0.00717816655131
-0.000471487912818
-0.00708573520836
-0.000516079083494
-0.00698638804071
-0.000557483926831
-0.00688066261368
-0.000595783640471
-0.00676908044429
-0.000631066515167
-0.00665214521057
-0.000663426697104
-0.0065303426354
-0.00069296337918
-0.00640413910566
-0.000719779527296
-0.00627398195931
-0.000743981074573
-0.00614029850988
-0.000765675688372
-0.00600349670525
-0.00078497203488
-0.00586396452278
-0.000801978660373
-0.00572207094914
-0.000816803393061
-0.00557816569096
-0.000829552398432
-0.00543258039776
-0.000840329769609
-0.00528562860667
-0.000849236811691
-0.00513760711446
-0.000856371866089
-0.0049887960594
-0.000861829856862
-0.00483946032872
-0.000865702366114
-0.00468984966846
-0.000868077451486
-0.00454020001478
-0.000869039964581
-0.00439073353064
-0.000868671609348
-0.00424165976181
-0.000867051452058
-0.00409317552041
-0.000864256158803
-0.00394546580141
-0.000860360619127
-0.00379870347497
-0.000855438270857
-0.0036530499411
-0.000849561737091
-0.00350865463558
-0.000842803142234
-0.00336565544741
-0.000835234669042
-0.00322417808733
-0.000826928779453
-0.00308433632774
-0.000817958616602
-0.00294623130819
-0.000808398076347
-0.00280995167785
-0.000798322017205
-0.00267557292438
-0.000787806162731
-0.00254315749998
-0.000776927116165
-0.00241275425023
-0.00076576210974
-0.00228439859114
-0.000754388852614
-0.00215811209705
-0.000742885164345
-0.00203390277489
-0.000731328699553
-0.00191176484432
-0.000719796513408
-0.00179167913112
-0.000708364712374
-0.00167361305136
-0.000697107996976
-0.00155752112726
-0.000686099282087
-0.00144334516495
-0.000675409255806
-0.00133101487758
-0.00066510600649
-0.00122044822469
-0.0006552546297
-0.00111155210581
-0.000645916898058
-0.00100422279834
-0.000637150959382
-0.000898346649522
-0.000629011107793
-0.000793800517907
-0.000621547655337
-0.000690452549082
-0.000614807037761
-0.000588162941594
-0.000608831929788
-0.000486784986116
-0.000603661787682
-0.000386169461736
-0.000599334065253
-0.00028617273124
-0.000595874429096
-0.000186693197946
-0.000593140756655
-8.81621726551e-05
-0.000588114300611
-0.00052738642373
-0.000433270210219
0.00280514775216
-0.000912941072488
0.00310797962894
-0.00138970449086
0.00309396482529
-0.00185807080266
0.00304665170685
-0.00231526912624
0.00298320178548
-0.00275894924591
0.00290580122534
-0.00318708284791
0.00281596658669
-0.00359797303118
0.00271528800312
-0.003990254588
0.00260540688983
-0.00436288076792
0.00248795643019
-0.0047150995558
0.00236450973338
-0.0050464225624
0.00223653993958
-0.00535659024997
0.00210539260146
-0.00564553593515
0.0019722698268
-0.00591335130059
0.00183822441294
-0.00616025456085
0.0017041622265
-0.00638656273563
0.001570850528
-0.00659266803177
0.00143893042638
-0.00677901881456
0.00130893155826
-0.00694610450292
0.00118128766695
-0.00709444433595
0.00105635189648
-0.00722457910478
0.000934411037572
-0.00733706558543
0.000815698209555
-0.00743247279804
0.000700403624914
-0.00751137979564
0.000588683430008
-0.00757437427494
0.000480666520533
-0.00762205177584
0.000376459681161
-0.00765501500141
0.000276151053728
-0.00767387313464
0.000179812499499
-0.00767924089724
8.75008168505e-05
-0.00767173760064
-7.41090637295e-07
-0.00765198532962
-8.48855962521e-05
-0.00762060738686
-0.000164917636455
-0.00757822664699
-0.000240836521256
-0.00752546326418
-0.0003126555957
-0.00746293260105
-0.000380402051243
-0.00739124306328
-0.000444116473308
-0.00731099404189
-0.000503852499822
-0.00722277386961
-0.000559676000893
-0.00712715799735
-0.000611664415597
-0.00702470724539
-0.000659905624764
-0.00691596634346
-0.000704497040922
-0.0068014625734
-0.000745544269953
-0.00668170474177
-0.00078316005943
-0.00655718226213
-0.000817462861888
-0.00642836457932
-0.000848575742824
-0.00629570069105
-0.000876624945801
-0.00615961900823
-0.000901738854505
-0.00602052729165
-0.000924046651206
-0.00587881290515
-0.000943677410108
-0.00573484311229
-0.000960758925518
-0.00558896565646
-0.000975417009942
-0.00544150934412
-0.000987774564564
-0.00529278485973
-0.000997951142008
-0.00514308553047
-0.00100606231437
-0.0049926882617
-0.00101221954696
-0.00484185436395
-0.00101652989727
-0.00469083047944
-0.00101909620735
-0.00453984934053
-0.00102001712335
-0.00438913056417
-0.00101938757328
-0.00423888123292
-0.00101729905105
-0.0040892964605
-0.00101384029533
-0.00394055971927
-0.00100909773601
-0.00379284312892
-0.00100315625878
-0.00364630751316
-0.000996099691546
-0.00350110241799
-0.000988011524883
-0.00335736593052
-0.000978975316622
-0.00321522448569
-0.00096907525931
-0.00307479252832
-0.000958396413295
-0.00293617219846
-0.00094702504853
-0.00279945293492
-0.000935048660357
-0.00266471114124
-0.000922556064949
-0.00253200983123
-0.000909637201991
-0.0024013983638
-0.000896383004615
-0.0022729122075
-0.000882885028062
-0.00214657280901
-0.000869235146955
-0.002022387528
-0.000855525069958
-0.00190034967282
-0.000841845925462
-0.0017804386249
-0.000828287723775
-0.00166262005148
-0.000814938891596
-0.00154684621825
-0.000801885735746
-0.00143305636722
-0.000789211975512
-0.00132117719826
-0.000776998250359
-0.00121112338425
-0.000765321692776
-0.00110279819292
-0.0007542555178
-0.000996094092909
-0.000743868676177
-0.000890893467606
-0.000734225577059
-0.00078706936717
-0.000725385898966
-0.000684486228088
-0.000717404428898
-0.000583001089341
-0.000710331270955
-0.000482465631516
-0.000704211933415
-0.000382727704594
-0.000699085752239
-0.000283637942673
-0.000694976641596
-0.000185082690913
-0.000691711315404
-8.74537015792e-05
-0.000685759109973
-0.000614846859677
-0.000448591411332
0.00325379551415
-0.000944957399522
0.00360440627656
-0.00143782440282
0.00358689217822
-0.0019212988063
0.00353018663667
-0.00239234862782
0.00345431199564
-0.00284843123688
0.00336194421975
-0.00328739532679
0.00325499101564
-0.00370748860962
0.00313544156292
-0.00410735177027
0.00300533025527
-0.00448599552239
0.00286666025938
-0.00484276508842
0.00272133923408
-0.00517729709424
0.0025711316667
-0.00548947318006
0.00241762816792
-0.00577937414799
0.00226222995877
-0.00604723722512
0.00210614629543
-0.00629341830754
0.00195040167844
-0.00651836001145
0.00179585010861
-0.0067225658077
0.00164319353575
-0.006906579974
0.00149300240387
-0.00707097275611
0.00134573643249
-0.0072163300683
0.00120176441455
-0.00734324679354
0.00106138214358
-0.00745232303303
0.000924827914108
-0.0075441623144
0.000792295422204
-0.00761937131816
0.000663943902882
-0.00767856020936
0.0005399058187
-0.00772234343219
0.000420292146559
-0.00775134019943
0.000305195899343
-0.00776617486844
0.000194693976937
-0.00776747659343
8.88480940749e-05
-0.00775587843434
-1.22950626194e-05
-0.00773201659024
-0.000108704591388
-0.00769652858515
-0.000200364239936
-0.00765005110824
-0.000287273995864
-0.00759321810552
-0.00036945010182
-0.00752665831425
-0.000446924790939
-0.00745099313254
-0.000519746153281
-0.00736683416815
-0.000587977438094
-0.0072747812696
-0.000651696450951
-0.0071754203251
-0.000710994405337
-0.00706932164414
-0.00076597494331
-0.00695703815799
-0.000816752662301
-0.00683910425959
-0.000863451895423
-0.00671603448058
-0.000906205055815
-0.00658832282777
-0.000945151311865
-0.00645644195467
-0.000980434883707
-0.00632084298896
-0.00101220373396
-0.00618195517966
-0.001040607928
-0.00604018617787
-0.00106579843752
-0.00589592211498
-0.00108792566046
-0.00574952827882
-0.00110713842474
-0.00560134955535
-0.00112358275375
-0.0054517114144
-0.0011374011499
-0.00530092061791
-0.00114873168693
-0.00514926640065
-0.00115770764471
-0.00499702131766
-0.00116445698896
-0.00484444247664
-0.00116910239781
-0.00469177237536
-0.00117176115056
-0.00453924003346
-0.00117254553791
-0.00438706167424
-0.00117156312118
-0.00423544161887
-0.00116891745343
-0.00408457269852
-0.00116470860929
-0.00393463682189
-0.00115903408903
-0.00378580506238
-0.00115198947138
-0.00363823787492
-0.00114366933907
-0.00349208487214
-0.00113416789411
-0.00334748473643
-0.00112357974934
-0.00320456476254
-0.00111200036769
-0.00306344056277
-0.00109952660279
-0.0029242154926
-0.0010862568774
-0.00278698027232
-0.00107229141852
-0.0026518124212
-0.00105773215382
-0.00251877591349
-0.00104268264831
-0.00238792072765
-0.00102724775524
-0.00225928262659
-0.00101153330971
-0.00213288289422
-0.000995645604229
-0.00200872829287
-0.000979690917044
-0.00188681102105
-0.000963774893438
-0.00176710886658
-0.0009480019879
-0.00164958538888
-0.000932474823762
-0.00153419026207
-0.000917293615943
-0.00142085966346
-0.000902555566266
-0.00130951678761
-0.0008883543188
-0.00120007240876
-0.000874779433313
-0.00109242553947
-0.000861915914216
-0.000986464131292
-0.000849843799988
-0.000882065855704
-0.000838637798051
-0.00077909889716
-0.00082836700363
-0.000677423011622
-0.000819094758872
-0.000576890652629
-0.00081087828381
-0.000477347815064
-0.000803768422929
-0.000378637462635
-0.000797809709772
-0.000280603251897
-0.000793026034871
-0.000183115021218
-0.000789213446054
-8.65403640209e-05
-0.000782348033524
-0.00070139516745
-0.000466965138253
0.00372081762429
-0.000983333412933
0.00412083480946
-0.00149544007987
0.00409905990865
-0.0019968854567
0.00403169286636
-0.0024843113918
0.00394179886968
-0.00295494352254
0.00383263724266
-0.00340649128197
0.00370659966376
-0.00383715177308
0.00356616292452
-0.00424559351332
0.00341383280492
-0.00463091903578
0.00325204652522
-0.00499261302075
0.00308309382254
-0.00533048257112
0.00290906166809
-0.00564459584111
0.0027318016486
-0.00593522336091
0.00255291742252
-0.00620278551777
0.00237376803635
-0.006447807711
0.00219548305481
-0.006670884108
0.00201898519713
-0.00687264958868
0.00184501716001
-0.00705375934524
0.00167416967393
-0.00721487494746
0.00150690884919
-0.00735665582308
0.00134360133706
-0.00747975493625
0.00118453645544
-0.00758481757259
0.0010299448486
-0.00767248228637
0.000880013444647
-0.00774338302971
0.000734896931214
-0.00779815188167
0.000594725835572
-0.00783742157989
0.000459611873778
-0.00786182769496
0.000329650808444
-0.00787200988943
0.000204923731163
-0.00786861249712
8.54969207288e-05
-0.00785228369054
-2.85789762789e-05
-0.00782367547077
-0.000137269352986
-0.00778344116945
-0.00024055648344
-0.00773223363482
-0.000338440978059
-0.0076707027459
-0.000430941892753
-0.00759949304656
-0.000518096949682
-0.00751924103599
-0.000599962116044
-0.00743057283667