/*--------------------------------*- C++ -*----------------------------------*\
| =========                 |                                                 |
| \\      /  F ield         | OpenFOAM: The Open Source CFD Toolbox           |
|  \\    /   O peration     | Version:  v1906                                 |
|   \\  /    A nd           | Web:      www.OpenFOAM.com                      |
|    \\/     M anipulation  |                                                 |
\*---------------------------------------------------------------------------*/
FoamFile
{
    version     2.0;
    format      ascii;
    class       volVectorField;
    location    "569";
    object      U;
}
// * * * * * * * * * * * * * * * * * * * * * * * * * * * * * * * * * * * * * //

dimensions      [0 1 -1 0 0 0 0];


internalField   nonuniform List<vector> 
9216
(
(0.00270973772384 -0.00271206563727 0)
(0.00285700687051 -0.00875218506211 1.17187423866e-27)
(0.00284884179551 -0.0148863419307 1.84072940358e-31)
(0.00281155893647 -0.0210208696352 0)
(0.00275979717009 -0.0270525901484 0)
(0.002695024527 -0.0329572329526 0)
(0.00261891802822 -0.0387089610392 0)
(0.00253283109017 -0.0442847905642 0)
(0.00243805419506 -0.0496645332378 0)
(0.0023358707209 -0.0548307782085 0)
(0.0022275337617 -0.059768863296 0)
(0.00211426045395 -0.0644668066123 0)
(0.00199719536043 -0.0689151886316 0)
(0.00187740874 -0.0731069927489 0)
(0.00175587019621 -0.0770374116028 0)
(0.00163345654659 -0.0807036390359 0)
(0.00151093753731 -0.0841046477728 0)
(0.00138899005101 -0.0872409771093 0)
(0.00126819365546 -0.0901145197588 0)
(0.0011490462708 -0.0927283350183 0)
(0.00103196694161 -0.0950864664399 0)
(0.00091730848733 -0.0971937941026 0)
(0.000805365624382 -0.0990558901364 0)
(0.000696381359325 -0.100678911188 0)
(0.000590559694228 -0.102069488995 0)
(0.000488063765762 -0.10323465674 0)
(0.000389033252379 -0.104181766959 0)
(0.000293573469773 -0.104918442737 0)
(0.000201778484093 -0.105452514679 0)
(0.000113712199262 -0.105791990144 0)
(2.9440446717e-05 -0.105944989312 0)
(-5.10195506232e-05 -0.105919792868 0)
(-0.000127657514566 -0.105724637373 0)
(-0.000200477497878 -0.105367793177 0)
(-0.000269469788252 -0.10485754846 0)
(-0.000334666670035 -0.104202161987 0)
(-0.000396087905755 -0.103409828238 0)
(-0.000453793783057 -0.1024886612 0)
(-0.000507825650058 -0.101446657713 0)
(-0.000558267148542 -0.100291685248 0)
(-0.000605177708846 -0.0990314498336 0)
(-0.000648660589606 -0.0976734866712 0)
(-0.000688789782996 -0.0962251331452 0)
(-0.000725684100964 -0.0946935225756 0)
(-0.000759428180622 -0.0930855628269 0)
(-0.000790151976329 -0.0914079333137 0)
(-0.000817946800263 -0.0896670695467 0)
(-0.000842949378022 -0.0878691633207 0)
(-0.000865253821432 -0.0860201530684 0)
(-0.000884999479415 -0.0841257267946 0)
(-0.000902279896426 -0.0821913178899 0)
(-0.000917233505372 -0.0802221102041 0)
(-0.000929950529764 -0.0782230385431 0)
(-0.00094056567067 -0.0761987949813 0)
(-0.000949164008935 -0.0741538331573 0)
(-0.000955874685987 -0.072092374879 0)
(-0.000960776719612 -0.070018417056 0)
(-0.000963992806613 -0.0679357375335 0)
(-0.000965596005659 -0.0658479036032 0)
(-0.000965702671788 -0.0637582761771 0)
(-0.00096438078369 -0.0616700187976 0)
(-0.000961741171345 -0.0595860994006 0)
(-0.000957848268499 -0.0575092991092 0)
(-0.000952808725256 -0.0554422112307 0)
(-0.000946685194311 -0.0533872493261 0)
(-0.000939581603271 -0.0513466433888 0)
(-0.000931560584648 -0.0493224471564 0)
(-0.000922724668749 -0.0473165318405 0)
(-0.000913137829441 -0.0453305928661 0)
(-0.000902902060469 -0.0433661417405 0)
(-0.000892083521021 -0.0414245127395 0)
(-0.000880783975723 -0.0395068537175 0)
(-0.000869071918687 -0.0376141332774 0)
(-0.000857048541044 -0.0357471313079 0)
(-0.000844784218766 -0.0339064472512 0)
(-0.00083237868557 -0.0320924911135 0)
(-0.000819903177297 -0.0303054932704 0)
(-0.000807454625126 -0.0285454965187 0)
(-0.000795103730925 -0.0268123677783 0)
(-0.000782942990251 -0.025105791622 0)
(-0.000771040874861 -0.02342528405 0)
(-0.000759483566835 -0.0217701878171 0)
(-0.000748335338792 -0.0201396885031 0)
(-0.000737673773656 -0.018532812126 0)
(-0.000727556128956 -0.0169484441851 0)
(-0.000718047344406 -0.0153853312028 0)
(-0.000709190844448 -0.0138421061993 0)
(-0.000701025388187 -0.0123173023807 0)
(-0.000693550245433 -0.0108094045821 0)
(-0.00068670372027 -0.009316924756 0)
(-0.000680248150411 -0.00783859718485 0)
(-0.000673513335931 -0.00637388491289 0)
(-0.000664655293742 -0.00492447949159 0)
(-0.000645363557445 -0.0035073638211 0)
(-0.000610291321159 -0.00200214418729 0)
(-0.000912928920058 -0.000912679083682 0)
(0.00877248548543 -0.00288708789302 0)
(0.0096999109472 -0.00976991938206 0)
(0.00967748092406 -0.0166399489801 -1.23060398337e-27)
(0.00954802498071 -0.0235153475189 0)
(0.00936887361741 -0.0302662269216 0)
(0.00914739162656 -0.0368708291169 0)
(0.00888796569572 -0.0433017239894 0)
(0.00859482222137 -0.0495336630604 0)
(0.00827225260048 -0.0555442334877 0)
(0.00792459373056 -0.061314085871 0)
(0.00755611712762 -0.0668269643417 0)
(0.00717096246305 -0.0720696480081 0)
(0.00677303411182 -0.0770318127821 0)
(0.00636596607181 -0.0817058446327 0)
(0.00595305828036 -0.0860866102882 0)
(0.00553727952667 -0.0901712143708 0)
(0.00512124193725 -0.0939587418062 0)
(0.00470723084934 -0.0974500127643 0)
(0.00429720674357 -0.100647340843 0)
(0.00389284701588 -0.103554319428 0)
(0.00349556399942 -0.106175619262 0)
(0.00310654541554 -0.10851682048 0)
(0.00272678014572 -0.110584256088 0)
(0.00235708811403 -0.112384889663 0)
(0.00199814943008 -0.11392620015 0)
(0.00165051865583 -0.115216097089 0)
(0.00131465639353 -0.116262836877 0)
(0.000990926312149 -0.117074964467 0)
(0.000679630747168 -0.117661250073 0)
(0.000380991624301 -0.118030645417 0)
(9.51946602523e-05 -0.118192239247 0)
(-0.000177664748697 -0.118155167001 0)
(-0.000437526780387 -0.117928705222 0)
(-0.000684388934244 -0.11752216228 0)
(-0.000918260378871 -0.116944808216 0)
(-0.00113923128714 -0.116205877088 0)
(-0.00134739911101 -0.115314528109 0)
(-0.0015429404978 -0.114279824075 0)
(-0.00172602836279 -0.113110698358 0)
(-0.00189691472135 -0.111815934587 0)
(-0.00205583710254 -0.110404137562 0)
(-0.00220311096056 -0.108883716288 0)
(-0.00233902615395 -0.107262860007 0)
(-0.00246394804155 -0.105549525285 0)
(-0.002578205196 -0.103751417775 0)
(-0.00268219833433 -0.101875983646 0)
(-0.00277628068687 -0.0999303973492 0)
(-0.00286087377717 -0.0979215573685 0)
(-0.00293634194118 -0.0958560798006 0)
(-0.00300311391934 -0.093740298033 0)
(-0.00306155311278 -0.0915802616512 0)
(-0.00311208381114 -0.089381739355 0)
(-0.00315505873419 -0.0871502223276 0)
(-0.00319088869467 -0.0848909294181 0)
(-0.00321990896813 -0.0826088139183 0)
(-0.00324251107162 -0.0803085698915 0)
(-0.00325900936487 -0.0779946410883 0)
(-0.00326977361673 -0.0756712272125 0)
(-0.00327509713504 -0.0733422937576 0)
(-0.00327532869486 -0.0710115771128 0)
(-0.00327074328181 -0.0686825941734 0)
(-0.00326167198675 -0.0663586453986 0)
(-0.00324837630679 -0.064042823399 0)
(-0.00323117459375 -0.061738013445 0)
(-0.0032103206707 -0.0594469005637 0)
(-0.00318612555707 -0.0571719673928 0)
(-0.00315884108205 -0.0549154998045 0)
(-0.00312877571842 -0.0526795824397 0)
(-0.00309618378414 -0.050466103192 0)
(-0.00306137445261 -0.0482767470564 0)
(-0.00302460713599 -0.046113000127 0)
(-0.00298619291765 -0.0439761426028 0)
(-0.00294639667895 -0.0418672530188 0)
(-0.00290553043568 -0.0397872012633 0)
(-0.00286386277571 -0.0377366537866 0)
(-0.00282170372099 -0.0357160674158 0)
(-0.00277932198783 -0.0337256961104 0)
(-0.00273702114528 -0.0317655861665 0)
(-0.00269506515294 -0.0298355849515 0)
(-0.00265374563392 -0.0279353379141 0)
(-0.00261331601439 -0.0260642995169 0)
(-0.00257404974146 -0.0242217322979 0)
(-0.00253618313106 -0.0224067201542 0)
(-0.00249996412712 -0.0206181696746 0)
(-0.00246560332557 -0.0188548259452 0)
(-0.002433311784 -0.0171152764441 0)
(-0.00240325712058 -0.0153979695051 0)
(-0.00237558328637 -0.0137012200997 0)
(-0.00235035549541 -0.0120232260908 0)
(-0.0023275235629 -0.0103620557036 0)
(-0.00230676195795 -0.00871558481783 0)
(-0.00228715722321 -0.00708122539714 0)
(-0.00226630738666 -0.00545481651894 0)
(-0.00223740071833 -0.00382719786165 0)
(-0.00216462448755 -0.00215973466939 0)
(-0.00200081091541 -0.000608193837775 0)
(0.015017774443 -0.00293296418904 0)
(0.0166283227802 -0.00993071298154 0)
(0.0165675872858 -0.0168910002848 -1.22856482513e-27)
(0.0163365831398 -0.0238670477287 0)
(0.0160248465262 -0.0307149109818 0)
(0.0156421524893 -0.03741132238 0)
(0.0151950009781 -0.0439278132375 0)
(0.0146903326164 -0.050238583592 0)
(0.0141354672112 -0.0563208962535 0)
(0.0135378662773 -0.0621552654642 0)
(0.0129049185327 -0.0677254643855 0)
(0.0122437576337 -0.073018442316 0)
(0.0115611196491 -0.0780241594199 0)
(0.0108632355239 -0.0827353691774 0)
(0.0101557682922 -0.0871473615131 0)
(0.0094437756283 -0.0912576923007 0)
(0.0087317139233 -0.0950659056379 0)
(0.00802345002449 -0.0985732693438 0)
(0.00732230915202 -0.101782522838 0)
(0.00663111071903 -0.104697652606 0)
(0.00595223755575 -0.107323688114 0)
(0.00528767468526 -0.109666529431 0)
(0.00463908335405 -0.111732795026 0)
(0.0040078288974 -0.113529698777 0)
(0.00339505040016 -0.11506494225 0)
(0.00280167096305 -0.116346630521 0)
(0.0022284600665 -0.117383196831 0)
(0.00167602504483 -0.118183344577 0)
(0.00114486732872 -0.118755992227 0)
(0.000635356810948 -0.119110230256 0)
(0.000147783233686 -0.119255279303 0)
(-0.000317673242699 -0.119200452216 0)
(-0.000760889750277 -0.118955118663 0)
(-0.001181858352 -0.118528674338 0)
(-0.001580622321 -0.117930502682 0)
(-0.0019573275779 -0.117169946711 0)
(-0.00231216031 -0.116256274807 0)
(-0.00264540734863 -0.115198653721 0)
(-0.00295738609341 -0.114006118488 0)
(-0.00324850882384 -0.112687548077 0)
(-0.00351920661094 -0.111251639142 0)
(-0.00376999740153 -0.109706885491 0)
(-0.00400140470272 -0.108061556711 0)
(-0.00421402914947 -0.106323682262 0)
(-0.00440846293317 -0.104501035576 0)
(-0.00458536463676 -0.10260112315 0)
(-0.00474537052039 -0.100631174378 0)
(-0.00488917236723 -0.0985981356518 0)
(-0.00501742676272 -0.0965086657007 0)
(-0.00513083565998 -0.0943691342994 0)
(-0.0052300547899 -0.0921856226036 0)
(-0.00531577655711 -0.0899639257562 0)
(-0.00538863864666 -0.0877095573024 0)
(-0.00544930880024 -0.0854277546733 0)
(-0.0054983946005 -0.083123486586 0)
(-0.0055365295418 -0.0808014602187 0)
(-0.00556428480126 -0.0784661302647 0)
(-0.00558225590665 -0.076121706491 0)
(-0.00559097711616 -0.0737721631806 0)
(-0.00559100780981 -0.0714212458766 0)
(-0.00558284986055 -0.069072480018 0)
(-0.0055670327685 -0.0667291758776 0)
(-0.00554403421946 -0.0643944355873 0)
(-0.00551436288654 -0.0620711556978 0)
(-0.00547848222016 -0.0597620321443 0)
(-0.0054368898848 -0.0574695602838 0)
(-0.0053900447923 -0.0551960378876 0)
(-0.00533844223984 -0.0529435629915 0)
(-0.00528254422814 -0.0507140353437 0)
(-0.00522284958645 -0.0485091527229 0)
(-0.0051598277349 -0.0463304116133 0)
(-0.0050939832997 -0.0441791028672 0)
(-0.00502579359128 -0.0420563124323 0)
(-0.00495576745675 -0.0399629172403 0)
(-0.00488438685644 -0.0378995868222 0)
(-0.00481215986133 -0.0358667802144 0)
(-0.00473956674794 -0.0338647490896 0)
(-0.00466710717142 -0.0318935362562 0)
(-0.00459525118899 -0.0299529807624 0)
(-0.00452448065665 -0.0280427183533 0)
(-0.00445524549237 -0.0261621887452 0)
(-0.00438799929339 -0.0243106381761 0)
(-0.00432316094761 -0.022487128868 0)
(-0.00426114420685 -0.0206905435753 0)
(-0.00420232423341 -0.0189195968828 0)
(-0.00414706007756 -0.0171728409806 0)
(-0.0040956643032 -0.0154486769783 0)
(-0.00404841502037 -0.0137453576981 0)
(-0.00400552338912 -0.0120609887898 0)
(-0.00396712929626 -0.0103935044853 0)
(-0.00393326858688 -0.00874060476122 0)
(-0.00390390239809 -0.0070995852335 0)
(-0.00387904643304 -0.00546688872002 0)
(-0.00385883816291 -0.00383643029248 0)
(-0.00382816809521 -0.00221991192136 0)
(-0.00349852599352 -0.000639570669428 0)
(0.0214108898464 -0.00297830960582 0)
(0.0237252762814 -0.0100811471569 0)
(0.0236355241704 -0.0171369854437 1.22799434421e-27)
(0.0233009200316 -0.0242092982661 0)
(0.0228502373146 -0.0311480762478 0)
(0.0222979284632 -0.0379285588486 0)
(0.0216534369014 -0.0445210995438 0)
(0.0209268540101 -0.0508991934779 0)
(0.02012883835 -0.0570397508705 0)
(0.0192702461312 -0.0629232323124 0)
(0.0183618049424 -0.068533609342 0)
(0.01741383572 -0.0738582327238 0)
(0.0164360465946 -0.0788876183861 0)
(0.0154373774272 -0.0836151798347 0)
(0.0144259158664 -0.0880369271305 0)
(0.013408850556 -0.0921511557219 0)
(0.0123924836676 -0.0959581378773 0)
(0.0113822585511 -0.0994598323264 0)
(0.0103828312135 -0.102659616712 0)
(0.009398134512 -0.105562051377 0)
(0.00843147388067 -0.108172672591 0)
(0.00748559762515 -0.110497818797 0)
(0.00656279231996 -0.11254448393 0)
(0.0056649401258 -0.114320198777 0)
(0.0047936006123 -0.115832932586 0)
(0.00395004666356 -0.117091015097 0)
(0.00313532879416 -0.118103071032 0)
(0.00235028908422 -0.118877967583 0)
(0.00159561016789 -0.119424767808 0)
(0.000871811064946 -0.119752691584 0)
(0.000179285355071 -0.119871076312 0)
(-0.000481711539721 -0.119789355762 0)
(-0.00111102659567 -0.119516994886 0)
(-0.00170864085948 -0.119063486654 0)
(-0.00227463116099 -0.118438310012 0)
(-0.00280919572896 -0.11765089861 0)
(-0.00331261849631 -0.1167106088 0)
(-0.00378529743723 -0.11562669025 0)
(-0.00422770517974 -0.114408256563 0)
(-0.00464041764168 -0.113064258924 0)
(-0.00502407122533 -0.11160346051 0)
(-0.00537939172615 -0.110034414301 0)
(-0.00570714871158 -0.10836544235 0)
(-0.00600818492107 -0.106604618642 0)
(-0.00628336866418 -0.104759753911 0)
(-0.00653362408063 -0.102838383984 0)
(-0.00675988249989 -0.100847760381 0)
(-0.00696311391066 -0.0987948441375 0)
(-0.00714427820219 -0.0966863019686 0)
(-0.00730435816515 -0.0945285051712 0)
(-0.00744431149311 -0.092327530766 0)
(-0.00756510552654 -0.0900891647176 0)
(-0.00766767078632 -0.0878189071206 0)
(-0.00775293758889 -0.085521978669 0)
(-0.00782179175655 -0.0832033286976 0)
(-0.00787511304184 -0.0808676436023 0)
(-0.00791373343756 -0.0785193563465 0)
(-0.00793847715377 -0.0761626554263 0)
(-0.00795012169542 -0.0738014944437 0)
(-0.0079494388483 -0.0714396002748 0)
(-0.00793715838607 -0.0690804814483 0)
(-0.00791400930246 -0.066727434432 0)
(-0.00788068577203 -0.0643835499255 0)
(-0.00783788767421 -0.0620517166102 0)
(-0.00778628827334 -0.0597346249254 0)
(-0.00772657307118 -0.0574347681425 0)
(-0.00765940868035 -0.0551544437433 0)
(-0.0075854791324 -0.0528957521867 0)
(-0.00750545554204 -0.0506605964416 0)
(-0.00742002925366 -0.0484506791997 0)
(-0.00732988212999 -0.0462675014401 0)
(-0.00723571619074 -0.0441123590508 0)
(-0.00713822459985 -0.0419863413886 0)
(-0.00703811774594 -0.0398903282801 0)
(-0.00693609521738 -0.0378249894884 0)
(-0.00683286846332 -0.035790782921 0)
(-0.00672913416015 -0.0337879556982 0)
(-0.00662559371569 -0.0318165441541 0)
(-0.00652292846039 -0.0298763769577 0)
(-0.00642181625313 -0.0279670772297 0)
(-0.00632290885762 -0.0260880678834 0)
(-0.00622684583658 -0.0242385759019 0)
(-0.00613423431685 -0.0224176397926 0)
(-0.0060456601591 -0.0206241157266 0)
(-0.0059616700355 -0.0188566864927 0)
(-0.00588277957285 -0.0171138683572 0)
(-0.00580945741548 -0.0153940193743 0)
(-0.00574213027339 -0.0136953429918 0)
(-0.00568117055536 -0.0120158883905 0)
(-0.00562690535648 -0.010353538096 0)
(-0.00557963016377 -0.00870598326338 0)
(-0.00553968259902 -0.00707067350753 0)
(-0.00550755492199 -0.00544475664182 0)
(-0.00548304068957 -0.00382378350754 0)
(-0.00544060306796 -0.00222954386179 0)
(-0.00489793269881 -0.000653175260242 0)
(0.0279108466435 -0.00303785490848 0)
(0.0309309568708 -0.01027894515 0)
(0.0308095795282 -0.0174673353284 0)
(0.0303660391852 -0.0246690377276 0)
(0.0297691291197 -0.0317291889067 0)
(0.0290384299483 -0.0386213170107 0)
(0.0281868181363 -0.0453143432674 0)
(0.0272279714802 -0.0517808478736 0)
(0.0261762671453 -0.0579972981795 0)
(0.0250462845433 -0.0639441311817 0)
(0.0238523579782 -0.069605649548 0)
(0.0226082054017 -0.0749698175139 0)
(0.0213266525795 -0.0800279729381 0)
(0.0200194392172 -0.0847744874211 0)
(0.018697114451 -0.0892064006966 0)
(0.0173689951583 -0.0933230535192 0)
(0.0160431907096 -0.0971257354314 0)
(0.0147266614144 -0.100617361171 0)
(0.0134253171667 -0.103802181956 0)
(0.0121441222681 -0.106685536571 0)
(0.0108872196038 -0.109273641151 0)
(0.0096580408123 -0.111573417014 0)
(0.00845942334819 -0.113592351435 0)
(0.0072937016282 -0.115338388123 0)
(0.00616280042728 -0.116819840929 0)
(0.00506829727956 -0.118045327083 0)
(0.00401148829831 -0.119023713853 0)
(0.00299342255061 -0.119764075777 0)
(0.00201494447875 -0.120275657716 0)
(0.00107670675742 -0.120567842435 0)
(0.000179197075045 -0.120650115667 0)
(-0.000677263578762 -0.120532056581 0)
(-0.00149249434814 -0.120223257016 0)
(-0.00226647256599 -0.119733342569 0)
(-0.00299931084231 -0.119071916473 0)
(-0.00369126632843 -0.118248532051 0)
(-0.00434272250482 -0.117272660631 0)
(-0.00495419685781 -0.116153660834 0)
(-0.00552632005279 -0.114900748751 0)
(-0.00605984198042 -0.113522970199 0)
(-0.0065556080983 -0.1120291747 0)
(-0.00701456399074 -0.110427992163 0)
(-0.00743772949681 -0.108727811959 0)
(-0.00782620240184 -0.106936765067 0)
(-0.00818113127388 -0.105062708986 0)
(-0.00850371906909 -0.103113215832 0)
(-0.00879519566855 -0.101095563325 0)
(-0.00905682216525 -0.0990167288221 0)
(-0.00928986404802 -0.0968833861377 0)
(-0.00949559686876 -0.0947019050615 0)
(-0.00967528093256 -0.092478353382 0)
(-0.00983016893447 -0.0902185010845 0)
(-0.0099614828975 -0.087927826579 0)
(-0.0100704242383 -0.0856115244226 0)
(-0.0101581535221 -0.0832745144708 0)
(-0.0102258031962 -0.0809214517144 0)
(-0.0102744604643 -0.0785567368301 0)
(-0.0103051826318 -0.0761845265679 0)
(-0.0103189830485 -0.0738087441466 0)
(-0.0103168486281 -0.0714330886876 0)
(-0.0102997284198 -0.069061044043 0)
(-0.0102685525114 -0.0666958860439 0)
(-0.0102242224586 -0.0643406887663 0)
(-0.0101676305171 -0.0619983288633 0)
(-0.0100996509731 -0.0596714888101 0)
(-0.0100211585875 -0.0573626581835 0)
(-0.00993301989159 -0.0550741340647 0)
(-0.0098361098551 -0.0528080197237 0)
(-0.00973130242495 -0.0505662228647 0)
(-0.00961948474102 -0.0483504526068 0)
(-0.00950154654171 -0.0461622166143 0)
(-0.00937839162842 -0.0440028174916 0)
(-0.00925092613086 -0.04187334992 0)
(-0.00912006729044 -0.0397746975635 0)
(-0.00898673088567 -0.037707531237 0)
(-0.008851837658 -0.0356723072283 0)
(-0.00871630037775 -0.033669267251 0)
(-0.00858102836742 -0.0316984387879 0)
(-0.00844691473903 -0.0297596372808 0)
(-0.00831483946559 -0.0278524687892 0)
(-0.00818565726045 -0.0259763345408 0)
(-0.00806019956581 -0.0241304358846 0)
(-0.00793926342583 -0.0223137810212 0)
(-0.00782361264101 -0.0205251918743 0)
(-0.0077139678973 -0.0187633123601 0)
(-0.00761100739177 -0.0170266161548 0)
(-0.00751535887484 -0.0153134149184 0)
(-0.00742760128143 -0.013621864667 0)
(-0.00734826241528 -0.011949970858 0)
(-0.00727783014487 -0.0102955905096 0)
(-0.00721677364866 -0.00865643885974 0)
(-0.00716559363092 -0.007030099899 0)
(-0.00712481559594 -0.0054140794862 0)
(-0.00709331363467 -0.00380440528202 0)
(-0.00703577402544 -0.00222445345218 0)
(-0.00631522900308 -0.000654378938721 0)
(0.0345555515927 -0.0031133053327 0)
(0.0382923493785 -0.0105321501532 0)
(0.0381347366247 -0.0178926034872 0)
(0.0375742396745 -0.0252610501619 0)
(0.0368207302255 -0.0324769273282 0)
(0.0358994145667 -0.0395116687354 0)
(0.0348271641635 -0.0463324561546 0)
(0.0336218009336 -0.0529107682309 0)
(0.0323019354356 -0.0592225838734 0)
(0.030886318292 -0.065248404494 0)
(0.029393257361 -0.0709730626951 0)
(0.0278401465281 -0.0763854175317 0)
(0.0262431209718 -0.0814779630075 0)
(0.0246168307626 -0.0862463891367 0)
(0.0229743270607 -0.0906891287508 0)
(0.0213270376598 -0.0948069170436 0)
(0.0196848190177 -0.0986023828849 0)
(0.0180560574828 -0.10207968454 0)
(0.0164478089864 -0.10524419576 0)
(0.0148659526296 -0.108102244013 0)
(0.0133153539472 -0.110660898381 0)
(0.011800018163 -0.112927802889 0)
(0.0103232363309 -0.114911048874 0)
(0.00888770901424 -0.116619079978 0)
(0.00749565639276 -0.118060622527 0)
(0.00614890233442 -0.119244635114 0)
(0.00484894578267 -0.120180271131 0)
(0.0035970083171 -0.120876849637 0)
(0.00239407414002 -0.121343830274 0)
(0.00124091112574 -0.121590789616 0)
(0.000138091933197 -0.121627392699 0)
(-0.000914007279937 -0.121463396475 0)
(-0.00191517990532 -0.121108547922 0)
(-0.00286540642794 -0.120572638643 0)
(-0.00376483791841 -0.119865427355 0)
(-0.0046137980994 -0.118996618754 0)
(-0.00541277326176 -0.11797582971 0)
(-0.00616241013681 -0.11681255726 0)
(-0.00686350266975 -0.115516147585 0)
(-0.0075169868637 -0.114095766843 0)
(-0.00812392428411 -0.112560374072 0)
(-0.00868549432208 -0.110918696802 0)
(-0.00920297528264 -0.109179209448 0)
(-0.00967773505944 -0.107350114883 0)
(-0.0101112109683 -0.105439329162 0)
(-0.0105048999726 -0.103454469576 0)
(-0.0108603384525 -0.101402845917 0)
(-0.0111790930595 -0.099291454971 0)
(-0.0114627415135 -0.0971269780351 0)
(-0.011712865059 -0.0949157813528 0)
(-0.0119310312674 -0.0926639192011 0)
(-0.0121187889368 -0.0903771393811 0)
(-0.0122776537404 -0.0880608908111 0)
(-0.0124091062659 -0.0857203328348 0)
(-0.0125145811573 -0.083360345909 0)
(-0.0125954687262 -0.0809855431659 0)
(-0.0126531079037 -0.0786002825077 0)
(-0.0126887914727 -0.0762086786645 0)
(-0.0127037626968 -0.0738146149183 0)
(-0.0126992237158 -0.0714217539234 0)
(-0.0126763351992 -0.0690335474453 0)
(-0.012636226962 -0.0666532445285 0)
(-0.012579999548 -0.0642838980954 0)
(-0.0125087357595 -0.0619283696194 0)
(-0.0124235028277 -0.0595893320921 0)
(-0.0123253634518 -0.0572692710834 0)
(-0.0122153772527 -0.0549704843236 0)
(-0.0120946100881 -0.0526950797324 0)
(-0.0119641337842 -0.0504449724811 0)
(-0.0118250329122 -0.0482218810899 0)
(-0.01167840227 -0.0460273232241 0)
(-0.0115253508111 -0.0438626111916 0)
(-0.0113669968534 -0.0417288478066 0)
(-0.0112044693345 -0.0396269225644 0)
(-0.0110389011364 -0.0375575087378 0)
(-0.0108714281661 -0.0355210612378 0)
(-0.010703181418 -0.0335178157677 0)
(-0.0105352845326 -0.0315477890065 0)
(-0.0103688452807 -0.0296107802681 0)
(-0.0102049522375 -0.0277063742696 0)
(-0.0100446663032 -0.0258339453806 0)
(-0.00988901703873 -0.0239926629023 0)
(-0.00973899472628 -0.0221814976807 0)
(-0.00959554682135 -0.0203992295087 0)
(-0.00945957104473 -0.0186444555454 0)
(-0.0093319125645 -0.0169155990951 0)
(-0.00921335909938 -0.0152109189189 0)
(-0.00910464054881 -0.0135285184876 0)
(-0.00900642924726 -0.0118663559046 0)
(-0.0089193474646 -0.0102222554299 0)
(-0.00884398082929 -0.00859392783545 0)
(-0.00878089641985 -0.00697899777741 0)
(-0.00873054102571 -0.00537506110877 0)
(-0.00869098488478 -0.00377815209255 0)
(-0.00861808852933 -0.00221144027425 0)
(-0.00772914444783 -0.000651490453504 0)
(0.041382068859 -0.00320676319854 0)
(0.045851444337 -0.010846473423 0)
(0.045651157774 -0.0184211085011 1.21842327551e-27)
(0.0449628463416 -0.0259964558089 0)
(0.0440389382878 -0.0334048082138 0)
(0.042910936379 -0.0406149678992 0)
(0.0416004235957 -0.0475920081917 0)
(0.0401300871027 -0.0543061324364 0)
(0.0385234414227 -0.0607328431069 0)
(0.0368039887305 -0.0668528778589 0)
(0.0349944786517 -0.0726518959865 0)
(0.0331163272353 -0.0781200343918 0)
(0.0311892066896 -0.0832513747387 0)
(0.0292307961246 -0.0880433726295 0)
(0.0272566761234 -0.0924962900607 0)
(0.0252803391837 -0.0966126624734 0)
(0.0233132902353 -0.100396820847 0)
(0.0213652071987 -0.103854480435 0)
(0.019444139726 -0.106992399703 0)
(0.0175567225557 -0.109818107829 0)
(0.0157083903804 -0.112339694831 0)
(0.0139035789349 -0.114565656514 0)
(0.0121459076813 -0.11650478482 0)
(0.0104383355673 -0.118166094343 0)
(0.00878329165963 -0.119558775639 0)
(0.00718277674297 -0.120692167186 0)
(0.00563844199802 -0.121575738552 0)
(0.00415164344656 -0.122219079025 0)
(0.00272348057058 -0.122631887169 0)
(0.00135481826498 -0.122823957061 0)
(4.6306730445e-05 -0.122805161598 0)
(-0.00120163210331 -0.122585460601 0)
(-0.00238876998225 -0.122174788041 0)
(-0.00351509378935 -0.121583131874 0)
(-0.00458079666985 -0.120820438651 0)
(-0.00558627584494 -0.119896596935 0)
(-0.00653212587637 -0.118821401074 0)
(-0.00741913262897 -0.117604517355 0)
(-0.00824826185301 -0.116255451152 0)
(-0.00902064866279 -0.114783515913 0)
(-0.00973758190579 -0.113197804557 0)
(-0.010400490092 -0.111507163746 0)
(-0.0110109228212 -0.10972017136 0)
(-0.0115705345924 -0.107845117401 0)
(-0.012081064809 -0.105889988445 0)
(-0.012544320965 -0.103862455682 0)
(-0.0129621586887 -0.101769866525 0)
(-0.013336465666 -0.0996192396842 0)
(-0.0136691430194 -0.09741726357 0)
(-0.0139620911639 -0.0951702978329 0)
(-0.0142171936631 -0.0928843778196 0)
(-0.0144363060768 -0.0905652216254 0)
(-0.0146212433048 -0.0882182394539 0)
(-0.0147737723305 -0.0858485448408 0)
(-0.0148956038529 -0.0834609673679 0)
(-0.014988389542 -0.0810600663204 0)
(-0.0150537183767 -0.078650144849 0)
(-0.0150931185422 -0.0762352640422 0)
(-0.0151080583115 -0.0738192564781 0)
(-0.0150999520696 -0.0714057386895 0)
(-0.0150701648993 -0.0689981222051 0)
(-0.0150200215602 -0.0665996227358 0)
(-0.0149508133451 -0.0642132673461 0)
(-0.0148638083584 -0.0618418993811 0)
(-0.0147602588825 -0.0594881812141 0)
(-0.0146414111571 -0.0571545948152 0)
(-0.0145085115431 -0.0548434404251 0)
(-0.0143628142425 -0.0525568335227 0)
(-0.0142055849571 -0.050296700526 0)
(-0.0140381055401 -0.0480647735287 0)
(-0.0138616744863 -0.0458625845774 0)
(-0.0136776081831 -0.0436914597989 0)
(-0.0134872382437 -0.0415525138587 0)
(-0.0132919096481 -0.0394466449864 0)
(-0.0130929754572 -0.0373745309657 0)
(-0.0128917925479 -0.0353366261983 0)
(-0.0126897145347 -0.0333331601302 0)
(-0.0124880859712 -0.0313641370213 0)
(-0.0122882343605 -0.0294293372471 0)
(-0.0120914636582 -0.0275283199966 0)
(-0.0118990461554 -0.0256604274819 0)
(-0.0117122159881 -0.0238247904333 0)
(-0.0115321615354 -0.0220203349448 0)
(-0.0113600195292 -0.0202457903775 0)
(-0.0111968685696 -0.0184996983583 0)
(-0.0110437245181 -0.0167804225603 0)
(-0.0109015360298 -0.0150861593729 0)
(-0.010771182498 -0.0134149494279 0)
(-0.0106534733895 -0.0117646905791 0)
(-0.0105491509706 -0.0101331536169 0)
(-0.010458894745 -0.00851800691954 0)
(-0.0103833183111 -0.00691684096716 0)
(-0.0103228130735 -0.00532720437103 0)
(-0.0102748403743 -0.00374500244891 0)
(-0.010186964405 -0.00219290357205 0)
(-0.00913373400529 -0.000646351870581 0)
(0.0484315223842 -0.00332034222686 0)
(0.0536534450502 -0.0112285481826 0)
(0.0534021268704 -0.0190633578946 -1.21777456431e-27)
(0.052571920805 -0.0268892950075 0)
(0.051459801778 -0.0345297463784 0)
(0.0501045127799 -0.0419502341201 0)
(0.048533306183 -0.0491133071324 0)
(0.0467746800578 -0.0559877490401 0)
(0.0448579188616 -0.0625486804825 0)
(0.0428120125542 -0.0687773653565 0)
(0.0406647312728 -0.0746607222746 0)
(0.0384419252962 -0.0801906877044 0)
(0.0361670567701 -0.0853634925779 0)
(0.0338609452096 -0.090178918514 0)
(0.0315416959088 -0.0946395849337 0)
(0.0292247720816 -0.0987503026602 0)
(0.0269231715624 -0.10251751512 0)
(0.024647670268 -0.105948835838 0)
(0.0224071013329 -0.109052681736 0)
(0.020208643597 -0.11183799523 0)
(0.0180581010733 -0.114314044399 0)
(0.0159601591163 -0.116490288496 0)
(0.0139186096609 -0.118376295641 0)
(0.0119365401306 -0.119981699871 0)
(0.0100164857525 -0.121316185676 0)
(0.00816054565979 -0.122389489534 0)
(0.0063704672001 -0.123211409599 0)
(0.00464770213395 -0.12379181663 0)
(0.00299344136455 -0.124140661396 0)
(0.00140863234736 -0.124267969904 0)
(-0.000106007600632 -0.124183857503 0)
(-0.00155000854145 -0.123898478783 0)
(-0.00292312539491 -0.12342201524 0)
(-0.00422535419424 -0.122764670864 0)
(-0.0054569329951 -0.121936614825 0)
(-0.00661833835284 -0.120947953244 0)
(-0.0077102801479 -0.119808691637 0)
(-0.00873369375966 -0.11852869823 0)
(-0.00968972823469 -0.117117668456 0)
(-0.0105797323233 -0.115585091571 0)
(-0.0114052371889 -0.113940220012 0)
(-0.0121679378932 -0.11219204206 0)
(-0.0128696724971 -0.110349258122 0)
(-0.0135124009512 -0.108420260876 0)
(-0.0140981825538 -0.106413119372 0)
(-0.0146291541381 -0.104335567127 0)
(-0.0151075076645 -0.102194994126 0)
(-0.0155354693366 -0.0999984426486 0)
(-0.0159152788362 -0.0977526067225 0)
(-0.0162491707656 -0.0954638350328 0)
(-0.0165393568487 -0.093138137001 0)
(-0.0167880109596 -0.0907811917652 0)
(-0.0169972555002 -0.0883983596665 0)
(-0.0171691511494 -0.085994695849 0)
(-0.0173056884359 -0.0835749654553 0)
(-0.017408783037 -0.081143659898 0)
(-0.0174802731239 -0.078705013594 0)
(-0.0175219204526 -0.076263020568 0)
(-0.017535413333 -0.0738214503011 0)
(-0.017522372922 -0.0713838622577 0)
(-0.0174843607849 -0.0689536185776 0)
(-0.0174228889309 -0.0665338945152 0)
(-0.0173394301456 -0.0641276863375 0)
(-0.0172354296636 -0.0617378165077 0)
(-0.01711231601 -0.0593669361523 0)
(-0.0169715120102 -0.0570175249199 0)
(-0.0168144439444 -0.0546918885023 0)
(-0.0166425499146 -0.052392154161 0)
(-0.0164572856654 -0.0501202647177 0)
(-0.016260129062 -0.0478779714855 0)
(-0.016052581781 -0.0456668266641 0)
(-0.0158361695523 -0.0434881756795 0)
(-0.0156124398041 -0.0413431499382 0)
(-0.0153829581233 -0.0392326603831 0)
(-0.0151493026108 -0.0371573921836 0)
(-0.0149130575248 -0.0351178008044 0)
(-0.0146758054389 -0.033114109625 0)
(-0.0144391192079 -0.0311463092127 0)
(-0.0142045530495 -0.0292141582835 0)
(-0.0139736338889 -0.0273171863422 0)
(-0.0137478523247 -0.0254546979385 0)
(-0.0135286542115 -0.0236257784617 0)
(-0.0133174322705 -0.0218293013531 0)
(-0.0131155185884 -0.0200639366267 0)
(-0.0129241775058 -0.0183281605709 0)
(-0.0127445996635 -0.0166202665452 0)
(-0.0125778968408 -0.014938376842 0)
(-0.0124250982697 -0.0132804557461 0)
(-0.0122871481077 -0.0116443242662 0)
(-0.0121649042335 -0.0100276772652 0)
(-0.012059136579 -0.0084281066925 0)
(-0.011970513586 -0.0068431208345 0)