/*--------------------------------*- C++ -*----------------------------------*\
| =========                 |                                                 |
| \\      /  F ield         | OpenFOAM: The Open Source CFD Toolbox           |
|  \\    /   O peration     | Version:  v1906                                 |
|   \\  /    A nd           | Web:      www.OpenFOAM.com                      |
|    \\/     M anipulation  |                                                 |
\*---------------------------------------------------------------------------*/
FoamFile
{
    version     2.0;
    format      ascii;
    class       volScalarField;
    location    "156";
    object      pa;
}
// * * * * * * * * * * * * * * * * * * * * * * * * * * * * * * * * * * * * * //

dimensions      [0 2 -2 0 0 0 0];


internalField   nonuniform List<scalar> 
9216
(
957.364238651
957.053795575
956.411582678
955.431575727
954.118962207
952.479107461
950.519149283
948.247053946
945.672422589
942.805367549
939.657483174
936.240569605
932.567734049
928.651997198
924.507499663
920.148032079
915.588318909
910.842511593
905.925518814
900.851500342
895.635211119
890.290529533
884.831782106
879.272336935
873.625877506
867.90508778
862.122846078
856.291025239
850.421581171
844.52548825
838.613702149
832.696246187
826.783033426
820.883113166
815.00533729
809.157782858
803.348254627
797.583881799
791.871453658
786.217193662
780.626925811
775.106024262
769.659411812
764.291679814
759.00692386
753.809026069
748.701334939
743.687099405
738.769003237
733.949737577
729.231402689
724.616203455
720.10573321
715.701774946
711.40548485
707.218279837
703.140939431
699.174559846
695.319594851
691.576855509
687.946510494
684.429111251
681.024573608
677.733207662
674.554701171
671.489135774
668.535991494
665.695131141
662.96584456
660.347786702
657.840075765
655.442172114
653.153043003
650.971972074
648.897800278
646.929658786
645.066291603
643.306707521
641.649587673
640.093854303
638.63816335
637.281390083
636.022203949
634.859472412
633.791912816
632.818415046
631.937759888
631.148854101
630.450487299
629.841456754
629.320255059
628.884739973
628.529184248
628.265012574
628.121192586
628.073982874
957.673912415
957.36186096
956.718222664
955.734226051
954.415822134
952.768764186
950.800218159
948.518420773
945.932943226
943.054192242
939.89371323
936.463624453
932.776964841
928.84708419
924.688033223
920.313930589
915.739388484
910.978875332
906.047167873
900.958725054
895.728154581
890.369611208
884.897265084
879.324734857
873.665544745
867.932601384
862.138627031
856.295687778
850.415592129
844.50947698
838.588163982
832.661807833
826.740200702
820.832489734
814.947428945
809.093162423
803.277416893
797.507357064
791.789716905
786.130725105
780.536174271
775.011414858
769.561362451
764.19055802
758.903114196
753.702838137
748.593119028
743.577108643
738.657554183
733.837030583
729.117722481
724.501702471
719.990667334
715.586254922
711.289741332
707.102388625
703.025109823
699.058839919
695.204176476
691.461765701
687.831926709
684.315045621
680.911191729
677.620511707
674.442846077
671.378117366
668.425954514
665.586067371
662.857887496
660.240924841
657.73442951
655.337726368
653.049902917
650.870117727
648.797318823
646.830523737
644.96856977
643.21036403
641.554667036
640.000311726
638.546020356
637.190591889
635.932750385
634.77130165
633.705009974
632.732723525
631.853275596
631.065576772
630.368532905
629.761112159
629.242299614
628.811155648
628.466365683
628.212577279
628.073762577
628.026619257
958.317894632
958.001335109
957.35240704
956.360442269
955.031428018
953.371279717
951.387275878
949.087903537
946.482873337
943.582878735
940.399611634
936.945493778
933.233702963
929.277891445
925.092229168
920.691121805
916.089273826
911.301415712
906.342386593
901.226877162
895.969529063
890.584697443
885.086562002
879.48891143
873.80526053
868.048657391
862.231801141
856.36687269
850.465647791
844.539352954
838.598771014
832.654121707
826.715155887
820.791063275
814.890555019
809.021795676
803.192470501
797.409744708
791.680314196
786.010389765
780.40573083
774.871653731
769.413047483
764.034404834
758.739819659
753.53303902
748.417442144
743.396111661
738.471794813
733.646990167
728.923892675
724.304494426
719.790512874
715.383502847
711.084771395
706.895497199
702.81663335
698.849032525
694.993340079
691.250122016
687.619751205
684.102536218
680.698603649
677.408025546
674.230701031
671.166480978
668.215051439
665.376053394
662.648971953
660.033250766
657.528187937
655.133044374
652.846949018
650.668998623
648.598174761
646.633436285
644.773645981
643.01765516
641.36424251
639.812188861
638.360228133
637.007113265
635.751575991
634.592384376
633.52831201
632.558185777
631.680865826
630.895286692
630.200451469
629.595493532
629.079774751
628.653103395
628.316102515
628.072974357
627.934432072
627.882480894
959.307496197
958.985849781
958.328669203
957.324244167
955.978713141
954.298202175
952.290223323
949.963573195
947.328257925
944.395329754
941.176801799
937.68547071
933.934832812
929.938904645
925.712150025
921.269308505
916.625339146
911.795263909
906.794130461
901.636873809
896.338297742
890.912955493
885.375146955
879.738817239
874.017565624
868.224560391
862.372555571
856.473820506
850.540161696
844.582866118
838.612726722
832.639998642
826.674425601
820.725210463
814.801042455
808.910078931
803.059972037
797.257862668
791.510404941
785.82377066
780.203671621
774.655373616
769.183715049
763.793129589
758.487659447
753.270986773
748.146441654
743.117038604
738.185479817
733.354195928
728.625343184
724.000847718
719.482396118
715.071481975
710.769390112
706.577243315
702.495981391
698.526407629
694.669162399
690.924768575
687.293601088
683.775930942
680.371891895
677.081522684
673.904732575
670.841341841
667.891047091
665.053459641
662.328073444
659.71430199
657.211448681
654.81874276
652.535312967
650.360222157
648.292446455
646.33090777
644.474457563
642.721908417
641.072022543
639.523541491
638.075179495
636.725650832
635.473666911
634.317962448
633.257295292
632.290471682
631.416353716
630.63388337
629.942107001
629.340230473
628.827722672
628.404433024
628.070828633
627.828617533
627.680572022
627.618910568
960.64634219
960.318194047
959.649748251
958.628272147
957.260154403
955.551812975
953.511103101
951.147227974
948.470623776
945.492812973
942.226276481
938.684299334
934.880842552
930.830392499
926.547843198
922.048358971
917.347274378
912.459975703
907.401821671
902.188045984
896.833698888
891.353569668
885.762146014
880.073553988
874.301531161
868.459379825
862.559950746
856.615607615
850.638218822
844.639131128
838.629168765
832.618616096
826.617221811
820.634191077
814.678195118
808.757369966
802.879330836
797.051177653
791.279512323
785.57045004
779.92963881
774.362275877
768.873127671
763.466551011
758.14651247
752.916612904
747.780106015
742.739924606
737.798697417
732.958775729
728.222248511
723.590968326
719.066562984
714.650460453
710.343897057
706.147939835
702.063490577
698.091306738
694.232001452
690.486061207
686.85384277
683.335588742
679.931421683
676.64135759
673.465299228
670.403047305
667.454292501
664.618626984
661.895537899
659.284417515
656.784558407
654.395165154
652.115350142
649.944146375
647.880506926
645.923318654
644.071403861
642.323535388
640.678440688
639.134818427
637.691344651
636.346689393
635.099526135
633.948548486
632.892480013
631.930094441
631.060229431
630.281808669
629.59386687
628.995600838
628.486416288
628.065964483
627.73419072
627.491287986
627.337330148
627.266107787
962.340526678
962.004173348
961.32132527
960.278003428
958.880949681
957.136969514
955.054378087
952.642903195
949.913549074
946.878440441
943.550672969
939.944152829
936.073449167
931.953640897
927.600182871
923.028769968
918.255224264
913.295381658
908.165003374
902.879686677
897.454799807
891.90541498
886.246262756
880.491682831
874.655592618
868.751450234
862.79223412
856.790416013
850.757947373
844.706241275
838.646166017
832.588035235
826.541607265
820.516083497
814.520114769
808.561805512
802.648725373
796.787919125
790.985922572
785.248777252
779.582049076
773.99084777
768.479846892
763.053306398
757.71509413
752.46870967
747.317305987
742.263714823
737.310467051
732.459817846
727.713765281
723.074073685
718.542290406
714.119766542
709.807670523
705.607005639
701.518619323
697.543218757
693.681376222
689.93354053
686.300038984
682.781087074
679.376786748
676.087135026
672.912020261
669.851225723
666.904428834
664.071206744
661.351032198
658.743277887
656.247217506
653.862031416
651.586805738
649.420541002
647.362156836
645.410500554
643.564353075
641.822439889
640.183440547
638.646001739
637.208747011
635.870291618
634.629255929
633.48427899
632.434033787
631.477244581
630.612702695
629.839286828
629.155983852
628.561927491
628.056402718
627.638853893
627.308859753
627.066012454
626.909847515
626.835520562
964.397767714
964.051325805
963.350729875
962.280474901
960.847754609
959.059872637
956.925730201
954.455717962
951.661556503
948.556124871
945.153287794
941.467723605
937.514756246
933.310195488
928.870186718
924.211073495
919.349272544
914.301164019
909.082994798
903.710797073
898.200318775
892.566966783
886.82575897
880.991285579
875.077675582
869.098569466
863.0670959
856.995852356
850.896888405
844.781693228
838.661186764
832.545714261
826.445043983
820.368369612
814.324315687
808.320945162
802.365770875
796.465767996
790.627390594
784.856588183
779.158825986
773.539105207
768.001985569
762.551607753
757.191717563
751.925690231
746.756555263
741.687020575
736.719496714
731.856120968
727.098779764
722.449130557
717.908621877
713.47851171
709.159885583
704.953670242
700.860647513
696.881465014
693.016645849
689.26659525
685.631605403
682.111862622
678.707446077
675.418329688
672.244385062
669.185378478
666.240973773
663.410731811
660.694108169
658.090454332
655.599021985
653.218963281
650.949332638
648.789093405
646.73712331
644.79222194
642.953119336
641.218484463
639.586936486
638.057058275
636.627407686
635.296532008
634.062983175
632.925331736
631.882183087
630.932194788
630.074092747
629.306690088
628.628901843
628.039768862
627.53845619
627.12424606
626.796504115
626.554602587
626.39805097
626.322817248
966.827544044
966.468950414
965.747004392
964.644348153
963.16874358
961.328115731
959.132097462
956.591899216
953.720126399
950.530581757
947.038071311
943.258209756
939.207236731
934.901839662
930.358993912
925.59581337
920.629422091
915.476837942
910.154878265
904.680077193
899.068622678
893.336301907
887.498462368
881.569975694
875.565212444
869.498017578
863.381691814
857.228973116
851.052023529
844.862416374
838.67112959
832.488541113
826.324428481
820.187972123
814.087762773
808.031810778
802.027559088
796.081897834
790.201181667
784.391249189
778.657444317
773.004638168
767.437252642
761.959285906
756.574337503
751.285634432
746.096056936
741.008165816
736.024227128
731.14623858
726.375952375
721.714899524
717.164409851
712.725633039
708.399554925
704.187014215
700.088714312
696.105235357
692.237042584
688.484494535
684.847844187
681.327244325
677.922746442
674.634304681
671.461772393
668.40490172
665.463339951
662.636632268
659.924216035
657.32542127
654.839474193
652.465495953
650.202503328
648.049417484
646.005066973
644.06819611
642.23747293
640.511498774
638.888821103
637.367946668
635.9473527
634.625504561
633.400870323
632.271936133
631.237223886
630.295307404
629.444830543
628.684521099
628.013207181
627.429830857
626.933449763
626.523224401
626.198396557
625.958262774
625.802409096
625.727282167
969.641250978
969.268242769
968.521017775
967.380017346
965.85369995
963.950759949
961.68172876
959.058820441
956.095715627
952.807335425
949.209616758
945.319296073
941.153701028
936.730559423
932.067821327
927.183503171
922.095548072
916.821710446
911.379456996
905.785891534
900.057693109
894.211073643
888.261742082
882.224881148
876.115125497
869.946545944
863.732631667
857.486277027
851.219766845
844.944767249
838.672318219
832.412831188
826.176089675
819.971254101
813.806871822
807.690888235
801.630661509
795.632979123
789.704077725
783.849664209
778.074938679
772.384617996
766.782962483
761.273802056
755.860564001
750.546300256
745.333716684
740.225200697
735.222849277
730.328495271
725.543734762
720.869950157
716.308333932
711.85990867
707.525546247
703.305982946
699.20183356
695.21360102
691.341689836
687.586403921
683.947951314
680.426450745
677.021929363
673.734320207
670.563461086
667.509088334
664.570836651
661.748236593
659.040707021
656.447555975
653.967982956
651.601074287
649.345806377
647.201051443
645.1655821
643.23807787
641.417135035
639.701276519
638.088965318
636.578616458
635.168613516
633.857323971
632.643115982
631.524375127
630.499522598
629.567032449
628.72544842
627.97340013
627.309617663
626.732941658
626.242327996
625.836842746
625.515650322
625.278006175
625.123575684
625.049106068
972.852378646
972.462443886
971.685616627
970.499739441
968.914128645
966.938421604
964.584248536
961.865040563
958.795776144
955.392714757
951.673141072
947.655116732
943.357250732
938.798484415
933.997901587
928.974556637
923.747331269
918.334811292
912.755192919
907.02620789
901.165074511
895.188461245
889.112466918
882.952604436
876.723792398
870.440342424
864.115948718
857.76367358
851.39593617
845.024501649
838.660475828
832.314302261
825.995765341
819.713997098
813.47748998
807.294109807
801.171112726
795.115165119
789.132364503
783.228263007
777.407892385
771.675790746
766.036029551
760.492243077
755.047657994
749.70512425
744.467144367
739.335904855
734.313306114
729.400991517
724.600375272
719.912669374
715.338907377
710.879967249
706.536589982
702.309396976
698.198902313
694.205528447
690.329606701
686.571381454
682.931018278
679.408602951
676.00413716
672.717536653
669.548624843
666.497127879
663.562670123
660.744768505
658.042826737
655.456132747
652.983856379
650.625048345
648.378640258
646.243450378
644.218187655
642.301458299
640.491775899
638.787572746
637.187212911
635.689006267
634.291226066
632.992125236
631.789955543
630.682983895
629.669514216
628.747902725
627.916578698
627.174059831
626.518966535
625.950032956
625.466116091
625.066197666
624.749382176
624.514890784
624.362425125
624.288968966
976.476726931
976.067054576
975.255807072
974.017796499
972.363387266
970.30337485
967.850726724
965.020346404
961.828767718
958.293844529
954.434452139
950.270208663
945.821214157
941.107816847
936.150401055
930.969206603
925.584172319
920.014814189
914.280128841
908.398530777
902.387810864
896.265119192
890.046957492
883.749183097
877.387008042
870.97499881
864.527065761
858.056452771
851.575722462
845.096746051
838.630697331
832.188048953
825.778578573
819.411379855
813.094875987
806.836835975
800.644395591
794.524078192
788.481819102
782.522990823
776.652431182
770.874470675
765.192963541
759.611318763
754.132533025
748.759222625
743.493656867
738.337791595
733.293301679
728.361612212
723.543930113
718.841271732
714.254490527
709.784299437
705.431292867
701.195963113
697.078717854
693.079883429
689.199712628
685.438392907
681.796047243
678.272728224
674.868416999
671.583014178
668.416335775
665.368103843
662.437936003
659.625341304
656.929711592
654.350315581
651.886295838
649.53666381
647.300304553
645.175978094
643.162321681
641.257857767
639.461006584
637.770096641
636.183377686
634.699039123
633.315227263
632.030062588
630.841660112
629.748151662
628.747703395
627.838537973
627.018952979
626.287339856
625.642197409
625.082146723
624.605943514
624.212482257
623.900803654
623.670104085
623.520067451
623.447890391
980.532670452
980.10007117
979.248981881
977.950687214
976.216843581
974.059667856
971.49375787
968.535793042
965.204168004
961.518623832
957.499906107
953.169445109
948.549068209
943.660737449
938.526322298
933.167399403
927.605091415
921.859936573
915.951800533
909.899819195
903.722378843
897.43711619
891.060938585
884.610045355
878.099947599
871.545472814
864.960761057
858.359249561
851.753656508
845.155965056
838.577417993
832.02851267
825.519010794
819.057953579
812.653677615
806.313836392
800.045422778
793.854793789
787.747696907
781.729298516
775.804212755
769.976532971
764.249865078
758.627361005
753.111753487
747.705393202
742.410283006
737.228115641
732.160308096
727.20803775
722.372274482
717.653813823
713.053304142
708.571274013
704.208153627
699.964296099
695.839984109
691.835442248
687.950844981
684.186322926
680.541955552
677.017766302
673.613720441
670.329714972
667.165564991
664.120992849
661.195619723
658.388953849
655.700379873
653.129151794
650.674383782
648.335052129
646.109993051
643.997900432
641.997330958
640.106716226
638.324370394
636.64850344
635.077236379
633.608620557
632.240654315
630.971306415
629.798537188
628.720320488
627.73466714
626.839645597
626.033405212
625.314193836
624.680375867
624.130449217
623.663059937
623.27701054
622.971270665
622.744989178
622.597823677
622.527161271
985.041484063
984.582303317
983.685193549
982.317360882
980.492057336
978.223255477
975.527542686
972.423742975
968.93246981
965.07569343
960.876343714
956.357953237
951.544333753
946.459292242
941.126377969
935.568670247
929.808600752
923.867823835
917.767127534
911.526396237
905.164608798
898.699875143
892.149486131
885.529969209
878.857126132
872.146052397
865.411129758
858.66600675
851.923569788
845.195922847
838.494377552
831.829449637
825.210871636
818.647614284
812.14790805
805.719267226
799.368517629
793.101823627
786.924717488
780.84212864
774.858417227
768.977406879
763.20242115
757.536319171
751.981535665
746.540118478
741.213768739
736.00387976
730.911576986
725.93775553
721.083118055
716.348209091
711.733447589
707.239154843
702.865583681
698.612925063
694.481328018
690.47091396
686.581776623
682.813986582
679.167585003
675.642575247
672.238917503
668.956511141
665.795179825
662.754661677
659.834590656
657.034483216
654.353725379
651.791558474
649.347077607
647.019224441
644.806780485
642.708367706
640.722459336
638.847383553
637.081335641
635.422391687
633.868526026
632.41763123
631.06753904
629.81604448
628.6609298
627.599989848
626.631057174
625.752026344
624.960876701
624.255696145
623.634698816
623.096247009
622.638864334
622.261249739
621.962291404
621.741082402
621.597230581
621.52830886
990.027750698
989.537741547
988.587490549
987.139492145
985.208991948
982.812142884
979.967972106
976.697893624
973.025165865
968.974379442
964.571007161
959.84100247
954.810449012
949.505246547
943.950840413
938.171984578
932.19255435
926.035404392
919.722289547
913.273840771
906.709602276
900.048106969
893.306981407
886.503041469
879.652364884
872.770318019
865.871545823
858.969931311
852.078551138
845.209640919
838.37458047
831.583893489
824.847264981
818.173573772
811.570918312
805.046647748
798.607393146
792.259097541
786.007046521
779.855902204
773.809736115
767.872066591
762.045897744
756.333759108
750.737746968
745.259568321
739.900582353
734.661844718
729.544150159
724.548075681
719.674020657
714.92224809
710.292918493
705.786127674
701.401922551
697.14031883
693.001327639
688.984959906
685.091225985
681.320142526
677.671719132
674.145948372
670.742796528
667.46217891
664.303945549
661.267864827
658.353595945
655.56067745
652.888503023
650.33631616
647.903197891
645.588052763
643.389605402
641.306407412
639.336837271
637.479109194
635.731285044
634.091290077
632.556932253
631.125924101
629.795907384
628.564479088
627.429219125
626.387717198
625.437605069
624.576578664
623.802425919
623.113054823
622.506511578
621.981004775
621.534922183
621.166847769
620.875576796
620.660124816
620.52004387
620.453102382
995.519869141
994.994034698
993.982324722
992.441810256
990.390252796
987.846539352
984.832702029
981.373290137
977.49470675
973.224613965
968.591424296
963.623866789
958.350606147
952.799910266
946.99935114
940.975549039
934.753958565
928.358719222
921.8125733
915.136869534
908.351641116
901.475751453
894.527068212
887.522630489
880.478761538
873.411110737
866.334619168
859.263447983
852.210896414
845.189348413
838.210249211
831.284112905
824.420553015
817.628326184
810.915369092
804.288834666
797.75512898
791.319941346
784.988280068
778.764503686
772.652359277
766.655021578
760.775135254
755.014857988
749.375906588
743.859603191
738.466922528
733.198538786
728.054874772
723.0361472
718.142413747
713.373619535
708.729642947
704.21031714
699.815463393
695.544915059
691.398533514
687.376212752
683.477882884
679.703514714
676.053094241
672.526615106
669.124070407
665.845408316
662.690527169
659.659240287
656.75125374
653.966140239
651.303322265
648.762055153
646.341408316
644.040251523
641.857259581
639.790905279
637.839464925
636.001026189
634.273502088
632.654647967
631.14208324
629.733316743
628.42577354
627.216826486
626.103822154
625.084121952
624.155126958
623.314308253
622.55923893
621.887623335
621.29731793
620.786361588
620.352989751
619.995653787
619.713040448
619.504088522
619.368267567
619.303548263
1001.55070377
1000.98307337
999.900053016
998.252484645
996.061353207
993.349009606
990.141211319
986.466305575
982.354427713
977.8368162
972.945261815
967.711647223
962.167556185
956.343918925
950.270693588
943.976573359
937.488744826
930.832708355
924.032196215
917.109196429
910.084097397
902.975924695
895.802632843
888.581373214
881.328677302
874.060501878
866.792153223
859.538142919
852.312047523
845.126423127
837.99277096
830.921566134
823.922315486
817.003614933
810.173200672
803.437995585
796.80414609
790.277057085
783.861423037
777.561263571
771.379961651
765.320306564
759.384539738
753.574402436
747.891184986
742.335778273
736.908724567
731.610270365
726.440418362
721.398979363
716.485623064
711.699944775
707.041495682
702.509815831
698.104488588
693.825148991
689.67149654
685.643305768
681.740434246
677.962811996
674.310413567
670.783261884
667.381388919
664.104806115
660.953480877
657.927301151
655.02604124
652.249329798
649.596634186
647.067233427
644.66019427
642.374364375
640.2083647
638.160586074
636.22919312
634.4121342
632.707155715
631.111821747
629.623538527
628.239583744
626.957135974
625.773310716
624.685195563
623.689889004
622.784530656
621.966337197
621.232639966
620.580913282
620.008802614
619.514153652
619.095029945
618.749739198
618.476846107
618.275185337
618.144151357
618.08192005
1008.15841461
1007.54173732
1006.37555352
1004.60357682
1002.25099725
999.344610027
995.914818934
991.99457653
987.618423597
982.821732409
977.640132463
972.10905966
966.263368335
960.136975512
953.762510634
947.170983167
940.391481507
933.450951478
926.374086219
919.18337826
911.899341311
904.540891489
897.125813041
889.671200217
882.193743094
874.70977428
867.235093151
859.784694414
852.372518081
845.01131866
837.712632597
830.486847978
823.343308834
816.290396614
809.335602924
802.485580188
795.746183411
789.122497282
782.618869326
776.238940215
769.985687225
763.861468784
757.868075475
752.006782548
746.278403832
740.683347066
735.221670684
729.893140435
724.697287675
719.633463823
714.700904587
709.8987984
705.226333189
700.682721166
696.267292683
691.979477411
687.818799379
683.784909498
679.877589368
676.096745095
672.44237337
668.914535184
665.513339205
662.238892518
659.09126309
656.07043897
653.176288387
650.408530757
647.766697881
645.250109902
642.857847132
640.588736383
638.441349186
636.413989542
634.504701378
632.711278784
631.031282065
629.462060257
628.000776552
626.64444542
625.389967085
624.23416763
623.173838106
622.205776123
621.32682595
620.533916802
619.824107904
619.194615612
618.642847049
618.166431771
617.763243946
617.431424109
617.169401188
616.97590772
616.850231897
616.790763551
1015.387553
1014.71285867
1013.44898935
1011.5315605
1008.99136287
1005.86097583
1002.17663374
997.976861202
993.301360266
988.190216183
982.683361442
976.820176996
970.639152851
964.177538672
957.470968894
950.553058442
943.455017113
936.205333461
928.829612075
921.350629354
913.78866327
906.162076506
898.488070865
890.78341366
883.064906728
875.349408402
867.653462158
859.99277408
852.381785314
844.833471521
837.359350634
829.969636943
822.673423915
815.478809761
808.392985736
801.422295489
794.572268192
787.847640679
781.25237664
774.789698883
768.462132087
762.271554909
756.219255059
750.305987767
744.532034994
738.897265623
733.401196773
728.043056798
722.821848508
717.73641199
712.785463485
707.967722459
703.282009308
698.727191668
694.302329298
690.006585448
685.839255996
681.799883933
677.888211279
674.10415774
670.447737315
666.919103067
663.518489954
660.246120762
657.102216568
654.086889668
651.200153235
648.441842056
645.811572583
643.308736562
640.932434417
638.681486309
636.554418198
634.549442885
632.664470971
630.897126979
629.244762737
627.704482042
626.273174852
624.947558815
623.72421779
622.599644684
621.570292259
620.63261876
619.783131441
619.018438702
618.335291937
617.730615636
617.201551926
616.745487287
616.360083
616.043300433
615.793415765
615.609029567
615.48933428
615.432939658
1023.29051845
1022.54646902
1021.16676085
1019.0779022
1016.31834516
1012.92831151
1008.95138269
1004.43278963
999.41819218
993.95294701
988.081701662
981.848140456
975.294740921
968.462466365
961.390349338
954.11499022
946.670017132
939.085614131
931.388229318
923.600602811
915.74221004
907.830151485
899.880367299
891.908867532
883.932533954
875.969079496
868.036261803
860.150901522
852.328143524
844.581183291
836.921388294
829.358639709
821.901651672
814.558146172
807.334955913
800.238076537
793.27269107
786.443162356
779.753040827
773.205087362
766.801324745
760.543095989
754.431128901
748.465600198
742.646199602
736.972195536
731.44250273
726.05574834
720.810350423
715.704553452
710.736440799
705.904411271
701.206829043
696.641955839
692.208494406
687.905381714
683.731791504
679.687164018
675.771220611
671.983876026
668.325245989
664.795613427
661.395358323
658.124884324
654.984591097
651.974764737
649.095630216
646.347154966
643.729092284
641.240913936
638.881764912
636.65047616
634.545526827
632.565028139
630.706753358
628.968138425
627.34629742
625.838058407
624.440005962
623.148515106
621.959805484
620.869993349
619.875146044
618.971334916
618.154688738
617.421454131
616.768031248
616.191018263
615.687260962
615.25387627
614.88829149
614.58826003
614.351890346
614.177659419
614.064627794
614.01163058
1031.92956055
1031.10149358
1029.58269768
1027.28967691
1024.27168148
1020.57919045
1016.2650469
1011.382447
1005.98376787
1000.12007435
993.841017466
987.194844999
980.228346134
972.986610355
965.51256703
957.846318353
950.024363319
942.078842831
934.037004956
925.921104785
917.748956423
909.535249995
901.293525651
893.03831456
884.786603476
876.557643454
868.371303017
860.246204709
852.198487831
844.241468029
836.386065168
828.641548271
821.016059436
813.516838511
806.150298664
798.922065982
791.836971918
784.899001639
778.111262914
771.476009435
764.994703228
758.668090049
752.496273318
746.47878743
740.614665401
734.902508771
729.340560904
723.926772177
718.658895057
713.534701724
708.551667742
703.707338532
698.999271573
694.425451066
689.984322964
685.6745787
681.495241527
677.44567788
673.525543231
669.734794463
666.073706877
662.542732681
659.142461228
655.87350475
652.736503568
649.732031191
646.860522396
644.12214455
641.516829871
639.044156769
636.703358117
634.493267696
632.412324353
630.458540602
628.629539108
626.922533646
625.33438091
623.861597084
622.500412004
621.246813098
620.09660434
619.045469995
618.089039453
617.222941086
616.442881091
615.744689858
615.124374554
614.578170063
614.102589856
613.694452695
613.350919671
613.069527918
612.848197473
612.685248423
612.579626001
612.530395283
1041.379574
1040.44803115
1038.75956876
1036.22013403
1032.89480847
1028.84801867
1024.14418535
1018.84572936
1013.01228979
1006.70080302
999.96595318
992.860642929
985.436227217
977.742389782
969.826604041
961.733228657
953.502345315
945.168545412
936.759930468
928.297700587
919.796720098
911.267402802
902.718923866
894.163051133
885.617033854
877.103088624
868.644880633
860.264015663
851.977971449
843.799843311
835.739480307
827.805024296
820.003800245
812.342465784
804.826975796
797.462588364
790.253826376
783.204318643
776.316710948
769.592690927
763.03309048
756.637983172
750.406776643
744.338294416
738.430844448
732.682289213
727.09011288
721.651462641
716.363907982
711.224492771
706.228957758
701.374112631
696.657246335
692.07604448
687.628547473
683.31317526
679.128760121
675.074586035
671.150273035
667.355922112
663.691985853
660.159156671
656.758232738
653.490186931
650.355962414
647.356454909
644.492395206
641.764227587
639.172072623
636.715684983
634.394396229
632.207075799
630.152126135
628.227452948
626.430501319
624.758251704
623.207263766
621.773698228
620.453379133
619.241849714
618.134439197
617.126336081
616.212666624
615.388562201
614.649243154
613.990071606
613.406610256
612.894693567
612.450457217
612.070394224
611.751378298
611.490693076
611.286059635
611.135651765
611.038256105
610.993175725
1051.73211502
1050.6706496
1048.77100293
1045.92903228
1042.23416215
1037.76990791
1032.61478825
1026.8413845
1020.51662301
1013.70293987
1006.45965181
998.844121446
990.912421879
982.719367451
974.317868339
965.757658773
957.083564302
948.333543088
939.536883842
930.713097004
921.872223796
913.017353084
904.149790755
895.276094403
886.414220653
877.59234561
868.841127732
860.187125887
851.649478152
843.240120837
834.96649744
826.834758271
818.851170228
811.021798829
803.352138229
795.847130171
788.511111375
781.347437591
774.358269371
767.544643642
760.906666674
754.44364951
748.154223444
742.036432217
736.087788282
730.305321389
724.685607883
719.225610592
713.922543361
708.77121862
703.765518365
698.902487754
694.179161822
689.592616228
685.140340661
680.820520852
676.63177246
672.573294191
668.644787757
664.846511353
661.179114083
657.643585395
654.241124994
650.973067298
647.840765133
644.84557229
641.988555632
639.270479755
636.691736315
634.252326401
631.951683794
629.788741264
627.761866752
625.868855507
624.10696226
622.472908683
620.962909751
619.572724123
618.29771316
617.132904167
616.073078701