/*--------------------------------*- C++ -*----------------------------------*\
| =========                 |                                                 |
| \\      /  F ield         | OpenFOAM: The Open Source CFD Toolbox           |
|  \\    /   O peration     | Version:  v1906                                 |
|   \\  /    A nd           | Web:      www.OpenFOAM.com                      |
|    \\/     M anipulation  |                                                 |
\*---------------------------------------------------------------------------*/
FoamFile
{
    version     2.0;
    format      ascii;
    class       volVectorField;
    location    "97";
    object      Ua;
}
// * * * * * * * * * * * * * * * * * * * * * * * * * * * * * * * * * * * * * //

dimensions      [0 1 -1 0 0 0 0];


internalField   nonuniform List<vector> 
9216
(
(-0.0955940244913 0.0959802082058 0)
(-0.0969367077164 0.298596304655 4.53139541196e-26)
(-0.0922412106342 0.503627778208 -6.02640108521e-30)
(-0.0849245451874 0.707439583816 0)
(-0.0752690508019 0.908105146094 0)
(-0.0634582903026 1.10482410686 0)
(-0.0496963530474 1.29679154851 0)
(-0.0342041789283 1.48328392049 0)
(-0.0172180146359 1.66365453285 0)
(0.00101526516406 1.83733650922 0)
(0.0202437229587 2.00384435209 0)
(0.0402156825738 2.16277405037 0)
(0.0606847739124 2.31380161485 0)
(0.081414155503 2.4566801165 0)
(0.102180200486 2.59123555525 0)
(0.122775218408 2.71736176209 0)
(0.143009640934 2.83501468455 0)
(0.162713284332 2.94420624393 0)
(0.181736203744 3.04499805502 0)
(0.199948757009 3.13749513849 0)
(0.21724144205 3.22183983515 0)
(0.233524106333 3.29820598728 0)
(0.248725113516 3.36679351933 0)
(0.262790033898 3.42782342902 0)
(0.27568044843 3.48153326067 0)
(0.287372396274 3.52817303551 0)
(0.297855052132 3.56800166957 0)
(0.307129127395 3.60128383831 0)
(0.315205570458 3.62828730221 0)
(0.322104016713 3.64928066758 0)
(0.327851521793 3.66453164426 0)
(0.332480858729 3.67430601074 0)
(0.33602798777 3.67886750356 0)
(0.338523229965 3.67847599882 0)
(0.339957023216 3.67338947481 0)
(0.340450240053 3.66381540048 0)
(0.340062104648 3.64999565979 0)
(0.338845365252 3.63215667392 0)
(0.33685297767 3.6105170229 0)
(0.334137825993 3.58528693389 0)
(0.330752479836 3.55666841705 0)
(0.326748727645 3.52485530303 0)
(0.322177441836 3.4900333286 0)
(0.317088208591 3.45238025983 0)
(0.311529280401 3.41206604192 0)
(0.305547288064 3.36925298103 0)
(0.299187262898 3.3240959382 0)
(0.292492413859 3.27674254608 0)
(0.285504202236 3.22733342575 0)
(0.278262168876 3.17600241977 0)
(0.270804046904 3.12287681642 0)
(0.263165627031 3.06807758604 0)
(0.255380896831 3.01171960263 0)
(0.247481934653 2.95391187538 0)
(0.239499066343 2.89475776102 0)
(0.231460780585 2.83435518567 0)
(0.22339389611 2.7727968446 0)
(0.21532349298 2.71017041179 0)
(0.20727308486 2.64655872556 0)
(0.199264562254 2.58203998487 0)
(0.191318365801 2.51668792066 0)
(0.183453438462 2.45057197909 0)
(0.17568739671 2.3837574792 0)
(0.168036489588 2.3163057839 0)
(0.160515765493 2.24827444511 0)
(0.153139036563 2.17971736379 0)
(0.145919039269 2.11068492401 0)
(0.138867403109 2.04122414329 0)
(0.13199480372 1.97137879725 0)
(0.125310935144 1.90118956186 0)
(0.118824654415 1.83069413001 0)
(0.11254395696 1.75992734708 0)
(0.106476111928 1.68892132105 0)
(0.1006276404 1.6177055527 0)
(0.0950044408435 1.54630704049 0)
(0.0896117699926 1.4747504066 0)
(0.0844543579848 1.40305799787 0)
(0.0795363917838 1.33125000869 0)
(0.0748616196393 1.25934457904 0)
(0.0704333369956 1.18735791509 0)
(0.0662544800083 1.11530438547 0)
(0.0623276138211 1.0431966405 0)
(0.0586550148441 0.971045707609 0)
(0.0552386611432 0.898861110635 0)
(0.0520803028398 0.826650966395 0)
(0.0491814534829 0.754422107327 0)
(0.0465434457673 0.682180185839 0)
(0.0441674174522 0.609929814659 0)
(0.0420543354512 0.537674712308 0)
(0.0402049311594 0.465417942455 0)
(0.0386195651555 0.393162333781 0)
(0.0372977358661 0.320911437352 0)
(0.0362363017311 0.248671855307 0)
(0.0354302620204 0.176422738907 0)
(0.0348012945781 0.104679588489 0)
(0.0336029281559 0.0335632660494 0)
(-0.298109719605 0.10060712685 0)
(-0.317293607628 0.314539181199 0)
(-0.316643803954 0.532020477664 -4.58745904613e-26)
(-0.314841062057 0.747579274144 0)
(-0.312355855278 0.959725039777 0)
(-0.309274412488 1.16769055143 0)
(-0.305645933298 1.37066519056 0)
(-0.301518320127 1.56790194952 0)
(-0.296938600213 1.75872789125 0)
(-0.291953371414 1.94255052999 0)
(-0.286607979612 2.11886070002 0)
(-0.280945808427 2.28723308791 0)
(-0.275007419234 2.44732488579 0)
(-0.268830137132 2.59887286146 0)
(-0.262447581898 2.74168919128 0)
(-0.255889684841 2.87565632384 0)
(-0.249182587445 3.00072119129 0)
(-0.242348986468 3.11688899779 0)
(-0.235408265736 3.22421684071 0)
(-0.228377020718 3.32280732836 0)
(-0.221269284042 3.41280237326 0)
(-0.214097102975 3.49437725546 0)
(-0.2068707544 3.5677350638 0)
(-0.199599290908 3.63310155128 0)
(-0.192290686151 3.69072045669 0)
(-0.184952308918 3.74084928735 0)
(-0.177590980103 3.78375557583 0)
(-0.170213372914 3.8197135781 0)
(-0.162826004453 3.84900139618 0)
(-0.155435615959 3.87189846334 0)
(-0.148049195616 3.88868331861 0)
(-0.140674414878 3.89963140104 0)
(-0.133319092626 3.90501221965 0)
(-0.12598353006 3.90508679489 0)
(-0.118590130831 3.9001047365 0)
(-0.111231503496 3.89034895075 0)
(-0.103924371279 3.8760614328 0)
(-0.0966756864158 3.85748164489 0)
(-0.0894924827125 3.83484070256 0)
(-0.0823818969899 3.80836146899 0)
(-0.0753508452595 3.77825839185 0)
(-0.0684061520227 3.74473748856 0)
(-0.0615543028871 3.70799638497 0)
(-0.0548016127939 3.66822440924 0)
(-0.0481539986611 3.62560272311 0)
(-0.0416171565312 3.58030448797 0)
(-0.035196345363 3.53249505102 0)
(-0.0288965685306 3.4823321532 0)
(-0.0227223677846 3.42996614511 0)
(-0.0166780075948 3.37554021586 0)
(-0.0107672792574 3.31919062128 0)
(-0.00499368671993 3.26104691938 0)
(0.000639739290588 3.20123219939 0)
(0.00613025526235 3.13986331445 0)
(0.0114755809215 3.07705110413 0)
(0.0166737144294 3.01290061867 0)
(0.0217230988288 2.9475113307 0)
(0.0266224396946 2.88097734791 0)
(0.0313708622247 2.81338761192 0)
(0.0359677325789 2.74482609798 0)
(0.0404128058663 2.67537200032 0)
(0.0447060522302 2.60509991889 0)
(0.048847795901 2.53408003152 0)
(0.0528385470477 2.46237826826 0)
(0.0566791320734 2.39005647136 0)
(0.0603705320877 2.3171725584 0)
(0.0639140045457 2.24378067134 0)
(0.0673109291646 2.16993132977 0)
(0.0705629210095 2.09567157059 0)
(0.0736716845429 2.02104509278 0)
(0.0766391181943 1.94609238921 0)
(0.0794671772092 1.87085088439 0)
(0.082157969743 1.79535505978 0)
(0.0847136290642 1.71963658597 0)
(0.0871364011622 1.64372444279 0)
(0.08942852683 1.56764504706 0)
(0.091592320785 1.49142236877 0)
(0.0936300640385 1.41507805548 0)
(0.095544074492 1.3386315456 0)
(0.0973366099194 1.26210019041 0)
(0.0990099299752 1.1854993653 0)
(0.10056620989 1.10884259034 0)
(0.102007593606 1.03214164045 0)
(0.103336117821 0.955406665331 0)
(0.104553755077 0.878646299689 0)
(0.105662345893 0.801867783713 0)
(0.10666362652 0.725077074283 0)
(0.107559157843 0.648278965654 0)
(0.108350311271 0.571477194378 0)
(0.109038132049 0.49467452525 0)
(0.109623130366 0.417872753216 0)
(0.110104712113 0.341072283724 0)
(0.110479466814 0.264270221727 0)
(0.110731985045 0.187399706523 0)
(0.110615975595 0.111230245194 0)
(0.104819894494 0.0344453338513 0)
(-0.503246035849 0.105815687064 0)
(-0.53466142656 0.316801320247 0)
(-0.530572216159 0.538038090572 -4.55837349672e-26)
(-0.523526617638 0.755853502655 0)
(-0.514159633657 0.970267361295 0)
(-0.502647917165 1.18036730781 0)
(-0.489148911262 1.3853245487 0)
(-0.473845990166 1.58437259981 0)
(-0.45693743649 1.77682572765 0)
(-0.438631306531 1.96208309593 0)
(-0.419139941881 2.13963165511 0)
(-0.398675113273 2.30904636358 0)
(-0.377443635221 2.46998839191 0)
(-0.355643780034 2.62220164688 0)
(-0.333462313789 2.76550799695 0)
(-0.311072388268 2.8998015339 0)
(-0.288632002799 3.02504219955 0)
(-0.266283222537 3.14124905082 0)
(-0.24415180568 3.24849341292 0)
(-0.222347419648 3.34689211032 0)
(-0.200964075411 3.43660093816 0)
(-0.180080979269 3.51780848201 0)
(-0.159763431779 3.59073037267 0)
(-0.140064003243 3.65560401917 0)
(-0.121023625941 3.71268385025 0)
(-0.102672864049 3.76223706297 0)
(-0.0850330135042 3.80453987151 0)
(-0.0681173192893 3.8398742271 0)
(-0.0519319703273 3.86852497671 0)
(-0.0364771730444 3.8907774106 0)
(-0.0217479539122 3.9069151299 0)
(-0.00773500318347 3.91721803543 0)
(0.00557458859566 3.9219603686 0)
(0.0181941036595 3.92141149958 0)
(0.0301093611321 3.91584164909 0)
(0.0413725964285 3.9055086694 0)
(0.052009042612 3.89065871295 0)
(0.0620408484822 3.87153111189 0)
(0.0714908383664 3.84835749982 0)
(0.0803820799013 3.82136116938 0)
(0.0887377563506 3.79075686247 0)
(0.0965809004657 3.75675073428 0)
(0.103934330187 3.7195404097 0)
(0.110820448499 3.67931509737 0)
(0.117261231154 3.63625574315 0)
(0.123278073397 3.5905352141 0)
(0.128891815958 3.5423185027 0)
(0.13412262655 3.49176294781 0)
(0.138990052734 3.43901846446 0)
(0.143512928513 3.38422778132 0)
(0.147709445031 3.32752667944 0)
(0.151597074832 3.26904423287 0)
(0.155192653507 3.20890304558 0)
(0.158512316123 3.14721948682 0)
(0.161571584688 3.08410391947 0)
(0.164385312801 3.019660925 0)
(0.166967775208 2.95398951971 0)
(0.169332617903 2.88718336663 0)
(0.171492947096 2.81933097789 0)
(0.173461282909 2.75051591263 0)
(0.175249645884 2.68081696528 0)
(0.176869513069 2.61030834965 0)
(0.178331900781 2.53905987363 0)
(0.179647322371 2.46713711039 0)
(0.180825866411 2.39460156067 0)
(0.181877155769 2.32151081234 0)
(0.182810420679 2.24791869174 0)
(0.183634459023 2.17387541312 0)
(0.184357704001 2.09942772051 0)
(0.184988185655 2.02461902866 0)
(0.185533592999 1.949489557 0)
(0.186001236966 1.87407646351 0)
(0.186398106962 1.79841397232 0)
(0.18673083548 1.7225335019 0)
(0.187005749111 1.64646378763 0)
(0.187228835096 1.57023100555 0)
(0.187405786878 1.4938588911 0)
(0.187541972865 1.41736885961 0)
(0.187642476599 1.3407801221 0)
(0.187712067956 1.26410980349 0)
(0.187755237976 1.18737305643 0)
(0.187776172571 1.11058317781 0)
(0.187778781832 1.03375172139 0)
(0.187766675922 0.956888613173 0)
(0.187743187968 0.880002262848 0)
(0.187711350513 0.803099677602 0)
(0.187673908814 0.726186570199 0)
(0.187633292476 0.649267464924 0)
(0.187591610473 0.572345786029 0)
(0.187550607878 0.495423914164 0)
(0.187511644224 0.418503200912 0)
(0.18747572325 0.341583687723 0)
(0.187443321442 0.264663893507 0)
(0.187406474653 0.187671245502 0)
(0.187018239447 0.111673352781 0)
(0.17697526296 0.0340145438129 0)
(-0.712206803072 0.113320483029 0)
(-0.757075947377 0.318787900158 0)
(-0.751297909224 0.545256608829 4.52401920179e-26)
(-0.741387440007 0.765682330846 0)
(-0.728232257466 0.982730503026 0)
(-0.712099309763 1.19527316806 0)
(-0.693215764129 1.40246656605 0)
(-0.671845257274 1.60351975369 0)
(-0.648271413962 1.7977331483 0)
(-0.62279015156 1.98449872259 0)
(-0.595701570682 2.16330257546 0)
(-0.567302892755 2.33372434485 0)
(-0.537882358316 2.49543455767 0)
(-0.507714276912 2.64819023818 0)
(-0.4770551696 2.79182920985 0)
(-0.446141049719 2.9262634799 0)
(-0.415185667189 3.05147206521 0)
(-0.384379685923 3.16749356257 0)
(-0.353890563535 3.27441871898 0)
(-0.323863085405 3.37238319913 0)
(-0.294420317105 3.4615607023 0)
(-0.265664947232 3.54215653174 0)
(-0.237680807162 3.61440168541 0)
(-0.210534575454 3.67854750195 0)
(-0.184277484772 3.73486087345 0)
(-0.158947075607 3.78362001479 0)
(-0.134568843373 3.82511076776 0)
(-0.111157852462 3.85962340573 0)
(-0.0887201835295 3.88744990199 0)
(-0.0672543025882 3.90888162388 0)
(-0.0467522154446 3.92420742144 0)
(-0.0272004654954 3.93371207514 0)
(-0.00858072144481 3.93767523761 0)
(0.00913033922877 3.93637138294 0)
(0.0259639224045 3.9300675676 0)
(0.041935247107 3.91901539023 0)
(0.0570702839689 3.90346744873 0)
(0.0713968280514 3.88366501623 0)
(0.084943682088 3.85984061362 0)
(0.0977400676048 3.83221784334 0)
(0.109815329417 3.80101147852 0)
(0.12119866572 3.76642751444 0)
(0.131918971284 3.72866327452 0)
(0.142004665661 3.68790755651 0)
(0.151483609453 3.64434081186 0)
(0.160382992394 3.59813535004 0)
(0.168729298557 3.54945556073 0)
(0.176548235819 3.49845814859 0)
(0.183864734579 3.44529237536 0)
(0.190702905612 3.39010030647 0)
(0.197086060986 3.33301705806 0)
(0.203036690787 3.27417104312 0)
(0.208576497948 3.21368421388 0)
(0.213726386907 3.15167229997 0)
(0.218506506335 3.08824504032 0)
(0.222936244847 3.02350640908 0)
(0.227034277394 2.95755483394 0)
(0.230818564598 2.89048340775 0)
(0.234306399887 2.82238009206 0)
(0.237514410185 2.75332791395 0)
(0.240458601832 2.6834051548 0)
(0.243154361166 2.61268553279 0)
(0.245616497961 2.5412383778 0)
(0.247859245061 2.46912880065 0)
(0.24989629859 2.39641785542 0)
(0.251740816179 2.32316269692 0)
(0.253405453561 2.24941673199 0)
(0.254902361265 2.17522976676 0)
(0.256243217461 2.10064814859 0)
(0.257439223156 2.02571490478 0)
(0.258501131326 1.9504698767 0)
(0.259439240812 1.87494985152 0)
(0.260263421876 1.79918869001 0)
(0.260983109057 1.7232174528 0)
(0.261607323347 1.64706452315 0)
(0.262144664322 1.57075572896 0)
(0.262603329163 1.49431446182 0)
(0.262991104359 1.41776179574 0)
(0.263315381796 1.34111660355 0)
(0.263583150293 1.26439567326 0)
(0.263801008924 1.1876138225 0)
(0.263975158546 1.11078401329 0)
(0.264111412348 1.03391746501 0)
(0.264215187296 0.957023767727 0)
(0.264291511602 0.880110993467 0)
(0.264345015584 0.803185807053 0)
(0.264379935402 0.726253572919 0)
(0.264400103294 0.649318457516 0)
(0.264408950117 0.572383519788 0)
(0.26440950644 0.495450781423 0)
(0.26440443991 0.418521318618 0)
(0.264396180823 0.341595103231 0)
(0.264386505423 0.264671788873 0)
(0.264363348528 0.187665098557 0)
(0.263831192683 0.111995809569 0)
(0.249559930135 0.0332352845363 0)
(-0.924309361902 0.123486178655 0)
(-0.982698831113 0.321353997184 0)
(-0.975069024412 0.555006807531 0)
(-0.962050982229 0.77895114469 0)
(-0.944767140992 0.999554877314 0)
(-0.9235827404 1.21538687943 0)
(-0.898801519414 1.42558886896 0)
(-0.870775020945 1.62933691492 0)
(-0.839880386244 1.82591277981 0)
(-0.806510247598 2.01469881211 0)
(-0.771061838348 2.19518022615 0)
(-0.733927535478 2.36694335452 0)
(-0.695486801007 2.52967177714 0)
(-0.656099695076 2.68314063466 0)
(-0.616101938023 2.82720964812 0)
(-0.575801474077 2.96181529761 0)
(-0.53547636862 3.08696256237 0)
(-0.495373891538 3.20271655504 0)
(-0.455710559722 3.30919431628 0)
(-0.416672972471 3.40655696832 0)
(-0.378419219834 3.49500236887 0)
(-0.341080727107 3.57475835476 0)
(-0.3047643551 3.64607662446 0)
(-0.269554667004 3.70922727472 0)
(-0.235516228688 3.76449398308 0)
(-0.202695899861 3.81216980878 0)
(-0.171125024045 3.85255357392 0)
(-0.140821511511 3.88594677805 0)
(-0.111791753132 3.91265099696 0)
(-0.0840323843762 3.93296571947 0)
(-0.0575318531007 3.94718657699 0)
(-0.0322718297696 3.95560384101 0)
(-0.00822858867003 3.95850109948 0)
(0.0146253821488 3.95615621259 0)
(0.0363210411048 3.94883998595 0)
(0.0568934618686 3.93680783176 0)
(0.0763789044981 3.92031237746 0)
(0.0948147229076 3.89959563727 0)
(0.112239050284 3.87489069843 0)
(0.128690411147 3.84642142008 0)
(0.144207383505 3.81440254082 0)
(0.158828303189 3.77903978209 0)
(0.172591042973 3.74053000343 0)
(0.185532822941 3.69906139011 0)
(0.197690079478 3.65481366713 0)
(0.209098351206 3.60795833229 0)
(0.219792210889 3.55865890246 0)
(0.229805203938 3.50707116804 0)
(0.239169823539 3.45334345159 0)
(0.24791748488 3.3976168675 0)
(0.256078529032 3.34002557992 0)
(0.263682220569 3.28069705722 0)
(0.270756769636 3.21975232113 0)
(0.277329344014 3.15730618983 0)
(0.283426101791 3.09346751364 0)
(0.289072211525 3.02833940342 0)
(0.294291890152 2.9620194507 0)
(0.299108426856 2.89459994007 0)
(0.303544222525 2.82616805318 0)
(0.307620814356 2.75680606515 0)
(0.311358914428 2.68659153301 0)
(0.31477843312 2.61559747702 0)
(0.317898515254 2.5438925547 0)
(0.320737561178 2.47154122848 0)
(0.323313259591 2.39860392689 0)
(0.325642605673 2.32513720021 0)
(0.327741930156 2.25119387053 0)
(0.329626914286 2.17682317713 0)
(0.331312615019 2.10207091719 0)
(0.33281347684 2.02697958266 0)
(0.33414335319 1.95158849325 0)
(0.335315515353 1.87593392641 0)
(0.336342670339 1.80004924417 0)
(0.337236967155 1.72396501768 0)
(0.338010011458 1.64770914931 0)
(0.338672869567 1.57130699302 0)
(0.339236080244 1.49478147288 0)
(0.339709656828 1.4181532004 0)
(0.340103096475 1.34144059043 0)
(0.34042538078 1.26465997635 0)
(0.340684982791 1.1878257241 0)
(0.340889866408 1.11095034578 0)
(0.341047491424 1.03404461229 0)
(0.34116481195 0.95711766556 0)
(0.341248279745 0.8801771295 0)
(0.341303842152 0.803229219979 0)
(0.341336944771 0.72627885238 0)
(0.341352531584 0.649329746284 0)
(0.34135505338 0.572384524899 0)
(0.34134848462 0.495444807415 0)
(0.341336366579 0.418511371002 0)
(0.34132190919 0.341583992037 0)
(0.341307182815 0.264662940221 0)
(0.341275270013 0.187640582092 0)
(0.340581899653 0.112394001986 0)
(0.322133574531 0.0321741805796 0)
(-1.14060264286 0.136493971953 0)
(-1.21279200958 0.324595215191 0)
(-1.20315590289 0.567494153587 0)
(-1.18682927602 0.795928549716 0)
(-1.16515349631 1.02107511892 0)
(-1.13860594799 1.24109547216 0)
(-1.10757885353 1.45511737741 0)
(-1.07252462838 1.66227529284 0)
(-1.03392638716 1.86182830162 0)
(-0.992284995767 2.05314784709 0)
(-0.948104993618 2.23571969879 0)
(-0.901882490847 2.40914059295 0)
(-0.854095004476 2.57311266867 0)
(-0.805193416651 2.72743600415 0)
(-0.755596015813 2.87199990471 0)
(-0.705684494262 3.00677347795 0)
(-0.655801678755 3.13179595399 0)
(-0.606250747193 3.24716711568 0)
(-0.557295648989 3.35303811392 0)
(-0.509162472415 3.44960286157 0)
(-0.46204150164 3.53709012963 0)
(-0.416089755696 3.6157564118 0)
(-0.371433813519 3.68587957935 0)
(-0.328172784082 3.7477533144 0)
(-0.286381291329 3.80168228672 0)
(-0.246112394066 3.84797802382 0)
(-0.207400364423 3.88695541489 0)
(-0.170263291088 3.91892978558 0)
(-0.134705468929 3.94421448025 0)
(-0.100719571005 3.96311889868 0)
(-0.0682885794487 3.97594693361 0)
(-0.0373874860587 3.98299558917 0)
(-0.00798490611318 3.98455363857 0)
(0.0199556587299 3.98090432694 0)
(0.046475396427 3.97231971627 0)
(0.071616181911 3.95905829755 0)
(0.0954231891304 3.94137466153 0)
(0.117943103318 3.91951196355 0)
(0.139223423153 3.89370391239 0)
(0.159311979555 3.86417456832 0)
(0.178256531819 3.83113852478 0)
(0.196104436295 3.79480107748 0)
(0.212902385917 3.75535843711 0)
(0.228696201194 3.71299796608 0)
(0.243530674504 3.66789843388 0)
(0.257449449467 3.62023028491 0)
(0.27049493914 3.57015591347 0)
(0.282708266857 3.51782994209 0)
(0.294129235023 3.46339949965 0)
(0.304796307366 3.40700449679 0)
(0.314746611148 3.34877789654 0)
(0.324015946184 3.2888459787 0)
(0.332638807979 3.22732859675 0)
(0.340648412951 3.16433942663 0)
(0.348076733593 3.09998620677 0)
(0.354954532424 3.03437096924 0)
(0.361311402933 2.96759026175 0)
(0.367175807114 2.89973536081 0)
(0.372575117923 2.83089247602 0)
(0.377535656944 2.76114294588 0)
(0.382082735576 2.69056342549 0)
(0.386240690601 2.61922606644 0)
(0.390032922359 2.54719868946 0)
(0.393481926915 2.47454495023 0)
(0.396609330243 2.40132449881 0)
(0.399435916304 2.32759313321 0)
(0.401981656794 2.25340294762 0)
(0.40426573491 2.1788024757 0)
(0.40630657059 2.10383682938 0)
(0.40812184003 2.02854783379 0)
(0.409728496588 1.95297415841 0)
(0.411142786338 1.8771514453 0)
(0.412380264955 1.80111243426 0)
(0.4134558097 1.72488708578 0)
(0.414383632713 1.64850270167 0)
(0.415177289875 1.57198404408 0)
(0.415849690975 1.49535345274 0)
(0.416413105926 1.41863096111 0)
(0.416879172262 1.34183441128 0)
(0.417258899178 1.26497956809 0)
(0.417562672809 1.1880802324 0)
(0.41780025854 1.11114835381 0)
(0.417980804517 1.03419414269 0)
(0.418112842738 0.957226181828 0)
(0.418204291441 0.880251537184 0)
(0.418262455946 0.80327586807 0)
(0.418294031577 0.726303536183 0)
(0.418305107292 0.649337713738 0)
(0.418301174674 0.572380490799 0)
(0.418287143758 0.495432981668 0)
(0.418267369714 0.418495531079 0)
(0.418245706927 0.341567446775 0)
(0.418224343497 0.264649211969 0)
(0.418181768627 0.187604638058 0)
(0.417325474035 0.112882477642 0)
(0.394714502633 0.0308368339725 0)
(-1.362140821 0.152564112112 0)
(-1.44852338634 0.328564653708 0)
(-1.43668489922 0.582921283643 4.44491324384e-26)
(-1.41679318596 0.816873376208 0)
(-1.39039116962 1.04761188389 0)
(-1.35808526481 1.27276870263 0)
(-1.32036954711 1.49145885427 0)
(-1.27781220856 1.70276602525 0)
(-1.2310167922 1.90592320506 0)
(-1.18060579709 2.10029073722 0)
(-1.12720287902 2.28535782172 0)
(-1.07141780271 2.46073693126 0)
(-1.01383403965 2.62615595401 0)
(-0.95499918999 2.78144836429 0)
(-0.895418125463 2.92654225002 0)
(-0.835548625258 3.06144883377 0)
(-0.775799181031 3.18625101101 0)
(-0.716528611325 3.30109229994 0)
(-0.658047112916 3.40616648129 0)
(-0.600618401991 3.50170810465 0)
(-0.54446262688 3.58798395598 0)
(-0.489759784423 3.66528551674 0)
(-0.436653412312 3.73392239831 0)
(-0.385254381768 3.79421670292 0)
(-0.335644650219 3.84649824203 0)
(-0.287880876754 3.89110053162 0)
(-0.241997827493 3.92835747994 0)
(-0.198011529782 3.95860068313 0)
(-0.155922147788 3.98215724907 0)
(-0.115716573086 3.99934808734 0)
(-0.0773707190861 4.01048659751 0)
(-0.0408515299542 4.01587742347 0)
(-0.00611884642848 4.01581519634 0)
(0.0268735714952 4.01058975591 0)
(0.0581756152266 4.00047382067 0)
(0.0878398274409 3.98573020957 0)
(0.115921308624 3.96661508856 0)
(0.142476760709 3.94337279271 0)
(0.167563586023 3.91623757641 0)
(0.191239373485 3.88543357568 0)
(0.213561443259 3.85117506587 0)
(0.234586484217 3.81366670932 0)
(0.254370266595 3.77310383379 0)
(0.272967417395 3.72967272557 0)
(0.290431251458 3.68355093252 0)
(0.306813646407 3.63490757161 0)
(0.322164956839 3.58390363706 0)
(0.336533958101 3.53069230573 0)
(0.349967816985 3.47541923751 0)
(0.362512081462 3.41822286856 0)
(0.374210688291 3.35923469619 0)
(0.385105982041 3.29857955435 0)
(0.395238745472 3.23637587907 0)
(0.4046482359 3.17273596353 0)
(0.413372228298 3.10776620265 0)
(0.421447060623 3.04156732713 0)
(0.428907682656 2.97423462725 0)
(0.435787704506 2.90585816665 0)
(0.442119446482 2.83652298657 0)
(0.447933986948 2.76630930082 0)
(0.453261210145 2.69529268218 0)
(0.458129850976 2.62354424062 0)
(0.462567538899 2.55113079394 0)
(0.466600838227 2.47811503134 0)
(0.470255287071 2.40455567052 0)
(0.473555432458 2.33050760887 0)
(0.476524863897 2.25602206917 0)
(0.479186243123 2.18114674044 0)
(0.48156133227 2.10592591443 0)
(0.483671018389 2.03040061803 0)
(0.485535336481 1.9546087424 0)
(0.487173489156 1.87858516882 0)
(0.488603864974 1.802361892 0)
(0.489844053718 1.72596814103 0)
(0.49091086058 1.64943049829 0)
(0.491820317626 1.57277301677 0)
(0.492587694388 1.49601733584 0)
(0.493227506105 1.41918279601 0)
(0.493753521313 1.3422865526 0)
(0.494178767443 1.26534368869 0)
(0.494515535981 1.18836732745 0)
(0.494775386014 1.11136874401 0)
(0.494969147565 1.03435747682 0)
(0.495106923763 0.957341438748 0)
(0.495198093173 0.880327027872 0)
(0.495251311676 0.803319237914 0)
(0.495274515354 0.726321768624 0)
(0.495274924406 0.649337136535 0)
(0.495259049909 0.572366786671 0)
(0.495232703726 0.495411204362 0)
(0.49520100852 0.418470151437 0)
(0.495168420887 0.341542225254 0)
(0.495137277609 0.264627995251 0)
(0.4950818862 0.187555792481 0)
(0.494061672376 0.113464663962 0)
(0.467293368142 0.0292273800757 0)
(-1.59006357247 0.171968341582 0)
(-1.69113006288 0.33332124808 0)
(-1.67684166416 0.601545740136 -4.40852704962e-26)
(-1.65305796971 0.84211554601 0)
(-1.62150504643 1.07957172076 0)
(-1.5829411697 1.31087254262 0)
(-1.53797994299 1.53512279608 0)
(-1.48732472066 1.75134563394 0)
(-1.431718108 1.95874538307 0)
(-1.37192134346 2.15667258956 0)
(-1.30869208984 2.34462473869 0)
(-1.24276607347 2.52223760043 0)
(-1.17484231354 2.68927429291 0)
(-1.10557207536 2.84561235243 0)
(-1.03555132147 2.99122986579 0)
(-0.965316284634 3.12619142102 0)
(-0.895341689527 3.25063446833 0)
(-0.826041120344 3.36475650783 0)
(-0.75776904163 3.46880337063 0)
(-0.690824022978 3.56305873603 0)
(-0.625452774171 3.64783493263 0)
(-0.561854664053 3.72346500161 0)
(-0.500186459048 3.79029595367 0)
(-0.440567079286 3.8486831219 0)
(-0.38308222138 3.89898549809 0)
(-0.327788743805 3.94156193512 0)
(-0.274718745623 3.97676810011 0)
(-0.223883300428 4.00495406942 0)
(-0.175275827938 4.02646246721 0)
(-0.128875102672 4.04162707558 0)
(-0.08464789963 4.05077183217 0)
(-0.0425512921164 4.05420976744 0)
(-0.00253467210806 4.05224197074 0)
(0.0354598688165 4.04516585414 0)
(0.0714912555989 4.0332533994 0)
(0.105623804066 4.01677305978 0)
(0.137923315034 3.99598220773 0)
(0.168457175951 3.97112629987 0)
(0.197293242894 3.94243995818 0)
(0.224499311944 3.9101471807 0)
(0.250142626182 3.87446167487 0)
(0.274289492598 3.83558719574 0)
(0.297004980202 3.79371789759 0)
(0.31835268854 3.74903868998 0)
(0.338394575779 3.70172559341 0)
(0.357190835711 3.65194609085 0)
(0.374799815987 3.59985947218 0)
(0.391277969359 3.54561716932 0)
(0.406679832503 3.48936308069 0)
(0.421058026199 3.43123388379 0)
(0.434463273165 3.37135933528 0)
(0.446944428869 3.30986255828 0)
(0.458548522893 3.24686031667 0)
(0.469320807351 3.18246327671 0)
(0.479304810887 3.11677625599 0)
(0.488542395603 3.04989846035 0)
(0.497073816165 2.98192370907 0)
(0.504937779061 2.91294064898 0)
(0.512171501774 2.84303295811 0)
(0.518810770305 2.77227953943 0)
(0.524889995174 2.70075470536 0)
(0.530442264686 2.6285283538 0)
(0.535499395817 2.55566613618 0)
(0.540091981795 2.4822296183 0)
(0.544249436867 2.40827643451 0)
(0.548000037531 2.33386043597 0)
(0.551370960836 2.25903183336 0)
(0.554388319139 2.18383733479 0)
(0.557077192019 2.10832027939 0)
(0.559461654812 2.032520767 0)
(0.561564804514 1.95647578457 0)
(0.563408782568 1.88021932949 0)
(0.565014795305 1.80378253056 0)
(0.566403131614 1.7271937666 0)
(0.567593178568 1.65047878341 0)
(0.568603434653 1.57366080905 0)
(0.569451521288 1.49676066798 0)
(0.570154192316 1.41979689412 0)
(0.570727342117 1.34278584313 0)
(0.571186012064 1.26574180412 0)
(0.571544395921 1.18867711084 0)
(0.571815843969 1.11160225256 0)
(0.572012866409 1.03452598482 0)
(0.572147135918 0.957455439955 0)
(0.572229489921 0.880396237634 0)
(0.572269932591 0.803352595592 0)
(0.572277637194 0.726327440684 0)
(0.572260948974 0.649322520923 0)
(0.572227389071 0.572338518882 0)
(0.572183658827 0.495375163422 0)
(0.57213563875 0.418431491616 0)
(0.572088398365 0.341505195111 0)
(0.57204449015 0.264596977808 0)
(0.571974327785 0.187492631295 0)
(0.570788928634 0.114141374763 0)
(0.539865491236 0.0273473068251 0)
(-1.82562061897 0.195043487898 0)
(-1.94196345978 0.338937003024 0)
(-1.92491633891 0.62369039902 0)
(-1.89683134442 0.872069595284 0)
(-1.85959711773 1.11746377528 0)
(-1.81415397539 1.35598791171 0)
(-1.76125826385 1.58674117831 0)
(-1.70177347729 1.80867601642 0)
(-1.63660489839 2.0209669044 0)
(-1.56667381294 2.22295807086 0)
(-1.49289007112 2.41416288956 0)
(-1.41613002506 2.5942509904 0)
(-1.33721931871 2.76303321226 0)
(-1.25692055124 2.92044464978 0)
(-1.17592538293 3.06652713115 0)
(-1.09485048885 3.20141201163 0)
(-1.01423667802 3.32530393654 0)
(-0.93455048962 3.4384659928 0)
(-0.856187622303 3.5412064786 0)
(-0.779477629042 3.63386737374 0)
(-0.704689399622 3.71681448642 0)
(-0.632037045801 3.79042918105 0)
(-0.561685890695 3.85510154822 0)
(-0.493758341798 3.91122485663 0)
(-0.428339492014 3.95919112064 0)
(-0.365482347169 3.99938762176 0)
(-0.305212620146 4.03219423344 0)
(-0.247533064821 4.05798141279 0)
(-0.192427346092 4.07710874101 0)
(-0.139863457319 4.0899239284 0)
(-0.0897967042986 4.09676217675 0)
(-0.0421722975259 4.09794536156 0)
(0.00307254164651 4.09378146539 0)
(0.0460094347723 4.08457625952 0)
(0.0867065382456 4.07059921469 0)
(0.125241628162 4.05212579709 0)
(0.16169206926 4.02941391918 0)
(0.196136661327 4.00270997974 0)
(0.228654314928 3.97224867353 0)
(0.259323522022 3.93825354788 0)
(0.288221840033 3.90093740641 0)
(0.315425501455 3.86050274921 0)
(0.341009110467 3.8171422039 0)
(0.365045415457 3.77103894991 0)
(0.387605144437 3.72236713072 0)
(0.408756892339 3.67129225237 0)
(0.428567051095 3.61797156635 0)
(0.447099774331 3.56255443616 0)
(0.46441697012 3.5051826869 0)
(0.480578315833 3.44599093788 0)
(0.495641290468 3.3851069183 0)
(0.509661220149 3.32265176644 0)
(0.522691333598 3.25874031284 0)
(0.534782824517 3.19348134801 0)
(0.545984918732 3.12697787558 0)
(0.556344943934 3.05932735146 0)
(0.565908400659 2.99062190998 0)
(0.574719032984 2.92094857767 0)
(0.582818898145 2.85038947575 0)
(0.590248434042 2.77902201191 0)
(0.597046524224 2.70691906236 0)
(0.603250559676 2.63414914494 0)
(0.608896497278 2.56077658399 0)
(0.6140189145 2.48686166782 0)
(0.618651060415 2.41246079936 0)
(0.622824902758 2.33762664085 0)
(0.626571171235 2.26240825307 0)
(0.629919396954 2.18685122978 0)
(0.632897948258 2.11099782789 0)
(0.635534062897 2.03488709391 0)
(0.637853876903 1.95855498726 0)
(0.639882450129 1.88203450071 0)
(0.641643788844 1.80535577848 0)
(0.643160865409 1.72854623239 0)
(0.644455635384 1.65163065637 0)
(0.645549052147 1.5746313396 0)
(0.646461079349 1.49756817857 0)
(0.647210701306 1.42045878843 0)
(0.647815931629 1.34331861361 0)
(0.6482938202 1.26616103808 0)
(0.648660458789 1.18899749533 0)
(0.648930985414 1.11183757824 0)
(0.649119587742 1.03468914889 0)
(0.649239505655 0.957558448566 0)
(0.649303033279 0.880450207903 0)
(0.649321520632 0.803367757491 0)
(0.649305375177 0.726313139105 0)
(0.649264063355 0.649287218051 0)
(0.649206112093 0.572289796407 0)
(0.649139109354 0.495319722262 0)
(0.649069697131 0.418375180552 0)
(0.64900357849 0.341452792409 0)
(0.648943570552 0.264553542458 0)
(0.648856380552 0.187413333285 0)
(0.647504056524 0.114912275254 0)
(0.612426655676 0.0251973594304 0)
(-2.07019540377 0.222204957701 0)
(-2.20251892198 0.345502268558 0)
(-2.18232878455 0.649756782403 0)
(-2.14943339767 0.907250901195 0)