/*--------------------------------*- C++ -*----------------------------------*\
| =========                 |                                                 |
| \\      /  F ield         | OpenFOAM: The Open Source CFD Toolbox           |
|  \\    /   O peration     | Version:  v1906                                 |
|   \\  /    A nd           | Web:      www.OpenFOAM.com                      |
|    \\/     M anipulation  |                                                 |
\*---------------------------------------------------------------------------*/
FoamFile
{
    version     2.0;
    format      ascii;
    class       surfaceScalarField;
    location    "289";
    object      phia;
}
// * * * * * * * * * * * * * * * * * * * * * * * * * * * * * * * * * * * * * //

dimensions      [0 3 -1 0 0 0 0];
oriented        oriented;


internalField   nonuniform List<scalar> 
18240
(
0.000883746440799
-0.000882433922173
0.00179057538549
-0.000905322303609
0.00270070236951
-0.000908846107472
0.00360561940301
-0.000903355337898
0.00450100607537
-0.000894160541504
0.005384603585
-0.000881985186761
0.00625323858498
-0.000867467070631
0.00710544111319
-0.000850540918557
0.00793823637042
-0.000831689898003
0.00875065563988
-0.000810710916621
0.00953983264175
-0.000788140894851
0.010305284502
-0.000763700551182
0.0110442439317
-0.000737998423426
0.0117567093781
-0.000710676743816
0.0124399952547
-0.000682408022276
0.0130945587158
-0.00065274492765
0.0137177610603
-0.000622414255928
0.0143104704878
-0.00059087101506
0.0148700464681
-0.000558886295602
0.0153977051957
-0.000525812572081
0.0158907494176
-0.000492459077761
0.0163506672914
-0.000458078398825
0.0167746538381
-0.00042351338903
0.0171643949979
-0.000387924450329
0.0175169402988
-0.000352187776332
0.0178341035315
-0.000315386893519
0.0181127727539
-0.000278431396377
0.0183548373948
-0.000240346884078
0.0185570353637
-0.000202079113035
0.0187212968852
-0.000162620934244
0.018844253369
-0.000122955711738
0.0189278659955
-8.20672377719e-05
0.0189687351124
-4.0980425549e-05
0.0189688735391
1.29463559296e-06
0.0189249660842
4.36905113753e-05
0.0188391286414
8.71430611491e-05
0.0187082769849
0.000130540472647
0.018534707991
0.000174734524507
0.01831574247
0.000218572072113
0.0180539625116
0.000262796507114
0.0177472834647
0.000306219675934
0.0173986891927
0.000349457514241
0.0170068820446
0.000391298693675
0.0165753727323
0.00043222079969
0.0161038311748
0.000471004022221
0.0155964138214
0.000507985441952
0.0150539081135
0.000541958593351
0.0144812124913
0.000573136112279
0.0138803141789
0.000600362360437
0.0132568764205
0.000623774164869
0.0126140331041
0.000642337159637
0.0119580854576
0.000656209289153
0.0112930402357
0.000664584255087
0.010625485107
0.000667773258011
0.00995977088202
0.000665306615257
0.00930221755851
0.00065775551996
0.00865684419371
0.000645020608525
0.00802911535361
0.000627932748934
0.0074221378516
0.000606672498833
0.00684013348385
0.000582213340244
0.00628501098451
0.000554852610315
0.00575964860265
0.000525568658321
0.00526474038366
0.000494658319205
0.00480190005013
0.000463032740511
0.00437072441198
0.000430934137665
0.00397172872172
0.000399164208202
0.00360361946706
0.000367869821614
0.00326605499732
0.000337702659709
0.00295713199678
0.000308685006512
0.00267594070001
0.000281297123289
0.00242026932664
0.000255437197408
0.00218891800427
0.000231426830349
0.0019796208384
0.0002090710762
0.00179110066731
0.000188570176357
0.00162120913603
0.000169677748972
0.00146872738826
0.000152512420258
0.00133172015772
0.000136809787081
0.00120910276567
0.000122635411137
0.00109920318363
0.000109721249792
0.00100113825291
9.80767855312e-05
0.000913611005119
8.73702098602e-05
0.00083625861124
7.73602406987e-05
0.000769160624047
6.69589411225e-05
0.000716080183094
5.30858425517e-05
0.00066655710337
4.94057545875e-05
0.000614659438985
5.18983420958e-05
0.000568093752812
4.64653253199e-05
0.000527721091127
4.03624047499e-05
0.000485223899029
4.24069010268e-05
0.000435575402276
4.96200888254e-05
0.000382444832038
5.30383466495e-05
0.000326000059237
5.63876075408e-05
0.000259560410973
6.63609172951e-05
0.000178874535914
8.05903360898e-05
8.61851805018e-05
9.25611890896e-05
8.61267039536e-05
0.000911968031141
-0.00179302443113
0.00189526585943
-0.00188712503828
0.00286856604461
-0.00188071119996
0.00383242132229
-0.00186570159185
0.00478505282135
-0.00184537085368
0.00572444902144
-0.00181986304325
0.00664795968894
-0.0017895735291
0.00755358085183
-0.00175463623938
0.00843876849329
-0.00171549469346
0.00930185131824
-0.00167226406756
0.010140505847
-0.0016254386263
0.0109534429301
-0.00157510901116
0.011738576611
-0.00152180784069
0.0124950024335
-0.00146558135896
0.0132208581215
-0.00140697878946
0.0139155981463
-0.00134597899711
0.0145775460429
-0.00128312534462
0.0152064657345
-0.00121830951967
0.0158008106581
-0.00115205139236
0.016360587365
-0.00108414368852
0.0168843133849
-0.00101507260699
0.0173721630136
-0.000944530100085
0.0178226530829
-0.000872968007674
0.0182360531649
-0.000799986886128
0.0186108255695
-0.000726011974728
0.0189472743206
-0.000650571201586
0.0192437734115
-0.000574078120849
0.0195006199294
-0.000496014588986
0.0197160913499
-0.000416802022021
0.0198904600331
-0.00033590813267
0.0200219305356
-0.000253787269516
0.0201107670907
-0.000169929945477
0.0201551586833
-8.48469263963e-05
0.0201554041611
1.90675583204e-06
0.0201097704594
8.97340152786e-05
0.0200186737419
0.000178974885035
0.0198805889419
0.000268920552153
0.0196961633436
0.000359769218911
0.0194642390664
0.00045068120661
0.0191858337513
0.000541684860404
0.018860334019
0.000631800950683
0.018489280654
0.000720871697593
0.0180727877373
0.000807780559052
0.0176130759373
0.000892179516724
0.017111162868
0.0009728274632
0.0165700981731
0.00104919609804
0.015991957384
0.0011199484857
0.0153807421168
0.00118441421895
0.0147396846175
0.00124122807419
0.0140737842546
0.00128967709724
0.013387399213
0.00132851225569
0.0126864018543
0.00135717509844
0.0119760088774
0.00137477113723
0.0112625698493
0.00138117169362
0.0105515950244
0.00137609741932
0.00984925309187
0.00136006842694
0.00916059624445
0.00133352623965
0.00849090279723
0.00129761910255
0.00784412478436
0.00125333219551
0.00722419608182
0.00120215550809
0.0066336887765
0.00114526477466
0.00607510433807
0.00108417639143
0.00554966034381
0.0010200167917
0.00505852701012
0.000954185460316
0.00460170647141
0.000887666946276
0.00417921535405
0.000821660609614
0.00379006258811
0.000756925644111
0.00343337691037
0.000694374816483
0.0031074807388
0.00063447312234
0.00281094078953
0.000577804470831
0.0025417256792
0.000524534946822
0.002298151385
0.00047495230386
0.0020781097133
0.000428990186737
0.00187989541232
0.000386724384182
0.00170150411221
0.000347946403465
0.00154134654632
0.000312604368543
0.00139761771545
0.000280420983673
0.00126890874819
0.00025127885593
0.00115364253767
0.000224878867557
0.0010505858469
0.000201071952926
0.000958312731542
0.000179546263689
0.000875516295194
0.00016009931219
0.000800032016975
0.000142356472807
0.000726780016601
0.000126285499378
0.000661127563439
0.000114988821324
0.000603973295791
0.000109005894106
0.000555598197431
9.47769159112e-05
0.000514524791954
8.13908048931e-05
0.000474834567356
8.20391297186e-05
0.000432195663451
9.22026320581e-05
0.000381709453686
0.000103455683423
0.000325184939966
0.00011284635708
0.000262462349815
0.000128999362126
0.000186665917764
0.000156289738651
9.15830646201e-05
0.000187534956311
0.000177648488796
0.000925511427857
-0.00271713805665
0.00190950751724
-0.00286964525714
0.00288871587614
-0.00285844803959
0.00385926690742
-0.00283476552662
0.004818617521
-0.00280325546948
0.0057643985219
-0.00276415660346
0.00669409755672
-0.00271781419278
0.0076054853193
-0.00266453897766
0.00849623683686
-0.00260479829406
0.0093644137919
-0.00253896234086
0.0102079671044
-0.00246755932272
0.0110252997097
-0.00239097438848
0.0118146615861
-0.00230975791928
0.01257480103
-0.00222427154893
0.0133042547683
-0.00213504905986
0.0140020899327
-0.00204239074639
0.0146670900439
-0.00194677843754
0.0152985884989
-0.00184841976756
0.0158955547736
-0.00174771718394
0.0164575190131
-0.00164476534956
0.0169835637956
-0.00153987357562
0.0174733382017
-0.00143301898376
0.0179259647981
-0.00132441893719
0.0183411387989
-0.00121394406508
0.0187179600608
-0.0011017362587
0.0190561103069
-0.000987585076134
0.0193546237653
-0.000871584253393
0.0196131316442
-0.000753477498425
0.0198305848078
-0.000633346541491
0.0200065526361
-0.000510932542205
0.0201399154723
-0.000386348803225
0.0202302016132
-0.000259382757883
0.0202762671607
-0.000130224462923
0.0202776548068
1.23550053985e-06
0.0202332812147
0.000134677642592
0.0201427976336
0.000270053663047
0.020005303105
0.000406865929541
0.0198206858284
0.000544858919558
0.0195883808256
0.000683318972415
0.0193086690866
0.00082174833535
0.0189814944937
0.000959195453849
0.0186076994838
0.00109490332195
0.0181879164277
0.00122767886426
0.0177237209917
0.00135650606798
0.0172166101042
0.00147996123258
0.0166690593137
0.0015967858277
0.0160835960928
0.00170535753499
0.0154637477457
0.00180422693306
0.0148132036093
0.00189166085733
0.0141366325386
0.0019661602602
0.0134389050692
0.00202609491936
0.0127257465533
0.00207021838859
0.0120029730959
0.00209739106095
0.0112769555941
0.00210707174201
0.0105538451926
0.00209906685123
0.00983989169921
0.00207392346599
0.00914070398963
0.00203260026489
0.00846155258716
0.00197670311599
0.00780675534818
0.00190804706425
0.00718008776193
0.00182878301992
0.00658432900353
0.00174096527322
0.00602173915508
0.00164673953539
0.00549367194927
0.00154803431399
0.00500102217736
0.00144680779089
0.00454387104386
0.00134476255168
0.00412192853936
0.00124356513937
0.00373422715016
0.00114455866702
0.00337957453192
0.00104897432893
0.00305628904526
0.000957676501212
0.00276263688935
0.000871387884042
0.00249659256149
0.000790485130476
0.00225622393512
0.000715239498009
0.0020394575942
0.000645654405453
0.00184439916994
0.000581694170584
0.00166910351995
0.000523137617196
0.0015118411654
0.000469777070259
0.001370879624
0.000421281693259
0.00124470400257
0.000377369076834
0.00113180892782
0.000337680854027
0.00103086703454
0.000301935360181
0.000940503572971
0.000269826059312
0.000859351951691
0.000241180192965
0.00078564814106
0.00021598396036
0.000716815751153
0.000195057155965
0.000653361236275
0.000178379607713
0.000599660432117
0.000162650797704
0.000545552166079
0.000148823623593
0.000491595626716
0.00013529341099
0.000448211749454
0.000125365299783
0.000413400304758
0.000126952828791
0.000363289583779
0.000153493672119
0.000299735681543
0.000176328134247
0.000232309511438
0.000196353741079
0.000156405251924
0.000232098705248
7.99323265769e-05
0.000263899888273
0.000257531580926
0.000935335440791
-0.00365106963386
0.00192596596996
-0.00385879262949
0.0029127011568
-0.00384370235631
0.00389094511044
-0.00381152307993
0.00485788884913
-0.00376871972394
0.00581095366817
-0.00371573798188
0.00674761202785
-0.00365299722231
0.00766551631427
-0.00358096437836
0.00856239161665
-0.0035002057599
0.00943619183224
-0.0034112918328
0.0102849554929
-0.00331486692054
0.0111069800623
-0.00321154141184
0.0119006394759
-0.0031019790542
0.0126645788544
-0.00298677302129
0.0133974942979
-0.0028665509785
0.0140983493646
-0.00274183540125
0.0147661185956
-0.0026131677153
0.0154000272533
-0.00248095478169
0.0159992608347
-0.0023456139583
0.0165632297465
-0.0022074077234
0.0170912490761
-0.00206661022724
0.0175828302109
-0.00192333186913
0.0180373357066
-0.00177770691444
0.0184542988296
-0.0016297086621
0.018833058937
-0.0014793555748
0.0191731086168
-0.0013265173503
0.0194737142985
-0.00117113661059
0.0197342886705
-0.001013026333
0.0199540015031
-0.000852103876551
0.0201321743235
-0.00068818157264
0.0202678869079
-0.000521212579081
0.0203603901751
-0.00035107250503
0.0204087149033
-0.000177814679734
0.0204120998604
-1.45292671193e-06
0.0203696085547
0.000177784011018
0.0202805669843
0.000359670504959
0.0201441939354
0.000543731856761
0.0199600412136
0.000729464325468
0.0197276406298
0.000916091063953
0.0194469372913
0.00110278386801
0.0191179549299
0.00128843198774
0.0187412127484
0.00147186272277
0.0183174111568
0.00165162491979
0.017847825147
0.0018262032406
0.017334014996
0.0019938168779
0.0167781936992
0.00215262425641
0.0161829685395
0.00230054342261
0.0155516788179
0.00243545584246
0.0148881639468
0.00255507098259
0.014197050678
0.0026571564816
0.0134835153307
0.00273948440014
0.0127534685798
0.002800118237
0.0120132463642
0.00283745230942
0.0112696317722
0.00285053563727
0.0105294350225
0.00283911373116
0.00979937403083
0.00280385562957
0.00908562741861
0.00274622913845
0.00839373482907
0.00266850335316
0.00772828907325
0.00257341369334
0.00709304178453
0.00246397416621
0.00649081154004
0.00234314556167
0.00592370771986
0.00221380621839
0.00539305263401
0.00207864881797
0.00489954356749
0.00194027812315
0.00444316581681
0.00180109276726
0.00402336385336
0.00166331634268
0.00363900464231
0.0015288568374
0.003288586069
0.00139932725552
0.00297023603283
0.00127595079558
0.00268192775055
0.00115961513142
0.0024214832808
0.00105083971657
0.00218674888702
0.000949880298103
0.00197556704446
0.000856736807956
0.00178589887685
0.000771262707048
0.00161577196893
0.000693162961684
0.00146337066167
0.000622080103393
0.00132697482869
0.000557580773198
0.00120502745865
0.000499225039866
0.00109606936488
0.000446550895265
0.000998782291174
0.000399140153382
0.000911909403841
0.00035662125407
0.00083426161827
0.000318755203293
0.000764436357909
0.000285741317422
0.000701794463559
0.000257634399861
0.000641339540674
0.000238775097283
0.000583060174614
0.000220867569887
0.000526372340044
0.000205448230701
0.000475171322122
0.000186433106973
0.000421512616822
0.000178960574059
0.000364796655741
0.000183601777024
0.000323253376453
0.000194969731488
0.000262736978432
0.000236772656856
0.000189035459933
0.000269971793472
0.000125876154403
0.000295178402936
6.55108952855e-05
0.000324177118057
0.000322987273713
0.000946556845098
-0.00459621556254
0.00194775704505
-0.00485851378832
0.00294504288335
-0.00483949861716
0.00393369160199
-0.00479868313624
0.00491077834393
-0.00474431932681
0.00587358620203
-0.00467705885822
0.00681951922644
-0.00459744684468
0.00774614407569
-0.00450610623181
0.00865116460405
-0.00440374895127
0.00953247865579
-0.00429113045129
0.0103881387654
-0.0041690600551
0.0112164102932
-0.00403835010563
0.0120157144838
-0.00389983218761
0.0127846863823
-0.00375430114266
0.0135221006081
-0.00360253734799
0.0142269292854
-0.00344524729061
0.0148982515256
-0.00328309374348
0.0155353125729
-0.00311663529356
0.0161374196959
-0.00294636648483
0.0167040050294
-0.00277265913521
0.0172345115082
-0.0025958143136
0.0177284627957
-0.00241600695048
0.0181853440979
-0.00223334946346
0.0186046822106
-0.00204783970466
0.0189859248834
-0.00185943435
0.019328532567
-0.00166799846644
0.0196318592428
-0.00147338552747
0.0198952556519
-0.00127538759158
0.0201179531073
-0.00107382000369
0.0202991774876
-0.000868472378625
0.0204380389838
-0.000659198929394
0.0205336562522
-0.000445866856544
0.0205850552271
-0.000228452608976
0.0205913043834
-6.99709863237e-06
0.0205514262891
0.000218302934809
0.0204645424306
0.000447136642092
0.0203297994045
0.000678992513628
0.0201465197495
0.000913201897289
0.0199141420005
0.00114886322404
0.0196323711502
0.00138489004127
0.0193011284964
0.00161994926772
0.0189206951477
0.00185251363565
0.0184916687501
0.00208081232604
0.0180150971559
0.00230288236185
0.0174924443692
0.00251652588755
0.0169257203085
0.00271935606712
0.0163174651483
0.00290876189625
0.0156708839088
0.00308196021971
0.0149898495142
0.00323599402037
0.0142790303885
0.0033678370121
0.0135438713365
0.0034744824206
0.0127906435251
0.00355316991748
0.0120263063193
0.00360160844292
0.0112583524349
0.00361830616346
0.0104944715414
0.00360282407807
0.00974218495434
0.00355598408691
0.00900842918745
0.00347985055218
0.00829922266078
0.00337760192996
0.00761942042305
0.00325313034554
0.00697276351793
0.00311057069431
0.00636198588298
0.00295387568305
0.00578903986714
0.00278671178755
0.00525513422858
0.00261251430743
0.00476077580295
0.00243459156563
0.00430575129739
0.00225606327713
0.00388921045838
0.00207980019789
0.00350970960795
0.00190828846465
0.00316538024864
0.00174358631182
0.00285400301247
0.0015872444156
0.00257320454962
0.00144032728687
0.00232052891416
0.00130341746356
0.00209358151333
0.00117672775991
0.00189004172114
0.00106016997788
0.00170773474623
0.000953465164255
0.00154461100518
0.00085618086227
0.0013987908899
0.000767800354978
0.00126853539254
0.000687738710105
0.00115227768323
0.000615392732755
0.00104859428073
0.000550148136461
0.000956229188249
0.000491426022766
0.000874072141176
0.000438703656614
0.000801194952417
0.000391565426139
0.000736530593951
0.000350339131108
0.000680678665105
0.000313426137491
0.000627392080744
0.000291998892361
0.000572657650078
0.00027553877045
0.000515082956855
0.000262957456704
0.000446133961763
0.000255315185535
0.000381563821743
0.000243463794752
0.000321605481746
0.00024349177146
0.000272175031064
0.000244329509142
0.000228448853042
0.000280428094572
0.00016367541417
0.000334680509695
0.000101625050626
0.000357146504567
5.15956930872e-05
0.000374114551465
0.000374543442376
0.000960115723228
-0.00555491820287
0.00197514905114
-0.00587205661482
0.0029860311234
-0.00584888850234
0.0039879590126
-0.00579911686235
0.00497790707229
-0.00573277476213
0.00595304457951
-0.00565070443486
0.00691068679464
-0.00555359828649
0.00784831614916
-0.00544224688437
0.00876358755405
-0.00531753409592
0.00965435071109
-0.00518041132415
0.0105186486092
-0.00503188030493
0.0113547340824
-0.00487296456565
0.0121610574155
-0.00470469226676
0.012936275747
-0.00452806614905
0.0136792286487
-0.0043440485147
0.0143889404173
-0.00415353132865
0.0150645841837
-0.00395732602942
0.0157054785295
-0.00375613676981
0.0163110421801
-0.00355055866558
0.0168807881968
-0.00334105745314
0.0174142735062
-0.00312797899985
0.0179110954623
-0.00291153741284
0.0183708410643
-0.00269183645323
0.0187930904472
-0.00246886513698
0.0191773696996
-0.00224252851615
0.0195231638539
-0.00201264758346
0.019829874548
-0.00177899587143
0.0200968427536
-0.00154130072944
0.0203233112447
-0.00129928381658
0.0205084569903
-0.00105266354966
0.0206513593773
-0.000801202491408
0.0207510434449
-0.000544706468892
0.0208064563588
-0.000283081485851
0.0208165253142
-1.63395144961e-05
0.0207801448154
0.000255346078483
0.0206962505528
0.000531634302439
0.020563818633
0.000811961883743
0.0203819535663
0.00109554508849
0.0201498961566
0.00138133244147
0.0198671190823
0.00166802081947
0.0195333367941
0.00195401993501
0.0191486000409
0.00223748311926
0.0187133018255
0.00251628016114
0.0182282674079
0.00278803391345
0.0176947606916
0.00305008980106
0.0171145807511
0.00329954509424
0.016490088692
0.00353320888781
0.0158243332524
0.00374763036358
0.0151211179424
0.00393908119464
0.0143851523066
0.00410364221596
0.0136221301082
0.00423731700922
0.0128388065555
0.00433628719671
0.012042927243
0.00439726925915
0.0112430272146
0.00441798641538
0.010448018686
0.00439762286196
0.00966664249834
0.00433716606524
0.00890690674143
0.00423942072545
0.00817552671917
0.00410884414893
0.00747760792723
0.00395094195658
0.00681675903962
0.00377134164261
0.00619546134239
0.00357511041107
0.00561544945415
0.00336666082344
0.00507778357048
0.00315011363038
0.0045827750244
0.00292952044632
0.00412994964362
0.00270880292336
0.00371808099871
0.00249157644083
0.00334529702819
0.00228097631514
0.00300923541664
0.00207954854728
0.0027071949727
0.00188918109805
0.00243633378567
0.00171107813303
0.00219382343814
0.00154581254145
0.00197697096164
0.00139346228969
0.00178325616618
0.00125376652434
0.00161035278661
0.00112625345347
0.00145612078103
0.00101030282607
0.00131861517165
0.000905202784267
0.00119607430523
0.000810184338736
0.00108692410996
0.000724454415672
0.000989774474507
0.000647216769385
0.000903427768648
0.00057769710848
0.000826890481575
0.000515172957132
0.000759380275437
0.000459011646355
0.000699896300258
0.00040976325778
0.000641616568335
0.000371645707635
0.00058642654996
0.000347129278099
0.000528540416257
0.000333364434952
0.000474414934979
0.000317018579458
0.000423780208899
0.00030588322919
0.000362731386082
0.000304440571284
0.000296428860687
0.000309721672404
0.000227212402923
0.000313482369567
0.000181471732409
0.000326104501897
0.000141658666519
0.000374415237828
8.76791510109e-05
0.000411056765477
4.38681741132e-05
0.000417855149603
0.000418365311484
0.000976426450792
-0.00652992558052
0.00200843652933
-0.00690257989684
0.00303600082027
-0.00687495446261
0.00405417269395
-0.00681579124235
0.00505980889475
-0.00673691320303
0.00604995575271
-0.00663935355669
0.00702182106995
-0.00652396696969
0.00797279579067
-0.00639172520971
0.00890046582203
-0.00624371042496
0.00980263233066
-0.00608108594069
0.0106773144563
-0.00590507557986
0.0115227623184
-0.00571692992962
0.0123374490496
-0.00551790456654
0.013120074248
-0.00530922473073
0.0138695446855
-0.00509206419521
0.0145849672612
-0.00486751118336
0.01526561866
-0.00463655096314
0.0159109286198
-0.00440003720509
0.0165204410221
-0.004158682784
0.0170937911298
-0.00391304154693
0.0176306631751
-0.00366351157338
0.0181307676333
-0.00341033033273
0.0185938018354
-0.00315359121758
0.0190194332488
-0.00289325080031
0.0194072677161
-0.00262915491555
0.019756841528
-0.00236105285242
0.0200675981287
-0.00208862722057
0.020338888127
-0.00181151073702
0.0205699528901
-0.00152931726348
0.0207599312496
-0.00124166150687
0.0209078506754
-0.000948195361418
0.0210126419662
-0.00064862732875
0.0210731418496
-0.000342768899532
0.021088120686
-3.05663757307e-05
0.0210563014184
0.000287856547886
0.0209764026408
0.000612160653117
0.0208471767351
0.000941753484183
0.0206674660487
0.00127575595283
0.0204362567959
0.00161298020287
0.020152739775
0.0019519101216
0.019816369675
0.00229070186909
0.0194269177856
0.00262718068842
0.0189845258281
0.00295885910634
0.018489744589
0.00328293669386
0.0179435857272
0.00359631379614
0.0173475646693
0.00389556834369
0.0167037834102
0.0041769418468
0.0160150249132
0.00443628490856
0.0152849136599
0.00466904467789
0.0145181041421
0.00487026372978
0.0137204870607
0.00503471006724
0.0128993699063
0.00515715309078
0.0120635016005
0.00523287218921
0.0112228530602
0.00525836016846
0.0103880868264
0.00523212432642
0.00956972128289
0.0051552781587
0.00877735128713
0.0050315736611
0.00801868172343
0.00486731930437
0.00729897266453
0.00467049387891
0.00662136711714
0.00444882568949
0.0059877745716
0.00420858529184
0.00539963727878
0.00395467416217
0.00485790123653
0.00369171002529
0.00436272020242
0.00342454474449
0.00391330459184
0.00315805396581
0.00350795636139
0.00289676302117
0.0031442202406
0.00264455055887
0.00281909084954
0.00240452905856
0.00252919654706
0.0021789214712
0.00227108219935
0.00196904592672
0.00204142418685
0.00177532238525
0.00183718627937
0.00159755805183
0.00165562626288
0.00143519037208
0.00149426782998
0.00128748555364
0.00135087549274
0.00115357941789
0.00122344688042
0.00103252797089
0.00111019391404
0.000923343624541
0.00100954087446
0.00082502493227
0.000920120215762
0.000736561696961
0.000840790273395
0.000656958529735
0.000770674982035
0.000585225055405
0.000709264593616
0.000520365064234
0.000657183913288
0.000461787934517
0.000602167209856
0.000426605774828
0.000546261364544
0.000402979202713
0.000493730701801
0.000385836132603
0.000436094718359
0.000374593241269
0.000379453592786
0.000362458357224
0.000319467261466
0.000364357473389
0.000265257975314
0.000363861896014
0.000203811015909
0.000374857906391
0.000145436846005
0.000384413387528
0.000115181911841
0.000404617461998
7.46836865327e-05
0.000451481919556
3.71697540439e-05
0.000455290774398
0.000455503645136
0.000995732997641
-0.00752424033628
0.0020479595266
-0.00795331149561
0.00309538982413
-0.00792088593318
0.0041328895425
-0.00785178975535
0.00515715961578
-0.00775968161735
0.00616510156433
-0.00764579360324
0.00715379598107
-0.00751115831598
0.00812052422489
-0.00735695114941
0.0090627908262
-0.0071844744768
0.00997833703563
-0.00699513217675
0.01086515459
-0.00679039498534
0.0117214890228
-0.0065717714675
0.012545842825
-0.00634077037205
0.0133369673096
-0.00609886991704
0.0140938534135
-0.00584747978933
0.0148157109726
-0.00558791111196
0.0155019463932
-0.00532134216713
0.0161521299135
-0.00504879411177
0.0167659621825
-0.00477110696603
0.0173432338779
-0.00448892791957
0.0178837875552
-0.00420270395683
0.0183874777716
-0.00391268738534
0.018854136769
-0.00361894676786
0.0192835433623
-0.00332138759044
0.0196753984685
-0.00301977581503
0.0200293060812
-0.00271376543808
0.0203447581353
-0.0024029258288
0.0206211250504
-0.0020867689112
0.0208576456565
-0.0017647767606
0.0210534246587
-0.0014364294572
0.0212074264219
-0.0011012397196
0.0213184818413
-0.00075878015458
0.0213852912382
-0.000408734641918
0.021406448976
-5.09388582486e-05
0.0213804617006
0.000314565864148
0.0213057971122
0.000687486621495
0.0211809211268
0.00106722444891
0.0210043704307
0.00145283982502
0.0207748035931
0.00184301157193
0.0204910865712
0.00223602923466
0.0201523429029
0.00262977730959
0.0197580322683
0.00302176031639
0.0193079809858
0.00340910763587
0.0188024392735
0.00378861257906
0.0182420926325
0.0041567225419
0.0176281197718
0.004509543882
0.0169622333774
0.00484276211072
0.016246823611
0.00515157686251
0.0154851293443
0.00543056108837
0.014681561327
0.00567360707697
0.013842051507
0.00587395259878
0.0129744499358
0.00602445176119
0.0120887290879
0.00611826604028
0.0111968343981
0.00614991568775
0.0103119419538
0.00611667409347
0.00944717644674
0.00601973620383
0.00861455962407
0.00586388626233
0.00782331204422
0.00565831220793
0.00707851970012
0.00541505734068
0.00638207736789
0.00514508252925
0.00573471023404
0.00485576690762
0.00513753159314
0.00455163482586
0.0045916064452
0.00423739493526
0.00409705596858
0.00391883118065
0.00365273884458
0.00360211146115
0.00325632847431
0.00329291990245
0.0029046156444
0.00299603964462
0.00259372168705
0.00271520492588
0.00231939710855
0.00245305709789
0.00207732085999
0.00221093141198
0.00186355621452
0.00198891621118
0.00167468019004
0.0017862698233
0.00150775907369
0.00160196686504
0.0013601836203
0.00143492720576
0.00122963752642
0.00128400992809
0.00111407238273
0.00114799207801
0.00101168397985
0.00102564645796
0.000920887534897
0.000915744562913
0.000840324917238
0.000817056890284
0.000768845566908
0.00072837596418
0.00070548638605
0.000648528266859
0.000649254625197
0.000576544857407
0.000598782157988
0.000512209544746
0.000548225781913
0.000477110479796
0.00049870198943
0.00045244944157
0.000451225383825
0.000433256753804
0.000400337358803
0.000425422179163
0.000340976299117
0.000421755461084
0.000283320952576
0.000421945869954
0.000223266938823
0.000423847646717
0.000178838223247
0.000419223359348
0.000129761752253
0.000433428674554
9.12592645898e-05
0.000443049970879
6.46793927371e-05
0.000478005010687
3.12670865859e-05
0.000488646045024
0.000486731365149
0.00101825760071
-0.00854107710556
0.00209409615483
-0.00902766072833
0.00316473834061
-0.00899002770183
0.00422480038989
-0.00891035007538
0.00527079320447
-0.00880417115178
0.0062994442158
-0.00867293900063
0.00730767959346
-0.00851788719736
0.00829265416052
-0.00834041673841
0.00925177108304
-0.00814208282616
0.0101827049666
-0.00792455642458
0.0110834094798
-0.0076895925189
0.0119521299371
-0.00743898653221
0.0127873988503
-0.00717453963579
0.0135880357759
-0.00689801244099
0.0143531293037
-0.00661108850959
0.0150820213804
-0.00631532806567
0.0157742740435
-0.00601213374797
0.0164296374063
-0.00570271107469
0.0170480029666
-0.00538804509007
0.0176293601298
-0.00506887766323
0.0181737441841
-0.00474570475603
0.0186811923777
-0.00441877789123
0.0191516987577
-0.00408812502751
0.01958518148
-0.00375357344058
0.0199814529297
-0.00341478551868
0.0203402020924
-0.00307128993537
0.0206609779714
-0.00272251791059
0.0209431809328
-0.00236783108473
0.0211860510388
-0.00200655271929
0.0213886622839
-0.00163799550418
0.0215499126117
-0.00126149715947
0.0216685240017
-0.000876453195702
0.0217430439065
-0.000482373170651
0.021771861351
-7.8934359085e-05
0.0217532316029
0.000333956997643
0.0216853179877
0.00075609784507
0.0215662474735
0.00118692944731
0.021394178053
0.00162547580082
0.0211673814303
0.00207030942782
0.0208843214581
0.00251951834658
0.020543742948
0.00297071736663
0.020144730727
0.0034210573652
0.0196867722909
0.00386728101166
0.0191697674339
0.00430575181641
0.0185940536374
0.00473250251848
0.0179603831273
0.00514320098737
0.0172699802172
0.00553308862824
0.0165246168526
0.00589679155369
0.0157268747447
0.00622809242049
0.0148805583169
0.0065196700105
0.0139912802489
0.00676289870669
0.0130672749275
0.00694811748904
0.0121199065602
0.00706523900579
0.0111638240522
0.00710559445365
0.0102159180263
0.00706420618755
0.00929298075401
0.00694227556399
0.00841116609392
0.00674538808326
0.00758212006169
0.00648703451458
0.00681003109284
0.00618688030604
0.00609369596529
0.00586120770308
0.00543141001319
0.00551780359584
0.00482426786489
0.00515849441165
0.00427411909763
0.00478722324351
0.00378137822729
0.00441123269253
0.00334445438677
0.00403870562363
0.00296016769481
0.00367691493258
0.00262427355071
0.00333165760371
0.0023318131696
0.00300744480797
0.0020772772404
0.00270737308511
0.00185517053751
0.00243285375234
0.00166072177163
0.00218319052587
0.00149017595132
0.0019566617671
0.00134050421967
0.00175150079916
0.00120903722181
0.001566267945
0.00109338766322
0.00139955349622
0.000991493751169
0.00124979466234
0.000901548989747
0.00111551269633
0.000821971480776
0.000995256486237
0.000751423744575
0.000887546279675
0.00068879656297
0.000790948892936
0.000633190161668
0.000704084317371
0.000583516633179
0.000626171657272
0.000536183241539
0.000559496452334
0.000487284403954
0.000525960923406
0.000440524348609
0.000499158573053
0.000392850494643