/*--------------------------------*- C++ -*----------------------------------*\
| =========                 |                                                 |
| \\      /  F ield         | OpenFOAM: The Open Source CFD Toolbox           |
|  \\    /   O peration     | Version:  v1906                                 |
|   \\  /    A nd           | Web:      www.OpenFOAM.com                      |
|    \\/     M anipulation  |                                                 |
\*---------------------------------------------------------------------------*/
FoamFile
{
    version     2.0;
    format      ascii;
    class       surfaceScalarField;
    location    "73";
    object      phi;
}
// * * * * * * * * * * * * * * * * * * * * * * * * * * * * * * * * * * * * * //

dimensions      [0 3 -1 0 0 0 0];
oriented        oriented;


internalField   nonuniform List<scalar> 
18240
(
0.0119445341948
-0.0119445468787
0.0244853156994
-0.0125407988036
0.0369770007015
-0.0124916971911
0.0493297596603
-0.0123527771967
0.0614909705984
-0.0121612217561
0.0734138896594
-0.0119229379084
0.0850557086938
-0.011641828348
0.096377198962
-0.0113215095219
0.107342862233
-0.0109656710584
0.11792100679
-0.0105781640489
0.128083937908
-0.0101629373746
0.137807925737
-0.009724007418
0.147073276151
-0.0092653551897
0.155864154946
-0.00879089835879
0.164168547444
-0.00830439583292
0.171977968707
-0.00780944069922
0.179287347526
-0.00730938079747
0.186094663159
-0.00680733485287
0.192400791656
-0.00630612917862
0.198209107011
-0.00580833428587
0.203525322133
-0.00531621460324
0.208357084535
-0.00483178098006
0.212713835478
-0.00435674928836
0.216606421146
-0.00389260384248
0.220046984681
-0.0034405608411
0.223048605325
-0.00300163836454
0.225625230456
-0.00257662145828
0.227791348636
-0.00216613541018
0.229561963745
-0.00177061054537
0.230952304578
-0.00139035753596
0.231977843752
-0.00102553377324
0.232654056678
-0.000676229085296
0.232996526123
-0.000342463294824
0.233020967548
-2.44570292721e-05
0.232742517088
0.000278457321604
0.232175401693
0.000567100387939
0.231333866888
0.000841542310376
0.230231878876
0.00110197365371
0.228883139384
0.00134874761525
0.227300879869
0.0015822458499
0.225497979575
0.00180290896869
0.223486800112
0.00201116653102
0.221279322747
0.00220748655244
0.218886997255
0.00239231332353
0.216320886675
0.00256612020886
0.213591525054
0.00272935024411
0.210709065442
0.00288246963917
0.207683144569
0.00302591030651
0.2045230316
0.00316012332219
0.201237498652
0.00328552320939
0.197834968401
0.00340254088681
0.194323389793
0.00351156970809
0.190710383086
0.00361301755399
0.187003120398
0.00370725463264
0.18320846702
0.00379466439367
0.179332866651
0.00387559315891
0.175382478154
0.00395039961129
0.171363065482
0.00401940630416
0.167280129167
0.0040829474859
0.163138801051
0.0041413225825
0.158943970036
0.00419484217857
0.154700181788
0.00424378353942
0.150411758333
0.00428843457076
0.146082702956
0.00432905148172
0.141716813376
0.00436590059249
0.137317592073
0.00439921820926
0.132888352801
0.00442925014664
0.128432136584
0.00445621391292
0.123951811424
0.00448033584909
0.119449994206
0.00450181569479
0.114929143442
0.00452086124087
0.110391487318
0.00453765536742
0.105839109407
0.0045523881333
0.101273883052
0.00456522635161
0.0966975499516
0.00457634303637
0.0921116610822
0.00458588959352
0.0875176481202
0.00459402256796
0.0829167710373
0.0046008785002
0.0783101823497
0.00460659792107
0.0736988814873
0.00461130292289
0.0690837719199
0.00461511837141
0.0644656223603
0.00461815220488
0.0598451168508
0.00462051383295
0.0552228228819
0.00462229715296
0.0505992346294
0.00462359606637
0.0459747482638
0.00462449009123
0.0413496989269
0.00462505666312
0.0367243445938
0.00462535862428
0.0320989000568
0.00462545138096
0.027473537576
0.00462536725031
0.0228484404258
0.00462510337673
0.0182238812637
0.00462456421287
0.0136005027125
0.00462338404923
0.00897997768583
0.00462053030347
0.00437518953769
0.00460479329878
0.00437519201111
0.0126154802612
-0.0245600415269
0.0260059656988
-0.0259313004679
0.0393022193617
-0.025787965769
0.0524378236975
-0.0254883978732
0.0653645406039
-0.0250879529472
0.0780353802047
-0.0245937936326
0.0904056706329
-0.0240121322868
0.102433988318
-0.0233498429659
0.114082684464
-0.0226143798535
0.125318147484
-0.0218136423561
0.136110997201
-0.0209557988342
0.146436117969
-0.0200491429219
0.156272675368
-0.019101923391
0.165603988499
-0.0181222256186
0.174417415738
-0.0171178329339
0.182704110775
-0.016096149217
0.190458821654
-0.0150641006001
0.197679575525
-0.0140281015323
0.204367433397
-0.0129939950582
0.210526143777
-0.0119670567871
0.216161888418
-0.0109519663547
0.22128293615
-0.00995284013961
0.225899405149
-0.008973224535
0.230022938258
-0.00801614768411
0.233666497631
-0.00708412562451
0.236844073759
-0.00617922453145
0.239570520181
-0.00530307249024
0.241861301204
-0.004456925785
0.24373236804
-0.00364168121377
0.245199943955
-0.00285794212112
0.246280435016
-0.00210602792752
0.246990233545
-0.0013860356153
0.247345603146
-0.000697835284156
0.247362193489
-4.10547236962e-05
0.247055922355
0.000584726748772
0.246443050328
0.00117996572763
0.245539184312
0.00174540729068
0.244359346176
0.00228180577344
0.242918117867
0.00278997554382
0.241229591346
0.00327076703399
0.239307417025
0.00372508355265
0.237164737701
0.0041538411988
0.234814238303
0.0045579868314
0.232268086363
0.00493846128608
0.229537987903
0.00529622014629
0.226635134898
0.00563219994332
0.223570265651
0.00594734093004
0.220353617653
0.00624255565986
0.216994990506
0.00651875305295
0.2135037028
0.00677680892112
0.209888655998
0.00701759077658
0.206158294355
0.00724192998898
0.202320668578
0.00745064689575
0.198383398093
0.00764452436999
0.194353733611
0.00782433287749
0.190238521317
0.00799080529698
0.186044263698
0.00814466163668
0.181777085409
0.00828658500548
0.177442791908
0.00841724575908
0.173046836886
0.00853727855831
0.168594378407
0.00864730576022
0.164090247881
0.00874791553513
0.159539003491
0.00883968435527
0.154944900768
0.00892315616276
0.150311943177
0.00899886383823
0.145643854377
0.00906730943223
0.140944125886
0.00912898451877
0.136215991148
0.00918435151359
0.131462470242
0.00923386283585
0.126686345872
0.00927794334758
0.121890205104
0.00931700825943
0.117076417422
0.00935144673057
0.112247173485
0.00938163846547
0.107404465374
0.00940793851791
0.102550122385
0.00943069253352
0.0976857935776
0.00945022280042
0.092812980627
0.00946684210122
0.0879330227813
0.00948084105015
0.0830471267898
0.00949250052377
0.0781563543541
0.00950208031578
0.073261649186
0.0095098301223
0.068363827012
0.00951597952953
0.063463599822
0.00952074752095
0.0585615684928
0.00952433377951
0.0536582443129
0.0095269266327
0.0487540443051
0.00952869554577
0.0438493100723
0.00952979719692
0.0389443056993
0.00953036862123
0.0340392329933
0.00953053030015
0.0291342280111
0.00953037796086
0.0242293577976
0.00952997952322
0.0193245637079
0.00952936388443
0.0144194494717
0.00952850393816
0.00951292593402
0.00952705935546
0.00460769102979
0.00951003348194
0.00898288559594
0.0127556814541
-0.0373157377267
0.0262519732112
-0.039427608125
0.0396675895073
-0.0392035975603
0.0529217784478
-0.038742602555
0.0659624495087
-0.0381286390647
0.0787409952131
-0.037372354648
0.091211802468
-0.036482954
0.103332775085
-0.0354708303508
0.11506576164
-0.03434738018
0.126376825097
-0.033124719949
0.137236413359
-0.0318154001094
0.147619405199
-0.0304321482048
0.157505089906
-0.0289876203162
0.166877045703
-0.027494194122
0.175722979768
-0.025963778395
0.184034490056
-0.0244076714534
0.191806816017
-0.0228364371319
0.199038533028
-0.0212598297218
0.205731259875
-0.0196867316482
0.21188932802
-0.0181251353412
0.217519482807
-0.0165821300728
0.222630559272
-0.0150639262473
0.227233202922
-0.0135758763142
0.231339572772
-0.0121225264227
0.234963097103
-0.0107076573078
0.238118214808
-0.00933435038109
0.240820173029
-0.00800503729907
0.243084810548
-0.00672157072012
0.244928397979
-0.00548527449378
0.246367461548
-0.00429701239138
0.247418661828
-0.00315723333173
0.248098652758
-0.00206603254992
0.248423996807
-0.00102318376777
0.24841112281
-2.81860563627e-05
0.24807615274
0.000919693073807
0.247434874548
0.00182123927293
0.246502769535
0.00267750923377
0.245294903205
0.00348966813594
0.2438259073
0.00425896905212
0.242109940966
0.00498673007411
0.240160694647
0.0056743281327
0.237991361124
0.00632317209467
0.235614648092
0.00693469877335
0.233042757418
0.00751034998691
0.230287404627
0.00805157247318
0.227359804507
0.00855979873211
0.224270695418
0.00903645016533
0.221030329413
0.00948292095457
0.217648499611
0.0099005835839
0.21413453335
0.0102907750763
0.210497321216
0.0106548042007
0.206745312173
0.0109939395056
0.20288654322
0.0113094176696
0.198928635727
0.0116024328927
0.194878824983
0.0118741459476
0.190743957227
0.0121256746099
0.186530518583
0.0123581030756
0.182244632463
0.0125724731818
0.177892087537
0.0127697939226
0.173478335322
0.0129510332971
0.169008516996
0.0131171277283
0.164487461082
0.0132689744119
0.159919708967
0.0134074404867
0.155309512688
0.0135333558123
0.150660859098
0.0136475217857
0.145977467786
0.0137507044946
0.14126281388
0.0138436430978
0.13652012616
0.0139270433374
0.131752408527
0.0140015854281
0.126962438389
0.0140679179189
0.122152786825
0.0141266650475
0.117325817332
0.0141784209636
0.112483704734
0.0142237565233
0.107628434388
0.0142632138848
0.102761819869
0.0142973127212
0.0978855027243
0.0143265452137
0.0930009689937
0.0143513816708
0.0881095495831
0.0143722659379
0.0832124356589
0.0143896204124
0.078310679717
0.0144038418908
0.0734052098975
0.0144153059735
0.0684968318009
0.0144243633561
0.0635862417593
0.0144313436053
0.0586740294326
0.0144365518854
0.0537606900388
0.0144402720551
0.0488466276541
0.0144427637626
0.0439321661605
0.0144442647324
0.039017552618
0.0144449880823
0.0341029652978
0.0144451236647
0.0291885132611
0.0144448359148
0.0242742325267
0.0144442661535
0.0193600638656
0.0144435382045
0.0144458100409
0.0144427633276
0.00953135627421
0.0144415187083
0.00462408769287
0.0144173073932
0.013606975797
0.0129135050081
-0.0502292575428
0.0265635249699
-0.0530776437799
0.040132725198
-0.0527728134087
0.0535360883204
-0.052145981204
0.0667188863733
-0.0513114523094
0.0796306463874
-0.050284129718
0.0922243762666
-0.0490766985117
0.104456957066
-0.0477034256265
0.116289513969
-0.0461799510665
0.127687669864
-0.0445228896582
0.138621690514
-0.0427494340291
0.149066516089
-0.0408769868734
0.15900170582
-0.0389228225551
0.16841129414
-0.0369037947775
0.177283588972
-0.0348360849511
0.185610909744
-0.0327350037841
0.193389296542
-0.0306148348547
0.200618185001
-0.0284887289546
0.207300077059
-0.0263686338351
0.213440198024
-0.0242652662958
0.219046167812
-0.0221881091986
0.22412767259
-0.0201454402382
0.228696162343
-0.0181443746268
0.232764556911
-0.0161909294393
0.236346984152
-0.0142900923426
0.239458529901
-0.0124459038281
0.242115022123
-0.0106615365686
0.244332826896
-0.00893938245503
0.246128677893
-0.0072811318028
0.24751951572
-0.005687856459
0.248522358679
-0.00416008188774
0.249154181502
-0.00269786090621
0.249431824178
-0.0013008313464
0.249371948263
3.16850078047e-05
0.248990865241
0.00130077188731
0.248304513444
0.00250758691419
0.247328469834
0.00365354932262
0.246077888496
0.00474024600146
0.244567468733
0.00576938596855
0.242811427011
0.00674276899732
0.240823488574
0.00766226439223
0.238616873042
0.00852978549086
0.236204296156
0.00934727413358
0.233597963692
0.0101166809641
0.230809580035
0.0108399552421
0.227850347883
0.0115190300303
0.224730981465
0.0121558163089
0.221461710173
0.0127521920054
0.2180522947
0.0133099993801
0.214512033158
0.0138310369674
0.210849778886
0.0143170593654
0.20707394799
0.0147697713173
0.203192537879
0.0151908292188
0.199213135486
0.0155818367429
0.195142935892
0.0159443474948
0.190988750725
0.0162798617449
0.186757026432
0.01658982981
0.182453852527
0.0168756495353
0.178084979249
0.017138670096
0.173655825472
0.0173801899726
0.169171495583
0.0176014609368
0.164636786972
0.0178036863398
0.160056206054
0.0179880251136
0.155433975324
0.0181555902466
0.150774048501
0.0183074526801
0.14608011717
0.0184446398887
0.141355625078
0.0185681395918
0.136603774423
0.0186788983883
0.131827539332
0.0187778252292
0.127029671873
0.0188657900814
0.122212714784
0.0189436271295
0.117379007274
0.0190121334601
0.112530697074
0.0190720719749
0.107669746104
0.0191241700996
0.102797941902
0.0191691224022
0.0979169032494
0.0192075893365
0.0930280910259
0.0192401995665
0.0881328138582
0.0192675487599
0.0832322384668
0.019290201622
0.0783273953901
0.0193086907547
0.0734191888664
0.0193235184048
0.0685084026829
0.0193351554
0.0635957096157
0.0193440426123
0.0586816774147
0.0193505899729
0.0537667777695
0.0193551776479
0.0488513923116
0.0193581551375
0.0439358208533
0.0193598421759
0.0390202868773
0.0193605280384
0.0341049440333
0.0193604725262
0.0291898794478
0.0193599064667
0.0242751162139
0.0193590352236
0.0193606145718
0.019358045525
0.0144462879182
0.0193570956307
0.00953230138644
0.0193555107457
0.00462670526923
0.0193229087699
0.0182336836149
0.0131209012203
-0.0633501735411
0.0269843901625
-0.0669411484034
0.0407629340162
-0.0665513728234
0.0543681842621
-0.0657512468746
0.0677427853063
-0.0646860685079
0.0808340251277
-0.0633753844675
0.0935931003438
-0.0618357883359
0.105975506294
-0.0600858459166
0.117941392424
-0.0581458511738
0.129455799492
-0.0560373104016
0.140488776697
-0.0537824245103
0.151015382115
-0.0514036052453
0.161015584248
-0.0489230372207
0.170474075936
-0.0463622986636
0.179380022598
-0.0437420433724
0.187726756478
-0.0410817490883
0.19551143809
-0.0383995274451
0.202734693549
-0.0357119950559
0.209400245847
-0.0330341963263
0.21551454448
-0.030379574792
0.221086407672
-0.0277599818051
0.226126677343
-0.0251857190009
0.230647897648
-0.0226656035762
0.234664013758
-0.0202070538802
0.238190099119
-0.0178161855933
0.241242105361
-0.0154979176537
0.243836641396
-0.0132560797496
0.245990774294
-0.0110935222025
0.24772185756
-0.00901222148766
0.249047378539
-0.00701338356586
0.249984830347
-0.00509753939568
0.250551600151
-0.00326463612884
0.250764878191
-0.00151411439272
0.250641581775
0.000154976692861
0.250198267303
0.00174408205479
0.249451102003
0.00325474818764
0.248415823797
0.00468882391669
0.247107710593
0.0060483558654
0.245541554136
0.00733553949517
0.243731640113
0.00855268035608
0.241691738959
0.00970216328392
0.239435098506
0.0107864239424
0.236974444451
0.011807926582
0.234321980854
0.0127691432077
0.231489396989
0.0136725381365
0.228487873076
0.0145205532191
0.225328091305
0.0153155977288
0.22202024493
0.0160600382653
0.218574051863
0.0167561926912
0.214998765757
0.0174063235439
0.21130319099
0.0180126349505
0.207495694739
0.0185772686004
0.20358422253
0.0191023027905
0.19957631064
0.0195897502012
0.195479101598
0.0200415584191
0.191299356469
0.0204596089463
0.187043469975
0.020845718674
0.182717482347
0.0212016397124
0.178327093834
0.0215290614363
0.173877675992
0.0218296108072
0.169374285458
0.0221048547225
0.164821674603
0.0223563005985
0.160224304539
0.0225853988236
0.155586355126
0.0227935434448
0.150911737225
0.0229820745905
0.1462041021
0.0231522791513
0.141466852956
0.0233053930816
0.136703153796
0.0234426020105
0.131915940314
0.0235650433668
0.127107928277
0.0236738068824
0.12228162384
0.0237699365082
0.117439331545
0.0238544307976
0.112583164121
0.0239282446015
0.107715050185
0.0239922893287
0.102836743602
0.0240474344205
0.097949830951
0.0240945074992
0.0930557405195
0.0241342956296
0.0881557495983
0.0241675453705
0.0832509931696
0.0241949638325
0.0783424710834
0.0242172186566
0.0734310564804
0.0242349388828
0.0685175029003
0.0242487148628
0.0636024524587
0.0242590989653
0.0586864428886
0.0242666054454
0.0537699154539
0.0242717110066
0.04885322184
0.0242748546788
0.0439366316523
0.0242764383301
0.0390203389258
0.0242768267554
0.0341044689082
0.0242763485402
0.0291890841512
0.0242752971795
0.0242741915472
0.0242739337058
0.0193597525426
0.0242724901933
0.0144457102567
0.0242711434433
0.00953226436685
0.0242689621958
0.00462744820346
0.0242277302366
0.0228611343032
0.0133833529316
-0.0767335411962
0.0275209080308
-0.0810787190084
0.041567401993
-0.0805978822976
0.0554303364924
-0.079614196685
0.0690492084501
-0.0783049555453
0.0823685714946
-0.0766947623348
0.0953373643162
-0.0748045956893
0.107909343396
-0.0726578392346
0.120043446171
-0.070279967852
0.131704014016
-0.0676978918251
0.142860876038
-0.0649392997448
0.153489304008
-0.0620320460784
0.163569857118
-0.0590036028069
0.173088135042
-0.0558805887017
0.182034461601
-0.0526883816488
0.19040351749
-0.0494508163244
0.19819394208
-0.0461899629807
0.205407918668
-0.0429259822182
0.212050758363
-0.0396770461942
0.218130491647
-0.0364593178801
0.223657477688
-0.0332869772502
0.228644035539
-0.0301722858911
0.233104103089
-0.0271256797712
0.237052924184
-0.0241558832616
0.240506766816
-0.0212700361222
0.243482670359
-0.0184738287408
0.245998222966
-0.0157716395184
0.248071365739
-0.0131666717895
0.249720223879
-0.0106610860629
0.250962960873
-0.00825612665486
0.251817655636
-0.00595223988033
0.252302198532
-0.003749184406
0.252434203956
-0.00164612484091
0.252230920101
0.000358255856259
0.251709210302
0.00226578753568
0.25088549218
0.00407846232828
0.249775699513
0.00579861296464
0.248395260158
0.00742879192902
0.24675907723
0.00897171948821
0.244881516299
0.0104302386738
0.242776399601
0.0118072777176
0.240457003982
0.0131058176107
0.237936063729
0.0143288652257
0.235225775511
0.0154794301216
0.232337806851
0.0165605058246
0.229283305569
0.0175750538254
0.226072911781
0.0185259911606
0.22271677008
0.0194161798971
0.219224543556
0.0202484194557
0.21560542744
0.021025440175
0.211868164092
0.0217498991097
0.208021057221
0.022424376545
0.204071987102
0.0230513742653
0.200028424772
0.0236333141378
0.195897446995
0.0241725380681
0.191685750059
0.0246713079908
0.187399664172
0.0251318069218
0.183045166638
0.0255561398265
0.178627895535
0.0259463353553
0.174153162147
0.0263043472163
0.169625963847
0.026632056262
0.165050995767
0.0269312721092
0.160432662872
0.0272037353497
0.155775090893
0.027451119232
0.151082137636
0.0276750318425
0.146357403218
0.0278770177257
0.141604240692
0.0280585599365
0.136825765659
0.0282210815227
0.132024866277
0.0283659473885
0.12720421234
0.0284944655968
0.122366264758
0.0286078890147
0.11751328419
0.028707416418
0.112647340068
0.0287941939086
0.107770318874
0.028869315823
0.102883932791
0.0289338259215
0.0979897276866
0.0289887181193
0.0930890914683
0.0290349374614
0.0881832618475
0.0290733806824
0.0832733344438
0.0291048969996
0.0783602703919
0.0291302885235
0.0734449042472
0.0291503108844
0.0685279514652
0.0291656735241
0.063610016141
0.0291770401828
0.058691598378
0.0291850291051
0.0537731018595
0.0291902134312
0.0488548410751
0.0291931213833
0.0439370486917
0.0291942366643
0.0390198826245
0.0291939988
0.0341034333245
0.0291928038317
0.029187731241
0.0291910052215
0.0242727554616
0.02918891529
0.0193584453453
0.0291868059679
0.0144447239266
0.0291848704965
0.00953174716607
0.0291819444142
0.00462743952821
0.029132043086
0.0274885763661
0.0137053907496
-0.0904389465828
0.0281803542832
-0.0955536980508
0.0425564941964
-0.0949740375992
0.0567359394429
-0.0937936571583
0.0706542574861
-0.0922232885653
0.0842526406273
-0.0902931601976
0.0974772692135
-0.0880292387112
0.110279795825
-0.0854603799821
0.122617722544
-0.0826179083852
0.134454605766
-0.0795347885263
0.145760095721
-0.076244802829
0.156509828734
-0.0727817918629
0.166685196267
-0.0691789827426
0.176273016226
-0.0654684206913
0.185265132922
-0.0616805099967
0.193657969492
-0.0578436641687
0.201452054793
-0.0539840591737
0.208651542481
-0.0501254804184
0.21526373741
-0.046289251252
0.221298640087
-0.0424942303087
0.226768517782
-0.0387568643169
0.231687507129
-0.0350912842359
0.236071251863
-0.0315094331261
0.239936576436
-0.0280212160877
0.243301195936
-0.0246346635043
0.246183460634
-0.0213561009583
0.248602133852
-0.0181903198884
0.250576200308
-0.0151407450402
0.252124702951
-0.012209595137
0.253266605089
-0.00939803487163
0.254020675769
-0.00670631627562
0.254405395108
-0.00413390911128
0.254438875274
-0.00167961002348
0.254138745851
0.000658380605005
0.253522234161
0.00288229491842
0.252606037824
0.00499465470736
0.251406310282
0.00699833690233
0.249938647656
0.00889645129084
0.248218076871
0.0106922873563
0.246259049682
0.0123892632784
0.244075442117
0.0139908830363
0.241680557692
0.0155007001148
0.239087134221
0.0169222871051
0.236307352955
0.0182592101118
0.233352850058
0.0195150077659
0.230234729353
0.0206931738815
0.22696357652
0.0217971436547
0.223549473825
0.0228302825475
0.220002015688
0.0237958778464
0.216330324269
0.0246971321318
0.212543065468
0.0255371587334
0.20864846462
0.0263189784869
0.204654322313
0.0270455179388
0.200568029688
0.0277196083851
0.196396583703
0.0283439859351
0.192146601737
0.0289212920788
0.187824336079
0.0294540749463
0.183435687689
0.0299447908091
0.178986219797
0.0303958060662
0.174481170782
0.030809399262
0.169925466852
0.031187763433
0.165323734046
0.0315330083519
0.160680310044
0.0318471629834
0.155999255336
0.0321321777518
0.151284364232
0.032389926938
0.146539175282
0.032622210834
0.141766981569
0.0328307579752
0.13697084047
0.0330172271
0.132153583336
0.033183209155
0.127317824691
0.0333302290164
0.122465971384
0.033459747239
0.117600231329
0.033573161519
0.112722622225
0.033671808189
0.107834979915
0.0337569634252
0.102938966761
0.0338298444833
0.098036079706
0.0338916106801
0.0931276583776
0.0339433643911
0.0882148929178
0.0339861518216
0.0832988318715
0.0340209637961
0.0783803898494
0.0340487363473
0.0734603552485
0.0340703513276
0.0685393977893
0.034086636848
0.0636180761031
0.0340983677468
0.0586968451691
0.0341062659199
0.0537760637944
0.0341110006964
0.048856001957
0.0341131891237
0.0439368482183
0.0341133963367
0.0390187170681
0.0341121359156
0.0341016564824
0.0341098703813
0.0291856558535
0.0341070117756
0.0242706547683
0.0341039222296
0.0193565533588
0.0341009130103
0.0144432311959
0.034098198136
0.00953078364589
0.0340943974898
0.00462704302437
0.0340357889752
0.0321156218493
0.0140917445406
-0.104530705687
0.0289717551516
-0.110433723966
0.0437433549041
-0.109745652673
0.0583019320202
-0.10835224938
0.0725781910265
-0.106499562452
0.0865092271754
-0.104224210961
0.100037903527
-0.101557929395
0.113113387369
-0.098535877856
0.125691538696
-0.0951960734234
0.137735085689
-0.0915783488992
0.149213601991
-0.087723332163
0.160103313121
-0.0836715156713
0.170386764713
-0.0794624466467
0.18005238645
-0.0751340543746
0.189093984607
-0.0707221197264
0.197510192658
-0.0662598834199
0.205303905409
-0.0617777827469
0.212481717042
-0.0573033025017
0.219053379007
-0.0528609232886
0.225031288945
-0.0484721499472
0.230430018356
-0.0441556030532
0.235265883151
-0.0399271579872
0.239556559021
-0.0358001175826
0.243320741301
-0.0317854065896
0.246577847925
-0.0278917779846
0.249347762788
-0.0241260233163
0.251650616585
-0.0204931808199
0.253506601569
-0.0169967368004
0.254935816917
-0.0136388169029
0.25595814118
-0.0104203651991
0.256593128885
-0.00734130968695
0.256859927936
-0.00440071351079
0.25677721456
-0.00159690165164
0.256363039333
0.00107255117695
0.255635040721
0.00361028923752
0.254610220377
0.00601947111428
0.253304968531
0.00830358516379
0.25173506087
0.0104663557131
0.249915654015
0.0125116913155
0.247861286771
0.0144436279638
0.245585885863
0.0162662817201
0.243102774936
0.0179838091468
0.240424686276
0.0196003741946
0.237563774466
0.0211201206726
0.234531631602
0.0225471496947
0.231339303502
0.0238855013555
0.227997306686
0.0251391401493
0.224515645696
0.0263119435158
0.220903830669
0.0274076931432
0.217170894833
0.0284300685252
0.213325411903
0.0293826425006
0.209375513135
0.0302688783652
0.205328904083
0.031092128369
0.201192880841
0.0318556332646
0.196974345879
0.0325625227872
0.192679823299
0.0332158167941
0.188315473619
0.033818426998
0.183887107959
0.0343731590718
0.179400201749
0.0348827150994
0.174859907856
0.0353496961926
0.170271069255
0.0357766052755
0.165638231156
0.0361658498925
0.160965652709
0.0365197450603
0.156257318227
0.0368405160483
0.151516948032
0.0371303011209
0.146748008876
0.0373911541487
0.141953724039
0.0376250471303
0.137137083066
0.0378338725497
0.132300851227
0.0380194456183
0.127447578683
0.03818350633
0.122579609423
0.0383277214055
0.117699089948
0.0384536860337
0.1128079778
0.0385629255015
0.107908049864
0.0386568966449
0.10300091056
0.0387369891795
0.0980879998612
0.0388045268745
0.093170601222
0.0388607686158
0.0882498493791
0.0389069093314
0.0833267380876
0.0389440808205
0.0784021277586
0.0389733524639
0.0734767530536
0.0389957318566
0.0685512304077
0.0390121653429
0.0636260655211
0.0390235384918
0.0587016608027
0.0390306765024
0.0537783227992
0.0390343445695
0.0488562695885
0.0390352482196
0.0439356382098
0.0390340336288
0.0390164921193
0.0390312879464
0.034098828826
0.0390275396292
0.0291825877984
0.0390232587261
0.0242676587949
0.0390188569927
0.0193538911074
0.0390146863183
0.0144411094147
0.0390109854367
0.00952934489864
0.0390061674103
0.00462635413323
0.038938784899
0.0367419785007
0.0145479778996
-0.119078698045
0.0299062218858
-0.125791983269
0.0451443051652
-0.124983751132
0.0601493364286
-0.123357295661
0.0748460811188
-0.121196321907
0.0891666949777
-0.118544839326
0.103050105263
-0.115441353902
0.116442599511
-0.111928386024
0.129298216308
-0.108051703825
0.14157887228
-0.103859018141
0.153254250179
-0.0993987229912
0.164301487753
-0.0947187658199
0.174704712003
-0.0898656831148
0.184454463558
-0.0848838177822
0.193547052652
-0.0798147203081
0.201983882787
-0.074696724671
0.209770771693
-0.0695646824028
0.216917292495
-0.0644498336819
0.223436151641
-0.0593797924455
0.229342614596
-0.0543786225431
0.234653985623
-0.0494669833557
0.239389144287
-0.0446623255604
0.243568138528
-0.039979120371
0.247211832152
-0.0354291083988
0.250341603278
-0.031021556936
0.252979089466
-0.0267635169735
0.255145974921
-0.022660073386
0.256863814996
-0.0187145836309
0.258153893497
-0.0149289018043
0.259037108501
-0.0113035862529
0.259533883294
-0.00783809017097
0.259664098686
-0.004530934236
0.259447054128
-0.00137986208012
0.258901255692
0.00161834497544
0.258044782524
0.00446675813317
0.256894954265
0.0071692954575
0.255468407741
0.00973012812596
0.253781102161
0.0121536580792
0.251848322656
0.0144444679497
0.249684689632
0.016607258454
0.247304171698
0.0186467974554
0.244720101109
0.0205678778656
0.241945191108
0.0223752826509
0.238991554538
0.0240737560156
0.235870723328
0.025667979993
0.232593668422
0.0271625556574
0.229170819924
0.0285619883481
0.22561208716
0.0298706762764
0.221926878542
0.0310929020505
0.218124121025
0.0322328266167
0.214212279111
0.0332944852686
0.210199373274
0.0342817853275
0.206092997793
0.0351985052421
0.201900337915
0.0360482947922
0.197628186378
0.0368346762258
0.193282959239
0.0375610460766
0.188870711064
0.0382306775551
0.184397149431
0.0388467233128
0.179867648843
0.0394122185172
0.175287263995
0.0399300840813
0.170660742497
0.0404031300205
0.16599253702
0.0408340588102
0.161286816966
0.0412254687469
0.156547479617
0.0415798572086
0.151778160887
0.0418996238386
0.146982245624
0.0421870735651
0.142162877573
0.0424444194975
0.137322968968
0.0426737856234
0.132465209846
0.0428772093589
0.12759207705
0.0430566438859
0.12270584302
0.0432139603353
0.117808584322
0.0433509497589
0.112902190027
0.0434693249512
0.107988369871
0.0435707220699
0.103068662312
0.0436567021196
0.0981444424151
0.0437287522508
0.0932169296643
0.0437882869383
0.0882871956492
0.0438366489956
0.0833561716988
0.0438751104883
0.078424656425
0.0439048735059
0.0734933232353
0.0439270708532
0.068562727783
0.0439427666238
0.0636333154
0.0439529567148
0.0587054284948
0.0439585692499
0.0537793139501
0.0439604649649
0.0488551305039
0.043959437528
0.043932956181
0.0439562138434
0.0390127957462
0.0439514543044
0.0340945882806
0.0439457530139
0.0291782149512
0.0439396379347
0.0242635069617
0.0439335708001
0.0193502537401
0.0439279451298
0.0144382175891
0.0439230270051
0.0095273635236
0.04391702696
0.00462537734619
0.0438407763029
0.0413673582773
0.015080810537
-0.134159522965
0.0309973404099
-0.141708528229
0.0467793544447
-0.140765780278
0.0623039014418
-0.138881857545
0.0774885594487
-0.136380994574
0.0922595826468
-0.133315876914
0.10655128212
-0.129733067481
0.120306666614
-0.125683784324
0.133477819825
-0.121222870523
0.146025949412
-0.116407160888
0.157921147137
-0.111293933532
0.169141916771
-0.105939547923
0.179674530736
-0.100398309192
0.189512274131
-0.0947215729332
0.198654628554
-0.0889570861229
0.207106439358
-0.0831485465066
0.21487710059
-0.0773353543004
0.221979782507
-0.0715525259043
0.228430718413
-0.0658307382918
0.234248560478
-0.0601964741875
0.239453808809
-0.0546722409046
0.244068313787
-0.0492768393982
0.248114848832
-0.0440256639182
0.251616748783
-0.0389310164961
0.254597608006
-0.0340024239495
0.257081031795
-0.0292469482005
0.259090434601
-0.0246694832766
0.26064887877
-0.0202730345322
0.261778947945
-0.0160589773597
0.262502649707
-0.012027294047
0.2628413434
-0.0081767895408
0.262815685982
-0.00450528213224
0.262445654705
-0.0010098357705
0.261750261129
0.0023137339359
0.260748009551
0.00546900545905
0.259456541883
0.00846075923477
0.257892745351
0.0112939211205
0.256072758784
0.0139736414588
0.254011986849
0.0165052370388
0.251725118968
0.0188941238301
0.249226150397
0.0211457638529
0.246528404852
0.0232656215672
0.243644558056
0.0252591279255
0.24058666177
0.0271316511012
0.237366167911
0.0288884729631
0.233993952507
0.0305347704809
0.230480339242
0.0320756013341
0.22683512244
0.0335158930971
0.223067589363
0.0348604354356
0.219186541739
0.0361138748345
0.215200316457
0.0372807114199
0.21111680541
0.0383652975173
0.206943474448
0.039371837609
0.202687381473
0.0403043894304
0.198355193663
0.0411668659477
0.193953203862
0.0419630380333
0.189487346161
0.0426965376441
0.184963210714
0.043370861377
0.180386057808
0.0439893742575