/*--------------------------------*- C++ -*----------------------------------*\
| =========                 |                                                 |
| \\      /  F ield         | OpenFOAM: The Open Source CFD Toolbox           |
|  \\    /   O peration     | Version:  v1906                                 |
|   \\  /    A nd           | Web:      www.OpenFOAM.com                      |
|    \\/     M anipulation  |                                                 |
\*---------------------------------------------------------------------------*/
FoamFile
{
    version     2.0;
    format      ascii;
    class       surfaceScalarField;
    location    "73";
    object      phia;
}
// * * * * * * * * * * * * * * * * * * * * * * * * * * * * * * * * * * * * * //

dimensions      [0 3 -1 0 0 0 0];
oriented        oriented;


internalField   nonuniform List<scalar> 
18240
(
0.0121982937451
-0.0121983315699
0.0250800483901
-0.0128818057214
0.0378872199991
-0.0128072079473
0.0505334515592
-0.012646285195
0.0629594848872
-0.0124260656571
0.0751127284929
-0.0121532989026
0.0869456094852
-0.0118329089747
0.0984152557071
-0.0114697026164
0.109483800431
-0.0110685683051
0.120118315519
-0.0106345720931
0.130291089064
-0.0101727927096
0.139979344764
-0.00968831290284
0.149165354574
-0.00918602469684
0.15783594689
-0.00867064935471
0.165982497707
-0.0081465615444
0.173600295374
-0.00761785424313
0.180688475922
-0.00708818735766
0.187249313897
-0.00656089382551
0.193288158665
-0.00603884783411
0.198812706389
-0.00552460263638
0.203832977251
-0.00502027046372
0.208360605364
-0.00452768189573
0.21240887913
-0.00404827009491
0.215992069514
-0.00358324288741
0.219125541849
-0.00313346567593
0.221825130625
-0.00269963986234
0.224107321358
-0.00228218126615
0.225988672898
-0.00188140109919
0.22748606457
-0.00149737966269
0.228616167621
-0.00113015098714
0.229395761549
-0.000779579536257
0.229841278053
-0.000445562774467
0.229969248852
-0.000127954284409
0.229796056204
0.000173148071926
0.229335532572
0.000460542145158
0.22860230345
0.000733186345918
0.227610919668
0.00099140409728
0.22637519001
0.00123568880542
0.224908615021
0.00146659701607
0.223223972419
0.00168460378129
0.221333733976
0.00189026198654
0.219249656987
0.00208404029724
0.216983201244
0.00226648069113
0.214545129524
0.00243803722186
0.211945923233
0.00259923243869
0.209195392204
0.00275049878807
0.206303085897
0.00289233353485
0.203277912592
0.00302514336089
0.200128543564
0.00314939713341
0.196863041974
0.00326547397899
0.193489257687
0.00337381315301
0.190014466445
0.00347476597816
0.186445753635
0.00356874224079
0.182789664446
0.00365606628242
0.179052575003
0.0037371193217
0.175240354348
0.00381220009626
0.171358721824
0.00388166266432
0.167412921713
0.0039457818868
0.163408065772
0.00400488623103
0.159348821384
0.0040592284681
0.155239738518
0.00410911313167
0.151084952179
0.00415477269637
0.146888493005
0.00419648931186
0.142654004803
0.00423447679622
0.13838503829
0.00426899637301
0.134084784379
0.00430024471219
0.129756350507
0.00432846336472
0.125402510338
0.00435383314244
0.121025962312
0.0043765770288
0.116629096328
0.00439686110182
0.112214234101
0.00441489066851
0.107783413346
0.00443081798528
0.103338609688
0.00444483142847
0.0988815387998
0.00445707019182
0.0944138595353
0.00446770628401
0.0899369944308
0.00447686641666
0.0854523138987
0.00448470667804
0.080960975377
0.00449134175011
0.0764640884244
0.00449691210951
0.0719625727197
0.00450152071633
0.0674573040762
0.00450529265317
0.0629489913724
0.00450831934528
0.0584383035361
0.00451071055832
0.0539257655028
0.00451254619048
0.0494118663449
0.00451392051861
0.0448969745617
0.00451490149195
0.0403814278204
0.004515566824
0.0358654690255
0.00451597016821
0.0313493207953
0.00451616706447
0.0268331504409
0.00451618314079
0.0223171513266
0.00451601627231
0.0178015967666
0.00451556820979
0.013287125564
0.00451448631828
0.00877547770987
0.00451166260526
0.00428064539072
0.00449484698783
0.00428065243933
0.0128060219287
-0.0250043962454
0.0264799413016
-0.0265557731248
0.0400325107601
-0.0263598215997
0.0534037912956
-0.0260176139611
0.0665397235608
-0.0255620402229
0.0793884302099
-0.0250020530846
0.0919011557944
-0.02434567459
0.104033459321
-0.0236020525759
0.11574580454
-0.0227809510409
0.127003751031
-0.0218925636069
0.137778142401
-0.020947218947
0.148044984344
-0.0199551982258
0.157785407463
-0.0189264799359
0.166985338328
-0.0178706217865
0.175635316589
-0.0167965691732
0.183730036559
-0.0157126138511
0.191268090215
-0.0146262676321
0.198251448274
-0.0135442895157
0.204685188414
-0.0124726119071
0.210576969113
-0.0114164189176
0.215936784977
-0.0103801076302
0.220776468502
-0.00936739892907
0.225109496953
-0.00838131731855
0.228950541104
-0.00742431847409
0.232315333999
-0.00649827488902
0.235220273461
-0.00560460869518
0.23768235302
-0.00474427480148
0.239718816545
-0.00391789194786
0.241347144281
-0.00312571910901
0.242584749556
-0.0023677815659
0.243448999435
-0.0016438389761
0.243956916039
-0.000953502705425
0.244125129987
-0.000296175746844
0.243969206474
0.000329050174136
0.243506543454
0.000923199617289
0.24275298341
0.00148672691705
0.24172376109
0.00202062279463
0.240433541032
0.00252589133365
0.2388965513
0.00300358498781
0.23712641766
0.00345472183841
0.23513631862
0.00388036108323
0.232938827589
0.00428151768814
0.230546074798
0.00465923527134
0.227969597673
0.00501450262753
0.225220505806
0.00534832776378
0.22230933762
0.00566165714719
0.219246225725
0.00595545046112
0.216040758699
0.00623060241391
0.212702144864
0.00648801749674
0.209239078509
0.00672853417336
0.205659900577
0.00695299900997
0.201972469017
0.00716219313683
0.198184315282
0.00735690521319
0.194302518729
0.00753786013697
0.190333858082
0.00770579041123
0.186284689987
0.00786136713005
0.18216109483
0.00800526937851
0.177968759651
0.00813811757262
0.17371311785
0.00826054059388
0.169399236736
0.00837311158277
0.165031950791
0.00847641254953
0.160615754164
0.00857097274466
0.156154927223
0.00865733053203
0.151653434323
0.00873597446424
0.147115043466
0.0088074022292
0.142543229658
0.00887206456814
0.137941287518
0.00893042113397
0.133312240539
0.00898288738716
0.128658946536
0.00902988721901
0.123984013101
0.00907180296443
0.119289895784
0.00910902465809
0.114578820005
0.00914190329828
0.109852871908
0.00917079661383
0.105113926967
0.00919602571206
0.100363733429
0.00921791724357
0.0956038478305
0.00923676355831
0.0908357109948
0.00925286116784
0.0860605906239
0.00926647452213
0.0812796498126
0.00927787068059
0.0764938968475
0.00928728680146
0.07170424626
0.00929496095135
0.0669114759144
0.00930110337029
0.0621162806346
0.00930592334782
0.0573192366564
0.00930960428746
0.0525208478916
0.00931232652998
0.0477215178277
0.00931424614686
0.0429215883869
0.00931551335341
0.0381213191548
0.00931625457759
0.0333209178279
0.00931658534058
0.0285205228472
0.00931659368685
0.0237202108196
0.00931634447071
0.0189199316968
0.00931586252661
0.0141193232517
0.00931511038285
0.00931740664891
0.00931359458509
0.00451839048023
0.00929387812486
0.00879905026298
0.0129700217697
-0.0379744617662
0.0267781028058
-0.0403639012194
0.0404769060718
-0.040058670722
0.05399251905
-0.0395332734448
0.0672660900464
-0.0388356557303
0.0802436046476
-0.0379796128892
0.0928749611026
-0.0369770737852
0.105114771724
-0.0358419067891
0.116922824019
-0.0345890440582
0.128264311844
-0.0332340931577
0.13910995301
-0.0317928986073
0.149435905801
-0.0302811906954
0.159223634548
-0.028714244839
0.168459613829
-0.027106638571
0.177135034392
-0.02547202347
0.185245384052
-0.0238229987729
0.192790076232
-0.0221709911169
0.19977198276
-0.0205262290259
0.20619704984
-0.0188977078497
0.212073837918
-0.0172932376981
0.217413168853
-0.015719465033
0.222227707054
-0.0141819655631
0.226531661987
-0.0126852963517
0.23034042727
-0.0112331099563
0.233670347629
-0.00982821705675
0.236538419962
-0.00847270502828
0.238962123554
-0.00716799795206
0.24095917893
-0.00591496917351
0.242547433469
-0.00471399103793
0.24374466731
-0.00356503515122
0.244568518958
-0.00246770589213
0.245036319454
-0.00142132090227
0.245165046027
-0.000424915575705
0.244971389502
0.000522690972594
0.244472167458
0.00142241040813
0.243682995817
0.00227588481436
0.242619057761
0.00308455154123
0.241295066164
0.00384987113845
0.239725253031
0.00457339073561
0.237923294034
0.00525667096457
0.235902354472
0.00590129512518
0.233675038235
0.00650882594776
0.231253445247
0.00708082456904
0.228649128285
0.00761881345618
0.225873154897
0.00812429921532
0.222936068663
0.0085987390469
0.219847952985
0.00904356590708
0.2166183952
0.00946015760149
0.213256550706
0.00984986337804
0.209771108917
0.0102139750439
0.206170356594
0.0105537542802
0.202462145067
0.0108704053519
0.198653952056
0.0111651026363
0.19475284982
0.0114389645993
0.190765564921
0.0116930811174
0.186698447185
0.011928488547
0.18255752712
0.012146196546
0.178348485653
0.0123471640979
0.174076708976
0.0125323255886
0.169747259159
0.0127025677468
0.165364926329
0.0128587548115
0.160934200275
0.0130017063528
0.156459319887
0.0131322213871
0.151944245921
0.0132510571062
0.147392707709
0.0133589518501
0.142808177244
0.0134566047597
0.138193913142
0.0135446975182
0.133552936243
0.0136238749898
0.128888070865
0.0136947656756
0.124201922073
0.013757963378
0.119496914236
0.0138140463125
0.114775270139
0.0138635598729
0.110039046876
0.0139070343605
0.105290116953
0.0139449689022
0.100530201523
0.0139778477528
0.0957608536116
0.0140061254401
0.0909834887377
0.0140302416126
0.0861993703665
0.0140506074594
0.0814096379183
0.0140676190703
0.0766152945491
0.0140816451909
0.0718172325848
0.0140930390702
0.0670162236914
0.0141021275787
0.0622129417461
0.0141092215098
0.057407955443
0.0141146060774
0.0526017485912
0.0141185496047
0.0477947150705
0.01412129536
0.0429871762801
0.0141230684827
0.0381793778446
0.0141240690462
0.033371502583
0.0141244770431
0.0285636653869
0.0141244469914
0.0237559132582
0.0141241127107
0.0189482004314
0.0141235907727
0.0141403587428
0.0141229673101
0.00933234044361
0.014121628573
0.00453298973818
0.0140932440275
0.0133320471434
0.0131466608221
-0.05112116651
0.0271327717432
-0.0543500586199
0.0410065061316
-0.0539324513181
0.0546905175107
-0.0532173307201
0.0681226428571
-0.0522678259748
0.0812465661814
-0.0511035806903
0.0940105327986
-0.0497410836392
0.106368041412
-0.0481994581622
0.118278216449
-0.0464992604164
0.129706012972
-0.0446619304869
0.140622269703
-0.0427091945553
0.151003596054
-0.0406625557261
0.160832159437
-0.0385428451922
0.170095355433
-0.0363698710086
0.178785432301
-0.0341621349942
0.186899045298
-0.0319366459131
0.194436811359
-0.0297087894769
0.201402829998
-0.0274922794853
0.207804237726
-0.0252991455242
0.213650752215
-0.0231397816887
0.218954270115
-0.0210230105362
0.223728466628
-0.0189561892792
0.227988458369
-0.0169453133977
0.231750471473
-0.0149951480032
0.235031575304
-0.0131093439297
0.237849419539
-0.0112905719879
0.240222034807
-0.0095406340601
0.24216763202
-0.00786058694054
0.243704461143
-0.00625083883923
0.244850663582
-0.00471125602341
0.245624181046
-0.00324123993718
0.246042656126
-0.00183981234528
0.246123399489
-0.000505673491766
0.245883368685
0.00076270740794
0.245338633252
0.00196713330267
0.244505137562
0.00310936814868
0.243398274197
0.0041914043497
0.242032846159
0.00521528878131
0.240423108658
0.00618311961107
0.238582755711
0.00709701543694
0.236524938927
0.00795910518055
0.234262256305
0.00877150197418
0.231806776293
0.00953629969009
0.229170031944
0.0102555530365
0.226363048933
0.010931279124
0.223396343056
0.0115654419274
0.220279950282
0.0121599572984
0.217023426088
0.012716680507
0.213635876184
0.0132374135583
0.210125956684
0.0137238948977
0.206501904617
0.0141778082038
0.202771538311
0.0146007735809
0.198942287098
0.0149943572153
0.195021191535
0.0153600635788
0.191014931961
0.0156993454809
0.186929828364
0.0160135969704
0.182771867591
0.0163041634521
0.178546702792
0.0165723350494
0.174259679196
0.0168193565685
0.16991583316
0.0170464211738
0.165519916487
0.0172546800344
0.161076395158
0.0174452362251
0.156589472218
0.0176191539523
0.1520630863
0.0177774526346
0.14750093314
0.0179211156319
0.14290646401
0.0180510844915
0.13828290593
0.018168267139
0.133633260145
0.0182735322954
0.128960321116
0.0183677171004
0.124266675152
0.0184516217198
0.119554718257
0.0185260163915
0.114826655051
0.0185916362516
0.110084515528
0.0186491877944
0.105330154375
0.0186993439534
0.100565266712
0.0187427499757
0.0957913878964
0.0187800187947
0.0910099083009
0.0188117363198
0.0862220736926
0.0188384571378
0.0814289990803
0.0188607092211
0.0766316697415
0.0188789899907
0.0718309541771
0.0188937704459
0.0670276058338
0.0189054916131
0.0622222751811
0.0189145680943
0.0574155121407
0.0189213849169
0.0526077772492
0.0189263004939
0.0477994446613
0.0189296438922
0.0429908121247
0.0189317172026
0.0381821040241
0.0189327933602
0.0333734791693
0.0189331182771
0.0285650323148
0.0189329101192
0.0237567974342
0.0189323634647
0.0189487474738
0.0189316562367
0.0141408183247
0.0189309121103
0.009333239026
0.0189292232317
0.00453555661835
0.0188909413504
0.0178676111052
0.0133784074846
-0.0644996178245
0.0276100752857
-0.0685817728458
0.0417216168136
-0.0680440388967
0.0556331217754
-0.0671288812912
0.0692789248957
-0.0659136738961
0.0825999376511
-0.0644246375633
0.0955422471353
-0.0626834362974
0.1080578477
-0.0607151011004
0.120104973736
-0.0585464277566
0.131648264293
-0.0562052614516
0.142658747577
-0.0537197170738
0.153113662161
-0.0511175085858
0.162996157378
-0.0484253774436
0.172294890443
-0.0456686401138
0.181003564626
-0.0428708439281
0.189120420354
-0.0400535353907
0.196647717757
-0.0372361193179
0.203591213273
-0.0344358064379
0.209959661297
-0.0316676236621
0.2157643345
-0.0289444840198
0.221018587262
-0.0262772911088
0.225737448838
-0.0236750776968
0.229937266132
-0.0211451562226
0.233635378075
-0.0186932845378
0.236849838857
-0.0163238280111
0.239599169297
-0.0140399248101
0.241902152488
-0.0118436383554
0.243777651732
-0.00973610640194
0.245244466774
-0.00771767284384
0.246321206039
-0.00578801338607
0.247026191388
-0.00394624214166
0.247377374308
-0.0021910112857
0.247392287019
-0.000520601030045
0.247087978
0.00106700241133
0.246480973169
0.00257412534664
0.245587229613
0.00400309972595
0.244422168803
0.00535645436571
0.243000641028
0.00663680654824
0.241336924803
0.00784682699163
0.239444723502
0.00898920865445
0.237337175731
0.0100666460031
0.235026858803
0.0110818126955
0.232525804317
0.0120373490776
0.229845505938
0.0129358470307
0.226996938205
0.0137798435441
0.223990566784
0.0145718107266
0.220836368855
0.0153141536432
0.217543844496
0.016009203942
0.214122037522
0.0166592206048
0.210579547093
0.0172663860315
0.206924548261
0.0178328086999
0.203164803228
0.0183605208741
0.199307681165
0.0188514824501
0.195360168813
0.0193075796689
0.191328889268
0.0197306296308
0.187220111777
0.0201223795937
0.18303976941
0.0204845117679
0.17879346798
0.0208186429209
0.174486502564
0.0211263291938
0.17012386559
0.0214090658113
0.165710262242
0.0216682917602
0.161250117791
0.0219053894731
0.15674759195
0.0221216892566
0.152206585549
0.0223184688837
0.147630753936
0.0224969577089
0.143023513118
0.0226583361292
0.138388052301
0.0228037393508
0.133727339604
0.0229342567138
0.129044133858
0.0230509351013
0.124340990005
0.0231547781331
0.119620270235
0.0232467492159
0.114884149191
0.0233277706321
0.11013462453
0.0233987262441
0.105373522026
0.0234604605021
0.100602505632
0.0235137808184
0.0958230825659
0.0235594565282
0.0910366129411
0.0235982209549
0.0862443149049
0.023630770354
0.0814472738893
0.0236577656848
0.0766464478571
0.0236798315761
0.0718426762107
0.0236975578238
0.0670366851956
0.0237114983941
0.0622290964774
0.0237221726749
0.0574204327033
0.0237300645474
0.0526111257293
0.023735623411
0.0478015222269
0.0237392633798
0.0429918913979
0.0237413641721
0.0381824303875
0.0237422706336
0.0333732711169
0.0237422938627
0.0285644855759
0.0237417118953
0.0237560928019
0.0237407723282
0.0189480678942
0.0237396966075
0.0141403770178
0.0237386181192
0.00933328655296
0.0237363293506
0.00453635276103
0.0236878902982
0.0224039709427
0.013672809754
-0.0781724712628
0.0282203127932
-0.0831293218446
0.0426368718005
-0.08246064382
0.0568393014
-0.0813313561934
0.0707575952579
-0.0798320123528
0.0843292346829
-0.0779963208189
0.0974976160718
-0.0758518606494
0.110212871724
-0.0734303988438
0.122432177772
-0.0707657749035
0.134119865094
-0.0678929889065
0.145247317384
-0.0648472084143
0.155792693153
-0.0616629223691
0.165740514091
-0.0583732352511
0.175081154397
-0.0550093162147
0.18381027176
-0.0515999959106
0.191928206413
-0.0481715035664
0.199439378883
-0.0447473241193
0.206351701271
-0.0413481600588
0.212676021814
-0.0379919742462
0.218425607218
-0.0346940983698
0.223615673999
-0.0314673856512
0.228262966017
-0.0283223963959
0.232385383975
-0.025267599694
0.236001659777
-0.0223095847887
0.23913107866
-0.0194532701927
0.241793239981
-0.0167021083857
0.244007858499
-0.014058278001
0.245794596495
-0.0115228644978
0.247172928553
-0.00909602389006
0.248162029679
-0.00677713249832
0.248780688992
-0.0045649183488
0.249047240223
-0.00245757841526
0.248979511421
-0.000452887082493
0.248594750615
0.00145174932971
0.247909660063
0.00325920309347
0.246940349428
0.00497239852562
0.245702330801
0.00659446220047
0.24421050906
0.0081286184368
0.24247918679
0.0095781404222
0.240522069322
0.0109463181977
0.238352275957
0.0122364324331
0.235982350764
0.0134517318412
0.233424278038
0.0145954167144
0.230689496338
0.0156706245013
0.227788916248
0.0166804203342
0.224732935991
0.0176277885117
0.221531460107
0.0185156279498
0.218193915501
0.0193467477691
0.214729270087
0.0201238660976
0.211146048543
0.0208496084189
0.20745235033
0.0215265085751
0.203655864701
0.0221570088926
0.199763887777
0.0227434625447
0.195783336553
0.0232881347524
0.191720764875
0.0237932059048
0.187582376364
0.0242607733507
0.183374039214
0.0246928548564
0.179101298056
0.0250913906253
0.174769387608
0.0254582468343
0.170383243524
0.0257952176534
0.165947514985
0.0261040286589
0.161466574624
0.0263863387182
0.156944530157
0.0266437431641
0.152385233506
0.0268777754595
0.147792291588
0.0270899100674
0.143169074753
0.0272815638531
0.138518726847
0.0274540986221
0.133844173094
0.0276088222488
0.129148129546
0.0277469908745
0.124433110519
0.0278698097718
0.119701437541
0.0279784352162
0.114955246447
0.0280739751061
0.110196495917
0.0281574905299
0.105426974328
0.0282299961716
0.100648307962
0.028292461598
0.0958619676949
0.0283458114897
0.0910692769455
0.0283909266789
0.0862714182708
0.0284286442284
0.0814694411039
0.0284597582631
0.0766642683136
0.0284850199321
0.0718567037755
0.0285051380569
0.0670474389258
0.0285207790147
0.0622370601921
0.0285325672349
0.0574260555513
0.0285410850431
0.0526148218166
0.0285468730518
0.0478036711408
0.0285504300359
0.0429928381085
0.0285522133157
0.0381824861358
0.0285526388383
0.0333727144698
0.0285520818588
0.0285635650753
0.0285508775683
0.0237550308613
0.0285493223374
0.0189470668877
0.0285476760565
0.0141396213385
0.0285460793315
0.00933291543442
0.0285430504921
0.00453643021079
0.0284843903102
0.0269404084766
0.0140354906365
-0.0922080053477
0.0289733488175
-0.0980672259835
0.043766461034
-0.0972538016265
0.0583272737885
-0.0958922140248
0.0725803096736
-0.0940850925638
0.0864588134097
-0.0918748681109
0.0999029085028
-0.0892959984468
0.112860521694
-0.0863880538412
0.125287655602
-0.083192949665
0.137148421874
-0.0797537950329
0.148414821432
-0.0761136467878
0.159066328576
-0.0723144672613
0.169089331188
-0.0683962745203
0.178476475585
-0.0643964961595
0.187225961296
-0.0603495160491
0.195340820926
-0.0562863964973
0.202828215039
-0.0522347504019
0.209698761551
-0.0482187376094
0.215965915106
-0.0442591577039
0.221645403309
-0.0403736153542
0.226754725097
-0.0365767350928
0.231312710001
-0.0328804078424
0.235339137779
-0.0292940529001
0.23885441307
-0.0258248844149
0.241879291922
-0.0224781722821
0.244434653426
-0.0192574920528
0.246541312752
-0.0161649584064
0.248219868854
-0.0132014406227
0.249490583657
-0.010366757649
0.250373286695
-0.00765985345524
0.250887302845
-0.00507895135528
0.251051397748
-0.00262168914774
0.250883735751
-0.000285239899817
0.250401793794
0.00193367747381
0.24962250671
0.00403847742306
0.248562121647
0.00603277184236
0.247236242074
0.00792033104177
0.245659824811
0.00970502594416
0.243847190943
0.0113907655208
0.241812037663
0.0129814636562
0.239567453614
0.0144810096163
0.23712593514
0.015893244368
0.234499404567
0.0172219422691
0.231699228464
0.0184707964741
0.228736237149
0.0196434084145
0.225620743549
0.0207432797341
0.222362562778
0.0217738072077
0.218971030681
0.0227382791738
0.215455022783
0.0236398741319
0.211822971966
0.0244816601596
0.208082886362
0.0252665958949
0.204242365877
0.0259975318421
0.200308618827
0.0266772128107
0.196288477179
0.0273082803263
0.192188411864
0.0278932758575
0.188014546721
0.0284346437987
0.183772672519
0.028934735031
0.179468259665
0.0293958100762
0.175106471016
0.029820042706
0.170692173448
0.0302095230228
0.166229949584
0.030566260905
0.161724108356
0.0308921888658
0.157178695767
0.0311891652119
0.152597504586
0.0314589765932
0.147984084295
0.0317033408104
0.143341750047
0.0319239090117
0.138673591917
0.0321222681237
0.133982483276
0.0322999426866
0.129271089466
0.0324583969105
0.124541875698
0.0325990361602
0.119797115277
0.032723208656
0.115038897134
0.0328322066317
0.110269133693
0.0329272677181
0.105489568133
0.0330095758084
0.100701781985
0.0330802621464
0.0959072022064
0.0331404059535
0.091107108582
0.0331910352613
0.0863026406626
0.0332331273325
0.0814948050358
0.0332676092814
0.0766844821841
0.0332953583298
0.0718724336579
0.0333172022547
0.0670593089001
0.0333339195195
0.0622456523448
0.0333462395896
0.0574319102278
0.0333548429868
0.0526184376339
0.0333603615252
0.0478055052639
0.033363378353
0.0429933064561
0.0333644282016
0.0381819639845
0.0333639975331
0.0333715371793
0.0333625249133
0.0285620294623
0.0333604014577
0.0237533967958
0.033357971067
0.0189455572028
0.0333555310552
0.0141384179314
0.0333532335982
0.00933213809765
0.0333493459223
0.00453614411815
0.0332803993792
0.0314765595978
0.0144726921566
-0.106680740767
0.0298816031026
-0.113476182359
0.0451284977332
-0.112500741671
0.0601202108124
-0.110883971864
0.0747744479473
-0.108739373768
0.0890192812853
-0.10611974472
0.102790929286
-0.103067688869
0.116034790514
-0.0996319565953
0.128705652437
-0.0958638521517
0.140767607393
-0.0918157895671
0.152193668059
-0.087539745989
0.162965163018
-0.0830859997064
0.173070981351
-0.0785021292439
0.18250672943
-0.0738322795438
0.191273854179
-0.0691166749852
0.199378774624
-0.0643913500259
0.206832053598
-0.0596880613309
0.213647630111
-0.0550343449703
0.219842125552
-0.0504536828673
0.225434228852
-0.0459657472729
0.230444161844
-0.0415866955869
0.234893221279
-0.0373294936851
0.238803392752
-0.0332042496805
0.242197029351
-0.0292185452394
0.245096588326
-0.0253777543972
0.247524417946
-0.0216853437468
0.249502588075
-0.0181431495391
0.251052757454
-0.0147516299515
0.252196072395
-0.0115100914822
0.25295309117
-0.00841689008394
0.25334373034
-0.00546960733143
0.253387229014
-0.00266520357749
0.253102119892
-1.45531022957e-07
0.252506117649
0.00252966597929
0.251616400284
0.00492818210007
0.250449354416
0.00719980604843
0.249020670519
0.00934900428534
0.247345348374
0.0113803384269
0.245437715612
0.013298389596
0.243311446491
0.01510772505
0.240979582742
0.0168128665848
0.238454555112
0.0184182661466
0.235748205609
0.0199282868349
0.232871809663
0.0213471883812
0.229836098339
0.0226791165827
0.226651279991
0.0239280957921
0.223327061602
0.0250980241559
0.219872669295
0.0261926708705
0.216296868339
0.0272156752917
0.212607982188
0.0281705473097
0.208813910929
0.0290606689291
0.204922148729
0.0298892965748
0.200939800669
0.0306595641403
0.1968735986
0.0313744863834
0.192729916399
0.0320369627402
0.18851478433
0.0326497812273
0.184233902835
0.0332156225373
0.179892655504
0.033737064052
0.175496121562
0.0342165838992
0.17104908761
0.034656564818
0.166556058949
0.0350592979715
0.162021270263
0.0354269865056
0.15744869595
0.0357617489979
0.152842059903
0.0360656226208
0.148204845009
0.0363405661656
0.143540302179
0.0365884627719
0.13885145917
0.0368111225073
0.134141129007
0.0370102846599
0.129411918258
0.0371876198827
0.124666234982
0.0373447320636
0.119906296577
0.0374831600713
0.115134137356
0.0376043792359
0.110351616087
0.0377098027204
0.105560423296
0.0378007826699
0.10076208857
0.0378786112537
0.095957987677
0.0379445215212
0.0911493497037
0.037999688168
0.0863372640602
0.0380452281449
0.0815226875083
0.0380822011956
0.0767064510968
0.0381116102669
0.0718892671259
0.0381344018644
0.0670717360562
0.0381514663112
0.0622543534401
0.0381636379695
0.057437516828
0.0381716953972
0.0526215327043
0.0381763614872
0.0478066233874
0.0381783035871
0.042992934014
0.0381781336152
0.0381805395046
0.0381764082024
0.0333694517979
0.0381736288804
0.0285596273261
0.0381702421428
0.0237509748923
0.0381666391869
0.0189433647289
0.0381631566192
0.0141366523427
0.038159961628
0.00933092973858
0.0381550836267
0.00453558771615
0.038075756049
0.0360121546086
0.0149919449316
-0.121672728688
0.0309606090587
-0.129444891946
0.0467457537523
-0.128285931416
0.0622471897059
-0.12638545235
0.0773742275873
-0.123866455416
0.092048704122
-0.120794264236
0.106202262845
-0.117221289719
0.119777498156
-0.113207233124
0.132728052524
-0.108814446792
0.145018355813
-0.104106132126
0.156623008551
-0.0991444369758
0.167525921659
-0.09398895
0.177719303796
-0.0886955475023
0.187202577446
-0.0833155882179
0.195981288669
-0.0778954201469
0.204066058986
-0.0724761531725
0.211471612444
-0.0670936465244
0.218215897803
-0.0617786609549
0.224319315248
-0.0565571298441
0.229804049155
-0.0514505096097
0.234693502969
-0.0464761767426
0.239011828656
-0.0416478456227
0.242783541329
-0.0369759875274
0.246033208691
-0.0324682367001
0.24878520508
-0.0281297738181
0.251063520231
-0.0239636808683
0.252891613929
-0.0199712641521
0.254292308461
-0.0161523443463
0.255287712059
-0.0125055138979
0.255899167154
-0.00902836296431
0.256147219284
-0.00571767619468
0.256051605656
-0.00256960563531
0.255631247078
0.000420198372266
0.254904097571
0.00325680182766
0.253887574207
0.00594469285868
0.252598192922
0.00848917575723
0.251051717003
0.0108954696419
0.24926317272
0.0131688731413
0.247246875507
0.0153146782181
0.24501645623
0.017338136695
0.242584888347
0.0192444277833
0.239964515001
0.0210386337333
0.237167075834
0.0227257211589
0.234203733083
0.0243105271829
0.23108509696
0.0257977496393
0.227821250023
0.0271919405223
0.224421770632
0.02849750219
0.220895755274
0.0297186856965
0.217251839914
0.0308595909327
0.213498220203
0.0319241680903
0.209642670719
0.0329162202593
0.205692563113
0.0338394067763
0.201654883356
0.0346972472311
0.197536247959
0.0354931258229
0.193342919391
0.0362302960475
0.189080820565
0.0369118854599
0.184755548616
0.0375409005467
0.180372387859
0.0381202314924
0.175936322141
0.038652656912
0.171452046471
0.0391408483615
0.166923978154
0.0395873747293
0.162356267301
0.0399947063356
0.157752806934
0.0403652188663
0.15311724257
0.040701196981
0.148452981482
0.0410048377355
0.143763201524
0.0412782536691
0.139050859716
0.0415234757042
0.13431870047
0.0417424557186
0.129569263641
0.0419370689417
0.124804892288
0.04210911604
0.120027740323
0.0422603250466
0.115239779927
0.042392353004
0.1104428089
0.0425067874758
0.105638457825
0.0426051477982
0.100828197222
0.0426888862274
0.0960133445381
0.0427593888567
0.0911950711685
0.0428179764545
0.0863744093502
0.0428659051042
0.0815522590991
0.0429043667874
0.0767293950581
0.0429344898009
0.0719064733948
0.0429573391404
0.067084038645
0.0429739167467
0.062262530606
0.0429851617415
0.057442291205
0.0429919505565
0.0526235714264
0.0429950970728
0.0478065382026
0.0429953526822
0.0429912814312
0.0429934063842
0.0381778209587
0.042989884818
0.0333661137069
0.0429853522894
0.028556061135
0.0429803107888
0.0237475169097
0.0429751994197
0.0189402942661
0.0429703945824
0.0141341895424
0.0429660811887
0.00932922699102
0.0429600616987
0.00453476634943
0.0428702316978
0.0405469278816
0.0156025246891
-0.137275296186
0.0322296904976
-0.146072102635
0.0486465717321
-0.14470285753
0.0647443067406
-0.142483231556
0.080421944549
-0.13954413672
0.0955938881582
-0.135966250523
0.110186517109
-0.131813960486
0.124139433804
-0.12716019073
0.137405374619
-0.122080427552
0.149949684795
-0.116650481262
0.161749375237
-0.110944165342
0.17279191637
-0.105031528019
0.183073889737
-0.0989775566789
0.192599599236
-0.0928413324615
0.20137971932
-0.0866755738825
0.20943003352
-0.080526499948
0.216770296426
-0.0744339409091
0.223423235185
-0.0684316301162
0.229413694493
-0.0625476184622
0.234767919914
-0.0568047632677
0.239512969227
-0.0512212532096
0.243676238059
-0.0458111405442
0.247285085191
-0.0405848596777
0.250366542632
-0.0355497181043
0.25294709671
-0.0307103508014
0.255052527446
-0.0260691334621
0.256707795238
-0.0216265527534
0.257936965239
-0.0173815341169
0.258763161429
-0.0133317288189
0.259208543055
-0.009473762294
0.259294298739
-0.00580344854111
0.259040665837
-0.00231598833594
0.258466958476
0.000993891142446
0.257591391152
0.00413235558275
0.256431559069
0.00710451242647
0.255004095639
0.00991662770817
0.253324814019
0.0125747407979
0.251408742834
0.01508493486
0.249270159265
0.0174532532966
0.246922624003
0.0196856644293
0.244379015352
0.0217880298485
0.241651562271
0.0237660811572
0.238751876048
0.0256254026341
0.235690980507
0.0273714188727
0.232479340694
0.0290093864762
0.229126890031
0.0305443890715
0.225643055947
0.0319813350001
0.222036784031
0.0333249571676
0.218316560738
0.0345798145835
0.21449043474
0.0357502952373
0.210566036949
0.0368406199661
0.206550599313
0.0378548470803
0.202450972445
0.0387968774937
0.198273642162
0.0396704602137
0.194024745001
0.040479198001
0.189710082802
0.0412265531225
0.185335136402
0.041915853051
0.180905078546
0.0425502960828