/*--------------------------------*- C++ -*----------------------------------*\
| =========                 |                                                 |
| \\      /  F ield         | OpenFOAM: The Open Source CFD Toolbox           |
|  \\    /   O peration     | Version:  v1906                                 |
|   \\  /    A nd           | Web:      www.OpenFOAM.com                      |
|    \\/     M anipulation  |                                                 |
\*---------------------------------------------------------------------------*/
FoamFile
{
    version     2.0;
    format      ascii;
    class       volScalarField;
    location    "747";
    object      pa;
}
// * * * * * * * * * * * * * * * * * * * * * * * * * * * * * * * * * * * * * //

dimensions      [0 2 -2 0 0 0 0];


internalField   nonuniform List<scalar> 
9216
(
915.439036585
915.133534871
914.50153046
913.537531903
912.246950883
910.635847707
908.711770594
906.483628622
903.961559304
901.156795315
898.081532071
894.748789109
891.1722754
887.366251805
883.345403141
879.124710079
874.719335414
870.144511242
865.41544393
860.547219415
855.55472851
850.452590555
845.255098443
839.976159038
834.629255924
829.227404102
823.783127954
818.308427614
812.814769735
807.313063208
801.813660368
796.326342033
790.860327799
785.424263129
780.02623876
774.673785411
769.373898181
764.133034
758.957141389
753.85166049
748.821556863
743.87132319
739.005016085
734.22625873
729.538279768
724.943916211
720.445653552
716.045628361
711.745668787
707.547296338
703.451766004
699.460066782
695.572960745
691.790981984
688.114474045
684.543587103
681.078313338
677.718482299
674.463793966
671.313812418
668.267996492
665.325692023
662.486160162
659.748568566
657.112017561
654.575530737
652.138079193
649.79857203
647.555878946
645.408821074
643.356192184
641.396750247
639.52923744
637.752372742
636.06487084
634.465435957
632.952779701
631.525616198
630.182678847
628.922716744
627.744510229
626.646868521
625.628643881
624.688730291
623.826076022
623.039683085
622.328617847
621.69201071
621.129063781
620.639048737
620.221306843
619.875234414
619.600246445
619.395638335
619.259016866
619.20096184
915.74354796
915.436317573
914.802664161
913.834307588
912.53751994
910.918646498
908.985403827
906.746844672
904.213247714
901.395989697
898.307411846
894.960680213
891.3696474
887.548714029
883.512697287
879.276702942
874.856008463
870.265951589
865.521832441
860.638821418
855.631881715
850.515696628
845.304611571
840.012579023
834.653117762
829.239272824
823.783589245
818.298084352
812.79423354
807.282952646
801.774593998
796.278935718
790.805186428
785.361983572
779.957403499
774.598963631
769.293639191
764.04786991
758.867580971
753.75819279
748.724645324
743.771410049
738.9025167
734.121566656
729.43176126
724.835915884
720.336489043
715.935596484
711.63504035
707.436322693
703.34067401
699.349065652
695.462237136
691.680707026
688.00479854
684.434648606
680.970231439
677.61136564
674.357735563
671.208896501
668.164293852
665.223266564
662.385064264
659.648849277
657.013711978
654.478671779
652.042691036
649.704675434
647.463486778
645.317943187
643.266831088
641.30890555
639.442901728
637.667535599
635.981515012
634.383540972
632.872318368
631.446557869
630.104986291
628.846349073
627.6694202
626.57300514
625.555950169
624.617145604
623.755534334
622.970115136
622.259950166
621.62416811
621.06197044
620.572634466
620.155519598
619.81007579
619.535867507
619.332661801
619.200814848
619.142858825
916.377022296
916.065062514
915.425646563
914.448585147
913.140249497
911.507121721
909.557112748
907.299495642
904.74478686
901.904612696
898.791570041
895.419082002
891.80125443
887.95273372
883.888571225
879.624093159
875.174780873
870.556158943
865.78369561
860.87271165
855.83830206
850.69526544
845.458045574
840.140679128
834.756754396
829.319374333
823.841129445
818.334073271
812.809706825
807.278964226
801.752206711
796.239216192
790.749197593
785.29077968
779.872023201
774.50042728
769.182943006
763.925984266
758.735445374
753.616715215
748.574697933
743.613829464
738.738100394
733.951074066
729.2559108
724.655386831
720.151919128
715.74758448
711.444144209
707.243062752
703.145531617
699.152486884
695.264631829
691.482452872
687.806240408
684.236102856
680.771985402
677.413681967
674.160851735
671.013029043
667.969637741
665.029999167
662.193344551
659.458821375
656.825504134
654.292399474
651.858455692
649.522567071
647.283582508
645.140309444
643.091521972
641.135964694
639.272360586
637.499415028
635.815823596
634.220276403
632.711465908
631.288091596
629.948867783
628.692528594
627.517835659
626.423583279
625.408605852
624.471783059
623.612046856
622.828386492
622.119854915
621.485573548
620.924738234
620.436624371
620.020594146
619.676106162
619.402732929
619.200205011
619.068697011
619.006334342
917.350891264
917.033485178
916.385064866
915.394404571
914.06807069
912.412777101
910.436729206
908.149537834
905.562087858
902.686394088
899.535452207
896.123086008
892.463795845
888.572610131
884.464943808
880.156464363
875.662968458
871.000268529
866.184091669
861.22998906
856.153257696
850.968871768
845.691425166
840.335081913
834.913536031
829.439977406
823.927065526
818.386907601
812.831043389
807.270433242
801.715452059
796.175885534
790.660932197
785.179205708
779.73874309
774.347013509
769.010931161
763.736868365
758.530672376
753.397681787
748.342746243
743.370245241
738.484109875
733.687843228
728.984543366
724.376924576
719.867340884
715.457807434
711.150023818
706.945394936
702.845053489
698.84987969
694.960522343
691.177416896
687.500804633
683.930748696
680.467151084
677.109766451
673.858216795
670.712003026
667.670517421
664.733053136
661.89881468
659.166925688
656.536437778
654.006337003
651.575551516
649.242957152
647.007384338
644.867623211
642.82243016
640.870532841
639.010636633
637.241429794
635.561590025
633.969789906
632.464703636
631.045012771
629.709413129
628.456620755
627.285378883
626.194464007
625.182692728
624.248927761
623.392084497
622.611136774
621.905123035
621.273151822
620.714407655
620.228156693
619.813753327
619.470647486
619.198393765
618.996666437
618.865523368
618.802323555
918.669189895
918.344778599
917.684050315
916.674766446
915.323792716
913.638180508
911.62654511
909.298964427
906.666832224
903.742699383
900.540111158
897.073442323
893.357734627
889.408539259
885.24176755
880.873551359
876.320115276
871.597660882
866.722264231
861.709785716
856.575792691
851.335493185
846.003680607
840.594687343
835.12234709
829.59996385
824.040287721
818.455495673
812.857177856
807.256327831
801.66333759
796.087995844
790.539491086
785.026414933
779.556771571
774.137988228
768.776928578
763.47990747
758.252708096
753.100599935
748.02835869
743.040286545
738.140234032
733.331621827
728.617463797
724.000389607
719.482668222
715.06623063
710.752693092
706.543379282
702.439342616
698.441387158
694.55008841
690.765812428
687.088734589
683.518856498
680.056022408
676.69993372
673.450162936
670.306165744
667.267292616
664.332798686
661.501853271
658.773547904
656.146904206
653.620880537
651.194378704
648.866249719
646.635299828
644.500295836
642.459970872
640.513029658
638.658154326
636.89400989
635.219250301
633.632524258
632.132481576
630.717779341
629.387088554
628.139100552
626.972533801
625.886140422
624.878712962
623.949090842
623.096166905
622.318893601
621.61628918
620.987443513
620.431523914
619.94778071
619.53555287
619.194273027
618.923471654
618.722781814
618.592208702
618.528990315
920.338567503
920.005293611
919.328800575
918.295624109
916.913040038
915.188554605
913.131324258
910.752038785
908.062755819
905.076723264
901.80819883
898.272269278
894.484673758
890.461634506
886.219697826
881.775587243
877.146070446
872.347840645
867.3974128
862.311034211
857.104608944
851.7936347
846.393150988
840.917696822
835.381276764
829.797333714
824.178727731
818.537719783
812.885960236
807.234481395
801.593694194
795.973388485
790.382737723
784.830303378
779.324046355
773.871339005
768.478979694
763.153209074
757.899728233
752.723718017
747.629859786
742.622356934
737.704957465
732.880976969
728.153322312
723.524515371
718.996717132
714.571751484
710.251129007
706.03607011
701.9275278
697.926209462
694.032597956
690.246971427
686.569422191
682.999874126
679.538098995
676.183731193
672.93628139
669.795148642
666.759631493
663.828937696
661.002193101
658.27844942
655.656691398
653.135843138
650.71477412
648.392304648
646.167211251
644.038231779
642.004070637
640.063403938
638.214884923
636.457149431
634.788821709
633.208520325
631.714864427
630.306480097
628.982006997
627.740105058
626.579461361
625.498796974
624.496873871
623.572501698
622.7245445
621.951927212
621.253641993
620.62875427
620.07640853
619.595833747
619.186348383
618.847364275
618.578389098
618.379029502
618.249267165
618.18637681
922.36746609
922.023270957
921.327316591
920.264631762
918.843019863
917.070571781
914.957133772
912.514170987
909.754578409
906.692479346
903.343022697
899.722182153
895.84656207
891.733213594
887.399463932
882.862760733
878.140533035
873.250069335
868.208412944
863.032273906
857.737956452
852.341300245
846.857633628
841.301736699
835.687812476
830.029464368
824.339678939
818.630813009
812.914584868
807.202069202
801.503695998
795.829252824
790.187891311
784.588133272
779.037884365
773.544447779
768.114540433
762.754310895
757.469358916
752.264756173
747.145068223
742.114377285
737.176305884
732.334041009
727.59035879
722.947649371
718.407941951
713.972929662
709.643994243
705.422230179
701.308468246
697.303298156
693.407090253
689.620015975
685.942067101
682.373073537
678.912719709
675.560559422
672.316029289
669.178460684
666.14709038
663.221069891
660.399473726
657.681306628
655.065510022
652.550967767
650.136511452
647.820925303
645.602950946
643.481292051
641.454619084
639.52157414
637.680776045
635.930825674
634.270311609
632.697816057
631.211921105
629.811215217
628.494299996
627.259797117
626.106355412
625.032658014
624.037429531
623.119443137
622.277527575
621.510573946
620.817542277
620.197467766
619.649466674
619.172741722
618.766586898
618.430391032
618.1636402
617.965921765
617.837203212
617.774838295
924.766277065
924.408901433
923.689482991
922.591226321
921.122594851
919.2924127
917.111386868
914.591945064
911.748016482
908.594800259
905.148535086
901.426273874
897.445668524
893.224768652
888.781837078
884.135184082
879.303021638
874.303338166
869.153793549
863.871633512
858.473621663
852.975986987
847.394384115
841.743863658
836.038850046
830.293124878
824.519814396
818.731380387
812.939614323
807.155634784
801.389889071
795.652156905
789.951559275
784.296567238
778.695017362
773.154127729
767.68051607
762.280219556
756.958715972
751.720946067
746.571336894
741.513826006
736.551886363
731.688551789
726.926442866
722.26779306
717.714474949
713.26802631
708.929675937
704.700368902
700.580791131
696.57139301
692.6724119
688.883893319
685.20571071
681.63758361
678.179094231
674.829702335
671.588758492
668.455515721
665.429139637
662.508717213
659.693264333
656.981732271
654.37301333
651.865945788
649.459318382
647.151874467
644.942316067
642.829307914
640.811481648
638.887440239
637.055762747
635.315009428
633.663727256
632.100455825
630.623733654
629.23210483
627.924125968
626.698373404
625.553450582
624.487995537
623.500688414
622.590258936
621.755493751
620.995243572
620.308430055
619.694052309
619.151192991
618.679023849
618.276810617
617.94391679
617.67980645
617.484049407
617.356599639
617.294904541
927.547521187
927.174471731
926.42720534
925.286751339
923.762389207
921.863851108
919.602905085
916.993158847
914.049802126
910.78933761
907.229316769
903.388084986
899.28454143
894.937917485
890.367576491
885.592836574
880.632817693
875.506313202
870.231685521
864.826784518
859.308886384
853.69464988
848.000086356
842.240539723
836.430673028
830.584458964
824.715172852
818.835387517
812.95697037
807.091083169
801.248186191
795.43804384
789.669735692
783.951668396
778.291593556
772.696626229
767.173265387
761.727415795
756.364411104
751.089037911
745.90556071
740.817747585
735.828896568
730.94186252
726.159084428
721.482612934
716.914137959
712.455016191
708.10629825
703.86875529
699.742904801
695.729035377
691.827230224
688.037389201
684.359249226
680.792402906
677.336315322
673.990338924
670.753726557
667.625642696
664.605172984
661.691332263
658.883071242
656.179282044
653.57880284
651.080421804
648.682880599
646.384877629
644.185071227
642.082082958
640.074501178
638.160884963
636.33976847
634.60966581
632.96907643
631.416491011
629.950397855
628.569289719
627.271671033
626.056065419
624.921023454
623.865130566
622.88701498
621.98535563
621.158889935
620.406421365
619.726826695
619.119062881
618.582173449
618.115294326
617.717659015
617.388602706
617.127565675
616.934099212
616.808141198
616.747242175
930.72605837
930.334556806
929.554586339
928.364612276
926.774918143
924.796354578
922.441989229
919.726865865
916.667697826
913.282552556
909.590546599
905.611555895
901.36594684
896.874331688
892.157350634
887.235482151
882.128882459
876.857254386
871.439744976
865.894870133
860.240463293
854.493644001
848.670801282
842.787586609
836.858911692
830.898947743
824.921124471
818.938128808
812.961904377
807.003653136
801.07384168
795.182209331
789.337780631
783.548881744
777.82316093
772.167610022
766.588587536
761.091842943
755.682541829
750.365291835
745.144169308
740.022746622
735.004120087
730.090938401
725.285431497
720.589439656
716.00444272
711.531589187
707.17172497
702.92542155
698.793003265
694.774573446
690.870039134
687.079134138
683.401440226
679.836406282
676.383365349
673.041549503
669.810102598
666.688090965
663.674512211
660.768302301
657.968341171
655.273457096
652.682430106
650.193994714
647.806842218
645.519622828
643.330947841
641.239392061
639.243496611
637.341772273
635.532703425
633.814752635
632.18636592
630.645978655
629.192022098
627.822930464
626.537148477
625.3331393
624.209392757
623.164433728
622.19683062
621.305203812
620.488233947
619.744670002
619.073337021
618.473143422
617.943087794
617.482265099
617.08987222
616.765212526
616.507699706
616.316864115
616.192624248
616.132643049
934.319342702
933.906258233
933.088143387
931.840464877
930.174741839
928.103201009
925.640498084
922.803417917
919.610506078
916.081696432
912.237957571
908.100962833
903.692788885
899.035645617
894.151638998
889.062567955
883.789756066
878.35391834
872.775062517
867.072422876
861.264422839
855.368660696
849.401911482
843.380137424
837.318500313
831.231371162
825.132335424
819.0341946
812.948966839
806.887889301
800.861425915
794.879278364
788.950399546
783.083016016
777.284651425
771.562151499
765.921710256
760.368896865
754.908683054
749.545470972
744.283121618
739.124983825
734.073923839
729.132355428
724.302270438
719.585269658
714.982593828
710.495154575
706.123565012
701.868169729
697.729073831
693.706170712
689.799168229
686.007612977
682.330912418
678.768354673
675.319125848
671.982324868
668.756975852
665.642038139
662.636414144
659.738955293
656.948466301
654.263708109
651.683399813
649.206219902
646.830807119
644.555761253
642.379644104
640.300980862
638.318262051
636.429946198
634.634463294
632.930219098
631.315600282
629.788980394
628.348726577
626.993206962
625.720798645
624.529896125
623.418920084
622.386326398
621.430615235
620.550340126
619.74411689
619.010632295
618.348652357
617.757030171
617.234713194
616.780749899
616.39429576
616.074618227
615.821101004
615.633250636
615.510962636
615.452021948
938.347737042
937.909500535
937.047075896
935.732443536
933.978647899
931.799612519
929.211934318
926.234506248
922.888070645
919.194777718
915.177775274
910.860833439
906.268007786
901.423341966
896.350610132
891.07309962
885.613434582
879.99344138
874.234055561
868.355268628
862.376109995
856.314656757
850.188061229
844.012585349
837.803632018
831.575767
825.342729622
819.117435056
812.911973315
806.737610417
800.604796326
794.523179289
788.501620331
782.548223648
776.670363537
770.874713703
765.167276967
759.553414972
754.037877817
748.624833854
743.317899826
738.12017155
733.03425518
728.062299088
723.206026246
718.466767025
713.845492211
709.342846032
704.959178901
700.694579543
696.54890613
692.521816005
688.612793609
684.821176225
681.146177235
677.586906659
674.142388814
670.811577064
667.593365717
664.486599194
661.490078723
658.602566827
655.822789984
653.149439796
650.581173111
648.116611453
645.75434016
643.492907573
641.33082458
639.266564758
637.298565343
635.425229125
633.644927393
631.956003944
630.356780145
628.845561
627.420642153
626.080317691
624.822888659
623.646672119
622.550010626
621.531281966
620.588909012
619.721369542
618.927205904
618.205034374
617.55355412
616.971555643
616.457928623
616.011669082
615.631885827
615.317805923
615.068779263
614.884285238
614.764193
614.706419147
942.834903501
942.367396212
941.453592503
940.061435615
938.205864968
935.902905942
933.171534381
930.033196472
926.511263866
922.630509525
918.416633063
913.895836471
909.094450394
904.038608934
898.753971145
893.26548873
887.597221057
881.772199361
875.812341474
869.73841603
863.570051183
857.325777966
851.023094074
844.678531535
838.30771324
831.925388778
825.545448343
819.180920896
812.843966663
806.545873766
800.297065187
794.107115067
787.984768206
781.937979062
775.973943686
770.099134306
764.319333046
758.639664468
753.064627353
747.598126173
742.243502832
737.00356893
731.880638753
726.87656296
721.992762946
717.230265724
712.589739191
708.071527519
703.675686385
699.402017609
695.250102787
691.219335363
687.308950671
683.518053464
679.845642535
676.290632133
672.85187001
669.528152041
666.31823348
663.220837075
660.234658281
657.358367986
654.59061315
651.930015837
649.37517112
646.92464434
644.576968168
642.330639895
640.184119289
638.135827326
636.184146013
634.327419447
632.563956199
630.892033039
629.309899961
627.815786448
626.40790884
625.084478693
623.843711955
622.683838797
621.603113929
620.599827217
619.672314431
618.818967959
618.038247327
617.328689379
616.688918004
616.117653277
615.613719933
615.176055109
614.803715296
614.495882228
614.251867837
614.071120983
613.953480864
613.897005224
947.808290888
947.30669963
946.333311094
944.851409639
942.87830948
940.432657539
937.53635681
934.213950044
930.491952275
926.398230131
921.961457059
917.210639413
912.174707354
906.882163341
901.360783017
895.637366958
889.737545357
883.685640096
877.504588505
871.215930188
864.839852151
858.395279568
851.899991464
845.370735913
838.823320669
832.272664411
825.73280827
819.216900792
812.737174889
806.304936255
799.930564102
793.623531723
787.392438568
781.245055658
775.188366685
769.228608986
763.371311513
757.621330046
751.982880564
746.45957199
741.054439165
735.76997658
730.608173028
725.570547195
720.658184084
715.87177218
711.211641185
706.677800102
702.269975321
697.987648257
693.830091951
689.796406003
685.885549194
682.096369177
678.42762876
674.878028379
671.44622458
668.130844424
664.930495949
661.843774907
658.869268168
656.005554234
653.251201408
650.6047642
648.064778549
645.629756453
643.298180553
641.068499154
638.939122123
636.90841797
634.974712387
633.136288381
631.391388077
629.738216192
628.174945104
626.699721412
625.310673823
624.005922206
622.783587603
621.641803008
620.57872469
619.592543872
618.681498531
617.843885167
617.078070319
616.382501697
615.755718777
615.196362737
614.703185643
614.275058804
613.910980258
613.610081171
613.371631063
613.195044524
613.080127366
613.025087568
953.299748817
952.758371709
951.715749302
950.129805767
948.020866372
945.410876406
942.325359747
938.792621517
934.842929962
930.507787043
925.819312798
920.809726865
915.510910471
909.954033297
904.169235196
898.185360052
892.0297462
885.728082537
879.304340638
872.780789229
866.178088423
859.515447788
852.810818124
846.081076548
839.342165095
832.609157806
825.896258332
819.216754494
812.582964628
806.006208419
799.496801438
793.06408315
786.716468031
780.461501989
774.305915981
768.255674637
762.316018541
756.4915012
750.78602301
745.202864355
739.744719346
734.413730783
729.211526475
724.139256781
719.197633238
714.386968151
709.707215045
705.158009775
700.738711954
696.448446121
692.286141966
688.250572753
684.340391108
680.554161383
676.890387953
673.34753897
669.924065326
666.618414755
663.429041244
660.354410053
657.392998825
654.543295378
651.803792828
649.172982779
646.649347284
644.23135031
641.917429344
639.705987745
637.595388327
635.583948562
633.669937668
631.851575748
630.127035014
628.494443071
626.951888143
625.497426078
624.129088929
622.844894892
621.642859361
620.521006854
619.477383561
618.510070277
617.617195459
616.796948215
616.047590991
615.367471785
614.755035738
614.208835955
613.727543476
613.3099563
612.955007461
612.661771859
612.429471872
612.257484082
612.145577158
612.09211791
959.346309698
958.758292007
957.634927762
955.927998245
953.66170103
950.862175673
947.55945241
943.786415614
939.577805178
934.969372711
929.997204228
924.697172329
919.104483695
913.253293786
907.176371922
900.904813273
894.4678065
887.892474719
881.203810576
874.424721899
867.576191002
860.67752935
853.746683406
846.800526603
839.855068464
832.925536084
826.026334274
819.170937974
812.371781942
805.640199753
798.986417235
792.419593687
785.947904694
779.578618305
773.31816459
767.17219323
761.145619163
755.242659388
749.466865404
743.821155303
738.307847557
732.928697066
727.684933207
722.57729948
717.606094433
712.771213824
708.072193988
703.508256354
699.078352733
694.781210757
690.615378517
686.579267314
682.671191386
678.889403579
675.232126126
671.697575937
668.283984101
664.989609546
661.81274708
658.751730225
655.804929471
652.970746666
650.2476064
647.63394525
645.12819979
642.728794214
640.434128402
638.242567095
636.152430793
634.161988798
632.269454704
630.472984478
628.770677149
627.160578009
625.640684154
624.208952132
622.863307439
621.601655583
620.421894421
619.321927484
618.299677994
617.353103285
616.480209343
615.679065225
614.947817088
614.284701654
613.688058912
613.156343938
612.688137716
612.282156887
611.937262405
611.652466928
611.426940665
611.260018067
611.151427009
611.099701105
965.991199245
965.348163143
964.130116175
962.281838069
959.832593572
956.813921304
953.261496159
949.213780681
944.710820886
939.793297623
934.501815302
928.876356586
922.955842046
916.777748704
910.377761977
903.789457567
897.044029877
890.170098561
883.19363208
876.138023027
869.024331702
861.871680211
854.697733917
847.519163371
840.351963816
833.211545332
826.112608643
819.068916083
812.093080364
805.196454371
798.389130399
791.680017947
785.076978907
778.586935046
772.215958273
765.96933724
759.851623738
753.866665106
748.017631546
742.307045014
736.736812438
731.308262927
726.022187925
720.878883214
715.878192267
711.019550968
706.302034065
701.724403414
697.285157804
692.982583549
688.814804633
684.77983088
680.875602641
677.100030597
673.451029602
669.926545826
666.524576843
663.243184639
660.080501872
657.034731922
654.104143547
651.287061063
648.581851099
645.986907021
643.500632118
641.121422619
638.847651484
636.677653853
634.609714798
632.642059929
630.772849122
629.000173533
627.322055833
625.736453496
624.241264881
622.834337788
621.513480141
620.276472465
619.121081804
618.045076732
617.046243125
616.122400352
615.271417557
614.491229736
613.779853327
613.135401085
612.556096049
612.040284449
611.586447456
611.193211697
610.859358545
610.583831949
610.365744662
610.204384897
610.099435686
610.049604781
973.285164237
972.576679512
971.246760575
969.232281028
966.569273538
963.296322558
959.456216262
955.094204604
950.25658391
944.989684576
939.339185325
933.349628334
927.064035279
920.523554418
913.767102911
906.83100296
899.748640992
892.550203466
885.262557173
877.909341185
870.511314515
863.086952162
855.653202865
848.226233225
840.821932355
833.455997134
826.143628683
818.899071134
811.735226064
804.66346889
797.693676469
790.834399494
784.093077348
777.476196311
770.989403145
764.637578017
758.424875516
752.354744788
746.429945301
740.652569781
735.024076681
729.545329484
724.216639873
719.037812648
714.008191452
709.126705893
704.391920949
699.802089274
695.355206303
691.049067219
686.881324037
682.849540717
678.95124414
675.183969129
671.545296087
668.032880355
664.644472904
661.377932406
658.231229141
655.202441499
652.289746108
649.49140277
646.805735503
644.231111056
641.765916231
639.408535309
637.15732876
635.010614246
632.966650759
631.023626442
629.179650451
627.432748924
625.780864927
624.221862092
622.753531544
621.373601705
620.07975051
618.869619643
617.740830375
616.691000606
615.717762729
614.818781914
613.991774428
613.234525654
612.54490746
611.920894694
611.360580544
610.862190652
610.424095851
610.044823486
609.723067298
609.45769581
609.24775875
609.092493583
608.99153458
608.943770229
981.288253054
980.501058594
979.037643086
976.82609484
973.911709453
970.342401593
966.169963647
961.447864913
956.229670829
950.568067591
944.514313019
938.117908317
931.42633856
924.48478329
917.335751022
910.01864153
902.569284482
895.01954001
887.397073665
879.725426956
872.024482121
864.311347792
856.60155977
848.910312437
841.253299455
833.646765092
826.106825487
818.64856694
811.285360335
804.028581492
796.887737081
789.870832935
782.984726157
776.235353197
769.627861213
763.166678588
756.85553949
750.697476819
744.694815859
738.849188119
733.161564997
727.632301701
722.261185538
717.047484562
711.989995365
707.087091775
702.336776756
697.736738857
693.284413572
688.977048302
684.811768447
680.785641495
676.895736144
673.139173905
669.513171446
666.015072572
662.642369485
659.392713472
656.263915713
653.25393924
650.360883347
647.582961999
644.918477821
642.365793361
639.923301267
637.589394965
635.362441256
633.240756087
631.222584466
629.306085198
627.489320771
625.770252409
624.14674001
622.616546509
621.177346081
619.826735617
618.5622489
617.381373001
616.281566437
615.260278639
614.314970296
613.44313411
612.642315513
611.910132931
611.24429722
610.642629961
610.103080401
609.623740851
609.20286048
608.838857441
608.530329386
608.276062232
608.07503689
607.92643566
607.829839721
607.784324188
990.072257008
989.1890924
987.56434007
985.116614633
981.904262334
977.987735511
973.430233093
968.295066411
962.644072872
956.53688222
950.030692931
943.180249064
936.037802422
928.652932512
921.072169826
913.338437256
905.490384916
897.561747463
889.580899737
881.570818212
873.549648597
865.531994861
857.530836787
849.559633219
841.633822468
833.770782282
825.988356842
818.303122045
810.729185076
803.277824511
795.957865397
788.77643984
781.739593274
774.852575016
768.119958535
761.545692468
755.133091563
748.884774952
742.802619649
736.887764055
731.140649956
725.561076985
720.14825977
714.900881622
709.817142969
704.894809725
700.131266334
695.52357618
691.068550355
686.762823051
682.602929575
678.585382377
674.706740723
670.963670707
667.352993349
663.871719629
660.517072139
657.286493758
654.177644343
651.188386829
648.316764458
645.560971023
642.919316164
640.390187733
637.972013273
635.663222504
633.462212599
631.367317739
629.376784154
627.48875142
625.701240359
624.01214743
622.419245115
620.920187552
619.512520597
618.193695517
616.961085624
615.812005297
614.7437309
613.753523131
612.838650292
611.996411968
611.224162553
610.519334134
609.879458282
609.302186405
608.785308401
608.326769465
607.924684952
607.577353314
607.283267151
607.041122424
606.849825243
606.708497973
606.616664589
606.573591941
999.724140076
998.721957075
996.899065872
994.164457804
990.595527936
986.269791302
981.264797563
975.655378345
969.512440206
962.9028446
955.889805007
948.533381244
940.890791447
933.016395631
924.961294043
916.772573611
908.492311921
900.156519583
891.794278799
883.427413038
875.07106848
866.7355252
858.42926941
850.162698829
841.951020834
833.814010522
825.77280805
817.846611074
810.050634663
802.395740738
794.889426233
787.537380521
780.344527549
773.315290128
766.453612424
759.76296902
753.246304982
746.905865147
740.743076227
734.758546228
728.952135419
723.323032175
717.869825248
712.590563928
707.482803223
702.543647517
697.769802162
693.157636955
688.703264026
684.402627292
680.251596867
676.246061183
672.382010555
668.655607797
665.06324332
661.601573536
658.26754254
655.058387824
651.971631468
649.005058704
646.156686056
643.424721456
640.807518783
638.303529351
635.911252754
633.629189447
631.455797183
629.389453194
627.428423568
625.570840779
623.814689694
622.157801774
620.597856603
619.132389617
617.758804788
616.474391223
615.276342825
614.161780437
613.127776012
612.171378322
611.289639707
610.479643185
609.738529304
609.063522073
608.451953467
607.901286078
607.409133666
606.973279418
606.591691918
606.262538828
605.984198433
605.755269048
605.574575911
605.441176924
605.354534414
605.314111341
1010.35097242
1009.19818121
1007.12701676
1004.0379814
1000.03753234
995.226557583
989.700256088
983.546364077
976.845094645
969.670240502
962.090608352
954.171308717
945.974568566
937.559934728
928.983815506
920.298423683
911.550268283
902.778425945
894.012936708
885.27382758
876.571439574
867.908800838
859.2865076
850.709417544
842.192723675
833.76130562
825.442601307
817.260376319
809.231359988
801.365151656
793.666592301
786.138943
778.785660931
771.610272475
764.616085329
757.806163422
751.183225925
744.749248095
738.505213718
732.451141538
726.586237942
720.909009853
715.417360491
710.108657727
704.979765556
700.027074315
695.246546315
690.633780467
686.184101785
681.892671025
677.754602298
673.765077412
669.919447659
666.21331774
662.642609051
659.203601595
655.892954952
652.707709641
649.645270952
646.703377785
643.880059351
641.173582671
638.582393917
636.105056545
633.74018922
631.486406324
629.342263736
627.306212184
625.376560033
623.551446709
621.828827108
620.206466382
618.681943743
617.252663435
615.915871114
614.668674165
613.50806501
612.430946874
611.434161658
610.514519588
609.668830026
608.893932693
608.186728438
607.54420876