/*--------------------------------*- C++ -*----------------------------------*\
| =========                 |                                                 |
| \\      /  F ield         | OpenFOAM: The Open Source CFD Toolbox           |
|  \\    /   O peration     | Version:  v1906                                 |
|   \\  /    A nd           | Web:      www.OpenFOAM.com                      |
|    \\/     M anipulation  |                                                 |
\*---------------------------------------------------------------------------*/
FoamFile
{
    version     2.0;
    format      ascii;
    class       volVectorField;
    location    "747";
    object      Ua;
}
// * * * * * * * * * * * * * * * * * * * * * * * * * * * * * * * * * * * * * //

dimensions      [0 1 -1 0 0 0 0];


internalField   nonuniform List<vector> 
9216
(
(-0.0103656885967 0.010372662176 0)
(-0.0109388955638 0.0334761160302 3.91605195081e-27)
(-0.0109349595531 0.056935917022 -7.07913526373e-31)
(-0.0108323776296 0.0804028814991 0)
(-0.0106862241583 0.103479925042 0)
(-0.0105006263071 0.126072723229 0)
(-0.0102801808967 0.148079860036 0)
(-0.0100281240698 0.169409234815 0)
(-0.00974739732641 0.189978070964 0)
(-0.00944097032214 0.209713013442 0)
(-0.00911180323289 0.228550332436 0)
(-0.00876291633683 0.246435995718 0)
(-0.00839725041463 0.263325643239 0)
(-0.00801773406728 0.279184345042 0)
(-0.0076271267444 0.293986277507 0)
(-0.00722811618035 0.307714218089 0)
(-0.00682315540292 0.320359012407 0)
(-0.00641459618479 0.331918908971 0)
(-0.00600452005252 0.342398922838 0)
(-0.00559490759346 0.351810111597 0)
(-0.00518745954477 0.360168928024 0)
(-0.00478379892979 0.367496517506 0)
(-0.00438527650393 0.37381812454 0)
(-0.00399320096577 0.379162460712 0)
(-0.00360862248993 0.383561197759 0)
(-0.00323258685414 0.387048424604 0)
(-0.00286589299195 0.38966023185 0)
(-0.00250936890799 0.391434254424 0)
(-0.00216360265756 0.392409338368 0)
(-0.001829244344 0.392625164418 0)
(-0.00150672039639 0.392121935135 0)
(-0.00119645169556 0.390940315174 0)
(-0.000898613054875 0.38912062651 0)
(-0.000613551337561 0.386702944695 0)
(-0.000341369671176 0.38372702119 0)
(-8.22672050411e-05 0.380231947751 0)
(0.000163815255664 0.376256041093 0)
(0.000396808098052 0.371836658132 0)
(0.000616896960814 0.367010097311 0)
(0.000824120812182 0.361811458877 0)
(0.00101877439338 0.356274579025 0)
(0.00120098988417 0.350431926472 0)
(0.00137115423504 0.34431456354 0)
(0.00152947664439 0.337952075538 0)
(0.00167641824589 0.331372555821 0)
(0.0018122478009 0.324602566183 0)
(0.00193748082329 0.317667143 0)
(0.00205242666008 0.310589786559 0)
(0.00215763454927 0.30339248628 0)
(0.00225343513009 0.296095737163 0)
(0.00234039056434 0.288718580887 0)
(0.00241883410968 0.281278646104 0)
(0.00248932183289 0.273792202086 0)
(0.00255217351956 0.26627421903 0)
(0.00260792310469 0.258738429163 0)
(0.00265686450776 0.251197401551 0)
(0.00269949819832 0.243662605536 0)
(0.00273608493826 0.236144494406 0)
(0.00276708546643 0.228652565034 0)
(0.00279272522245 0.22119544415 0)
(0.00281342439502 0.213780939207 0)
(0.0028293760025 0.206416122158 0)
(0.00284096323059 0.199107366926 0)
(0.00284835328401 0.191860426364 0)
(0.00285189930379 0.184680453946 0)
(0.00285175178886 0.177572071673 0)
(0.00284824228805 0.170539374772 0)
(0.00284151428517 0.163585989595 0)
(0.0028318863634 0.156715062463 0)
(0.00281950397545 0.149929308591 0)
(0.00280467988397 0.143230987055 0)
(0.00278756837168 0.136621942619 0)
(0.00276848131884 0.130103570322 0)
(0.00274758602947 0.123676853125 0)
(0.0027251955039 0.117342319612 0)
(0.0027014911484 0.111100080308 0)
(0.00267678629317 0.104949782442 0)
(0.00265127469557 0.0988906478965 0)
(0.00262526653533 0.0929214282186 0)
(0.00259896361062 0.0870404465435 0)
(0.00257266736445 0.0812455558807 0)
(0.00254658127843 0.0755341871149 0)
(0.00252099047659 0.0699033129328 0)
(0.00249609148993 0.064349504023 0)
(0.00247214251606 0.0588689021215 0)
(0.00244931903313 0.0534572894657 0)
(0.00242783033553 0.0481100813995 0)
(0.0024077905819 0.042822431413 0)
(0.00238927438539 0.0375892976724 0)
(0.00237212926464 0.0324057177047 0)
(0.00235576884921 0.0272672706497 0)
(0.0023383887505 0.0221715246091 0)
(0.00231499372998 0.0171219818166 0)
(0.00226335070995 0.0121623400136 0)
(0.00216668515693 0.00698431185753 0)
(0.00294255039559 0.00294245328416 0)
(-0.033555641413 0.011032084584 0)
(-0.0370929633034 0.0373794431578 0)
(-0.0370055390379 0.0636541202861 -4.11092015127e-27)
(-0.0365028836451 0.0899609840977 0)
(-0.0358045489046 0.115796220856 0)
(-0.0349372426651 0.141074933758 0)
(-0.0339158336831 0.165689347206 0)
(-0.0327546383946 0.189538079912 0)
(-0.0314684777674 0.212528971971 0)
(-0.0300727799567 0.234580161157 0)
(-0.0285832442126 0.25562057244 0)
(-0.0270156956117 0.275590101866 0)
(-0.0253856590091 0.294439584034 0)
(-0.0237082650063 0.31213052602 0)
(-0.0219978598761 0.328634702029 0)
(-0.0202680215323 0.343933581054 0)
(-0.0185312282376 0.358017682229 0)
(-0.0167989929457 0.370885826787 0)
(-0.0150815848478 0.382544380461 0)
(-0.0133882712598 0.393006448152 0)
(-0.0117270721588 0.402291109992 0)
(-0.0101050883553 0.41042265025 0)
(-0.00852826202102 0.417429860793 0)
(-0.00700176558054 0.423345358898 0)
(-0.00552974148038 0.428204993174 0)
(-0.0041157300904 0.432047267764 0)
(-0.002762370167 0.434912853024 0)
(-0.00147185388885 0.436844107592 0)
(-0.000245581483631 0.437884677211 0)
(0.000915356637362 0.438079090005 0)
(0.00201055968408 0.437472457526 0)
(0.00303987165216 0.43610991255 0)
(0.00400382208629 0.434036860825 0)
(0.00490298041093 0.431298423406 0)
(0.0057384676311 0.427939102884 0)
(0.0065114306779 0.424002654447 0)
(0.00722354204199 0.419531918458 0)
(0.00787640804344 0.41456864523 0)
(0.0084721084747 0.409153375623 0)
(0.00901258381591 0.40332530195 0)
(0.00950020543792 0.397122183388 0)
(0.00993714204523 0.390580243818 0)
(0.0103259553843 0.383734119002 0)
(0.010668948589 0.376616788474 0)
(0.0109687829336 0.369259551433 0)
(0.0112278113392 0.361691990346 0)
(0.0114487116236 0.353941973038 0)
(0.0116338094047 0.346035646023 0)
(0.0117857238042 0.337997460503 0)
(0.0119066843929 0.329850193098 0)
(0.0119991853364 0.321614992732 0)
(0.0120653017356 0.313311425452 0)
(0.0121073486058 0.304957538231 0)
(0.0121272018565 0.296569923263 0)
(0.012126958217 0.288163793286 0)
(0.0121082661444 0.279753059463 0)
(0.0120729828024 0.271350412003 0)
(0.0120225194244 0.262967404964 0)
(0.0119584908571 0.254614535409 0)
(0.011882079455 0.246301328379 0)
(0.011794672557 0.238036408422 0)
(0.0116972480129 0.229827578801 0)
(0.0115909945199 0.221681880278 0)
(0.011476721467 0.213605660052 0)
(0.0113554572442 0.20560461462 0)
(0.0112278853953 0.197683845918 0)
(0.0110949160749 0.189847886974 0)
(0.0109571504257 0.182100744673 0)
(0.0108154210166 0.174445909052 0)
(0.0106702860538 0.166886384002 0)
(0.0105225351344 0.159424682527 0)
(0.0103727150778 0.152062847975 0)
(0.0102215982261 0.144802438855 0)
(0.0100697415437 0.137644544074 0)
(0.00991791532254 0.130589761255 0)
(0.00976669734507 0.123638209629 0)
(0.00961686065106 0.116789505943 0)
(0.00946900433683 0.110042778484 0)
(0.00932389949931 0.10339664411 0)
(0.00918215816152 0.0968492263001 0)
(0.00904453694948 0.0903981362974 0)
(0.00891164513148 0.0840404975262 0)
(0.00878420547922 0.0777729330899 0)
(0.0086628015494 0.07159159833 0)
(0.00854809395048 0.0654921766753 0)
(0.00844060361744 0.0594699219965 0)
(0.00834087502339 0.0535196641727 0)
(0.00824927671575 0.0476358597102 0)
(0.00816606783082 0.0418125947297 0)
(0.00809111130817 0.0360435887057 0)
(0.00802359054178 0.0303219882034 0)
(0.00796103634348 0.0246396626011 0)
(0.0078969367003 0.0189841243522 0)
(0.00781238671903 0.0133281063843 0)
(0.00760167692511 0.00758504345746 0)
(0.00697967658277 0.00216098923041 0)
(-0.0574470703635 0.0111793001954 0)
(-0.0635982557059 0.0379961887935 0)
(-0.0633797406634 0.0646029156917 -4.11466535071e-27)
(-0.0625081956838 0.0912930973214 0)
(-0.0613260692856 0.117500430186 0)
(-0.0598674192437 0.14313464897 0)
(-0.0581529590978 0.168084130828 0)
(-0.0562051147845 0.19224519654 0)
(-0.0540481500926 0.21552398829 0)
(-0.051707619695 0.237837454378 0)
(-0.0492097135694 0.259113803706 0)
(-0.0465807772066 0.279292676927 0)
(-0.0438467341331 0.298325068935 0)
(-0.041032736072 0.316173021634 0)
(-0.0381627084357 0.332809152082 0)
(-0.0352591635308 0.348216027777 0)
(-0.0323428849235 0.362385451299 0)
(-0.0294329056025 0.37531766288 0)
(-0.0265463192544 0.387020519074 0)
(-0.0236984015172 0.397508650124 0)
(-0.0209025159259 0.406802646747 0)
(-0.0181703392866 0.414928269388 0)
(-0.0155118173771 0.421915719962 0)
(-0.0129354482294 0.427798957928 0)
(-0.0104482424659 0.432615089773 0)
(-0.00805602524937 0.436403804394 0)
(-0.00576337012264 0.439206875908 0)
(-0.00357389861325 0.441067702369 0)
(-0.00149017635622 0.44203089971 0)
(0.000485993946955 0.442141919431 0)
(0.00235371907474 0.441446727273 0)
(0.00411271190076 0.439991459002 0)
(0.00576339528181 0.437822157805 0)
(0.00730669010991 0.434984539917 0)
(0.00874417964958 0.431523743899 0)
(0.0100777787656 0.427484123234 0)
(0.0113099444347 0.422909068297 0)
(0.0124433607848 0.417840843008 0)
(0.0134811625709 0.412320451192 0)
(0.0144266130066 0.4063875129 0)
(0.0152833432602 0.400080167365 0)
(0.0160550249253 0.393434985171 0)
(0.0167456230235 0.386486903816 0)
(0.017359063596 0.379269172397 0)
(0.017899497354 0.371813317104 0)
(0.0183709632918 0.364149116257 0)
(0.0187776606139 0.356304593566 0)
(0.0191236102282 0.348306021613 0)
(0.0194129333829 0.340177941112 0)
(0.0196495137532 0.331943190786 0)
(0.0198372818946 0.323622949798 0)
(0.0199798813565 0.315236790705 0)
(0.020080958496 0.306802741288 0)
(0.0201438361811 0.298337355946 0)
(0.0201718084098 0.289855791309 0)
(0.0201678248854 0.281371889859 0)
(0.0201347894071 0.272898262856 0)
(0.0200752577277 0.264446379221 0)
(0.0199917378039 0.256026648481 0)
(0.019886402366 0.24764850774 0)
(0.0197613882549 0.239320498097 0)
(0.0196185240208 0.231050343526 0)
(0.0194596247952 0.222845015199 0)
(0.0192862344875 0.214710797587 0)
(0.0190999122896 0.206653337336 0)
(0.0189019885163 0.19867769414 0)
(0.0186938388173 0.190788372725 0)
(0.0184766527036 0.1829893581 0)
(0.0182516919944 0.175284131605 0)
(0.0180200712711 0.167675692207 0)
(0.0177829977443 0.160166559003 0)
(0.017541563407 0.152758781563 0)
(0.0172969643908 0.145453932674 0)
(0.0170503050725 0.138253111629 0)
(0.0168027957939 0.131156931264 0)
(0.0165555697058 0.124165518213 0)
(0.0163098584866 0.117278498416 0)
(0.0160668229827 0.110494998134 0)
(0.0158277070541 0.103813631413 0)
(0.0155936832252 0.0972325049236 0)
(0.015365985075 0.0907492102587 0)
(0.0151457688899 0.0843608348698 0)
(0.0149342248149 0.0780639609563 0)
(0.0147324547932 0.071854683644 0)
(0.0145415615807 0.0657286169256 0)
(0.0143625409464 0.0596809179586 0)
(0.0141963438587 0.0537062959543 0)
(0.014043774509 0.0477990316517 0)
(0.0139055121488 0.0419529620418 0)
(0.0137819990189 0.0361614296425 0)
(0.0136734275957 0.0304170979236 0)
(0.0135797514673 0.0247114996798 0)
(0.013501037196 0.0190338022047 0)
(0.0134368956649 0.0133649981805 0)
(0.0133311909086 0.0077544562618 0)
(0.0121324551109 0.00224828950557 0)
(-0.0818969205344 0.0113090666614 0)
(-0.0907368347482 0.0385764295544 0)
(-0.0904161467006 0.0655296790996 4.11275514841e-27)
(-0.0891574069277 0.0925872349276 0)
(-0.087452899123 0.119145804258 0)
(-0.0853527010081 0.145110103558 0)
(-0.0828865809107 0.170364177777 0)
(-0.0800868233175 0.194801356213 0)
(-0.0769885139234 0.218325719152 0)
(-0.0736286316578 0.240852969825 0)
(-0.0700451004089 0.262310802323 0)
(-0.0662759859932 0.282639004119 0)
(-0.0623587185191 0.301789294849 0)
(-0.0583294958702 0.319724934998 0)
(-0.0542227184095 0.336420156696 0)
(-0.0500706262907 0.351859448202 0)
(-0.0459029575081 0.366036741777 0)
(-0.0417468138489 0.378954533161 0)
(-0.0376265216448 0.390622977436 0)
(-0.0335636915075 0.40105898306 0)
(-0.0295772336541 0.410285340059 0)
(-0.0256835520707 0.418329893544 0)
(-0.0218966468464 0.42522478573 0)
(-0.0182283717416 0.431005764197 0)
(-0.014688555033 0.435711566049 0)
(-0.011285260592 0.439383364573 0)
(-0.00802488111911 0.442064279608 0)
(-0.00491237274137 0.443798934128 0)
(-0.00195130695942 0.444633057347 0)
(0.000855922213294 0.444613119348 0)
(0.00350808184548 0.443786003682 0)
(0.00600491561489 0.442198728611 0)
(0.00834707467951 0.439898060945 0)
(0.0105360236353 0.436930397847 0)
(0.0125740218327 0.433341486773 0)
(0.0144639326905 0.429176223677 0)
(0.0162092530168 0.424478478131 0)
(0.0178139345485 0.419290935448 0)
(0.0192824247542 0.413654962658 0)
(0.0206194925003 0.407610491158 0)
(0.0218302800719 0.401195919472 0)
(0.0229201324253 0.394448030667 0)
(0.0238946580138 0.387401927495 0)
(0.0247595603747 0.380090981237 0)
(0.0255207053636 0.372546796656 0)
(0.0261839543509 0.364799190334 0)
(0.0267552363735 0.356876183942 0)
(0.027240383586 0.348804010793 0)
(0.0276452081847 0.340607136053 0)
(0.027975341949 0.33230828979 0)
(0.0282363188856 0.323928511847 0)
(0.0284334217654 0.315487208443 0)
(0.028571772146 0.307002217899 0)
(0.0286561869801 0.298489885997 0)
(0.0286912775259 0.289965146893 0)
(0.0286813187245 0.28144161079 0)
(0.0286303577413 0.27293165294 0)
(0.0285420975261 0.264446506012 0)
(0.0284200143443 0.255996349427 0)
(0.0282672555512 0.247590398757 0)
(0.0280867640677 0.239236988077 0)
(0.0278811888339 0.23094364964 0)
(0.0276530129189 0.222717183364 0)
(0.0274044741476 0.214563721884 0)
(0.0271376928636 0.206488783458 0)
(0.0268545996041 0.198497319836 0)
(0.0265570583767 0.190593751277 0)
(0.0262467984346 0.182781997111 0)
(0.0259255294277 0.175065493919 0)
(0.025594874814 0.167447210776 0)
(0.0252564760772 0.159929653433 0)
(0.0249119262855 0.152514867763 0)
(0.0245628616816 0.145204434026 0)
(0.0242108947985 0.137999462824 0)
(0.0238576927609 0.130900583941 0)
(0.0235049103226 0.123907939255 0)
(0.0231542551344 0.117021170515 0)
(0.0228074216503 0.110239413235 0)
(0.0224661442025 0.103561287079 0)
(0.0221321331342 0.0969848939726 0)
(0.0218071168274 0.0905078138592 0)
(0.0214927813822 0.084127109199 0)
(0.0211908026252 0.0778393276278 0)
(0.020902790311 0.0716405135456 0)
(0.0206303105848 0.0655262173563 0)
(0.0203748348413 0.0594915120602 0)
(0.0201377524783 0.0535310040617 0)
(0.0199203251017 0.0476388445419 0)
(0.0197236946743 0.0418087223316 0)
(0.0195488627834 0.0360338354507 0)
(0.0193967559478 0.0303068208392 0)
(0.0192683919858 0.0246196187577 0)
(0.0191651421989 0.01896330778 0)
(0.0190853372784 0.0133232809018 0)
(0.0189383062021 0.00777561226495 0)
(0.0170345171044 0.00228541509538 0)
(-0.106747459284 0.0114759487495 0)
(-0.118283721839 0.0393373694315 0)
(-0.117854498014 0.0667700110267 0)
(-0.116193231429 0.0943202180771 0)
(-0.11394461118 0.121347137648 0)
(-0.111175936856 0.147749978394 0)
(-0.107927338284 0.173407524746 0)
(-0.104242088282 0.198209147807 0)
(-0.100167090244 0.222056165118 0)
(-0.0957516560052 0.244862646565 0)
(-0.091046254216 0.266555682163 0)
(-0.0861013960272 0.287075378142 0)
(-0.0809666274556 0.306374573595 0)
(-0.0756897027531 0.324418320989 0)
(-0.0703158806117 0.341183181012 0)
(-0.0648874146514 0.356656374105 0)
(-0.0594431605362 0.370834836548 0)
(-0.0540183709688 0.383724219577 0)
(-0.0486445829799 0.395337874066 0)
(-0.0433496687974 0.40569585246 0)
(-0.038157937049 0.41482396086 0)
(-0.0330903568088 0.422752880485 0)
(-0.0281647775075 0.429517375804 0)
(-0.0233962249571 0.435155591494 0)
(-0.0187971420272 0.439708438302 0)
(-0.0143776715029 0.443219055616 0)
(-0.0101458536281 0.445732340702 0)
(-0.00610785725883 0.447294528432 0)
(-0.00226812084263 0.447952812575 0)
(0.00137046205452 0.447754997637 0)
(0.0048064408934 0.446749178412 0)
(0.00803967654352 0.444983492014 0)
(0.0110711438526 0.44250567022 0)
(0.0139029121209 0.439363025442 0)
(0.0165380172731 0.435602104348 0)
(0.0189803215801 0.431268512271 0)
(0.0212344526592 0.426406742136 0)
(0.0233056701439 0.421060022758 0)
(0.0251998181964 0.415270188702 0)
(0.026923202656 0.409077568366 0)
(0.0284825551031 0.402520889878 0)
(0.0298849182073 0.395637202665 0)
(0.0311376181532 0.388461814678 0)
(0.0322481553989 0.381028244111 0)
(0.0332241825837 0.373368185832 0)
(0.0340733989599 0.365511491984 0)
(0.0348035324367 0.357486166815 0)
(0.035422237754 0.34931837562 0)
(0.0359370831778 0.341032467399 0)
(0.0363554543058 0.332651011142 0)
(0.0366845476008 0.324194844595 0)
(0.036931283085 0.315683135269 0)
(0.0371023078191 0.307133451697 0)
(0.0372039211561 0.298561844387 0)
(0.0372420911695 0.289982933583 0)
(0.0372223954667 0.281410003169 0)
(0.0371500523738 0.272855097178 0)
(0.0370298786756 0.264329118296 0)
(0.0368663354824 0.255841924456 0)
(0.036663502203 0.247402423342 0)
(0.0364251349426 0.23901866096 0)
(0.0361546540199 0.230697904706 0)
(0.0358552110301 0.222446717361 0)
(0.0355296858034 0.214271023366 0)
(0.0351807572397 0.206176164279 0)
(0.0348109049499 0.198166945638 0)
(0.0344224787954 0.190247672613 0)
(0.0340177006655 0.18242217757 0)
(0.0335987282497 0.174693837353 0)
(0.0331676532625 0.167065584039 0)
(0.032726556142 0.159539907235 0)
(0.0322774983477 0.152118852136 0)
(0.0318225661012 0.144804011505 0)
(0.0313638557723 0.137596515985 0)
(0.0309035061727 0.130497020768 0)
(0.0304436773129 0.123505693089 0)
(0.0299865718996 0.116622198354 0)
(0.0295344086583 0.109845689194 0)
(0.0290894344523 0.103174794943 0)
(0.0286538939225 0.0966076156336 0)
(0.0282300340285 0.0901417176538 0)
(0.0278200719155 0.0837741348459 0)
(0.0274261937163 0.0775013717584 0)
(0.0270505224871 0.0713194124339 0)
(0.0266951130549 0.0652237308794 0)
(0.0263619220423 0.0592093057878 0)
(0.0260528016164 0.0532706346766 0)
(0.0257694768801 0.0474017488814 0)
(0.0255135496763 0.0415962233425 0)
(0.0252865074411 0.0358471840966 0)
(0.0250897862839 0.0301473268683 0)
(0.0249248875564 0.024488943864 0)
(0.0247932855445 0.0188640730067 0)
(0.024690484701 0.0132593852095 0)
(0.0244930463993 0.00775426639662 0)
(0.0219798161854 0.00228927743894 0)
(-0.132138847257 0.0116842842524 0)
(-0.146413963413 0.0403067067515 0)
(-0.145863696222 0.0683587580177 0)
(-0.143776338388 0.0965414486316 0)
(-0.140952418448 0.124167714651 0)
(-0.137477609556 0.151130183893 0)
(-0.133403745492 0.177301260308 0)
(-0.128786461862 0.202565413694 0)
(-0.123685803014 0.226820554629 0)
(-0.118164653651 0.249978803498 0)
(-0.112287147639 0.27196664349 0)
(-0.106117233272 0.292724773688 0)
(-0.0997174105507 0.312207660774 0)
(-0.0931476797564 0.330382844456 0)
(-0.0864646835815 0.347230051638 0)
(-0.0797210686038 0.362740170049 0)
(-0.0729650331281 0.376914131582 0)
(-0.0662400802963 0.389761751233 0)
(-0.0595849302823 0.401300566768 0)
(-0.0530336022762 0.411554718331 0)
(-0.0466156049135 0.420553903097 0)
(-0.0403562373307 0.42833242964 0)
(-0.0342769283496 0.434928387745 0)
(-0.0283956165183 0.440382935626 0)
(-0.0227271012324 0.444739697166 0)
(-0.0172833837041 0.448044251585 0)
(-0.0120739441957 0.450343695518 0)
(-0.00710599729071 0.451686256135 0)
(-0.00238468665755 0.452120939806 0)
(0.0020867254338 0.451697204034 0)
(0.00630670752969 0.450464650926 0)
(0.0102753479951 0.448472811758 0)
(0.0139940663364 0.44577061919 0)
(0.0174656395543 0.442406527923 0)
(0.0206939975629 0.438428077972 0)
(0.023684091537 0.433881757262 0)
(0.0264417838593 0.428812832975 0)
(0.028973719249 0.423265207229 0)
(0.0312872314282 0.417281293472 0)
(0.0333902294416 0.410901910776 0)
(0.0352911183579 0.404166194718 0)
(0.0369986968275 0.39711152325 0)
(0.0385220871283 0.389773457162 0)
(0.0398706395667 0.382185694505 0)
(0.0410538679925 0.374380039119 0)
(0.0420813583314 0.366386383209 0)
(0.0429627079315 0.358232704251 0)
(0.0437074380749 0.34994507631 0)
(0.044324938133 0.34154769577 0)
(0.0448243843766 0.333062921332 0)
(0.0452146921669 0.32451132767 0)
(0.0455044452891 0.31591177208 0)
(0.0457018607352 0.30728147266 0)
(0.0458147333632 0.29863609672 0)
(0.0458504176634 0.289989857149 0)
(0.0458157916583 0.281355614938 0)
(0.0457172584398 0.272744985005 0)
(0.0455607309929 0.264168443341 0)
(0.0453516536853 0.255635432471 0)
(0.045095006934 0.247154463472 0)
(0.0447953460506 0.238733211774 0)
(0.0444568220024 0.230378605586 0)
(0.0440832327001 0.222096904726 0)
(0.043678054273 0.213893769529 0)
(0.0432444985633 0.205774318352 0)
(0.0427855485136 0.197743174223 0)
(0.0423040154084 0.189804499911 0)
(0.0418025723261 0.181962022804 0)
(0.0412838055019 0.174219049458 0)
(0.0407502409855 0.166578471834 0)
(0.0402043860376 0.159042765499 0)
(0.0396487459183 0.151613982169 0)
(0.0390858531166 0.144293737009 0)
(0.0385182730393 0.137083193204 0)
(0.0379486206672 0.129983044115 0)
(0.0373795555785 0.122993495452 0)
(0.0368137870784 0.11611424757 0)
(0.0362540601636 0.109344480037 0)
(0.0357031511234 0.102682838292 0)
(0.0351638467767 0.096127424225 0)
(0.0346389330327 0.0896757901248 0)
(0.0341311699943 0.0833249374749 0)
(0.0336432761066 0.077071319651 0)
(0.0331779018134 0.0709108495867 0)
(0.0327376120808 0.0648389110761 0)
(0.0323248617653 0.0588503742937 0)
(0.0319419805948 0.0529396139467 0)
(0.0315911562916 0.0471005307289 0)
(0.0312744317971 0.0413265757077 0)
(0.0309937119836 0.0356107823334 0)
(0.0307507955728 0.0299458245354 0)
(0.0305474080733 0.0243240889797 0)
(0.0303848287288 0.018737836332 0)
(0.0302560599138 0.013173745106 0)
(0.0300074879423 0.00770937094151 0)
(0.026911113682 0.00228210009399 0)
(-0.158205281795 0.011939265403 0)
(-0.175280544368 0.0415023628719 0)
(-0.174591724962 0.070320560024 4.13628090337e-27)
(-0.172046668993 0.0992842344772 0)
(-0.168606495399 0.127648805073 0)
(-0.164376741443 0.155298751404 0)
(-0.159422549537 0.182098723913 0)
(-0.153813618957 0.207927300278 0)
(-0.147624814002 0.232678388229 0)
(-0.140934174739 0.256261947212 0)
(-0.133820931378 0.278603989806 0)
(-0.126363723671 0.299646242789 0)
(-0.118639060209 0.319345481257 0)
(-0.110720041059 0.337672605162 0)
(-0.102675338732 0.354611521817 0)
(-0.0945684429689 0.370157891876 0)
(-0.0864571517805 0.384317793654 0)
(-0.0783933063642 0.397106357476 0)
(-0.0704227409797 0.408546420978 0)
(-0.0625854326461 0.418667252197 0)
(-0.0549158036359 0.427503382053 0)
(-0.0474431448444 0.435093576558 0)
(-0.0401920980541 0.44147996562 0)
(-0.0331831607866 0.446707327786 0)
(-0.026433157889 0.450822515048 0)
(-0.0199556642952 0.453873989213 0)
(-0.0137613515002 0.45591143683 0)
(-0.00785827465751 0.456985431397 0)
(-0.00225209847015 0.457147120319 0)
(0.0030537061715 0.456447918751 0)
(0.00805767761004 0.454939229673 0)
(0.0127602722559 0.452672231075 0)
(0.01716350622 0.449697310289 0)
(0.0212709864476 0.446064273917 0)
(0.0250876730611 0.441821846398 0)
(0.0286197255398 0.437017565207 0)
(0.0318743604194 0.431697616183 0)
(0.0348597104032 0.42590669882 0)
(0.0375847029702 0.419687911353 0)
(0.0400589395012 0.413082652898 0)
(0.0422925913846 0.406130540589 0)
(0.0442962930836 0.398869340516 0)
(0.0460810488009 0.391334911778 0)
(0.0476581329996 0.383561163695 0)
(0.0490390022626 0.375580026356 0)
(0.0502351995147 0.36742143507 0)
(0.0512582689949 0.359113329164 0)
(0.0521196638891 0.350681665749 0)
(0.0528306657905 0.342150448663 0)
(0.0534022987907 0.333541772814 0)
(0.0538452578604 0.324875883444 0)
(0.0541698349855 0.316171249756 0)
(0.0543858626957 0.307444651463 0)
(0.054502658707 0.298711276752 0)
(0.0545289906619 0.289984829251 0)
(0.0544730445123 0.281277641717 0)
(0.0543424143471 0.272600793447 0)
(0.0541440967922 0.263964228736 0)
(0.0538845063416 0.25537687329 0)
(0.0535694943384 0.246846746097 0)
(0.0532043865188 0.238381064058 0)
(0.0527940216946 0.229986337513 0)
(0.0523428052416 0.221668454723 0)
(0.051854760216 0.213432754361 0)
(0.0513335888244 0.205284085058 0)
(0.0507827277528 0.197226852026 0)
(0.0502054094518 0.18926505076 0)
(0.0496047139547 0.181402288727 0)
(0.0489836229335 0.173641795849 0)
(0.0483450619224 0.165986425301 0)
(0.0476919421533 0.158438645929 0)
(0.0470271894155 0.151000528152 0)
(0.0463537711091 0.143673724843 0)
(0.045674710386 0.136459449075 0)
(0.0449930981561 0.129358450122 0)
(0.0443120932295 0.122370989441 0)
(0.0436349207989 0.115496817735 0)
(0.0429648607679 0.108735154495 0)
(0.0423052353834 0.102084670738 0)
(0.0416593887796 0.0955434759865 0)
(0.0410306669981 0.0891091097762 0)
(0.0404223921044 0.0827785383583 0)
(0.0398378379964 0.076548156497 0)
(0.0392802025277 0.0704137946419 0)
(0.0387525826058 0.0643707311041 0)
(0.0382579480463 0.0584137092416 0)
(0.0377991201877 0.0525369593479 0)
(0.037378752606 0.0467342258995 0)
(0.0369993196356 0.0409988010058 0)
(0.0366631113063 0.035323568039 0)
(0.0363722360826 0.0297010717452 0)
(0.0361285957853 0.0241235848459 0)
(0.0359333442511 0.018583213266 0)
(0.0357775179308 0.0130662731191 0)
(0.035478796061 0.00764742941702 0)
(0.0318111052359 0.00226887819048 0)
(-0.185093200353 0.0122451371938 0)
(-0.205045431994 0.0429442483283 0)
(-0.204195879538 0.0726857610837 -4.13407912109e-27)
(-0.201152927529 0.10258963946 0)
(-0.197044606185 0.131840881771 0)
(-0.191998414757 0.160313920425 0)
(-0.1860948947 0.187864079165 0)
(-0.179419974319 0.214363008859 0)
(-0.172065456781 0.239700085281 0)
(-0.164126515749 0.263783036221 0)
(-0.15569925137 0.286537726824 0)
(-0.146878530585 0.307907560119 0)
(-0.137756149328 0.32785252659 0)
(-0.128419327081 0.346347989098 0)
(-0.118949526668 0.363383275612 0)
(-0.109421592936 0.378960142958 0)
(-0.0999031964611 0.393091169801 0)
(-0.0904545720579 0.405798136193 0)
(-0.0811285293866 0.417110447738 0)
(-0.0719707091177 0.427063661788 0)
(-0.0630200371736 0.435698167697 0)
(-0.0543093225426 0.443058060797 0)
(-0.0458659266199 0.449190230269 0)
(-0.0377124381906 0.454143656731 0)
(-0.0298672900082 0.457968891407 0)
(-0.0223452811482 0.460717670827 0)
(-0.0151579868537 0.462442614581 0)
(-0.00831407031949 0.463196959033 0)
(-0.00181951829781 0.463034296257 0)
(0.00432216609422 0.462008283429 0)
(0.0101097876906 0.46017245521 0)
(0.0155442778405 0.457579770553 0)
(0.0206284588361 0.454282427488 0)
(0.0253669184034 0.45033175241 0)
(0.0297658031807 0.445777843806 0)
(0.0338326261434 0.440669445685 0)
(0.037576095947 0.435053797677 0)
(0.0410059578401 0.428976512025 0)
(0.0441328513023 0.42248147004 0)
(0.0469681772856 0.415610733916 0)
(0.0495239778016 0.408404471567 0)
(0.0518128197206 0.400900893062 0)
(0.0538476858542 0.393136198553 0)
(0.0556418660189 0.38514453789 0)
(0.0572088523353 0.376957982863 0)
(0.0585622326022 0.36860651289 0)
(0.0597155871749 0.360118015338 0)
(0.060682384312 0.351518301332 0)
(0.0614758804976 0.34283113795 0)
(0.0621090217499 0.33407829714 0)
(0.0625943532721 0.325279621421 0)
(0.0629439341519 0.316453105682 0)
(0.0631692647182 0.307614993862 0)
(0.0632812232938 0.298779888567 0)
(0.0632900194445 0.289960871168 0)
(0.0632051598244 0.281169629405 0)
(0.0630354325842 0.272416589217 0)
(0.0627889053915 0.263711047381 0)
(0.0624729416487 0.25506130154 0)
(0.0620942288807 0.246474774425 0)
(0.0616588225864 0.237958129347 0)
(0.0611721987301 0.229517374551 0)
(0.0606393172299 0.221157954475 0)
(0.0600646892913 0.212884826634 0)
(0.0594524504531 0.204702523321 0)
(0.0588064323715 0.196615198075 0)
(0.0581302351787 0.188626657233 0)
(0.0574272940712 0.180740377576 0)
(0.0567009422723 0.172959511282 0)
(0.055954464962 0.165286879949 0)
(0.055191146818 0.157724959426 0)
(0.0544143088291 0.150275857582 0)
(0.0536273375209 0.142941286896 0)
(0.0528337032645 0.135722533975 0)
(0.052036971166 0.128620427727 0)
(0.0512408020509 0.121635308013 0)
(0.0504489471734 0.114766996131 0)
(0.0496652347972 0.108014768546 0)
(0.0488935522083 0.101377334761 0)
(0.0481378217601 0.0948528202976 0)
(0.0474019742775 0.0884387552134 0)
(0.0466899187468 0.0821320686933 0)
(0.0460055112958 0.0759290897543 0)
(0.0453525226634 0.0698255542043 0)
(0.0447346068202 0.063816617674 0)
(0.0441552702329 0.0578968746575 0)
(0.0436178441447 0.0520603835219 0)
(0.043125459627 0.0463006978752 0)
(0.0426810271982 0.0406109052695 0)
(0.04228721983 0.0349836751308 0)
(0.0419464560584 0.0294113267362 0)
(0.041660844299 0.0238858831935 0)
(0.0414315353092 0.0183991321196 0)
(0.0412479399087 0.0129369629602 0)
(0.0408997877828 0.00757086406654 0)
(0.0366684731024 0.00225139041085 0)
(-0.212963008714 0.0126065454507 0)
(-0.235884090774 0.044656482711 0)
(-0.234846022449 0.0754922521889 0)
(-0.231255012507 0.106509056768 0)
(-0.226413952992 0.136806897473 0)
(-0.22047513691 0.166247978513 0)
(-0.213537241869 0.194676561161 0)
(-0.205705189689 0.221956330931 0)
(-0.197090377701 0.247971720551 0)
(-0.187807550602 0.272628358529 0)
(-0.177971830739 0.295852539763 0)
(-0.167696147681 0.317590271762 0)
(-0.157089092503 0.337805956068 0)
(-0.146253187818 0.356480808743 0)
(-0.135283553447 0.373611099647 0)
(-0.12426695079 0.389206274715 0)
(-0.113281191784 0.403287020086 0)
(-0.102394902433 0.41588332879 0)
(-0.0916676233392 0.427032637387 0)
(-0.0811502177095 0.436778104377 0)
(-0.0708855331482 0.445167100047 0)
(-0.0609092420423 0.4522499628 0)
(-0.0512507638318 0.458079050196 0)
(-0.0419341698472 0.462708076109 0)
(-0.0329789818921 0.466191687977 0)
(-0.0244008104875 0.468585209853 0)
(-0.0162118176766 0.469944467936 0)
(-0.00842103149473 0.470325627001 0)
(-0.00103456004813 0.469784995067 0)
(0.00594424210321 0.468378752972 0)
(0.0125146400056 0.466162829535 0)
(0.0186782248328 0.463192265312 0)
(0.0244387944005 0.459521257641 0)
(0.029802123431 0.455202879618 0)
(0.0347757279988 0.450288777129 0)
(0.039368645322 0.444829048676 0)
(0.0435912344778 0.438872111465 0)
(0.0474549967292 0.432464594891 0)
(0.0509724160664 0.425651251966 0)
(0.0541568147652 0.418474883447 0)
(0.0570222213518 0.410976271533 0)
(0.0595832451822 0.403194122315 0)
(0.061854956048 0.3951650171 0)
(0.0638527647313 0.386923373848 0)
(0.0655923046789 0.378501420027 0)
(0.0670893123405 0.369929178663 0)
(0.0683595077607 0.361234469104 0)
(0.0694184743794 0.35244292424 0)
(0.070281540984 0.343578025413 0)
(0.0709636661503 0.334661156092 0)