/*--------------------------------*- C++ -*----------------------------------*\
| =========                 |                                                 |
| \\      /  F ield         | OpenFOAM: The Open Source CFD Toolbox           |
|  \\    /   O peration     | Version:  v1906                                 |
|   \\  /    A nd           | Web:      www.OpenFOAM.com                      |
|    \\/     M anipulation  |                                                 |
\*---------------------------------------------------------------------------*/
FoamFile
{
    version     2.0;
    format      ascii;
    class       volScalarField;
    location    "526";
    object      pa;
}
// * * * * * * * * * * * * * * * * * * * * * * * * * * * * * * * * * * * * * //

dimensions      [0 2 -2 0 0 0 0];


internalField   nonuniform List<scalar> 
9216
(
978.953734701
978.591317799
977.854967098
976.741512168
975.254635536
973.398598754
971.178801765
968.60160306
965.67435676
962.405239421
958.803304941
954.878288043
950.640675391
946.101490085
941.272382101
936.165400667
930.793107434
925.16834312
919.304365682
913.214616448
906.912884057
900.413073383
893.729393931
886.876132968
879.867865265
872.719229832
865.445156183
858.060642761
850.580993903
843.021596807
835.398163179
827.72650074
820.022751089
812.303153325
804.58427194
796.882747193
789.215505917
781.599496152
774.051875447
766.589728687
759.230230455
751.990347366
744.886972887
737.936617603
731.155515364
724.55930492
718.163103746
711.981182485
706.026998271
700.31286124
694.849916871
689.647808219
684.714605359
680.056485383
675.677633177
671.579993472
667.763201686
664.224485244
660.958693616
657.958404322
655.214089685
652.7144269
650.446589982
648.396704737
646.55018327
644.89216876
643.407762452
642.08233842
640.901645857
639.852029886
638.920490018
638.094845832
637.363757616
636.716811743
636.144486628
635.638164258
635.190063685
634.793212594
634.441371309
634.128984662
633.851104301
633.603326911
633.381703211
633.182485622
633.002971839
632.847126169
632.71789946
632.613867241
632.533791262
632.474621457
632.432840977
632.404279811
632.385224848
632.373688188
632.367888354
632.365862886
979.315759301
978.952193765
978.214575871
977.098064021
975.606878986
973.745441569
971.519223579
968.9346676
965.999176952
962.721014721
959.109284024
955.173811795
950.92513159
946.374359499
941.533185188
936.413746337
931.028632659
925.390764406
919.513412961
913.410087561
907.094574384
900.580833742
893.883057556
887.015577188
879.99293716
872.829811886
865.541091834
858.141805997
850.647215612
843.072738315
835.434043589
827.746973409
820.027634355
812.292310125
804.557542239
796.840029599
789.156692726
781.524555769
773.960789556
766.482573839
759.107116823
751.851497999
744.732664176
737.767255414
730.971578526
724.361418503
717.951988253
711.757724774
705.792208876
700.067941001
694.596221186
689.386901001
684.448221741
679.786556753
675.406234432
671.309323098
667.495507233
663.961999675
660.703552382
657.712559591
654.979241631
652.491944849
650.237484156
648.201598259
646.369365399
644.725628905
643.255278308
641.943502643
640.775921838
639.738750933
638.81890128
638.004114497
637.283021414
636.645196886
636.081144381
635.582279034
635.140871864
634.750003412
634.403496602
634.09585876
633.822214232
633.578250436
633.360172075
633.164698012
632.988995886
632.835038172
632.707345538
632.605934633
632.527105445
632.468638855
632.428116156
632.400512314
632.381838507
632.370955653
632.365754895
632.363654406
980.053686212
979.686960975
978.945106773
977.822243184
976.322621918
974.450729788
972.212127342
969.613371375
966.661975343
963.366334613
959.735673124
955.779958374
951.509845398
946.936588501
942.071989092
936.928310565
931.518235562
925.854789392
919.951311063
913.821389172
907.478849287
900.937704179
894.212157907
887.316570016
880.265474495
873.073555499
865.755677577
858.326869098
850.802359091
843.197563642
835.528124252
827.809891361
820.058958413
812.291637982
804.5244844
796.774256114
789.057921532
781.392602369
773.795558022
766.284106943
758.87558763
751.587258143
744.436234944
737.439373553
730.613188178
723.973716631
717.536421482
711.316037962
705.326450497
699.580514388
694.08989412
688.864846117
683.914009232
679.244152376
674.859940348
670.763699629
666.955242624
663.431759515
660.187808184
657.215411337
654.504257033
652.042007574
649.814696641
647.807252745
646.004027756
644.389265289
642.947410935
641.663310229
640.522308152
639.510369667
638.614203206
637.821399384
637.120516204
636.501119209
635.953759863
635.469932443
635.042010559
634.663187857
634.327409782
634.029307493
633.764130234
633.527688177
633.316305994
633.126816922
632.956148373
632.806837908
632.685901706
632.589914425
632.513544711
632.457247163
632.419188308
632.392759295
632.375435058
632.365522366
632.360291781
632.357697517
981.174992036
980.80460027
980.056226666
978.923584858
977.41101049
975.523095125
973.26553585
970.64505289
967.669336229
964.346975027
960.687390074
956.700754934
952.397924305
947.790353538
942.890029838
937.709396801
932.261294606
926.558895299
920.615656888
914.445273533
908.061646543
901.478851375
894.711126043
887.772854254
880.67856923
873.442950034
866.080836956
858.607236666
851.037344305
843.386552399
835.670474805
827.904952946
820.106075354
812.290177032
804.473847148
796.673913958
788.907434769
781.191660291
773.5440016
765.981970231
758.523120174
751.184964069
743.984892665
736.940071637
730.067343964
723.383112873
716.903230508
710.64286668
704.616377278
698.837145292
693.317407673
688.06804275
683.098330238
678.415670692
674.025290675
669.929947565
666.129686313
662.621680922
659.400201193
656.456695495
653.78001395
651.356731744
649.171593719
647.208200278
645.449724764
643.879493172
642.481309626
641.239555982
640.139184554
639.165782467
638.305727224
637.546370837
636.876161392
636.284669985
635.76253996
635.301404302
634.893801306
634.533103958
634.213447379
633.929652055
633.677149502
633.451915695
633.250412452
633.069537361
632.906131745
632.765548657
632.65334087
632.563449753
632.493312417
632.441402457
632.404920022
632.380369937
632.36465275
632.355272905
632.350030798
632.347455303
982.682670495
982.307567982
981.550376829
980.40448178
978.874354874
976.964739771
974.681523284
972.031646967
969.023044789
965.664568881
961.965912849
957.937529883
953.59055172
948.936705845
943.988237424
938.75783272
933.258550758
927.503759245
921.507081532
915.282349705
908.843570329
902.204896807
895.38061447
888.385131257
881.232979751
873.938822611
866.517467087
858.983880237
851.353210691
843.640808249
835.862248167
828.033348237
820.170189001
812.289124473
804.406790056
796.540098064
788.706226598
780.922592429
773.206814341
765.576658684
758.049974816
750.644613946
743.378340524
736.268731337
729.333071975
722.588245935
716.050623947
709.735945859
703.659196861
697.834464384
692.274769359
686.991853675
681.995913947
677.295274971
672.896009828
668.801546025
665.012310461
661.5254971
658.335003073
655.431483713
652.802628331
650.433458744
648.30677582
646.404161263
644.707050772
643.197525576
641.85863183
640.67426795
639.628922101
638.707656883
637.896347288
637.181990668
636.55289469
635.998680439
635.510161293
635.079191402
634.698547174
634.361853386
634.063510954
633.798602825
633.562808946
633.352326138
633.163782277
632.993951385
632.841040236
632.712460749
632.610660848
632.529099873
632.464693735
632.417433767
632.384768513
632.362610535
632.348035923
632.339238279
632.334184814
632.331673954
984.581360109
984.200349303
983.431974477
982.269240917
980.716810209
978.779629779
976.463835497
973.776655653
970.726340982
967.322083143
963.573929442
959.492693646
955.089866318
950.377525177
945.36824898
940.07503518
934.511224863
928.690434797
922.626499848
916.333424875
909.825348721
903.116518444
896.221275493
889.154050958
881.929370868
874.56186798
867.066300789
859.457576051
851.75077568
843.961184323
836.104319619
828.195957574
820.252159431
812.289291513
804.324039393
796.373411799
788.454734053
780.58562668
772.783969709
765.067849606
757.455491059
749.96517295
742.615133047
735.423463329
728.408001981
721.586224591
714.975138741
708.59118041
702.450108836
696.566887717
690.955536966
685.628928241
680.598502482
675.873877744
671.462362336
667.368388947
663.592996449
660.133464192
656.983254292
654.131982499
651.565858694
649.267847064
647.21786144
645.394454281
643.77656629
642.34471053
641.081250935
639.96980107
638.99439297
638.139350375
637.389768133
636.732108759
636.154528077
635.646803597
635.20006106
634.806494101
634.459197437
634.152122928
633.88002748
633.638342306
633.423078319
633.230747766
633.058272726
632.902581324
632.763684558
632.649191071
632.557283812
632.483597197
632.427037029
632.387007554
632.357856821
632.338016648
632.32517074
632.316407676
632.311438133
632.308934561
986.876871518
986.488659026
985.706622703
984.523308724
982.943619148
980.972760782
978.617183473
975.884475382
972.783284044
969.323225604
965.514789372
961.369239031
956.898512767
952.115124437
947.032067948
941.662726931
936.020791802
930.120186096
923.975003779
917.599458817
911.007847798
904.214525786
897.233894952
890.080404898
882.768563224
875.312954465
867.728265736
860.02931725
852.231096454
844.348794178
836.39784321
828.393952767
820.353144915
812.291784847
804.22660451
796.174716336
788.153614257
780.181158735
772.2755438
764.455244284
756.738943544
749.145443009
741.693557524
734.402001734
727.289274703
720.373549787
713.672575926
707.203592718
700.983255265
695.027557296
689.3517251
683.970051025
678.895604083
674.139786569
669.711675611
665.617217665
661.858399125
658.432677834
655.333067428
652.547798824
650.061410649
647.854390562
645.902260625
644.178913508
642.659669411
641.323198962
640.151690742
639.129165852
638.239313997
637.465317389
636.790959347
636.201859031
635.686063038
635.233747785
634.836615186
634.487364989
634.179475959
633.907285407
633.66602351
633.45156626
633.260337692
633.089262234
632.93564714
632.796661443
632.674077948
632.574145434
632.493595172
632.430229261
632.382769377
632.348210042
632.322704275
632.305188915
632.294189617
632.286122081
632.281479299
632.279179183
989.576288284
989.179492172
988.381179155
987.173342349
985.561180247
983.550219468
981.147296469
978.360441058
975.198787063
971.672469833
967.792518887
963.570746946
959.019638161
954.152237466
948.982043852
943.522909481
937.788947523
931.794450537
925.553822008
919.08152219
912.392029813
905.499819377
898.419353896
891.165091145
883.751501835
876.193096868
868.504461862
860.700296531
852.795457932
844.805005904
836.744251953
828.628803959
820.474614911
812.298025669
804.115801436
795.945157852
787.803772885
779.709780144
771.681740461
763.738588998
755.899557587
748.184073864
740.611642154
733.201713884
725.973558141
718.946144399
712.138048975
705.567392225
699.251808256
693.208431201
687.453875235
682.004142098
676.874391958
672.078444154
667.627937929
663.531104067
659.791398021
656.406495083
653.369090257
650.665322104
648.278321185
646.186293787
644.357615102
642.758664877
641.359332728
640.136290765
639.073051914
638.155844478
637.368218652
636.691300517
636.106470848
635.597936384
635.153847296
634.765323439
634.42513251
634.126710696
633.863893775
633.631393796
633.425108766
633.241468323
633.077372675
632.930275674
632.79796526
632.678047904
632.573946218
632.489402558
632.421711917
632.369040112
632.329734615
632.300168753
632.279478365
632.264448678
632.254630157
632.248501479
632.244286548
632.242347816
992.688045445
992.281187308
991.463813584
990.22726498
988.577097461
986.519226239
984.06095613
981.210851273
977.978632616
974.375061478
970.411817661
966.101374166
961.456870918
956.491990232
951.220836291
945.657821636
939.817563141
933.714790731
927.364271142
920.780749393
913.978908982
906.973351604
899.778595075
892.409087841
884.879236733
877.203445076
869.396157735
861.471911097
853.445386293
845.331465148
837.145290391
828.902322391
820.618402501
812.309811486
803.993322354
795.686242924
787.406442418
779.172356562
771.002965881
762.917743275
754.936568984
747.07961457
739.367201497
731.819645278
724.457100232
717.299424516
710.366084138
703.676114773
697.248145995
691.100488498
685.251243591
679.718384091
674.519660743
669.672165007
665.191270859
661.088767501
657.370420448
654.033779103
651.07195065
648.466771678
646.201695103
644.255213999
642.58265019
641.137626732
639.881477638
638.788943366
637.848614426
637.053288133
636.386358792
635.824701976
635.345038246
634.929066628
634.565776695
634.248428285
633.971777225
633.730276941
633.517793105
633.329174848
633.161453676
633.01172642
632.87734349
632.756455855
632.647362693
632.54848967
632.464146242
632.395683335
632.341386228
632.299584513
632.268136674
632.244763247
632.227882233
632.21627617
632.208189867
632.20393454
632.200264816
632.198796012
996.222019966
995.80350595
994.964086215
993.694337379
992.000244671
989.888190135
987.366040957
984.443001258
981.129493992
977.437027389
973.378056132
968.965838893
964.214295361
959.137864902
953.75136994
948.069886597
942.108626399
935.882832219
929.40769253
922.698276647
915.769493536
908.636074358
901.312578014
893.813416305
886.152894868
878.345264701
870.404780403
862.345761821
854.182658292
845.930115196
837.603046488
829.216704583
820.786761201
812.329384824
803.861314812
795.399925532
786.963273391
778.570118594
770.23991417
761.992755423
753.849286031
745.830560814
737.957871551
730.252549398
722.735765757
715.428359708
708.350725486
701.522788335
694.964097594
688.694036517
682.732147306
677.098490384
671.813901421
666.899821845
662.377172048
658.263563373
654.56860345
651.287821678
648.418032084
645.928794762
643.810101094
642.050966467
640.579084096
639.32560967
638.237730338
637.28834226
636.480164797
635.823272905
635.299146158
634.875149655
634.518752369
634.206846607
633.931557906
633.690911936
633.483353496
633.304643545
633.147504335
633.00600261
632.879736575
632.766511238
632.663774638
632.570771738
632.486299308
632.409952916
632.345413924
632.293131461
632.252703564
632.222319993
632.199548999
632.18258395
632.16947275
632.16054165
632.15534936
632.152580845
632.14999765
632.148928699
1000.18963679
999.757736956
998.893042161
997.585245241
995.840842292
993.666774001
991.071578326
988.065221278
984.658959285
980.86518556
976.697271082
972.169402575
967.296419898
962.093655568
956.576778645
950.761646609
944.664168761
938.300186319
931.685373647
924.835165701
917.764714405
910.488875656
903.022224894
895.379097475
887.57364695
879.619914527
871.53190298
863.323651557
855.009310789
846.603219313
838.119987962
829.574584215
820.982432846
812.359517063
803.722479671
795.088716141
786.476449611
777.90477705
769.393675152
760.963955548
752.637161311
744.435402227
736.381133866
728.496897175
720.805046818
713.327510925
706.085629578
699.100127759
692.391261642
685.979184108
679.884541422
674.129291398
668.737618366
663.7365492
659.155347836
655.021813283
651.353049618
648.134672058
645.381043778
643.01956308
641.067310772
639.559069512
638.35374317
637.343183964
636.4503492
635.64420005
634.963687044
634.463406999
634.112212017
633.856234944
633.645648751
633.446889587
633.262378676
633.100470744
632.966241083
632.856971555
632.760793462
632.667794748
632.585019088
632.510561876
632.440501543
632.376463196
632.317647756
632.264447479
632.219600566
632.18428933
632.157835013
632.138089071
632.123324142
632.112608224
632.104771785
632.099187582
632.096081666
632.094991758
632.0940363
632.093379331
1004.6039958
1004.15681463
1003.26332637
1001.91220284
1000.11054903
997.865971382
995.18780573
992.086921174
988.575559225
984.667155943
980.376159869
975.717847433
970.708138606
965.363414188
959.700337383
953.73568246
947.486175728
940.968354436
934.198451104
927.192309534
919.965338207
912.532502786
904.908356356
897.10710069
889.142669211
881.028819987
872.77922945
864.407580971
855.927648937
847.35338298
838.699001396
829.979090157
821.20872642
812.403608138
803.580190392
794.755816696
785.948832926
777.178668771
768.465870889
759.83207107
751.299875593
742.8926669
734.634319694
726.548848283
718.660022697
710.991010511
703.564119304
696.400716201
689.521401194
682.946501078
676.696977664
670.795856455
665.270227328
660.153642635
655.487734415
651.319796493
647.684700283
644.527439158
641.941167298
639.697696323
637.913205504
636.771918967
635.936544761
635.240991087
634.560305745
633.830397407
633.189150772
632.861763843
632.753299947
632.743977476
632.738418398
632.666904727
632.571614587
632.485802074
632.427270511
632.396557853
632.369053761
632.320408828
632.28210439
632.249429348
632.211491734
632.176802033
632.143856287
632.113584253
632.088742774
632.070388022
632.056964548
632.047275446
632.040447928
632.036333133
632.033840214
632.032794735
632.03222369
632.032564858
632.033559943
632.03360654
1009.48002304
1009.01546823
1008.08931972
1006.68907743
1004.82256964
1002.4981967
999.726241561
996.518641556
992.88879845
988.851372296
984.422072695
979.617449639
974.454685046
968.951385887
963.12537964
956.994515491
950.576476315
943.888610129
936.947790452
929.77031647
922.371860897
914.7674704
906.971616071
898.998285475
890.861100526
882.573443701
874.14857634
865.599741229
856.940251043
848.183574142
839.343431592
830.433909434
821.469607415
812.465803926
803.438637239
794.40528788
785.384145871
776.394943622
767.458832019
758.598375302
749.837440717
741.200964189
732.71458509
724.404164782
716.295232719
708.412440257
700.779126744
693.41711742
686.34684202
679.587875867
673.160070359
667.085562536
661.392215003
656.119177521
651.324957848
647.096863541
643.526825217
640.392550603
638.107244639
635.759961593
633.798246975
633.329665501
633.105027213
632.903243882
632.660469563
632.416379764
632.303801112
632.274349858
632.258369564
632.204250962
632.074269728
631.917066495
631.812847727
631.769261663
631.798033584
631.890720234
631.980971446
631.96646869
631.975160806
631.991390479
631.980483809
631.975049992
631.967725371
631.95932179
631.954070865
631.950945429
631.950181857
631.951036445
631.953039119
631.955896267
631.958880009
631.962076966
631.965036685
631.96718208
631.970162265
631.970967437
1014.83465215
1014.35039174
1013.38730211
1011.93153503
1009.99178185
1007.57738962
1004.69976637
1001.37211149
997.609190399
993.427094559
988.84300317
983.874947576
978.541578273
972.86193203
966.855198583
960.540488285
953.93660762
947.061852908
939.933837341
932.56936668
924.984378212
917.193950627
909.212384117
901.053337252
892.729997377
884.255254419
875.641851982
866.902501774
858.049967136
849.097137284
840.057117861
830.943351954
821.769796718
812.551132219
803.303000693
794.04225597
784.787203583
775.557807035
766.375831033
757.264885954
748.250335577
739.359031581
730.618851458
722.058042638
713.704421648
705.584535005
697.722939589
690.14177711
682.860732372
675.897445646
669.268543121
662.991761465
657.090323238
651.60285422
646.601765171
642.250580086
638.806082899
635.082944486
633.914150017
632.925729326
632.817567848
632.888663839
632.885671881
632.826486866
632.725530702
632.603418328
632.500426251
632.423460507
632.35454682
632.271908537
632.166504931
632.057920384
631.97335599
631.932544817
631.940454822
631.93803074
631.78604641
631.563987887
631.623393254
631.739844696
631.747790821
631.774279611
631.79272571
631.802777279
631.815911588
631.827215745
631.839225615
631.85141275
631.862448732
631.872434967
631.881328778
631.88913618
631.895538783
631.90034423
631.9048938
631.906592435
1020.68704066
1020.18045533
1019.17564473
1017.65721339
1015.6348835
1013.11913511
1010.12271443
1006.66031253
1002.74829497
998.404421842
993.647576859
988.497505922
982.974560711
977.099440929
970.892929473
964.375620701
957.567648122
950.488426825
943.156431258
935.589033754
927.802426421
919.811642669
911.630679099
903.272700588
894.750290719
886.075698486
877.261034277
868.318391677
859.259906381
850.097795171
840.844420329
831.51241203
822.114875772
812.665657564
803.179657797
793.673168228
784.164209022
774.672838304
765.221397102
755.834640994
746.539699837
737.365802484
728.343711072
719.504840664
710.880105379
702.498636542
694.386614515
686.566521175
679.056845179
671.872146546
665.02344413
658.519088757
652.367491355
646.5815242
641.161686641
636.102785699
633.680334755
633.419603863
633.429205002
633.322178046
633.273397277
633.282830566
633.26154099
633.210681177
633.127158388
633.018864958
632.905712131
632.800179903
632.697613208
632.583441971
632.452499603
632.3156544
632.190875107
632.093668308
632.023840467
631.947681938
631.846035576
631.788897243
631.801668462
631.716779374
631.48740053
631.554726578
631.621633368
631.642660538
631.676748391
631.700463108
631.726709986
631.750541504
631.769883477
631.786854928
631.802108188
631.815026075
631.825491023
631.833239353
631.838845725
631.841721794
1027.05883034
1026.52694856
1025.4750396
1023.88592404
1021.77056376
1019.14079964
1016.01097536
1012.39754759
1008.31875807
1003.79430511
998.845038672
993.492676294
987.759529662
981.668226048
975.241412365
968.501436413
961.470012873
954.167893127
946.614570607
938.828059379
930.82478516
922.619617374
914.226051182
905.656516125
896.922753932
888.036180754
879.008150237
869.850071518
860.573406438
851.189628205
841.710226374
832.146817944
822.511392658
812.816652872
803.076424678
793.306105927
783.523128976
773.747410746
764.001747966
754.312093314
744.707628096
735.220527906
725.885311717
716.737689349
707.81291167
699.143812436
690.758933951
682.681404038
674.928443686
667.511089836
660.433673099
653.693174859
647.27407326
641.10339243
634.726453205
634.077220852
633.894113021
633.901523251
633.939608074
633.902441265
633.851663647
633.811072122
633.769674615
633.715098837
633.634255478
633.527071754
633.40542736
633.279738158
633.148967252
633.006245814
632.850044112
632.68825321
632.534269923
632.399549877
632.282848481
632.163452641
632.031497251
631.919870813
631.837896713
631.749823312
631.707738245
631.674260647
631.500584767
631.450832384
631.539145149
631.569354479
631.614373983
631.650143548
631.676076414
631.700614681
631.722813596
631.741267633
631.756053385
631.766848135
631.773944301
631.77793196
1033.97445944
1033.41388102
1032.30877109
1030.63989082
1028.4196998
1025.66168408
1022.38210368
1018.59951205
1014.33435022
1009.60855897
1004.44523965
998.868357652
992.90246529
986.57241472
979.903034282
972.918756175
965.643200624
958.098743465
950.306111382
942.284064422
934.049228391
925.616131528
916.997469443
908.204574071
899.247997785
890.138069009
880.88526245
871.500291786
861.993971983
852.377015724
842.65992139
832.853056956
822.966959678
813.012783172
803.002835576
792.951163631
782.874169834
772.79124692
762.725387012
752.703686702
742.757632976
732.923013797
723.239254657
713.747975027
704.49064889
695.50558552
686.824825526
678.472702752
670.465531943
662.811481753
655.510704134
648.551510425
641.870720556
634.993859292
634.167559287
634.407010327
634.522355008
634.571302648
634.570109761
634.526289029
634.475462061
634.426370044
634.375085984
634.310870859
634.223170095
634.109760852
633.977786363
633.833580822
633.67759457
633.50894356
633.328953854
633.143855507
632.962976381
632.793924026
632.636015441
632.478640338
632.316964162
632.165729886
632.030754197
631.899449034
631.790175478
631.695057484
631.637512585
631.594356281
631.46384224
631.412381101
631.503675957
631.554357125
631.583047266
631.615570875
631.645275014
631.669773899
631.68882645
631.702953673
631.711945593
631.716907003
1041.46154157
1040.8683344
1039.70304091
1037.94402895
1035.60558309
1032.70319195
1029.25543233
1025.28336104
1020.80999969
1015.85987016
1010.45862551
1004.63276119
998.409362611
991.815832931
984.879553975
977.627453416
970.085481871
962.278033442
954.227374546
945.953169021
937.472202494
928.798401933
919.94321124
910.916306494
901.726522917
892.382746597
882.894472834
873.271829701
863.525162078
853.664513046
843.699300224
833.638356806
823.490329228
813.264292049
802.970454652
792.620899052
782.230371747
771.817147011
761.403929326
751.01870288
740.695386495
730.474080123
720.400575901
710.524699404
700.897049347
691.564258846
682.563368299
673.920383136
665.650989082
657.762224038
650.250471787
643.063436111
635.745534512
634.83073795
635.000879723
635.223353451
635.269879542
635.290116427
635.278828514
635.239922066
635.189680537
635.13357131
635.068734724
634.988146342
634.885022704
634.757456373
634.610452813
634.447519
634.269203198
634.07728717
633.874421072
633.665624846
633.457303189
633.254452161
633.057333642
632.861900434
632.667442125
632.481033069
632.305847687
632.137632256
631.981894599
631.840626404
631.721503759
631.621652768
631.566362166
631.523021346
631.43008327
631.472259083
631.488223368
631.532167856
631.571031938
631.602077387
631.625773039
631.643072888
631.654183957
631.660089521
1049.55132481
1048.92089834
1047.68735583
1045.82627524
1043.35417763
1040.28901079
1036.65218161
1032.46776264
1027.76181086
1022.5617995
1016.89622958
1010.79438976
1004.28617992
997.401899378
990.17191625
982.62617132
974.793513247
966.70090982
958.372623182
949.82947973
941.088394821
932.162322885
923.060765022
913.790859386
904.358884449
894.771759304
885.03796026
875.167389785
865.170389496
855.056622655
844.834383732
834.510599384
824.091430349
813.583176486
802.993208318
792.330849316
781.608332888
770.841929767
760.053234618
749.27050609
738.529909878
727.876425148
717.363937233
707.053708222
697.010032379
687.292778868
677.945664833
668.995996711
660.459130336
652.338831175
644.588694099
636.748191871
635.821376992
636.009149052
636.15418156
636.183356916
636.160884539
636.140520528
636.105587666
636.055316903
635.994029424
635.922539183
635.837809648
635.735020909
635.609953561
635.461855779
635.295241519
635.111707685
634.911371682
634.696845173
634.470978704
634.237767704
634.001753228
633.766503599
633.533103471
633.300919818
633.071104049
632.847690721
632.633116756
632.427567351
632.234308755
632.055606499
631.893399932
631.751318052
631.639744823
631.55451442
631.524684971
631.468169437
631.360904754
631.446257734
631.501789668
631.539956511
631.568321066
631.588587367
631.601919302
631.608665433
1058.27925389
1057.6061936
1056.29499503
1054.31797806
1051.69441638
1048.44530117
1044.59554908
1040.17291702
1035.20705161
1029.72876974
1023.76967591
1017.3620473
1010.5388271
1003.33355158
995.780073581
987.912004238
979.761863454
971.359993258
962.733352518
953.90437426
944.890130744
935.702093678
926.346764471
916.827315828
907.146070695
897.307139809
887.318080007
877.189436069
866.932565812
856.55738949
846.07109006
835.478137979
824.781348616
813.983329935
803.087713596
792.100091745
781.029058984
769.887614484
758.694932899
747.478353829
736.27547639
725.136217016
714.124278941
703.316755604
692.799026336
682.653772531
672.932578522
663.662293707
654.853014635
646.46096926
638.011157767
637.072149006
637.340725971
637.467405001
637.384301453
637.279279905
637.188838997
637.115531181
637.04314637
636.966353245
636.881686699
636.785437894
636.673500387
636.541983723
636.388406284
636.213788452
636.022231394
635.814048703
635.589609121
635.351445917
635.1020259
634.844321642
634.581507094
634.316208505
634.049887129
633.783405503
633.518551419
633.258257244
633.004977756
632.760731119
632.528642128
632.311545722
632.112157975
631.933863797
631.78013544
631.652901166
631.561349095
631.487617409
631.43527677
631.379628094
631.444859335
631.486413795
631.517673216
631.540585129
631.555974149
631.563614272
1067.68565492
1066.96353284
1065.56357106
1063.45436574
1060.65854483
1057.20088643
1053.11075347
1048.4205066
1043.16407984
1037.37602705
1031.09120026
1024.34490611
1017.1732322
1009.61324596
1001.70284708
993.480158265
984.982435706
976.244567492
967.297305776
958.165472614
948.866488118
939.409689565
929.796974399
920.025196842
910.090286076
899.992065924
889.737566754
879.339887185
868.813466209
858.16970297
847.414690148
836.549495885
825.572242216
814.480630806
803.273557642
791.951797189
780.518898223
768.982840644
757.358412995
745.669979055
733.954628754
722.265999973
710.678486603
699.290422358
688.220168781
677.594853071
667.473060001
657.86968854
648.737769972
639.582813721
638.596131291
638.950850688
639.098480578
638.926430356
638.682149128
638.478391117
638.317980971
638.18912062
638.074027914
637.961735071
637.8436588
637.713191295
637.565356773
637.396747473
637.206491333
636.998435907
636.775194922
636.53655345
636.284642483
636.021285448
635.748194789
635.467162539
635.18003241
634.888427507
634.593580875
634.296698261
633.999616516
633.704848924
633.415017493
633.132908817
632.861880806
632.605404651
632.367136163
632.150848798
631.95978788
631.795890109
631.660590691
631.549171618
631.464331074
631.431255706
631.406635658
631.441570233
631.474138379
631.499555003
631.517194222
631.526003727
1077.81656279
1077.03776356
1075.53569672
1073.27511609
1070.28253664
1066.58743308
1062.22498625
1057.23351315
1051.65215598
1045.51955239
1038.87370285
1031.75267592
1024.19555091
1016.2431
1007.93788681
999.323624456
990.443780643
981.339511365
972.047090314
962.595112582
953.001931308
943.274035007
933.40634046
923.385460953
913.196504578
902.83214923
892.299899766
881.619519198
870.81257193
859.894102567
848.86895671
837.732956229
826.477225601
815.092956334
803.573452051
791.913673184
780.110462963
768.16445
756.08327244
743.88513678
731.602881631
719.289991275
707.029386625
694.945304899
683.206469501
672.04152739
661.498014165
651.506165269
641.53793387
640.424684703
640.828285253
640.997754825
640.758026699
640.380331353
640.027278156
639.744644477
639.522777838
639.342216672
639.182163936
639.027660264
638.867321937
638.693018218
638.499343246
638.283497529
638.046428277
637.794472561
637.530799549
637.255897662
636.97272972
636.682691313
636.386531129
636.084618487
635.777235502
635.464669431
635.147310885
634.825920873
634.501939872
634.177506915
633.855252655
633.538289521
633.230274332
632.935218924
632.657437129