/*--------------------------------*- C++ -*----------------------------------*\
| =========                 |                                                 |
| \\      /  F ield         | OpenFOAM: The Open Source CFD Toolbox           |
|  \\    /   O peration     | Version:  v1906                                 |
|   \\  /    A nd           | Web:      www.OpenFOAM.com                      |
|    \\/     M anipulation  |                                                 |
\*---------------------------------------------------------------------------*/
FoamFile
{
    version     2.0;
    format      ascii;
    class       volScalarField;
    location    "26";
    object      pa;
}
// * * * * * * * * * * * * * * * * * * * * * * * * * * * * * * * * * * * * * //

dimensions      [0 2 -2 0 0 0 0];


internalField   nonuniform List<scalar> 
9216
(
17527.3681641
17522.6362839
17512.9207206
17498.2029727
17478.5514592
17454.0454243
17424.7894945
17390.900818
17352.5195353
17309.793501
17262.8912585
17211.9840875
17157.2614444
17098.9106377
17037.1346747
16972.1298981
16904.1061373
16833.2625992
16759.810153
16683.9457438
16605.8766061
16525.7934232
16443.8962232
16360.3664914
16275.3945044
16189.150569
16101.8135358
16013.5413369
15924.5004431
15834.8358482
15744.7012311
15654.2285253
15563.5585961
15472.8104771
15382.1120921
15291.5706993
15201.3031054
15111.4049381
15021.9818833
14933.1188653
14844.9111348
14757.433678
14670.7720185
14584.9919895
14500.170114
14416.3638584
14333.6414545
14252.0527573
14171.6583975
14092.5013465
14014.635284
13938.0969776
13862.933775
13789.1768823
13716.8678886
13646.0330311
13576.7086814
13508.9166626
13442.6886264
13378.0424906
13315.0056546
13253.5926058
13193.8269201
13135.7200883
13079.2922655
13024.55235
12971.5174446
12920.1942237
12870.597083
12822.730816
12776.6074261
12732.2301382
12689.6088575
12648.7455289
12609.6482273
12572.3178787
12536.7609766
12502.9776666
12470.9730861
12440.746813
12412.3028356
12385.6403545
12360.7623928
12337.667939
12316.3592122
12296.8351303
12279.0972398
12263.1445058
12248.9779142
12236.5965736
12226.0010078
12217.190512
12210.1651005
12204.923967
12201.4679763
12199.7733119
17532.2668205
17527.6142256
17517.9693261
17503.3464957
17483.8160004
17459.4583949
17430.3748811
17396.6818938
17358.5144518
17316.0192866
17269.3588698
17218.7034143
17164.2357765
17106.1425776
17044.6200511
16979.8644882
16912.0790473
16841.4636857
16768.2229031
16692.5552827
16614.6621003
16534.7365659
16452.9732048
16369.5568647
16284.6727611
16198.4952988
16111.1986669
16022.9455159
15933.8979907
15844.2062992
15754.0200792
15663.4768753
15572.7138022
15481.8562082
15391.0287289
15300.3433131
15209.9130257
15119.8394918
15030.2247675
14941.1597887
14852.7362131
14765.0349761
14678.1380327
14592.1170528
14507.045006
14422.9850384
14340.0018476
14258.1507824
14177.4889619
14098.0646373
14019.9280123
13943.1209042
13867.6872303
13793.6630003
13721.0864351
13649.9883223
13580.4017397
13512.3527996
13445.8699512
13380.9751396
13317.692665
13256.040777
13196.040072
13137.7055403
13081.0544879
13026.0990508
12972.8536265
12921.32787
12871.5336251
12823.4784109
12777.1718438
12732.6196247
12689.8294445
12648.8054779
12609.5537674
12572.0772283
12536.3805088
12502.4655088
12470.3357127
12439.9922243
12411.4375746
12384.6722674
12359.6980667
12336.5150491
12315.1243737
12295.5258368
12277.7201272
12261.7068834
12247.4864408
12235.0583914
12224.422831
12215.5794302
12208.5281866
12203.2690778
12199.8071454
12198.0999233
17542.2427002
17537.6356725
17527.8934976
17513.1331663
17493.4196353
17468.8365421
17439.4873322
17405.4926979
17366.9906181
17324.1328314
17277.0849831
17226.0226301
17171.1316407
17112.603949
17050.6383369
16985.4360991
16917.2022855
16846.1413797
16772.4590246
16696.3577791
16618.0393127
16537.7002626
16455.5348541
16371.7308627
16286.4726032
16199.9369846
16112.2968016
16023.7168676
15934.3575484
15844.3709565
15753.9046667
15663.0979326
15572.0856157
15480.9947967
15389.947348
15299.0567054
15208.4334951
15118.180791
15028.3981581
14939.177952
14850.6093353
14762.7746384
14675.753348
14589.6185141
14504.4406903
14420.2843925
14337.2119703
14255.280131
14174.5437271
14095.0523541
14016.854038
13939.9919212
13864.507839
13790.4391012
13717.8219456
13646.6884286
13577.069747
13508.9932448
13442.4855933
13377.5699254
13314.2688684
13252.6018106
13192.5877798
13134.2428509
13077.5828663
13022.6209879
12969.3702537
12917.8412824
12868.044662
12819.9888096
12773.6821891
12729.1313307
12686.3428754
12645.321757
12606.0730692
12568.6004145
12532.907593
12498.9971184
12466.8717268
12436.5330624
12407.9830054
12381.2225271
12356.2528372
12333.0744068
12311.6879366
12292.0935446
12274.2915566
12258.2818623
12244.0645289
12231.6393367
12221.0062178
12212.1649616
12205.1155026
12199.857798
12196.3974118
12194.670963
17557.4387671
17552.9244616
17543.0423372
17528.0859088
17508.1127491
17483.21098
17453.4881727
17419.0704164
17380.100924
17336.7375533
17289.1514905
17237.5245307
17182.0478417
17122.9192329
17060.3421533
16994.5230928
16925.6709073
16853.9944347
16779.7021844
16703.0002001
16624.0921059
16543.1772131
16460.4508892
16376.1028837
16290.3179726
16203.2744674
16115.1450835
16026.0955965
15936.2858827
15845.8686906
15754.9908117
15663.7918953
15572.4058039
15480.9599078
15389.5744476
15298.3630169
15207.4352732
15116.8944594
15026.8389473
14937.3611945
14848.5491377
14760.4851903
14673.2476208
14586.9095637
14501.5403796
14417.2046784
14333.9636548
14251.874125
14170.9898302
14091.3604894
14013.0330664
13936.0508416
13860.4546378
13786.281914
13713.5679475
13642.344953
13572.6432176
13504.4902486
13437.9118592
13372.9313483
13309.5705351
13247.8489727
13187.7849308
13129.3946464
13072.6932519
13017.6940654
12964.4094637
12912.8502138
12863.0262897
12814.9462475
12768.617984
12724.048158
12681.2428899
12640.2072294
12600.9457965
12563.462297
12527.760103
12493.8418179
12461.7097961
12431.3657572
12402.8112455
12376.047294
12351.0748215
12327.8943474
12306.5063265
12286.9109118
12269.1082289
12253.0981889
12238.8807067
12226.4555711
12215.8226041
12206.981603
12199.932413
12194.6748824
12191.2155943
12189.4677374
17577.9187551
17573.5361171
17563.4632575
17548.2400224
17527.9134166
17502.5777815
17472.3465682
17437.3529485
17397.7475808
17353.6963412
17305.3783435
17252.9835098
17196.7106573
17136.7651727
17073.3573317
17006.7002212
16937.0083893
16864.4960819
16789.3762546
16711.8591364
16632.1515897
16550.4559759
16466.969822
16381.8849465
16295.3873805
16207.6567041
16118.8661685
16029.1821955
15938.7646506
15847.7664689
15756.3340367
15664.6068578
15572.7181417
15480.7950337
15388.9566925
15297.3158615
15205.9813338
15115.0558019
15024.6366599
14934.8157848
14845.6801069
14757.3114487
14669.787079
14583.1795545
14497.5572641
14412.9842689
14329.5208324
14247.2232578
14166.1444032
14086.3335147
14007.8367236
13930.6968773
13854.9540178
13780.6452106
13707.8050021
13636.46525
13566.6555597
13498.4031148
13431.7330932
13366.6685005
13303.2305647
13241.438573
13181.3102456
13122.8615776
13066.1071916
13011.0601857
12957.7324642
12906.1345936
12856.2761113
12808.1653902
12761.8099255
12717.2162079
12674.3899897
12633.3361673
12594.059025
12556.5621283
12520.8485459
12486.9207533
12454.7808326
12424.4303878
12395.8707219
12369.1027636
12344.1272213
12320.9445217
12299.5549398
12279.9585471
12262.1553203
12246.1451008
12231.927683
12219.5027993
12208.870185
12200.029564
12192.9807084
12187.7234127
12184.2656939
12182.4907181
17603.7801108
17599.5693132
17589.2512181
17573.6860621
17552.9063741
17527.0149097
17496.1329636
17460.4029316
17419.9853182
17375.0563431
17325.8055335
17272.4331963
17215.1481288
17154.1652898
17089.7038065
17021.984989
16951.2307269
16877.6618992
16801.4971773
16722.9518216
16642.2368572
16559.5582118
16475.1162076
16389.1049803
16301.7122231
16213.1188254
16123.4988095
16033.0191324
15941.8397615
15850.113598
15757.9866495
15665.5979869
15573.0801703
15480.5596555
15388.1543499
15295.9759834
15204.1324179
15112.7254395
15021.8513928
14931.6012123
14842.0607532
14753.3108919
14665.4278347
14578.4832168
14492.5444007
14407.674567
14323.9330025
14241.3751818
14160.0530421
14080.0150564
14001.3064945
13923.969487
13848.0432732
13773.5642564
13700.5662377
13629.0804648
13559.1358515
13490.75902
13423.9745081
13358.8048045
13295.2705445
13233.3905398
13173.1819622
13114.6603695
13057.839877
13002.7331801
12949.3517147
12897.705677
12847.8041725
12799.6552334
12753.2659574
12708.6425234
12665.7903188
12624.7139547
12585.4173826
12547.903908
12512.1762978
12478.2367921
12446.0872014
12415.7289184
12387.163004
12360.3901992
12335.4110001
12312.2256687
12290.8342969
12271.2368149
12253.4330451
12237.42271
12223.2054805
12210.780989
12200.1488666
12191.3087739
12184.2603899
12179.0034104
12175.5478718
12173.7394055
17635.1474143
17631.152122
17620.5299011
17604.5424131
17583.2030368
17556.6255022
17524.941142
17488.304059
17446.887252
17400.8799392
17350.4847337
17295.9148562
17237.3915197
17175.1414503
17109.394672
17040.3824792
16968.3357038
16893.483171
16816.0504402
16736.2587068
16654.3239574
16570.4562465
16484.8591872
16397.7295217
16309.2568691
16219.6235148
16129.0043462
16037.5667967
15945.4709109
15852.8694003
15759.9077863
15666.7244944
15573.4513383
15480.2136926
15387.1280256
15294.3048763
15201.8509511
15109.8668548
15018.4476931
14927.6831824
14837.657922
14748.4515766
14660.1391194
14572.7910103
14486.4734263
14401.2484282
14317.1741794
14234.3050999
14152.6920729
14072.3825866
13993.4209281
13915.8483134
13839.7030693
13765.0207528
13691.8343201
13620.1742369
13550.068636
13481.5434181
13414.622399
13349.3274022
13285.6783961
13223.6935786
13163.3895058
13104.7811692
13047.8821157
12992.7045187
12939.2592896
12887.5561432
12837.6037019
12789.4095552
12742.9803564
12698.3218776
12655.439099
12614.3362597
12575.016939
12537.4841039
12501.7401835
12467.7871113
12435.6263937
12405.2591483
12376.6861649
12349.9079404
12324.924732
12301.7365885
12280.3433954
12260.7448997
12242.9407498
12226.9305154
12212.7137221
12200.2898816
12189.6585172
12180.8191689
12173.7714399
12168.5149917
12165.0622669
12163.2136231
17672.1742985
17668.4429422
17657.4520054
17640.9548248
17618.9400385
17591.5354299
17558.8849031
17521.1571734
17478.5407648
17431.2409314
17379.4763602
17323.4760046
17263.4761345
17199.7176196
17132.4435216
17061.8969647
16988.3193302
16911.9487149
16833.0186828
16751.7572371
16668.3860339
16583.1197637
16496.16572
16407.723487
16317.9847651
16227.1332749
16135.344761
16042.7870391
15949.6201156
15855.9963313
15762.0605342
15667.9502793
15573.7964703
15479.7229888
15385.8446048
15292.2705289
15199.1060512
15106.4503349
15014.397011
14923.0343242
14832.4453953
14742.7084358
14653.896978
14566.08008
14479.32254
14393.685088
14309.2245854
14225.9942022
14144.043603
14063.4191105
13984.1638778
13906.3180398
13829.9188721
13755.0009313
13681.5962017
13609.734225
13539.4422361
13470.7452828
13403.6663523
13338.2264808
13274.4448715
13212.3389963
13151.9247046
13093.2163178
13036.2267305
12980.967498
12927.4489296
12875.6801705
12825.6692881
12777.4233475
12730.9484915
12686.2500106
12643.3324168
12602.1995082
12562.8544367
12525.2997676
12489.5375416
12455.569329
12423.396286
12393.0192042
12364.4385609
12337.6545639
12312.6671953
12289.4762509
12268.081378
12248.482107
12230.6778846
12214.668099
12200.4521132
12188.029289
12177.3990138
12168.560738
12161.5139577
12156.2582157
12152.808962
12150.9134113
17715.0463614
17711.6333396
17700.2020279
17683.0989923
17660.2815912
17631.8953831
17598.0998581
17559.0817812
17515.0487329
17466.2255153
17412.8502702
17355.1708476
17293.4414624
17227.919703
17158.8639165
17086.530977
17011.1744215
16933.0429309
16852.379122
16769.4186145
16684.3893389
16597.511045
16508.9949839
16419.0437278
16327.8511072
16235.6022363
16142.4736148
16048.6332791
15954.2410031
15859.4485252
15764.3997674
15669.2311505
15574.0724659
15479.0456388
15384.2634482
15289.8336393
15195.8597933
15102.4393634
15009.6642464
14917.6209566
14826.3908952
14736.0505803
14646.6718794
14558.3222263
14471.064835
14384.9588994
14300.0597903
14216.4192391
14134.0855191
14053.1036143
13973.5153861
13895.3597285
13818.6727222
13743.4877764
13669.8357716
13597.7451902
13527.2422484
13458.3510167
13391.0935417
13325.4899581
13261.558601
13199.31611
13138.7775334
13079.956424
13022.8649371
12967.5139184
12913.9129952
12862.0706581
12811.9943458
12763.6905205
12717.1647465
12672.4217604
12629.4655435
12588.2993865
12548.9259565
12511.3473565
12475.5651868
12441.5805989
12409.3943523
12379.0068627
12350.418253
12323.6283974
12298.6369658
12275.4434625
12254.0472641
12234.4476512
12216.6438415
12200.6350154
12186.420345
12173.999029
12163.3703146
12154.5334979
12147.4879841
12142.2332581
12138.7881663
12136.8388842
17763.9846097
17760.9517358
17748.9995237
17731.1834787
17707.4219216
17677.8827955
17642.7448097
17602.2169033
17556.5298889
17505.9322061
17450.6853289
17391.0595602
17327.3302488
17259.7744771
17188.6682497
17114.2841558
17036.8894903
16956.7447747
16874.1026438
16789.2070341
16702.2926361
16613.5845554
16523.2981512
16431.6390074
16338.803015
16244.9765332
16150.3366135
16055.0512636
15959.2797483
15863.1729034
15766.8734075
15670.5162328
15574.229812
15478.1335924
15382.3380397
15286.9492909
15192.0688974
15097.792318
15004.2094357
14911.4047673
14819.4577389
14728.4429294
14638.4303086
14549.4854622
14461.669807
14375.0407971
14289.6521191
14205.55388
14122.7927855
14041.4123114
13961.4528669
13882.9519507
13805.9443009
13730.4620388
13656.5348059
13584.1898965
13513.4523836
13444.345242
13376.8894638
13311.1041724
13247.0067299
13184.6128426
13123.9366602
13064.9908741
13007.7868097
12952.3345173
12898.6428582
12846.7195893
12796.5714428
12748.2042048
12701.6227893
12656.8313114
12613.8331553
12572.6310427
12533.227095
12495.6228961
12459.8195504
12425.8177396
12393.6177755
12363.219652
12334.6230926
12307.8275968
12282.8324821
12259.6369255
12238.2399983
12218.6407005
12200.837991
12184.8308158
12170.6181384
12158.1989654
12147.5723718
12138.7375396
12131.6937436
12126.4402987
12123.000107
12120.9903215
17819.2497173
17816.6678111
17804.1031994
17785.4532613
17760.5881998
17729.704069
17693.0032662
17650.7219111
17603.1190362
17550.4715304
17493.0686647
17431.2072189
17365.1871889
17295.308145
17221.8662229
17145.1517231
17065.4472504
16983.0263377
16898.1524722
16811.0784646
16722.0460899
16631.2859499
16539.0175018
16445.4492184
16350.7788405
16255.193698
16158.8710743
16061.9785979
15964.6746554
15867.1088021
15769.4220893
15671.7476657
15574.2122968
15476.9323913
15380.015747
15283.566734
15187.6845269
15092.4622849
14997.9875814
14904.3426544
14811.6046892
14719.8460724
14629.1346364
14539.5338903
14451.1032386
14363.898189
14277.9705499
14193.3686171
14110.1373535
14028.3185577
13947.951027
13869.0707113
13791.7108618
13715.9021711
13641.6729098
13569.0490553
13498.0544171
13428.7107553
13361.0378969
13295.053845
13230.7748865
13168.2156931
13107.3894219
13048.307809
12990.981263
12935.4189517
12881.6288901
12829.6180204
12779.3922939
12730.9567455
12684.3155704
12639.4721927
12596.4293366
12555.1890902
12515.7529714
12478.1219864
12442.2966908
12408.2772428
12376.063459
12345.6548631
12317.0507359
12290.2501597
12265.2520616
12242.0552533
12220.6584681
12201.0603924
12183.2596995
12167.2550744
12153.0452431
12140.629008
12130.0052701
12121.1730217
12114.1314266
12108.8796952
12105.445196
12103.3680688
17881.1473527
17879.0982885
17865.8159906
17846.1941541
17820.0440903
17787.5972163
17749.0851659
17704.7773878
17654.9671523
17599.9654845
17540.0946283
17475.6823827
17407.0572648
17334.5445251
17258.4629883
17179.1226355
17096.8228443
17011.8511778
16924.4826341
16834.9792552
16743.590025
16650.5509783
16556.0854721
16460.4045649
16363.7074745
16266.1820792
16168.0054441
16069.3443528
15970.3558446
15871.1877266
15771.9789701
15672.8604899
15573.9569252
15475.3811044
15377.2377853
15279.6293754
15182.6522987
15086.397087
14990.9486905
14896.3867762
14802.7860118
14710.2163315
14618.7431849
14528.4277732
14439.3272692
14351.4950282
14264.9807838
14179.8308366
14096.0882297
14013.7929185
13932.9819295
13853.6895135
13775.9472898
13699.7843865
13625.2275711
13552.3013799
13481.0282377
13411.4285764
13343.5209462
13277.3221252
13212.8472218
13150.1097772
13089.1218599
13029.8941616
12972.4360851
12916.7558335
12862.8604923
12810.7561128
12760.4477884
12711.9397324
12665.2353494
12620.3373072
12577.2476038
12535.9676339
12496.4982506
12458.8398277
12422.9923156
12388.9552993
12356.7280493
12326.309574
12297.698666
12270.8939498
12245.8939221
12222.6969938
12201.3015248
12181.7058583
12163.9083512
12147.9074017
12133.7014808
12121.2891565
12110.6691203
12101.8402241
12094.8014758
12089.551847
12086.1238959
12083.9726724
17950.0348568
17948.6139332
17934.4914301
17913.7382045
17886.094038
17851.8349354
17811.2287663
17764.5859303
17712.2412423
17654.5466272
17591.8632942
17524.5551915
17452.9835842
17377.5027734
17298.4568474
17216.1773526
17130.9817261
17043.1723642
16953.0361801
16860.8445479
16766.8535231
16671.3042673
16574.4236056
16476.4246713
16377.5075958
16277.8602178
16177.6587869
16077.0686503
15976.2449212
15875.3330867
15774.4695257
15673.7825934
15573.3939204
15473.4122158
15373.9391656
15275.0747578
15176.9122862
15079.5393018
14983.0378068
14887.4845919
14792.9515233
14699.5058156
14607.210286
14516.1235924
14426.3004567
14337.7918734
14250.6453072
14164.9048777
14080.6115354
13997.8032264
13916.515051
13836.7794111
13758.6261544
13682.082708
13607.1742098
13533.9236303
13462.3518935
13392.4779894
13324.3190847
13257.8906272
13193.2064487
13130.278862
13069.1187565
13009.7356886
12952.1379713
12896.3327581
12842.3261274
12790.1231605
12739.7280206
12691.1440258
12644.3737231
12599.4189559
12556.2809338
12514.960295
12475.4571708
12437.771244
12401.9018083
12367.8478219
12335.607962
12305.1806734
12276.5642183
12249.7567201
12224.7562074
12201.5606525
12180.1680096
12160.5762453
12142.7833732
12126.7874784
12112.5867469
12100.1795014
12089.5642243
12080.7395415
12073.7043286
12068.4573917
12065.0369114
12062.8047783
18026.3296633
18025.6486843
18010.5415634
17988.4703737
17959.0883907
17922.7281411
17879.7026371
17830.3727608
17775.1237998
17714.356626
17648.4783548
17577.8948215
17503.0046054
17424.1945256
17341.8364436
17256.2851549
17167.8771744
17076.9302093
16983.7431594
16888.5964906
16791.7528737
16693.4579875
16593.9414236
16493.4176333
16392.0868858
16290.1362041
16187.7402648
16085.0622506
15982.2546554
15879.4599758
15776.8114289
15674.4345281
15572.4463765
15470.9514624
15370.0486697
15269.8345686
15170.3990454
15071.826302
14974.1950602
14877.5789209
14782.0466562
14687.6624895
14594.4863519
14502.5741227
14411.9778508
14322.7459641
14234.9234631
14148.5521053
14063.6705752
13980.3146487
13898.5173447
13818.3090723
13739.7177677
13662.769027
13587.4862309
13513.8906664
13442.0016404
13371.8365921
13303.4111979
13236.7394756
13171.8338814
13108.7054071
13047.3636711
12987.8170087
12930.0725571
12874.1363409
12820.0133508
12767.7076241
12717.2223188
12668.5597891
12621.7216542
12576.7088694
12533.5217908
12492.1602409
12452.6235691
12414.9107131
12379.0202544
12344.9504747
12312.6994075
12282.2648894
12253.6446063
12226.8361409
12201.837013
12178.6447215
12157.2567789
12137.670746
12119.884262
12103.895073
12089.701063
12077.3002778
12066.6909522
12057.8715446
12050.8407492
12045.5970507
12042.1850381
12039.8652907
18110.5200032
18110.7109564
18094.4469351
18070.836713
18039.4295197
18000.629951
17954.8076471
17902.3859787
17843.8116444
17779.5440458
17710.0441802
17635.7661249
17557.1505855
17474.6203526
17388.5773479
17299.4009636
17207.4473889
17113.049679
17016.5183395
16918.1422643
16818.1898831
16716.910427
16614.535232
16511.2790349
16407.3412251
16302.9070305
16198.1486224
16093.2261461
15988.2886612
15883.4749028
15778.9142488
15674.728899
15571.0303039
15467.9183384
15365.4889504
15263.8346985
15163.0416662
15063.1903147
14964.3557362
14866.6080174
14770.0125387
14674.6302566
14580.5179615
14487.7285165
14396.3110783
14306.3113023
14217.771534
14130.7309877
14045.2259148
13961.2897603
13878.9533133
13798.2448467
13719.1902515
13641.8131636
13566.135086
13492.1755037
13419.9519968
13349.4803454
13280.7746343
13213.8473509
13148.7094823
13085.3706064
13023.8389835
12964.1216409
12906.2244593
12850.1522525
12795.9088484
12743.4971639
12692.9192817
12644.17652
12597.2695054
12552.1982379
12508.9621593
12467.5602144
12427.9909146
12390.2523949
12354.3424727
12320.2587011
12287.9984224
12257.5588171
12228.9369529
12202.1298285
12177.1344174
12153.947707
12132.5667358
12112.9886253
12095.2106137
12079.2300814
12065.0445793
12052.6518666
12042.0499333
12033.2369754
12026.2115339
12020.9718518
12017.5693815
12015.1552634
18203.1786404
18204.3984887
18186.7691674
18161.3545063
18127.579063
18085.9400782
18036.8787536
17980.8961601
17918.5138351
17850.2610549
17776.6617792
17698.2252062
17615.4390785
17528.765381
17438.6379591
17345.4615939
17249.6121513
17151.4374614
17051.2586814
16949.3719319
16846.0500704
16741.5444916
16636.0868924
16529.8909502
16423.1538966
16316.0579639
16208.7717058
16101.4512035
15994.2411411
15887.2756362
15780.679484
15674.5708588
15569.0547025
15464.2256208
15360.1764765
15256.9952645
15154.763834
15053.5584997
14953.4503624
14854.5056644
14756.7860922
14660.3490586
14565.2479582
14471.5324031
14379.2484395
14288.4387487
14199.1428324
14111.3971871
14025.2354649
13940.688627
13857.7850856
13776.5508406
13697.0096066
13619.1829362
13543.0903354
13468.749376
13396.1758014
13325.3836308
13256.3852564
13189.1915409
13123.8119084
13060.2544355
12998.5259363
12938.6320486
12880.5773142
12824.3652598
12769.998473
12717.478679
12666.8068119
12617.9830879
12571.0070719
12525.8777468
12482.593576
12441.1525689
12401.552339
12363.7901653
12327.8630465
12293.7677576
12261.5008997
12231.0589528
12202.4383205
12175.635378
12150.6465118
12127.4681628
12106.0968598
12086.5292555
12068.7621556
12052.7925485
12038.6176363
12026.234858
12015.6419178
12006.836816
11999.8178882
11994.5829591
11991.1911889
11988.6760783
18304.9807304
18307.4172709
18288.1670436
18260.6247605
18224.0664509
18179.109489
18126.2862628
18066.194894
17999.4481959
17926.6586441
17848.4232876
17765.3136625
17677.8692578
17586.5939447
17491.9546122
17394.3814052
17294.2690259
17191.9787136
17087.8405873
16982.156147
16875.2007782
16767.2261705
16658.4625884
16549.120968
16439.3948233
16329.461963
16219.4860234
16109.6178459
15999.9966569
15890.7510283
15782.0006302
15673.8582985
15566.4214825
15459.7794688
15354.0215847
15249.2306853
15145.4839226
15042.8530536
14941.4048207
14841.2012886
14742.3001478
14644.7549914
14548.6155659
14453.9280004
14360.7350178
14269.0761271
14178.9878039
14090.5036553
14003.6545762
13918.4688932
13834.9725025
13753.1889972
13673.139791
13594.8442329
13518.3197194
13443.5817991
13370.6442764
13299.5193079
13230.217499
13162.7479935
13097.1185646
13033.3356992
12971.4046836
12911.329683
12853.1138234
12796.7592664
12742.2672869
12689.6383445
12638.8721574
12589.9677695
12542.923621
12497.7376116
12454.4071677
12412.9293013
12373.3006734
12335.5176497
12299.5763594
12265.4727466
12233.2026251
12202.7617259
12174.145747
12147.3503963
12122.3714365
12099.2047234
12077.8462437
12058.2921473
12040.538781
12024.5827144
12010.4207683
11998.0500531
11987.4679921
11978.6722862
11971.6610983
11966.4319199
11963.0520951
11960.4293289
18416.7273693
18420.606838
18399.4171381
18369.3477385
18329.4987688
18280.6450197
18223.4360241
18158.5916008
18086.8358369
18008.8797839
17925.4045443
17837.051132
17744.4148397
17648.0431049
17548.4358302
17446.0473073
17341.289114
17234.5335029
17126.1169678
17016.3437631
16905.4892537
16793.8030116
16681.511635
16568.8212742
16455.919878
16342.9791704
16230.1563918
16117.5958258
16005.4300418
15893.7811244
15782.7632423
15672.4812222
15563.0250338
15454.4794681
15346.9285834
15240.4498046
15135.1151247
15030.9913458
14928.1404851
14826.6200992
14726.4835836
14627.7804401
14530.5565197
14434.8542433
14340.7128022
14248.1683433
14157.2541384
14068.0007427
13980.4361398
13894.58588
13810.4732078
13728.1191844
13647.542801
13568.7610906
13491.78923
13416.6406424
13343.3270919
13271.8587787
13202.244427
13134.4913744
13068.6056551
13004.5920847
12942.4543384
12882.1950323
12823.8157977
12767.3173585
12712.6996026
12659.9616558
12609.1019492
12560.1182905
12513.007928
12467.7676181
12424.3936865
12382.882092
12343.2284836
12305.4282614
12269.4766301
12235.3686547
12203.0993111
12172.6635376
12144.0562801
12117.2725404
12092.3074157
12069.1561419
12047.8141277
12028.2769904
12010.5405862
11994.6010392
11980.4547737
11968.0985364
11957.5294261
11948.7449194
11941.7429505
11936.5204811
11933.1539385
11930.4170175
18539.3772078
18544.9736604
18521.4406654
18488.3421288
18444.5719172
18391.1133529
18328.7676701
18258.4076915
18180.8927695
18097.049799
18007.6551772
17913.4257734
17815.0153457
17713.0149204
17607.9556545
17500.3131426
17390.5123979
17278.9330163
17165.9141933
17051.7594212
16936.740762
16821.1026728
16705.0653816
16588.8278421
16472.5703
16356.4565113
16240.6356657
16125.2440343
16010.4062415
15896.2368474
15782.8437237
15670.3219363
15558.7535569
15448.2189996
15338.7959831
15230.5560724
15123.565625
15017.8860878
14913.5743886
14810.6832514
14709.2614839
14609.3542329
14511.003215
14414.2469246
14319.1208234
14225.657513
14133.8868943
14043.8363134
13955.5306989
13868.9926882
13784.242748
13701.2992862
13620.1787599
13540.895776
13463.4631906
13387.8922009
13314.1924379
13242.3720518
13172.4377995
13104.395125
13038.2482427
12974.000214
12911.6530269
12851.2076696
12792.6642065
12736.0218493
12681.2790302
12628.4334696
12577.4822469
12528.4218654
12481.2483204
12435.9571604
12392.5435528
12351.002342
12311.3281115
12273.5152388
12237.5579537
12203.4503898
12171.1866387
12140.7607976
12112.1670189
12085.3995542
12060.4527982
12037.3213279
12015.9999415
11996.4836894
11978.7679102
11962.8482557
11948.7207201
11936.381679
11925.8279132
11917.0565632
11910.0653714
11904.85086
11901.499033
11898.641431
18674.0897615
18681.7369676
18655.3386203
18618.5687371
18570.0826477
18511.1432376
18442.749487
18365.9666403
18281.8174121
18191.2629956
18095.1855496
17994.3822357
17889.5654883
17781.3673607
17670.346072
17556.9934921
17441.7427732
17324.9756321
17207.0290422
17088.2012096
16968.7568265
16848.9316221
16728.9362802
16608.9597858
16489.172273
16369.727442
16250.7646258
16132.4104922
16014.7803926
15897.9805928
15782.1110744
15667.2556945
15553.4885192
15440.8853174
15329.5166667
15219.4477449
15110.7388037
15003.445534
14897.6194193
14793.3080358
14690.5553215
14589.4018157
14489.8848725
14392.0388537
14295.8953028
14201.4831049
14108.8286306
14017.955872
13928.8865657
13841.6403105
13756.2346752
13672.6853031
13591.0060091
13511.2088747
13433.3043364
13357.3012743
13283.2070946
13211.0278133
13140.7681336
13072.4315267
13006.0203054
12941.5357021
12878.9779396
12818.3463066
12759.6392263
12702.8543297
12647.9885216
12595.0380521
12543.9985805
12494.8652436
12447.6327179
12402.2952857
12358.8468937
12317.2812168
12277.5917139
12239.7716883
12203.8143402
12169.7128236
12137.4602952
12107.0499672
12078.4751522
12051.7293118
12026.8060968
12003.6993904
11982.403343
11962.9124089
11945.2213765
11929.325398
11915.2200231
11902.9012192
11892.3654036
11883.6094628
11876.6308889
11871.4255472
11868.0899685
11865.1053564
18822.2861543
18832.3917351
18802.4383239
18761.1592629
18706.9404426
18641.4239551
18565.8676573
18481.5779297
18389.7723275
18291.5643861
18187.949796
18079.8067239
17967.9024968
17852.903874
17735.3886176
17615.8570612
17494.7429234
17372.4230247
17249.2257849
17125.4385312
17001.3137029
16877.074084
16752.9171904
16629.0189398
16505.5367085
16382.6118918
16260.3720451
16138.9325491
16018.3982066
15898.8666179
15780.426421
15663.1499588
15547.1046942
15432.3597296
15318.9781174
15207.0181293
15096.5334792
14987.5737182
14880.1845469
14774.4080942
14670.2831628
14567.8454461
14467.1277227
14368.1600288
14270.9698158
14175.5820915
14082.0195514
13990.3026971
13900.4499492
13812.4777492
13726.4006594
13642.2314537
13559.9812073
13479.6593806
13401.2739019
13324.8312457
13250.3365111
13177.7934962
13107.2047738
13038.5717623
12971.8947999
12907.1732132
12844.4053898
12783.5888452
12724.720294
12667.795715
12612.8104213
12559.7591238
12508.635999
12459.4347516
12412.1486799
12366.7707362
12323.2935903
12281.7096873
12242.0113083
12204.1906255
12168.2397599
12134.1508328
12101.9160202
12071.5276003
12042.9780041
12016.2598591
11991.3660344
11968.2896798
11947.0242656
11927.5636144
11909.9019374
11894.0338604
11879.9544528
11867.659268
11857.1443676
11848.4062644
11841.4422413
11836.2476007
11832.9299085
11829.8119497
18985.7367686
18998.7982243
18964.3553499
18917.4504893
18856.1768086
18782.6965237
18698.6063597
18605.5119109
18504.8580642
18397.9251077
18285.8242034
18169.5088243
18049.7913731
17927.3617387
17802.8053933
17676.6198884
17549.2292961
17420.9965184
17292.2336108
17163.2103386
17034.1612264
16905.2913375
16776.7810098
16648.7897269
16521.4592863
16394.916411
16269.2748759
16144.6370621
16021.0959858
15898.7396679
15777.6428304
15657.8659369
15539.4708205
15422.5180221
15307.062759
15193.1558923
15080.8441985
14970.1707273
14861.1750811
14753.8936637
14648.3598962
14544.6044081
14442.6552063
14342.537826
14244.2754667
14147.8891154
14053.3976582
13960.8179855
13870.1650866
13781.4521412
13694.6906037
13609.8902851
13527.0594299
13446.2047923
13367.3317078
13290.4441666
13215.5448809
13142.6353568
13071.7159598
13002.785985
12935.8437217
12870.8865227
12807.9108683
12746.9124347
12687.8861576
12630.8262999
12575.7265143
12522.5799104
12471.3791159
12422.1163433
12374.7834486
12329.3719969
12285.8733196
12244.2785773
12204.5788149
12166.7650222
12130.8281858
12096.7593464
12064.549648
12034.190391
12005.6730777
11978.9894615
11954.1315874