/*--------------------------------*- C++ -*----------------------------------*\
| =========                 |                                                 |
| \\      /  F ield         | OpenFOAM: The Open Source CFD Toolbox           |
|  \\    /   O peration     | Version:  v1906                                 |
|   \\  /    A nd           | Web:      www.OpenFOAM.com                      |
|    \\/     M anipulation  |                                                 |
\*---------------------------------------------------------------------------*/
FoamFile
{
    version     2.0;
    format      ascii;
    class       surfaceScalarField;
    location    "883";
    object      phi;
}
// * * * * * * * * * * * * * * * * * * * * * * * * * * * * * * * * * * * * * //

dimensions      [0 3 -1 0 0 0 0];
oriented        oriented;


internalField   nonuniform List<scalar> 
18240
(
-0.00020005783559
0.000200070583249
-0.0004095982841
0.000209549974551
-0.000617749246848
0.000208165682509
-0.000822889715666
0.000205149077419
-0.00102395590836
0.000201082155637
-0.00122003380116
0.000196085484504
-0.00141028605398
0.000190269384306
-0.00159401109119
0.000183731661805
-0.00177057369368
0.000176580897649
-0.00193948215588
0.000168914191182
-0.0021003005101
0.000160837838941
-0.00225273540511
0.000152439799215
-0.00239652962937
0.000143814887402
-0.00253155961888
0.000135034144081
-0.0026577128729
0.000126175110161
-0.00277499776362
0.000117288376878
-0.00288340737873
0.000108432641492
-0.00298304274041
9.96382726213e-05
-0.0030739651145
9.09465813144e-05
-0.00315633291432
8.23702386953e-05
-0.00323024380767
7.39362495669e-05
-0.00329588484364
6.56431211421e-05
-0.00335336539817
5.75070614134e-05
-0.00340287954059
4.9516003678e-05
-0.00344453062777
4.16786944209e-05
-0.0034785046218
3.39757786732e-05
-0.00350488737649
2.641144016e-05
-0.00352384744075
1.89619322221e-05
-0.00353544725469
1.16294930954e-05
-0.00353983390494
4.38878168946e-06
-0.00353704583297
-2.75746217694e-06
-0.00352720944095
-9.83380198652e-06
-0.00351034355484
-1.68344772162e-05
-0.00348656061953
-2.37796695829e-05
-0.00345587075574
-3.06577708802e-05
-0.00341838453042
-3.74820554583e-05
-0.00337411921708
-4.42327190714e-05
-0.00332320035164
-5.09135498968e-05
-0.00326567238932
-5.74950357221e-05
-0.00320169529887
-6.39703897235e-05
-0.00313136145158
-7.03008120155e-05
-0.00305488292071
-7.64702101344e-05
-0.00297241633149
-8.24336482019e-05
-0.00288423643433
-8.81697421324e-05
-0.00279057092393
-9.36328935971e-05
-0.00269175694251
-9.88018049961e-05
-0.00258808942334
-0.000103635425713
-0.00247995971044
-0.000108115372893
-0.00236772339943
-0.000112204943172
-0.00225182355172
-0.000115883263377
-0.00213268578302
-0.000119107302984
-0.00201082949259
-0.000121837488182
-0.00188679443346
-0.000124005690501
-0.00176123669216
-0.000125536916019
-0.00163487724061
-0.000126331401089
-0.00150856349873
-0.000126291286765
-0.00138321352344
-0.000125323410988
-0.00125982160108
-0.000123368369907
-0.00113939111408
-0.000120405511306
-0.00102291796357
-0.000116449294726
-0.000911353508457
-0.000111541158283
-0.000805606558256
-0.000105723904146
-0.000706519975335
-9.90650825066e-05
-0.0006148508075
-9.16481617162e-05
-0.000531165278166
-8.36656330211e-05
-0.000455725576095
-7.54214378408e-05
-0.000388441654141
-6.72651694235e-05
-0.000328937540235
-5.94884357277e-05
-0.000276682954027
-5.22364933111e-05
-0.000231132129845
-4.5535589274e-05
-0.000191749818541
-3.93638747267e-05
-0.000158033585149
-3.37001848851e-05
-0.000129491436747
-2.85235423245e-05
-0.000105657478283
-2.38178023028e-05
-8.60541465427e-05
-1.95854849063e-05
-7.01695040158e-05
-1.58686584269e-05
-5.74376260595e-05
-1.27149056731e-05
-4.72959750726e-05
-1.01258676094e-05
-3.92381886344e-05
-8.04176688082e-06
-3.28558937567e-05
-6.36700672146e-06
-2.78277134552e-05
-5.01328130038e-06
-2.38928395135e-05
-3.92000285452e-06
-2.08409220608e-05
-3.03792087932e-06
-1.85130715352e-05
-2.31363499853e-06
-1.68484458279e-05
-1.65147560061e-06
-1.55426864204e-05
-1.29156592171e-06
-1.43803414124e-05
-1.14824731841e-06
-1.34039919382e-05
-9.59922949508e-07
-1.24169915223e-05
-9.69265534342e-07
-1.12809918675e-05
-1.11518795016e-06
-1.00504457788e-05
-1.20656352089e-06
-8.69139447718e-06
-1.33179379848e-06
-7.02876718981e-06
-1.63264145718e-06
-4.93116179456e-06
-2.06212989741e-06
-2.41418922066e-06
-2.47220900305e-06
-2.39153358995e-06
-0.000211655268101
0.000411738240665
-0.000435926765847
0.000433833086532
-0.000657984366913
0.000430236541213
-0.000876582630212
0.000423758993895
-0.00109071563777
0.000415228769541
-0.00129944138431
0.000404822723887
-0.00150188976481
0.000392731705467
-0.00169730561821
0.000379158856465
-0.00188502960898
0.000364319210899
-0.00206452889064
0.000348424711437
-0.00223536233618
0.000331686019908
-0.00239720926151
0.000314297908325
-0.00254982395798
0.000296444770536
-0.00269306575462
0.000278287118436
-0.00282684600427
0.000259971019841
-0.00295116195353
0.000241615547997
-0.00306603869405
0.000223325553453
-0.00317156849796
0.000205179399726
-0.00326784941113
0.000187244202693
-0.00335503079346
0.00016956310694
-0.00343324945114
0.000152172194648
-0.00350268138736
0.00013508677529
-0.00356347586029
0.000118319428956
-0.00361581288464
0.000101865050383
-0.00365983537917
8.57197323029e-05
-0.00369571176412
6.98645692664e-05
-0.00372356639437
5.42852860856e-05
-0.0037435465558
3.89549625768e-05
-0.00375575153324
2.38543900795e-05
-0.00376030330301
8.95396910206e-06
-0.00375727496016
-5.76516922984e-06
-0.00374676489967
-2.03298101649e-05
-0.00372882508513
-3.47529241804e-05
-0.00370353728621
-4.90526903867e-05
-0.00367094261912
-6.32303411712e-05
-0.0036311196508
-7.72894303228e-05
-0.0035841156554
-9.12138933717e-05
-0.00353002502481
-0.000104987682399
-0.00346892279969
-0.00011857373775
-0.00340094143206
-0.000131934272899
-0.00332620649845
-0.000145011549819
-0.00324490919428
-0.000157748969103
-0.00315724373011
-0.000170074284723
-0.00306347272908
-0.00018192107667
-0.00296386605129
-0.000193214161249
-0.00285875724581
-0.000203889778755
-0.00274848526357
-0.000213881472293
-0.00263344284212
-0.000223135779514
-0.00251402583894
-0.000231595558606
-0.00239067840733
-0.000239207523664
-0.0022638579801
-0.000245901006024
-0.00213408410961
-0.000251587146109
-0.00200192521071
-0.000256137725963
-0.00186805079196
-0.000259386348316
-0.00173323035632
-0.000261125112903
-0.00159836568776
-0.000261130525384
-0.00146446505275
-0.000259197810536
-0.00133261736742
-0.000255190557991
-0.00120392359289
-0.000249073880059
-0.00107946360401
-0.000240884315712
-0.000960255636938
-0.000230724872707
-0.000847285430832
-0.000218670639373
-0.000741476522922
-0.000204851193904
-0.000643729974134
-0.000189373538615
-0.000554747987605
-0.000172626785102
-0.0004748480558
-0.000155302294505
-0.000403879578343
-0.00013821479514
-0.000341310383034
-0.000122040650057
-0.000286467304918
-0.000107061869777
-0.000238718129222
-9.32679420943e-05
-0.000197489936546
-8.05739169769e-05
-0.000162247935255
-6.89245036801e-05
-0.00013247797484
-5.82750877544e-05
-0.000107702758916
-4.85755541515e-05
-8.7449234875e-05
-3.98212585146e-05
-7.11771220588e-05
-3.21237280724e-05
-5.82469677216e-05
-2.56278603825e-05
-4.80054171569e-05
-2.03507124299e-05
-3.98825640368e-05
-1.61480516749e-05
-3.3448169825e-05
-1.2785519175e-05
-2.83845533707e-05
-1.00612378459e-05
-2.44259461827e-05
-7.86323269878e-06
-2.13435983115e-05
-6.10535804188e-06
-1.89275694565e-05
-4.71503076277e-06
-1.69148714753e-05
-3.65025676259e-06
-1.52865488537e-05
-2.90595836771e-06
-1.40745448774e-05
-2.34558346597e-06
-1.31047998458e-05
-1.9137021283e-06
-1.21976348568e-05
-1.85896648494e-06
-1.1226139841e-05
-2.06621341697e-06
-1.00597362797e-05
-2.34924321695e-06
-8.6918132035e-06
-2.67374263073e-06
-7.10444579616e-06
-3.19004742829e-06
-5.10599154853e-06
-4.02579981961e-06
-2.53077080886e-06
-5.00802390013e-06
-4.9022001926e-06
-0.000214514924179
0.000626265387624
-0.000441067990031
0.000660398625176
-0.000665591921406
0.000654773168002
-0.000886577723819
0.000644757246444
-0.00110294317554
0.000631607118091
-0.0013137054279
0.000615597429506
-0.00151797904728
0.000597018383175
-0.00171499410521
0.000576186412265
-0.00190409429975
0.000553432648996
-0.00208474552709
0.000529088530184
-0.0022565230846
0.000503477051142
-0.0024191142014
0.000476901752662
-0.0025722981571
0.00044964246094
-0.00271594636207
0.000421948228748
-0.00284999883311
0.000394037529591
-0.00297446475741
0.000366094596844
-0.00308939788067
0.000338273051081
-0.00319489946349
0.000310694373409
-0.00329109409083
0.000283453589381
-0.00337813587822
0.000256618600263
-0.00345618527093
0.00023023676872
-0.00352541859143
0.000204334171919
-0.0035860058558
0.000178922351547
-0.00363812333075
0.000153997026268
-0.00368193213528
0.000129544710758
-0.00371759336079
0.000105540779858
-0.00374524727794
8.19559475192e-05
-0.00376503062795
5.87538379101e-05
-0.00377705638428
3.58974967986e-05
-0.00378143299596
1.33467068091e-05
-0.00377824490689
-8.93525085594e-06
-0.00376757362254
-3.09843114563e-05
-0.00374947934639
-5.28285042778e-05
-0.00372402392973
-7.44906052593e-05
-0.00369125401917
-9.59808205827e-05
-0.00365122570916
-0.000117299463121
-0.00360398947514
-0.000138429933672
-0.00354961604048
-0.000159342005073
-0.00348818287092
-0.000179985913249
-0.00341980006219
-0.000200297084127
-0.00334459740789
-0.000220192390548
-0.00326274829854
-0.000239577146353
-0.00317445567245
-0.000258344253912
-0.00307997138944
-0.000276383458214
-0.00297957930418
-0.000293582743168
-0.00287360830691
-0.000309837882955
-0.00276241248343
-0.000325052949593
-0.00264637898355
-0.000339145398861
-0.00252590943784
-0.000352039965017
-0.00240142923044
-0.000363662937441
-0.00227338014846
-0.000373924285668
-0.0021422426738
-0.000382699092453
-0.00200855156071
-0.000389802641341
-0.00187293758666
-0.000394974314865
-0.001736160457
-0.000397875971719
-0.00159914203861
-0.000398122883323
-0.00146295915852
-0.000395354596657
-0.00132879329495
-0.000389330767454
-0.00119782106729
-0.000380020582251
-0.0010711797448
-0.000367500770264
-0.000949884704843
-0.000351995825506
-0.000834962440122
-0.000333568853759
-0.000727362943811
-0.000312428672586
-0.000628232563252
-0.000288481855668
-0.000538544000354
-0.000262295365222
-0.000458721636542
-0.000235104799661
-0.000388481402201
-0.000208436764827
-0.000326943858369
-0.0001835606439
-0.00027316909396
-0.000160819489513
-0.000226436537261
-0.000139982954271
-0.00018618437665
-0.000120808338456
-0.000151884575089
-0.000103205945947
-0.000123024791299
-8.71168111806e-05
-9.91688628061e-05
-7.24138293668e-05
-7.99365467531e-05
-5.90362766748e-05
-6.48125700495e-05
-4.72304132087e-05
-5.30502644636e-05
-3.73732540533e-05
-4.38502118283e-05
-2.9533643976e-05
-3.65587754508e-05
-2.34231086314e-05
-3.07649172568e-05
-1.85632513723e-05
-2.62233596809e-05
-1.45871855814e-05
-2.27003740026e-05
-1.1370524328e-05
-1.99852111172e-05
-8.80531516428e-06
-1.78946353573e-05
-6.79077616654e-06
-1.62314748359e-05
-5.29914779678e-06
-1.48901802974e-05
-4.2328634541e-06
-1.36933217668e-05
-3.52716913489e-06
-1.25509344203e-05
-3.04015631701e-06
-1.16404493106e-05
-2.75188514299e-06
-1.08818787017e-05
-2.80431388443e-06
-9.71256900371e-06
-3.49500685538e-06
-8.1685106353e-06
-4.19175800117e-06
-6.41616688993e-06
-4.914578334e-06
-4.35020333989e-06
-6.0610554525e-06
-2.2264627804e-06
-7.09793477741e-06
-7.1114699196e-06
-0.000217935082971
0.000844212749437
-0.000447841030677
0.000890316880843
-0.00067564176846
0.000882586617834
-0.000899728648918
0.000868856721374
-0.00111895520068
0.000850846463315
-0.00133229204384
0.000828946970679
-0.00153882646302
0.0008035656888
-0.00173777293851
0.000775145686363
-0.00192847506009
0.000744147800182
-0.00211040613864
0.000711032547559
-0.00228316117631
0.000676245301922
-0.00244644996676
0.000640203662037
-0.00260008295765
0.00060328889102
-0.00274396097034
0.000565839579404
-0.00287805887664
0.000528149134922
-0.00300241534161
0.000490464657866
-0.00311711709585
0.00045298880795
-0.00322229074817
0.000415881922769
-0.00331808904805
0.000379266233742
-0.0034046855373
0.000343229332267
-0.00348226312933
0.000307829096372
-0.00355101152958
0.000273097208875
-0.00361111785267
0.000239043843704
-0.00366276635418
0.000205660606486
-0.00370613062261
0.000172924632898
-0.00374137512463
0.000140800852238
-0.00376864857739
0.000109245581112
-0.00378808695192
7.82083224588e-05
-0.00379980784903
4.76351519244e-05
-0.00380391484991
1.74704075244e-05
-0.00380049296647
-1.23397556732e-05
-0.00378961442978
-4.18455089856e-05
-0.00377133553961
-7.1089344084e-05
-0.003745704223
-0.000100103888844
-0.00371275864244
-0.000128907630699
-0.00367253671664
-0.000157502605875
-0.00362507674521
-0.000185870358598
-0.00357042879022
-0.00021397036653
-0.0035086569955
-0.000241737332198
-0.0034398519193
-0.000269081695507
-0.00336413325153
-0.000295889796663
-0.00328166103891
-0.000322027962652
-0.00319263631446
-0.000347346781678
-0.00309730809454
-0.000371689300922
-0.00299596881121
-0.000394898858291
-0.00288895416741
-0.000416829133046
-0.00277663174796
-0.000437351214025
-0.0026593940407
-0.000456358715181
-0.00253764389851
-0.000473765040613
-0.00241178864719
-0.000489492922132
-0.00228223569458
-0.000503451447138
-0.00214940619869
-0.000515502703306
-0.00201376299721
-0.000525419574844
-0.00187586441754
-0.000532846786304
-0.00173643112609
-0.000537282878136
-0.00159641260988
-0.000538115286217
-0.00145700283835
-0.00053473834413
-0.00131956592173
-0.000526741920669
-0.00118539935228
-0.000514161857462
-0.00105574781581
-0.000497127546324
-0.000931540653522
-0.000476178269475
-0.000813872368366
-0.000451214229295
-0.000703561843064
-0.000422715852285
-0.000602299284644
-0.000389723794226
-0.000511653654558
-0.000352920022888
-0.000432307444964
-0.000314431652599
-0.000363712816842
-0.000277012316404
-0.000304196911045
-0.000243059228613
-0.000252300698318
-0.000212697610121
-0.000207244112654
-0.000185022013414
-0.000168570998089
-0.000159462746169
-0.000135783514482
-0.000135974942134
-0.00010833160915
-0.000114550257986
-8.58476026942e-05
-9.48803852063e-05
-6.81938066209e-05
-7.66725721523e-05
-5.49620481894e-05
-6.04452725171e-05
-4.51571227217e-05
-4.71607510711e-05
-3.76580771173e-05
-3.70160596955e-05
-3.16376845564e-05
-2.94266170985e-05
-2.67653359409e-05
-2.34199600405e-05
-2.29878927724e-05
-1.83486557873e-05
-2.01185301481e-05
-1.42241034639e-05
-1.79622009217e-05
-1.09461018306e-05
-1.63759838437e-05
-8.36188386165e-06
-1.51890026191e-05
-6.47159595103e-06
-1.40739599269e-05
-5.33291764358e-06
-1.30547574713e-05
-4.53065297433e-06
-1.2137207099e-05
-3.94115017005e-06
-1.11016110989e-05
-3.76972486705e-06
-9.91717013632e-06
-3.96897507272e-06
-8.94313594855e-06
-4.44700007086e-06
-7.41763844024e-06
-5.69237351177e-06
-5.46562297845e-06
-6.8404038568e-06
-3.67003024872e-06
-7.83054993227e-06
-1.9011744455e-06
-8.83819975425e-06
-8.99714573697e-06
-0.000222500056349
0.00106672505172
-0.000457073724367
0.00112490331275
-0.000689367038031
0.00111489254051
-0.000917676038981
0.00109717847562
-0.00114077983051
0.00107396302719
-0.00135759152685
0.00104577148066
-0.00156716152539
0.00101314857384
-0.00176868599829
0.000976683077322
-0.00196150859152
0.000936983417032
-0.00214511697031
0.000894653994757
-0.0023191335557
0.000850275089418
-0.00248330361927
0.000804386985424
-0.00263748002617
0.000757478714006
-0.00278160801753
0.000709981059609
-0.00291570872937
0.00066226351643
-0.00303986466011
0.000614634344705
-0.00315420504274
0.000567343149914
-0.00325889411997
0.000520585063276
-0.0033541196351
0.000474506041338
-0.00344008444666
0.000429208556273
-0.00351699812303
0.00038475743776
-0.00358507149996
0.0003411853905
-0.00364451076817
0.000298498195241
-0.00369551425053
0.000256679328907
-0.00373826825865
0.000215694181989
-0.00377294542413
0.000175493736092
-0.00379970178144
0.000136017982029
-0.00381867623128
9.7199011758e-05
-0.0038299885942
5.89641005224e-05
-0.00383374010863
2.12387278594e-05
-0.00383001254394
-1.60501438618e-05
-0.00381886995615
-5.29706759838e-05
-0.00380035925969
-8.95822260034e-05
-0.00377451374204
-0.000125931313921
-0.00374135566357
-0.00016204719444
-0.00370090205034
-0.00019793738973
-0.00365316979055
-0.000233583337718
-0.00359818392397
-0.000268936591085
-0.00353598511416
-0.00030391601498
-0.00346663972508
-0.000338406546968
-0.00339024827886
-0.000372260187567
-0.00330695501695
-0.00040529970587
-0.00321695411701
-0.000437325617413
-0.00312049453835
-0.000468126307451
-0.00301787917938
-0.000497491078558
-0.0029094600839
-0.000525224554894
-0.00279562651193
-0.000551160569786
-0.00267678869421
-0.000575171818905
-0.00255335706705
-0.000597171496369
-0.00242572297099
-0.000617101457287
-0.00229424584813
-0.000634902713246
-0.00215925814324
-0.000650464273764
-0.00202109928214
-0.000663552329094
-0.00188019085913
-0.000673728732564
-0.00173715731707
-0.000680290351941
-0.00159296623048
-0.000682280107375
-0.00144900870227
-0.000678670002993
-0.0013070159354
-0.000668708933019
-0.00116844808571
-0.000652704343433
-0.00103480165326
-0.000630749097779
-0.000906635138426
-0.000604321178052
-0.000785267556332
-0.000572557476455
-0.00067069812388
-0.000537263841325
-0.000565866662618
-0.000494533345673
-0.000473650036204
-0.000445116889797
-0.000395306932677
-0.00039275405122
-0.000329846742906
-0.000342454053679
-0.000273712261706
-0.000299174739915
-0.000224510147123
-0.000261881892411
-0.000181641322044
-0.000227871732873
-0.000145056607612
-0.000196028691688
-0.000114308932629
-0.00016670325204
-8.86460485083e-05
-0.000140194675318
-6.77509310123e-05
-0.000115757893389
-5.21140321158e-05
-9.22925686352e-05
-4.1691968803e-05
-7.08498655854e-05
-3.48996649288e-05
-5.39367527264e-05
-2.99017496643e-05
-4.19964653847e-05
-2.55244077721e-05
-3.37881860367e-05
-2.1686701718e-05
-2.72417504784e-05
-1.88440854236e-05
-2.11756607141e-05
-1.68151658026e-05
-1.62368716416e-05
-1.53702067897e-05
-1.23751516193e-05
-1.44466868622e-05
-9.27003975639e-06
-1.38685920383e-05
-7.03465403463e-06
-1.32856356109e-05
-5.90018447957e-06
-1.25564121717e-05
-5.24355261943e-06
-1.14651941313e-05
-5.01560367632e-06
-1.03174712035e-05
-4.89955029638e-06
-9.13099176196e-06
-5.13577519325e-06
-7.99608999625e-06
-5.56077717903e-06
-6.81562525159e-06
-6.84988236967e-06
-5.02486584907e-06
-8.6078916054e-06
-3.21026192268e-06
-9.62171467916e-06
-1.62866594523e-06
-1.03946805181e-05
-1.06133235647e-05
-0.000228353577053
0.00129509102291
-0.000468976045768
0.00136553819517
-0.000707068324134
0.00135299762445
-0.000940804603327
0.00133092750725
-0.00116886903917
0.00130204032991
-0.00139010323264
0.00126701855528
-0.00160351191502
0.0012265702058
-0.00180827109581
0.00118145525698
-0.00200372785471
0.00113245325745
-0.00218939310553
0.00108033239899
-0.00236492849568
0.00102582373564
-0.00253012964379
0.000969601480354
-0.00268490702396
0.000912269564676
-0.00282926646189
0.000854354074665
-0.00296328996652
0.000796300740993
-0.00308711825281
0.000738476475022
-0.00320093494273
0.000681173847957
-0.00330495323366
0.000624617503085
-0.00339940446333
0.000568971603829
-0.00348452903895
0.000514347623966
-0.00356056886494
0.0004608119614
-0.00362776164862
0.000408393047854
-0.00368633612299
0.000357087768175
-0.00373650862962
0.000306867127641
-0.00377848010945
0.000257681199585
-0.00381243407118
0.000209463444502
-0.00383853462809
0.000162134550601
-0.00385692532875
0.000115605949994
-0.00386772792393
6.97832211348e-05
-0.00387104196173
2.45695350088e-05
-0.00386694440126
-2.01306216887e-05
-0.0038554903149
-6.44074136717e-05
-0.00383671389274
-0.000108340952912
-0.00381063097321
-0.000151996243697
-0.00377724228616
-0.000195417504552
-0.00373653871115
-0.000238622255683
-0.0036885076116
-0.000281595289382
-0.00363314147977
-0.000324283196961
-0.00357044762877
-0.000366589841908
-0.00350045985167
-0.000408373867653
-0.00342325018717
-0.000449448834502
-0.00333894107517
-0.00048958731555
-0.00324771520827
-0.000528529364016
-0.00314982257692
-0.000565996285191
-0.00304558136059
-0.000601708989817
-0.00293537188353
-0.000635410197921
-0.00281962079275
-0.0006668872136
-0.00269877619661
-0.000695991518925
-0.00257327394861
-0.000722648358113
-0.00244350057156
-0.000746849170446
-0.00230976013528
-0.000768617133896
-0.00217226097899
-0.000787937416993
-0.00203114280943
-0.00080464409585
-0.00188657700055
-0.000818268633825
-0.00173896381408
-0.000827877173366
-0.00158923062003
-0.000831987303538
-0.00143908213892
-0.000828792323371
-0.00129105280567
-0.000816712778387
-0.00114670140467
-0.000797030645665
-0.00100829408118
-0.000769132144045
-0.000875060518996
-0.000737530448575
-0.000749476872712
-0.00069811851076
-0.00062808597657
-0.000658632119772
-0.000517083419987
-0.000605515512498
-0.000422156107851
-0.000540023205649
-0.000345817301636
-0.000469073477939
-0.000286543114603
-0.000401709196788
-0.000236009024335
-0.000349690398422
-0.000190248189695
-0.000307623354926
-0.000149774028233
-0.000268326579564
-0.000115725840032
-0.000230057158287
-8.76742216689e-05
-0.000194735105502
-6.41065185657e-05
-0.000163743540111
-4.4526188751e-05
-0.00013532128795
-3.1046031444e-05
-0.000105755244314
-2.4812422696e-05
-7.70678692062e-05
-2.27235911634e-05
-5.60084754263e-05
-2.13477584377e-05
-4.33568556379e-05
-1.8795810138e-05
-3.63238614229e-05
-1.57056258706e-05
-3.03168422879e-05
-1.38943395429e-05
-2.2971069924e-05
-1.2905196787e-05
-1.72094995514e-05
-1.22680083649e-05
-1.29961726697e-05
-1.21705528089e-05
-9.35165654484e-06
-1.21477937206e-05
-7.04189818311e-06
-1.197045572e-05
-6.06165045579e-06
-1.16414855813e-05
-5.55607696145e-06
-1.11345866205e-05
-5.50532021131e-06
-1.01918305867e-05
-5.82336135597e-06
-8.8532762521e-06
-6.45446225534e-06
-7.24758765752e-06
-7.14683319373e-06
-6.00491745929e-06
-8.07201233374e-06
-4.74765571871e-06
-9.84332999355e-06
-3.05845626445e-06
-1.12904036684e-05
-1.54196085384e-06
-1.18901094606e-05
-1.21435902735e-05
-0.000235642218149
0.00153074559902
-0.000483808244386
0.00161371717799
-0.0007291157438
0.00159831784589
-0.000969577906821
0.00157140258335
-0.00120375777543
0.00153623309668
-0.00143040803696
0.00149368178819
-0.00164847934506
0.00144465452777
-0.00185712744814
0.00139011643841
-0.00205570984835
0.00133104880785
-0.00224377344239
0.00126840922462
-0.00242103556926
0.00120309918792
-0.0025873609972
0.00113594033364
-0.00274273711524
0.00106765921952
-0.00288724930431
0.000998879919191
-0.00302105785783
0.000930123078947
-0.00314437742263
0.000861809961019
-0.00325745937717
0.000794269869175
-0.00336057728824
0.000727749636406
-0.0034540152472
0.000662423947862
-0.00353805878646
0.000598405721356
-0.0036129879447
0.000535755856233
-0.00367907207173
0.000474492101692
-0.00373656595937
0.000414596776624
-0.00378570695218
0.000356023446589
-0.00382671274222
0.000298702523188
-0.00385977962133
0.00024254607811
-0.00388508103223
0.00018745193798
-0.00390276631536
0.000133307446829
-0.00391295963314
7.99929901763e-05
-0.00391575909835
2.73857108514e-05
-0.00391123624048
-2.46365095704e-05
-0.00389943597344
-7.61904231925e-05
-0.00388037733319
-0.000127382047272
-0.0038540552633
-0.000178300438043
-0.00382044384987
-0.000229010711841
-0.00377950128384
-0.000279546229828
-0.0037311769915
-0.000329900604334
-0.00367542105005
-0.00038001970229
-0.003612196139
-0.000429794863734
-0.00354149163175
-0.00047905794471
-0.00346333949037
-0.000527580023763
-0.00337783052655
-0.000575074703441
-0.00328512961439
-0.000621208113902
-0.00318548693195
-0.000665616123714
-0.00307924261455
-0.000707929873137
-0.00296682079292
-0.000747807927286
-0.00284871042599
-0.000784972978299
-0.00272542997308
-0.000819246842365
-0.0025974764757
-0.000850576396943
-0.00246526148867
-0.000879038336982
-0.00232904344078
-0.000904809308444
-0.00218887310913
-0.000928081611392
-0.00204458800478
-0.00094890346417
-0.00189591217892
-0.000966918056937
-0.00174275353384
-0.000981009924335
-0.00158578891824
-0.000988925849881
-0.00142715866566
-0.000987397061203
-0.00127136998018
-0.000972476116018
-0.00111940540531
-0.000948970191224
-0.00097626028952
-0.000912253736227
-0.000836466754581
-0.00087730071995
-0.000708182526926
-0.000826379385308
-0.000575045730505
-0.000791746311999
-0.000452733495287
-0.000727806149324
-0.000352802664135
-0.00063993312725
-0.00028028715281
-0.000541571381548
-0.00023407154351
-0.000447902778595
-0.000192716577107
-0.000391028203889
-0.00015027339203
-0.000350044296103
-0.000111388285951
-0.000307193612722
-8.02571706897e-05
-0.000261167320109
-5.61384400287e-05
-0.000218834411859
-3.5111057877e-05
-0.000184753638625
-1.54114017151e-05
-0.000155002793521
-3.32034127136e-06
-0.000117831826213
-3.77917784786e-06
-7.65917909915e-05
-9.54581300813e-06
-5.02269568207e-05
-1.35520781956e-05
-3.93337180815e-05
-1.24506022406e-05
-3.74092034285e-05
-8.77533083748e-06
-3.39771422286e-05
-8.12449357059e-06
-2.36056991847e-05
-8.55888065973e-06
-1.67587852261e-05
-8.70142299713e-06
-1.28370734662e-05
-9.76500569021e-06
-8.27188725486e-06
-1.06226157382e-05
-6.16856595736e-06
-1.10878861198e-05
-5.57985386683e-06
-1.10802751724e-05
-5.54704405152e-06
-1.06331649206e-05
-5.93487832713e-06
-9.7032146759e-06
-6.73489306061e-06
-8.60783022009e-06
-7.53058261345e-06
-7.14401307088e-06
-8.59089432283e-06
-5.5498716534e-06
-9.64686104173e-06
-4.45852569602e-06
-1.09165858426e-05
-2.99980484161e-06
-1.27299853054e-05
-1.51553462112e-06
-1.33545583608e-05
-1.36493244015e-05
-0.000244540089782
0.00177529824007
-0.0005019092748
0.00187109887696
-0.000755993818484
0.00185241535666
-0.00100460055159
0.00182002221046
-0.00124613889428
0.00177778445463
-0.00147925307835
0.00172680900246
-0.00170283178519
0.00166824632779
-0.00191601355569
0.00160331135692
-0.00211817819535
0.00153322666886
-0.00230892708369
0.00145917141397
-0.00248805582135
0.00138224131886
-0.00265552277871
0.00130342078332
-0.00281141660587
0.00122356665024
-0.00295592515497
0.00114340218765
-0.00308930745332
0.00106351922558
-0.00321186969918
0.000984386187556
-0.00332394557233
0.000906359869636
-0.00342588076276
0.000829699102077
-0.00351802124087
0.000754578863842
-0.00360070471567
0.000681103796739
-0.00367425458951
0.000609320508196
-0.00373897583599
0.000539228301384
-0.00379515220311
0.000470788286917
-0.00384304433658
0.00040393090917
-0.00388288840389
0.000338562121562
-0.00391489500531
0.000274568405939
-0.00393924810982
0.0002118209835
-0.00395610398234
0.000150179467001
-0.00396558997433
8.94953621216e-05
-0.0039678033394
2.96156791167e-05
-0.00396281008279
-2.96129040047e-05
-0.0039506442517
-8.83391436348e-05
-0.00393130777293
-0.000146701114887
-0.00390477151086
-0.000204818999003
-0.00387097775223
-0.000262786407726
-0.00382984497083
-0.000320660597921
-0.00378127506318
-0.000378451653399
-0.00372516396886
-0.000436111508128
-0.0036614155525
-0.000493523446612
-0.00358995932809
-0.000550493816378
-0.00351077100072
-0.000606747348986
-0.00342389530625
-0.000661928787532
-0.00332946833769
-0.000715612744187
-0.00322773679518
-0.000767324694627
-0.00311906894432
-0.000816574035026
-0.0030039526777
-0.000862899943093
-0.00288297416335
-0.000905926659151
-0.00275677283115
-0.0009454229656
-0.00262596871282
-0.000981354915042
-0.00249106297867
-0.00101391840551
-0.00235231536619
-0.00104353103956
-0.00220961496748
-0.00107075639676
-0.0020623798321
-0.00109611247263
-0.00190958241045
-0.00111969015812
-0.00175008535405
-0.00114048146528
-0.00158369142955
-0.00115529399554
-0.00141282169231
-0.00115824121505
-0.00124748381431
-0.00113778891766
-0.00108457654767
-0.00111185360418
-0.000939349235682
-0.0010574577658
-0.000789307085816
-0.00102731733562
-0.000667803254201
-0.000947858433148
-0.000511189533596
-0.000948334346192
-0.000366567979264
-0.000872406326995
-0.000256486798769
-0.00074999297165
-0.000189836563085
-0.000608199537995
-0.000171999305318
-0.000465722576284
-0.000143540237574
-0.000419463982482
-9.99812217917e-05
-0.000393586319195
-5.88083774006e-05
-0.000348345356544
-3.12572340231e-05
-0.000288700847234
-1.49550057628e-05
-0.000235119170567
8.29169447222e-07
-0.000200519591562
2.3480840057e-05
-0.000177639287298
3.6485860845e-05
-0.000130819841587
2.32291487249e-05
-6.33179447693e-05
2.81566715598e-06
-2.9798113795e-05
-9.72149850524e-06
-2.67773349034e-05
-8.26736723466e-06
-3.88493563114e-05
6.65449704377e-08
-4.2294125663e-05
-1.16921584241e-06
-2.23548760855e-05
-4.15717652775e-06
-1.37535465342e-05
-4.48871932301e-06
-1.24886819244e-05
-7.31930315786e-06
-5.42557698312e-06
-9.49778834537e-06
-3.97346597846e-06
-1.05995087165e-05
-4.46179128987e-06
-1.10892948589e-05
-5.03987225155e-06
-1.06462770397e-05
-6.36043752176e-06
-9.61089773463e-06
-7.75185238088e-06
-8.30411925237e-06
-8.81838013995e-06
-7.17048107498e-06
-9.70585095708e-06
-5.73982438668e-06
-1.10588672682e-05
-4.36825567025e-06
-1.22697335967e-05
-3.1107206823e-06
-1.39707094814e-05
-1.55284752821e-06
-1.48952572571e-05
-1.51923201437e-05
-0.000255268419374
0.00203057913411
-0.00052371575623
0.00213955935891
-0.000788328655365
0.00211704109938
-0.00104665019187
0.00207835680786
-0.00129689825081
0.00202804554386
-0.00153758643011
0.00196751028969
-0.00176753549319
0.00189820853538
-0.00198587471968
0.00182166379179
-0.00219202528627
0.00173939051148
-0.0023856697374
0.00165282922093
-0.00256671281177
0.00156329783833
-0.0027352385059
0.00147196002124
-0.0028914674958
0.00137980929063
-0.00303571793755
0.00128766639709
-0.00316837153973
0.00119618671818
-0.00328984574743
0.00110587442047
-0.00340057210718
0.0010171003919
-0.00350098025297
0.000930121561454
-0.00359148671642
0.00084509979134
-0.00367248752378
0.000762119232864
-0.00374435369061
0.000681201464717
-0.00380742867252
0.000602318248524
-0.00386202714681
0.000525401895549
-0.00390843445954
0.000450353539911
-0.00394690641231
0.000377049567675
-0.00397766896121
0.00030534663973
-0.0040009177233
0.000235085613386
-0.00401681703705
0.000166094851252