/*--------------------------------*- C++ -*----------------------------------*\
| =========                 |                                                 |
| \\      /  F ield         | OpenFOAM: The Open Source CFD Toolbox           |
|  \\    /   O peration     | Version:  v1906                                 |
|   \\  /    A nd           | Web:      www.OpenFOAM.com                      |
|    \\/     M anipulation  |                                                 |
\*---------------------------------------------------------------------------*/
FoamFile
{
    version     2.0;
    format      ascii;
    class       volScalarField;
    location    "460";
    object      p;
}
// * * * * * * * * * * * * * * * * * * * * * * * * * * * * * * * * * * * * * //

dimensions      [0 2 -2 0 0 0 0];


internalField   nonuniform List<scalar> 
9216
(
268.435240378
268.520399055
268.693246668
268.954134337
269.301636269
269.734011799
270.249128944
270.844496728
271.5173262
272.264554432
273.082910525
273.968933899
274.919041213
275.929534977
276.996668073
278.116640195
279.285658561
280.499921463
281.755675329
283.049185997
284.37679329
285.734871299
287.119882008
288.528326107
289.956797246
291.401924813
292.860430169
294.329062716
295.80465931
297.284074804
298.764245489
300.242115358
301.714704786
303.1790336
304.632195408
306.071279083
307.493449522
308.89586876
310.275783365
311.630446377
312.95721102
314.253454229
315.516675565
316.744422773
317.934394228
319.084366885
320.192300479
321.256268988
322.274565504
323.24563941
324.168201626
325.041169909
325.863773377
326.635505366
327.35622208
328.026096142
328.64569924
329.215944454
329.738142972
330.213924703
330.645264854
331.03437852
331.383723172
331.695879104
331.973550287
332.21945153
332.436321378
332.62682163
332.79356181
332.939011096
333.065533511
333.175312096
333.27039258
333.352618556
333.423682483
333.485073999
333.538138911
333.584039781
333.62381776
333.658359854
333.688458175
333.714781337
333.737930778
333.758448672
333.776620981
333.792127211
333.804868765
333.815058963
333.822862396
333.828602745
333.832642058
333.835394589
333.83722877
333.838337242
333.838891862
333.839082915
268.35017193
268.435757943
268.609242169
268.871348821
269.220504979
269.654916376
270.172404292
270.770438496
271.446184859
272.196542133
273.018195006
273.907648536
274.861279301
275.875362536
276.946117686
278.069725717
279.242367667
280.460231587
281.719544363
283.016569081
284.347631371
285.709108646
287.097452576
288.509171804
289.940852137
291.389134219
292.850732816
294.32241074
295.800998396
297.283365073
298.766439855
300.247181392
301.72260096
303.189731921
304.645656089
306.087473932
307.512335035
308.917410248
310.299926874
311.657143585
312.986390454
314.285046962
315.55058626
316.780556033
317.972625789
319.12457012
320.23431783
321.29993775
322.319689467
323.292013205
324.215583203
325.089303879
325.912366385
326.684250563
327.404780432
328.074124344
328.692838121
329.261850118
329.782480084
330.256398638
330.68561531
331.072407235
331.419279152
331.72887592
332.003942679
332.247248566
332.461561899
332.649587447
332.813953331
332.957160377
333.081580742
333.189419202
333.282720949
333.363341813
333.432964223
333.493079632
333.545015729
333.589930426
333.628844098
333.662637164
333.692080691
333.717833388
333.740466509
333.760455922
333.778190031
333.793477841
333.805990134
333.815879085
333.82353531
333.829194769
333.833103012
333.835758483
333.83755459
333.838598189
333.839093254
333.83929187
268.176591711
268.263272167
268.438508794
268.703223436
269.055798225
269.494379812
270.016713934
270.620190061
271.301887835
272.058622086
272.88699275
273.783427815
274.744229313
275.765609083
276.843727035
277.974717298
279.154717537
280.379885254
281.646418725
282.950564589
284.288631933
285.656992857
287.052091503
288.470439349
289.908620834
291.363284906
292.831148636
294.308986287
295.79363206
297.281967766
298.770925703
300.257475979
301.738630555
303.211431255
304.672956001
306.120308697
307.550628726
308.961083815
310.348883656
311.711276552
313.045567532
314.349118922
315.619372491
316.853853317
318.050194737
319.206144385
320.319590662
321.388570443
322.411297103
323.38617136
324.311813163
325.187079037
326.011100601
326.78330952
327.503479585
328.171750863
328.788661294
329.355152863
329.872577748
330.342674795
330.767541369
331.149570291
331.491382084
331.795740491
332.065490522
332.303496285
332.512601602
332.695583085
332.855121431
332.993766179
333.113920307
333.217817795
333.307517357
333.384885845
333.451598747
333.509136815
333.558802526
333.60173071
333.63891109
333.671199595
333.699338241
333.723963478
333.745620793
333.764766058
333.781818681
333.796503985
333.808238216
333.817520307
333.824892526
333.830314927
333.83396866
333.836504592
333.838166782
333.839115005
333.839613577
333.839861474
267.912344841
268.000434005
268.178380116
268.447125259
268.804974534
269.249978276
269.779766893
270.391603956
271.08243679
271.84894817
272.687608699
273.594725295
274.566487624
275.599008058
276.688358381
277.830599013
279.021805154
280.258085543
281.535599157
282.850565152
284.199272083
285.578081117
286.983429842
288.411830708
289.859871191
291.32420904
292.8015702
294.288742084
295.782570339
297.279951147
298.77782774
300.273182723
301.763035429
303.244435225
304.714460714
306.170215308
307.608829564
309.027460247
310.423296885
311.793565273
313.135538816
314.446546623
315.723989196
316.965350129
318.168214549
319.330282564
320.449388517
321.5235149
322.550812233
323.529615119
324.458466526
325.336141739
326.161683442
326.934438282
327.654102144
328.320760084
328.934922578
329.497543447
330.010027432
330.474214073
330.892347148
331.267004175
331.600999871
331.897281795
332.158853495
332.388718301
332.589838981
332.765096624
332.917256081
333.048935061
333.162586235
333.260482937
333.344709664
333.417146958
333.479463394
333.533116481
333.579370362
333.619317665
333.653903261
333.683941657
333.710134817
333.733085085
333.753307571
333.771240723
333.787294113
333.800879947
333.811609924
333.820200288
333.826900642
333.831860087
333.835346477
333.837694132
333.839197845
333.840094627
333.840595189
333.840842043
267.556113895
267.646072797
267.827729308
268.101997784
268.467069789
268.920857161
269.460828455
270.084070723
270.787347387
271.567157493
272.419793611
273.341395785
274.328000927
275.375585812
276.480104262
277.637517407
278.843818469
280.095051347
281.387324919
282.71682234
284.07980749
285.472627596
286.891714263
288.333581637
289.794823936
291.272110782
292.762182595
294.261844254
295.767959345
297.27744302
298.787255877
300.294396919
301.795898164
303.288818594
304.770240476
306.237265764
307.687015637
309.116630786
310.52327558
311.904143491
313.256466732
314.577527126
315.864670752
317.115322927
318.327005645
319.497353771
320.624132107
321.705250188
322.73877791
323.722960624
324.656238756
325.537272693
326.364978745
327.138575485
327.857641074
328.522171475
329.13263115
329.689979892
330.195690682
330.651737495
331.060578795
331.425070098
331.748318479
332.033532384
332.283930728
332.502699273
332.692960383
332.857734906
332.99990155
333.122165508
333.227043228
333.316857878
333.39373267
333.459569535
333.516028507
333.564528244
333.606273242
333.642291339
333.673464277
333.700548002
333.724191026
333.744949825
333.763302892
333.779695942
333.794303061
333.806405101
333.815962938
333.823633735
333.829709793
333.834181658
333.837281373
333.839392275
333.840785971
333.841629002
333.84211383
333.842356083
267.105953827
267.198307469
267.384748571
267.666141125
268.04052165
268.505614565
269.058672039
269.69654649
270.415758642
271.212566333
272.083030288
273.023074544
274.028540195
275.095231368
276.218953451
277.395543549
278.620894043
279.890969735
281.201819789
282.549585009
283.93050165
285.340902113
286.777213544
288.235954446
289.713730139
291.207226937
292.713205778
294.228494995
295.749982934
297.27461003
298.799360987
300.321256919
301.837348152
303.344707212
304.840423229
306.321597435
307.785340935
309.228774493
310.649031532
312.043263929
313.408651566
314.742414768
316.041830024
317.30424741
318.527109408
319.707968932
320.844506079
321.934541842
322.976049697
323.967165808
324.906202393
325.791668979
326.622309323
327.397158373
328.115619807
328.777552534
329.383346407
329.933952346
330.430921393
330.876387228
331.2731094
331.624356798
331.933669344
332.204606879
332.440652158
332.64520804
332.821595083
332.973012711
333.102484678
333.212819398
333.306603387
333.386217504
333.453841595
333.511416743
333.560594065
333.602728982
333.638931602
333.670134677
333.697135429
333.720612829
333.741146074
333.759230083
333.775285925
333.789713901
333.802483765
333.812914573
333.821322166
333.828109048
333.833358268
333.837096138
333.839845067
333.841733587
333.842966254
333.843815058
333.844298879
333.844544783
266.559373215
266.654707739
266.847111349
267.137377123
267.523337879
268.002472752
268.571752694
269.227727286
269.966606363
270.784341185
271.67670044
272.639338579
273.667854902
274.757842627
275.904928101
277.104800727
278.353234694
279.646103636
280.97938953
282.349186922
283.751703595
285.183258466
286.640277498
288.119288079
289.61691236
291.129859739
292.654918811
294.188948779
295.728870588
297.271657719
298.814326804
300.353928357
301.887537813
303.41224684
304.925155754
306.423367299
307.903982543
309.364099361
310.800814297
312.21122821
313.592456178
314.941641569
316.255973948
317.532709706
318.769193885
319.962880995
321.111352548
322.212329263
323.263677157
324.263409029
325.209686235
326.100829889
326.935354322
327.712035211
328.430019413
329.088957104
329.689127767
330.23144132
330.71753205
331.149680422
331.531058237
331.865568488
332.15740942
332.410592821
332.628882538
332.81590988
332.975230477
333.11027346
333.22424417
333.320062722
333.400374955
333.467617145
333.524056968
333.571717879
333.612248042
333.64689615
333.676616174
333.702203305
333.724349356
333.74363821
333.760564429
333.775549057
333.788943607
333.801089378
333.811776679
333.820480845
333.827593435
333.833265569
333.837576777
333.840767106
333.843166594
333.844844548
333.845917639
333.846717728
333.847183841
333.847417177
265.913269615
266.012242903
266.211923041
266.513006115
266.913062023
267.409253938
267.998193044
268.676044411
269.438626603
270.281508743
271.200099416
272.189724525
273.24569246
274.363346196
275.538102906
276.76548234
278.041125593
279.360806021
280.72043399
282.116056962
283.543856216
285.000141183
286.481342186
287.984002117
289.504767427
291.040378649
292.58766058
294.14351217
295.704896132
297.268828271
298.832366446
300.392599587
301.94663675
303.491596246
305.024595671
306.54274328
308.043131495
309.52283334
310.978902778
312.408379732
313.808300507
315.17571378
316.507701888
317.801406069
319.054053568
320.262983276
321.425666113
322.539716059
323.602889349
324.613071866
325.568260706
326.466552972
327.306164321
328.085505554
328.803339558
329.4589977
330.052621262
330.585013546
331.057915606
331.473603569
331.835811291
332.149470806
332.419853773
332.651506974
332.848397765
333.014343747
333.153181164
333.268652642
333.364200764
333.442850841
333.507254896
333.559874707
333.60312576
333.639222729
333.669837042
333.696021857
333.718454984
333.737733628
333.75443776
333.769040688
333.781937437
333.793467915
333.80390523
333.81351712
333.821889655
333.828802187
333.834492045
333.839044901
333.84253811
333.845250767
333.847211939
333.848685611
333.849683782
333.850327601
333.850777693
333.850988796
265.163856419
265.267217008
265.475663281
265.789759747
266.206738687
266.723359116
267.335775357
268.039668558
268.830369888
269.702977954
270.652463663
271.673759246
272.761829966
273.911728698
275.118634753
276.377879118
277.68495857
279.03554115
280.425465286
281.850734454
283.30750895
284.792095879
286.300938185
287.830603233
289.377771237
290.939223668
292.51183165
294.092544264
295.678376671
297.266397897
298.853718093
300.437475604
302.014823785
303.582917446
305.138899943
306.679891387
308.20297893
309.705210269
311.183591626
312.63509155
314.05665162
315.445204816
316.797701372
318.11114091
319.382607928
320.609306108
321.788585134
322.917953065
323.995067685
325.017703988
325.983701763
326.890910582
327.73716803
328.520366323
329.238679932
329.890929101
330.477166767
330.997935752
331.455250013
331.850784198
332.189037455
332.476749316
332.72114151
332.92723637
333.098872268
333.239906838
333.354545659
333.447018871
333.521112647
333.579916414
333.625941453
333.661559367
333.689455256
333.712317302
333.731917896
333.748915969
333.763456134
333.775857338
333.786642214
333.79616081
333.804688861
333.812490134
333.819754662
333.826610666
333.832596214
333.837703075
333.841966205
333.845428108
333.848177434
333.850337385
333.851991441
333.853203946
333.85409939
333.854615971
333.855055043
333.855239735
264.306569501
264.415181932
264.634110459
264.963740188
265.400870141
265.941742832
266.581933865
267.316517709
268.140221873
269.047570189
270.033007108
271.090999429
272.216114444
273.403075682
274.646798891
275.942411716
277.285260705
278.670909114
280.095128469
281.553886292
283.043331751
284.559780505
286.099699486
287.659692084
289.236483871
290.826908883
292.42789628
294.036457197
295.64967146
297.264673945
298.878640106
300.488771011
302.092277594
303.686363968
305.268210861
306.834959731
308.383698727
309.911451969
311.415173956
312.891751001
314.338011656
315.750747555
317.126745282
318.46282821
319.755905017
321.003018616
322.201386338
323.348419299
324.441708496
325.478966807
326.457925002
327.376197
328.231164108
329.019977304
329.739866661
330.388736964
330.966936457
331.474263632
331.913898321
332.284847767
332.59270351
332.84765438
333.060954469
333.237455963
333.379890973
333.491839862
333.57812131
333.643855678
333.693385373
333.729768615
333.754999858
333.771012317
333.780995567
333.788852885
333.796677797
333.804241756
333.810572333
333.815623588
333.820126334
333.824276562
333.828179343
333.83206086
333.835995339
333.839990095
333.843696346
333.847050482
333.849920739
333.852311044
333.854301085
333.855946462
333.8573463
333.858410138
333.859127519
333.859585319
333.859979483
333.86015579
263.335947494
263.450826502
263.682245395
264.030344418
264.491364148
265.060885464
265.733750056
266.504272381
267.366434393
268.314061517
269.340970186
270.441083385
271.608514188
272.837620145
274.123033082
275.45966964
276.842727783
278.267673963
279.730224758
281.226325838
282.752130275
284.303977409
285.87837296
287.471970616
289.081555073
290.704026303
292.336384729
293.975716853
295.619180899
297.263991902
298.907405755
300.546702117
302.179165899
303.802066948
305.412639034
307.008058715
308.585425505
310.141745195
311.67391874
313.17873955
314.652902187
316.093025312
317.495690675
318.857498145
320.175133382
321.445440692
322.665487878
323.832604928
324.944373888
325.998546057
326.992867942
327.924814295
328.791278692
329.588357893
330.311689592
330.957189174
331.527122952
332.0186801
332.440169771
332.781130714
333.049030999
333.261105864
333.438133664
333.581849384
333.691346473
333.769474156
333.822416807
333.857125741
333.878953777
333.890735129
333.893083219
333.886490721
333.875014009
333.865784682
333.861796661
333.860654651
333.858868538
333.856011474
333.853977657
333.852628462
333.851711693
333.851589514
333.852137589
333.853310699
333.854832059
333.856475756
333.858055551
333.859544421
333.860922338
333.862144982
333.863220764
333.864128178
333.864789366
333.865209956
333.865531456
333.865710903
262.245477129
262.367832542
262.614128997
262.984170071
263.473472164
264.076764118
264.787953759
265.600402101
266.507171266
267.501241385
268.575685316
269.723798153
270.93918351
272.215802156
273.54799048
274.930456728
276.358262397
277.82679497
279.331736724
280.869032955
282.434861636
284.025605645
285.63782791
287.268249431
288.913729819
290.571249914
292.237895845
293.910843966
295.587345856
297.264712634
298.940297857
300.611478481
302.275633384
303.930119034
305.572243097
307.199236712
308.808226971
310.396211901
311.96004107
313.496405744
315.001843254
316.472760348
317.905479681
319.296311409
320.641647968
321.938073589
323.182472106
324.372106689
325.504636068
326.578023218
327.590285598
328.539039227
329.420831371
330.230342105
330.960461449
331.601672208
332.164350447
332.635466377
333.044715586
333.34901759
333.560791074
333.712160037
333.849206356
333.959344438
334.032677123
334.071135205
334.084380035
334.08308392
334.074517646
334.060867401
334.039558805
334.006662503
333.967509026
333.938170867
333.924094488
333.917170169
333.907933566
333.895866124
333.887168358
333.880478719
333.874508355
333.870444389
333.867659333
333.866163564
333.86562834
333.865726545
333.866244969
333.867021037
333.867909583
333.868775013
333.869602857
333.870319123
333.870943643
333.871392082
333.871637817
333.871808656
261.027392256
261.158690224
261.42274644
261.81889919
262.341717233
262.984824576
263.740934632
264.602209043
265.560575154
266.60799366
267.736663952
268.939165912
270.208543661
271.538341241
272.922601978
274.355843176
275.833016242
277.349460247
278.900854578
280.483174273
282.092649929
283.725732826
285.379065161
287.04945479
288.733853763
290.429339823
292.133100054
293.842415775
295.554647724
297.267220281
298.977603877
300.683294368
302.381788727
304.070556257
305.747005948
307.408450582
309.052069244
310.674870844
312.273662503
313.845028108
315.385323678
316.890697319
318.357141478
319.780583652
321.157016709
322.482662098
323.754146585
324.968658423
326.124033542
327.218703409
328.25140903
329.220542925
330.122945239
330.951779392
331.695489957
332.327211033
332.888184242
333.321865638
333.744780494
334.003325708
334.129808688
334.191276581
334.314754694
334.408202286
334.444961696
334.430972608
334.388041029
334.337674757
334.291975556
334.251714734
334.205497617
334.136236521
334.053003284
333.997371601
333.97951426
333.97478181
333.959079247
333.933316194
333.918254001
333.907295131
333.89562216
333.887958762
333.881966826
333.878074454
333.875748169
333.874668981
333.874363531
333.874576381
333.875044344
333.875637529
333.876305995
333.87694178
333.877506598
333.878004899
333.878202592
333.878379197
259.672410517
259.814456712
260.099808429
260.527154747
261.089811765
261.779958494
262.588771201
263.506897444
264.524864357
265.633408106
266.823711807
268.087554523
269.417383021
270.806323074
272.248148367
273.737223628
275.268435553
276.837121475
278.439002197
280.070122482
281.726800443
283.405585661
285.103224993
286.816634796
288.542878218
290.279146448
292.022742805
293.771068638
295.521609714
297.271921526
299.019612161
300.762320912
302.497691429
304.22333835
305.936807541
307.635530408
309.31677375
310.977587934
312.614757827
314.224763131
315.803757253
317.347576388
318.851792129
320.311820424
321.723095282
323.081305145
324.382673036
325.624239504
326.8040883
327.921429508
328.976418057
329.969451688
330.899524184
331.759687984
332.533956229
333.133551913
333.721343997
334.068962444
334.684629211
334.882937096
334.830095251
334.546484053
334.382709611
334.38206665
334.414724386
334.429653222
334.421677852
334.405196226
334.390721472
334.374189786
334.336502929
334.248053408
334.10533827
334.01365591
334.019266358
334.041762601
334.01856143
333.964027008
333.945234708
333.933780485
333.913518702
333.903459913
333.894391653
333.888558649
333.884881511
333.883011207
333.882158264
333.882006785
333.882201927
333.882637534
333.883222866
333.883846446
333.884448501
333.884966243
333.885203479
333.88539795
258.169384761
258.324441071
258.635495974
259.100324449
259.71056648
260.456493102
261.327288453
262.311681484
263.39847193
264.576933076
265.837080618
267.169817937
268.566979786
270.021301663
271.526341938
273.076379969
274.666307863
276.291527722
277.947861042
279.631472953
281.338811176
283.066558028
284.811593083
286.570964117
288.341864371
290.121614586
291.907648695
293.697501951
295.488800064
297.279247132
299.066610577
300.848700199
302.623339613
304.388328414
306.14139474
307.88013819
309.60196422
311.304012421
312.983083347
314.635571479
316.257416143
317.844086844
319.390624022
320.891759133
322.342134699
323.736633864
325.070804722
326.341331481
327.546486324
328.686493192
329.76370361
330.782380492
331.747618384
332.659471038
333.518762943
334.015035409
334.833142668
334.611138882
334.629104938
334.751330147
334.742533549
334.63699937
334.529307217
334.476542117
334.455727211
334.436452073
334.40919694
334.378924918
334.34803723
334.311946175
334.26488155
334.208111019
334.159762456
334.147028855
334.173587623
334.194146961
334.122227407
333.959900667
333.956646617
333.963296437
333.924494285
333.916735727
333.904172199
333.897007012
333.892574997
333.890478017
333.889352114
333.889179475
333.889311741
333.88971933
333.890306443
333.890992382
333.891668265
333.8922579
333.892649186
333.89284921
256.504835997
256.67578539
257.018131067
257.528344894
258.19579465
259.008205507
259.952160961
261.01395011
262.180244464
263.438583736
264.777666888
266.187472894
267.659250087
269.185417221
270.759415925
272.375546194
274.028807036
275.714755411
277.429389296
279.169055547
280.930379947
282.710215352
284.50560349
286.313746626
288.131986271
289.957787301
291.788726401
293.622484014
295.456838106
297.289657077
299.118888969
300.942543002
302.758660571
304.56527365
306.360349464
308.141720909
309.907002856
311.653495826
313.378080813
315.077113107
316.7463288
318.380785639
319.97486939
321.522405457
323.016918626
324.452071106
325.822277691
327.123428006
328.353649035
329.514070823
330.609680566
331.650640017
332.656579123
333.672468163
334.919869638
334.698952134
334.70476978
334.770928203
334.72301724
334.734732837
334.699377804
334.615781586
334.529778478
334.474098115
334.440503661
334.410825996
334.379720552
334.348433289
334.315350368
334.27862836
334.23709768
334.19381618
334.158541043
334.141140452
334.138793667
334.13018762
334.102815923
334.097237244
334.120216829
334.062437164
333.906856664
333.924319622
333.909796435
333.902487217
333.89839114
333.896901681
333.895782307
333.896175223
333.896388782
333.896774325
333.897449242
333.898307876
333.899162504
333.899910199
333.90046633
333.900701012
254.662318664
254.852904652
255.23374851
255.79943966
256.536220479
257.428381881
258.459087663
259.611515833
260.869724571
262.219224595
263.647270217
265.142918689
266.696923476
268.301528221
269.950218151
271.637470765
273.358531922
275.109230238
276.885832803
278.684938922
280.50340515
282.338293813
284.186837694
286.04641516
287.914532142
289.788809366
291.666974694
293.546860446
295.426404415
297.303650897
299.176747617
301.043932572
302.903506718
304.753789775
306.593057578
308.419459643
310.230915808
312.024991104
313.798750523
315.548599537
317.270124335
318.957957303
320.605710217
322.206037841
323.750909933
325.232164278
326.642369298
327.975861056
329.229819995
330.405262939
331.507733677
332.547966003
333.547555714
334.569137273
334.781727727
334.863228425
334.779591073
334.765754153
334.723119425
334.695099445
334.644686006
334.568982403
334.492792559
334.434909312
334.392947861
334.357344151
334.325143686
334.295216339
334.264526694
334.232341022
334.198949406
334.166835783
334.141183546
334.12602726
334.118075746
334.107249222
334.08903099
334.077489391
334.071982521
334.056785953
334.062252703
334.045491882
333.914508201
333.89755871
333.901513562
333.902128297
333.901229458
333.903299599
333.903317493
333.903580066
333.904514755
333.905716303
333.906909137
333.907885181
333.908624876
333.908932534
252.621544096
252.8367243
253.265536225
253.89980567
254.721409756
255.70995489
256.844078405
258.102986739
259.467550204
260.920950471
262.448925801
264.039706079
265.683745385
267.373352979
269.102302068
270.865469099
272.658531794
274.477735317
276.319723398
278.181424241
280.059978054
281.952693052
283.857018645
285.770527685
287.690903355
289.61593
291.543489583
293.471565985
295.398256426
297.321785433
299.240514335
301.152937723
303.057660539
304.953353163
306.838682609
308.712218476
310.572310232
312.416931466
314.243487842
316.048589824
317.827800059
319.575380592
321.284091834
322.945133132
324.548363997
326.082955658
327.538620623
328.907089958
330.183624411
331.368295891
332.467140708
333.497941128
334.518261664
334.664363684
334.761322089
334.805025339
334.760534704
334.720491649
334.670052255
334.618554544
334.555668006
334.481813529
334.410040596
334.35101038
334.305024212
334.268128501
334.237871228
334.211217518
334.185652561
334.160789728
334.137148516
334.116405956
334.101067962
334.092266455
334.087323255
334.080914424
334.070246021
334.060238515
334.052280209
334.040138626
334.032248246
334.019159087
334.023119482
334.010864702
333.915130987
333.903725845
333.904696191
333.911486167
333.910016776
333.909878831
333.911403451
333.913224991
333.914896676
333.91621593
333.91716714
333.91757334
250.357147697
250.603631096
251.093099692
251.813248167
252.739757156
253.845774348
255.103913664
256.488318547
257.976015819
259.547596095
261.187326704
262.882858924
264.624701641
266.405611036
268.220003619
270.063454921
271.932308914
273.823398091
275.733859414
277.661024965
279.602364751
281.555461247
283.517999124
285.48775901
287.462610298
289.440504154
291.41947257
293.397640346
295.373251368
297.344702569
299.310573693
301.269639204
303.220853357
305.163306241
307.096150718
309.018499877
310.929289087
312.827092153
314.709880565
316.574717161
318.417383526
320.231955258
322.010375169
323.742140039
325.414327799
327.012266044
328.52137747
329.929304916
331.227963287
332.415958369
333.506508407
334.55815499
334.668984333
334.714583122
334.750803647
334.748409747
334.698644678
334.636453342
334.56716916
334.496146598
334.422128454
334.346928192
334.277478285
334.219725884
334.174557107
334.140827847
334.1155957
334.094739605
334.076815014
334.061480607
334.048900501
334.039816257
334.035111682
334.0346411
334.036387845
334.037394492
334.036139245
334.034212864
334.031738373
334.025294678
334.017654922
334.008560481
334.003429441
333.994237303
334.003550878
333.990182917
333.905441277
333.923288965
333.915714063
333.914943116
333.918012429
333.920911977
333.923229343
333.924999902
333.926170956
333.926713955
247.836918683
248.12400365
248.691493959
249.520777619
250.578594394
251.829100896
253.236871062
254.769628094
256.399855581
258.105410492
259.869350267
261.679246189
263.526252196
265.404146521
267.308485439
269.235934016
271.183785144
273.149646696
275.131262525
277.126429667
279.132976552
281.148772321
283.171744114
285.199887403
287.231263788
289.263991135
291.296239291
293.326248911
295.352378538
297.373170412
299.387412485
301.394174358
303.392803631
305.382883382
307.364155887
309.336417579
311.299375478
313.25244583
315.194471922
317.123338204
319.035459144
320.925127146
322.783738589
324.599002789
326.354482008
328.02994483
329.604443233
331.059252748
332.381186288
333.573494411
334.693825159
334.763496941
334.747887386
334.731127453
334.708596763
334.659437544
334.583177135
334.49698255
334.408545028
334.322518423
334.240400133
334.164199492
334.097698042
334.044110358
334.0041822
333.976905098
333.95884514
333.946266915
333.938147298
333.934019642
333.933599397
333.936864184
333.943754705
333.953586622
333.964779835
333.975445752
333.984485385
333.992083436
333.997900472
334.000540556
334.000940716
333.998818113
333.995004364
333.989958965
333.989829314
333.984958967
333.990973671
333.969426223
333.91642254
333.916808194
333.924469814
333.929117161
333.932210669
333.93440011
333.935811459
333.936506488
245.01919663
245.360125435
246.029954743
247.000214067
248.224536028
249.654468696
251.243860128
252.952383448
254.747326887
256.603936532
258.504696892
260.437990215
262.39654771
264.376003445
266.37372024
268.387937298
270.417215709
272.460124907
274.515105159
276.580445986
278.654329341
280.734896573
282.820308036
284.908775374
286.99855999
289.08794782
291.175226953
293.258708515
295.336803684
297.408142108
299.471686683
301.526805458
303.573281228
305.611265668
307.641197309
309.66370292
311.679466766
313.689033868
315.692508926
317.689110846
319.676532779
321.65003332
323.601185402
325.516267911
327.374734959
329.14807913
330.805765652
332.319853454
333.677645755
334.932833802
334.963388456
334.868891169
334.781668122
334.702570127
334.617551303
334.519779616
334.411453449
334.301826432
334.196976498
334.100497823
334.014105439
333.939224821
333.877707497
333.831058628
333.799637714
333.781371374
333.772303468
333.76976463
333.772913087
333.781043466
333.793481961
333.809680203
333.829040527
333.85063101
333.873106182
333.89503218
333.915395394
333.933786191
333.949718938
333.962501541
333.972354055
333.979133398
333.983192272
333.984556141
333.984251711
333.981906117
333.982733526
333.988301775
333.971008817
333.91128514
333.931086483
333.938505377
333.942193931
333.944604051
333.94626796
333.947089285
241.848935101
242.263170794
243.070262419
244.225912587
245.664273116
247.319152012
249.130176491
251.047130445
253.031692241
255.057134814
257.10663436
259.170875562
261.245581068
263.329404787
265.422372391
267.524862206
269.637029382
271.758553939
273.888604048
276.025926419
278.168995531
280.31616907
282.465809468
284.616344213
286.766254865
288.914011271
291.057996641
293.196518329
295.327929141
297.450838509
299.56431618
301.668017571
303.762203396
305.847673146
307.925662814
309.997766266
312.065848868
314.131893304
316.197720632
318.264536819
320.332232294
322.398273765
324.455933634
326.491439758
328.480407883
330.380911292
332.148532521
333.75298443
335.244063736
335.262224057
335.080221226
334.910209723
334.759519913
334.612971811
334.467915791
334.324790814
334.186131119
334.05683796
333.940483939
333.838954642
333.75294289
333.68277731
333.628873585
333.591611163
333.570718666
333.562918792
333.563979849
333.572467749
333.587557267
333.608271246
333.633650256
333.662823554
333.694903125
333.728845389
333.763430388
333.797429562
333.829845319
333.859998999
333.887281984
333.911121279
333.931384727
333.947939041