/*--------------------------------*- C++ -*----------------------------------*\
| =========                 |                                                 |
| \\      /  F ield         | OpenFOAM: The Open Source CFD Toolbox           |
|  \\    /   O peration     | Version:  v1906                                 |
|   \\  /    A nd           | Web:      www.OpenFOAM.com                      |
|    \\/     M anipulation  |                                                 |
\*---------------------------------------------------------------------------*/
FoamFile
{
    version     2.0;
    format      ascii;
    class       surfaceScalarField;
    location    "296";
    object      phi;
}
// * * * * * * * * * * * * * * * * * * * * * * * * * * * * * * * * * * * * * //

dimensions      [0 3 -1 0 0 0 0];
oriented        oriented;


internalField   nonuniform List<scalar> 
18240
(
-0.000352908492691
0.000352834986152
-0.000739345372839
0.000386344472739
-0.00112543170973
0.000386012841213
-0.00150658915736
0.000381060734383
-0.00188069930661
0.000374041044964
-0.00224608206221
0.000365281727051
-0.00260115915133
0.000355012420912
-0.00294465051621
0.000343385898212
-0.00327531446523
0.000330603829758
-0.00359223250759
0.000316808032118
-0.00389449052955
0.000302202734485
-0.00418151990184
0.000286914693671
-0.00445271010695
0.000271139940409
-0.00470780824627
0.000254978661148
-0.00494646281467
0.000238609707304
-0.00516868728923
0.000222100075889
-0.00537433484575
0.000205608372642
-0.0055636316386
0.000189167387679
-0.00573658165377
0.000172917024526
-0.00589357453059
0.000156858425664
-0.00603471811826
0.000141117169343
-0.00616052477365
0.000125667191883
-0.00627116881184
0.00011062485391
-0.00636725452227
9.59413480914e-05
-0.00644899469364
8.17287006501e-05
-0.00651706301242
6.79192813945e-05
-0.0065716904599
5.46244827003e-05
-0.00661360436675
4.17605273658e-05
-0.00664303921423
2.94409412889e-05
-0.00666076428655
1.756782587e-05
-0.00666700719017
6.25894154348e-06
-0.00666257034118
-4.59735231546e-06
-0.00664766236166
-1.48814205845e-05
-0.00662310739007
-2.47179365327e-05
-0.00658908996634
-3.39794255268e-05
-0.00654645225855
-4.28021869455e-05
-0.0064953479212
-5.1054369581e-05
-0.00643662860425
-5.88841672164e-05
-0.0063704112016
-6.61545997729e-05
-0.00629755020165
-7.30249170543e-05
-0.00621812139379
-7.93527696922e-05
-0.00613297557018
-8.5307304232e-05
-0.00604214461387
-9.07409661966e-05
-0.00594647030945
-9.58317023572e-05
-0.00584593944087
-0.00010042675169
-0.00574137967023
-0.00010471127117
-0.00563273323969
-0.000108527732283
-0.0055208099162
-0.000112067027452
-0.00540550958515
-0.000115167206585
-0.0052876204837
-0.000118023017663
-0.00516700389768
-0.000120468960429
-0.00504442407925
-0.000122701974749
-0.00491970868515
-0.000124553847954
-0.00479359537394
-0.000126221765694
-0.00466588411889
-0.00012753619065
-0.00453728416577
-0.000128692923302
-0.00440757419242
-0.000129522457597
-0.00427743265888
-0.000130217419556
-0.0041466234529
-0.000130610168354
-0.00401579222547
-0.000130888741501
-0.0038846941413
-0.000130889078347
-0.00375393918668
-0.000130793138735
-0.00362327919063
-0.000130442450009
-0.00349328574563
-0.000130011771422
-0.00336371166784
-0.000129349937772
-0.00323508668609
-0.000128623339386
-0.00310716785477
-0.000127689879455
-0.00298043987111
-0.000126706721007
-0.00285466609786
-0.000125542135965
-0.00273028279154
-0.000124343173099
-0.002607060748
-0.000122989606037
-0.00248538513696
-0.000121617744776
-0.00236503447361
-0.000120119466004
-0.00224634058506
-0.000118619729519
-0.00212908950538
-0.000117022871717
-0.00201355862488
-0.000115442129611
-0.00189954099056
-0.000113794192678
-0.0017872592573
-0.00011218025861
-0.00167651301592
-0.000110529066279
-0.00156747114118
-0.000108929646807
-0.00145993952234
-0.0001073221631
-0.00135403512605
-0.000105783369224
-0.00124957049567
-0.000104264060372
-0.00114661389156
-0.000102828544604
-0.00104498604725
-0.000101436983349
-0.000944711881923
-0.000100140355964
-0.000845625551317
-9.89052896582e-05
-0.000747721923956
-9.77649791877e-05
-0.000650869997572
-9.66807863954e-05
-0.000555086577247
-9.56423782448e-05
-0.000460388719107
-9.45392248608e-05
-0.000367099598255
-9.31496698441e-05
-0.000276202843444
-9.07567227144e-05
-0.00019098866154
-8.50835893354e-05
-0.000107608934114
-8.3214347161e-05
-0.000107510284447
-0.000390089289195
0.000742842894532
-0.00082561797677
0.000821782063748
-0.00125868048922
0.000818989503828
-0.00168546168347
0.000807749710057
-0.00210402187327
0.000792516505221
-0.00251260650105
0.000773773089984
-0.00290953857143
0.000751860878142
-0.00329335748584
0.000727110433485
-0.00366273320135
0.00069989715525
-0.00401659065952
0.000670570001268
-0.00435397893497
0.000639509908793
-0.00467420725056
0.000607046417127
-0.00497667944808
0.000573532477643
-0.00526104899964
0.000539250542343
-0.00552702257227
0.000504505165485
-0.00577453933018
0.000469518131434
-0.00600354611025
0.000434538818702
-0.00621420531234
0.000399726954728
-0.00640664284506
0.000365280204239
-0.00658118765379
0.000331302815483
-0.00673809232558
0.000297949833887
-0.0068778062226
0.000265280116043
-0.0070006676056
0.000233416907411
-0.00710721149488
0.000202384010984
-0.0071978316474
0.000172282722554
-0.00727312382169
0.000143110379181
-0.00733351576283
0.000114953973767
-0.00737964625945
8.77905850907e-05
-0.00741196144993
6.16980467042e-05
-0.00743112987511
3.66370569522e-05
-0.00743760325403
1.267923261e-05
-0.00743206900773
-1.02288513938e-05
-0.00741497797847
-3.20196973133e-05
-0.00738703084872
-5.2759544596e-05
-0.00734866624845
-7.23846664602e-05
-0.00730058583983
-9.09733842555e-05
-0.00724320864703
-0.000108464633359
-0.00717723095329
-0.000124947918937
-0.00710304579304
-0.000140364398548
-0.00702133721562
-0.000154813702108
-0.00693246666637
-0.000168238487973
-0.0068370999
-0.000180747200027
-0.00673556253461
-0.000192283128654
-0.00662849707433
-0.000202961939288
-0.00651619054387
-0.000212726678333
-0.00639925839518
-0.000221698504573
-0.0062779479286
-0.000229819348331
-0.00615284500538
-0.000237214018065
-0.00602415758332
-0.000243822633069
-0.00589244047856
-0.000249771857913
-0.0057578641431
-0.000254999500794
-0.00562095193228
-0.000259632377
-0.00548183974429
-0.000263605827679
-0.00534101971619
-0.000267045341669
-0.00519859700915
-0.00026988397035
-0.00505503329206
-0.000272244654303
-0.00491040718346
-0.000274058753123
-0.00476515064927
-0.000275445769383
-0.00461931999838
-0.000276336314245
-0.00447331813429
-0.000276845871351
-0.00432718285103
-0.000276905578501
-0.00418128806979
-0.000276626605636
-0.00403565618408
-0.000275942064674
-0.00389063169052
-0.000274958714693
-0.00374622374901
-0.000273613156371
-0.00360274625903
-0.000272007738547
-0.00346019637913
-0.000270083940671
-0.00331885581253
-0.000267939701328
-0.00317871004567
-0.000265522532367
-0.00304000660031
-0.000262925868734
-0.00290271897239
-0.000260104046651
-0.0027670585982
-0.000257145780389
-0.0026329862422
-0.000254012630901
-0.00250067556084
-0.000250788226366
-0.00237007375313
-0.000247441351831
-0.00224131562931
-0.000244050082654
-0.00211433412963
-0.000240590082994
-0.00198922481921
-0.000237133324475
-0.00186590608019
-0.00023366172257
-0.00174443475199
-0.000230240565192
-0.0016247149133
-0.000226857167874
-0.0015067660505
-0.000223569480879
-0.0013904789315
-0.000220369130462
-0.00127583810369
-0.000217305863745
-0.00116272296102
-0.000214374004539
-0.00105108675337
-0.000211613330795
-0.000940800866924
-0.000209017433321
-0.000831792497067
-0.000206610905541
-0.000723928236181
-0.000204376106406
-0.000617106968983
-0.000202303726042
-0.000511156684446
-0.000200328907754
-0.000405808572808
-0.000198344805491
-0.000300279209532
-0.000196137376478
-0.00019185010334
-0.000193372837156
-8.30297852052e-05
-0.000191897537372
-0.000190471013285
-0.000397048016307
0.00113980848371
-0.000838213452936
0.00126285857858
-0.00127753141261
0.00125821920331
-0.00171049187621
0.00124062051132
-0.0021349637522
0.00121690044072
-0.00254909041608
0.00118780983238
-0.00295116519086
0.00115384800695
-0.00333968345456
0.00111553852153
-0.00371332033744
0.00107344668208
-0.00407097643477
0.00102813570189
-0.0044117306889
0.000980177175397
-0.00473488145634
0.000930106605552
-0.00503988087201
0.000878445315042
-0.0053263776695
0.000825656635695
-0.00559413815231
0.000772179606568
-0.00584309589249
0.00071838512777
-0.00607326293725
0.000664620460551
-0.00628479007275
0.000611163445345
-0.00647787045202
0.000558276051551
-0.00665281257739
0.000506154587998
-0.00680993693107
0.000454990742613
-0.00694966257013
0.000404915967351
-0.00707239646537
0.000356068826162
-0.00717863376134
0.000308532428932
-0.00726883877071
0.000262407589152
-0.00734355854989
0.000217742634246
-0.00740329453473
0.000174612207877
-0.00744862895388
0.000133039357977
-0.00748008597704
9.30802451509e-05
-0.00749827058654
5.47385356694e-05
-0.00750371870706
1.80562021754e-05
-0.00749704833991
-1.69791159766e-05
-0.00747879801062
-5.03367927737e-05
-0.00744958987636
-8.20435008401e-05
-0.00740995661187
-0.000112079383142
-0.00736051631855
-0.00014048452282
-0.00730178789049
-0.000167248340563
-0.00723437765985
-0.000192423001852
-0.00715878377998
-0.000216006300395
-0.00707559409227
-0.000238061179426
-0.00698527997092
-0.000258592389809
-0.0068884048649
-0.000277671867765
-0.006785408616
-0.000295309727312
-0.00667682580327
-0.000311584906944
-0.00656306137159
-0.000326510991056
-0.00644461773361
-0.000340171659828
-0.00632186314364
-0.000352582156162
-0.00619526614938
-0.000363828713686
-0.00606515795289
-0.000373926412465
-0.00593197265344
-0.000382961884568
-0.0057960054409
-0.00039094861061
-0.00565765672048
-0.000397971835049
-0.00551718774794
-0.000404042269326
-0.00537496664383
-0.000409242292727
-0.00523122363699
-0.000413579295327
-0.00508629669353
-0.000417131899226
-0.00494038823259
-0.000419904054344
-0.00479380813217
-0.000421970188604
-0.0046467342419
-0.000423331364059
-0.00449945037522
-0.000424057980242
-0.00435211256365
-0.000424149130381
-0.00420497984071
-0.000423671702254
-0.00405818850829
-0.000422624180983
-0.0039119735287
-0.000421070801702
-0.00376645260999
-0.000419010836817
-0.00362183637143
-0.000416506738861
-0.00347822421356
-0.000413559975258
-0.00333580157645
-0.000410232027863
-0.00319464901453
-0.000406527604522
-0.00305492530932
-0.000402507701841
-0.0029166911565
-0.000398180977845
-0.00278007712668
-0.000393608113188
-0.00264512278222
-0.000388801883924
-0.00251192892742
-0.000383822403055
-0.00238051284963
-0.000378686336025
-0.00225094452895
-0.00037345267603
-0.00212321815694
-0.000368141312455
-0.00199737234736
-0.000362809282068
-0.00187337796125
-0.000357478789859
-0.00175124251492
-0.00035220392872
-0.00163091394943
-0.000347008067665
-0.00151236966754
-0.000341941213519
-0.00139553582292
-0.000337026582164
-0.00128036144389
-0.000332308745874
-0.00116675252303
-0.000327809043182
-0.00105463169909
-0.00032356464831
-0.000943886050151
-0.000319592265704
-0.000834411684987
-0.000315918064992
-0.00072607150861
-0.000312549021624
-0.00061871740027
-0.000309494525862
-0.000512137227167
-0.000306748140183
-0.000406011455625
-0.000304315384823
-0.000299752056643
-0.000302247542481
-0.000192257085252
-0.00030072382953
-8.44207625154e-05
-0.00029959660909
-0.000274826191434
-0.000403241051797
0.00154296724375
-0.000850509346462
0.00171003817864
-0.00129591598121
0.00170353739053
-0.0017347204836
0.00167933608369
-0.00216465993727
0.00164675145789
-0.00258378224815
0.00160684321447
-0.00299032896168
0.00156030631254
-0.00338275685354
0.00150787743039
-0.00375973567143
0.0014503371602
-0.00412016352611
0.00138847454088
-0.0044631468863
0.00132307228646
-0.00478800558097
0.00125487628814
-0.00509424000658
0.0011845916521
-0.0053815320296
0.0011128597071
-0.00564970529109
0.00104026499323
-0.00589872749491
0.000967318525875
-0.00612866823782
0.000894473681826
-0.0063397063386
0.000822113024319
-0.0065320875989
0.000750570289382
-0.00670613892362
0.000680117869169
-0.00686222677888
0.000610992341531
-0.00700077845047
0.000543380346422
-0.00712224077876
0.00047744595173
-0.00722710804111
0.000413313498275
-0.00731588005002
0.000351095883358
-0.00738909583424
0.000290873769284
-0.00744728999934
0.000232724607006
-0.00749103136615
0.000176698149934
-0.00752087672417
0.000122846409231
-0.0075374138287
7.11957800477e-05
-0.00754121195987
2.17783641114e-05
-0.00753286878075
-2.53987141948e-05
-0.00751295723922
-7.03202494712e-05
-0.00748207635159
-0.000112996523063
-0.00744079467597
-0.000153428085198
-0.00738970473103
-0.000191641408534
-0.00732936279111
-0.000227651417522
-0.0072603471353
-0.000261499391856
-0.00718319449647
-0.000293213184198
-0.0070984619933
-0.000322847128182
-0.00700666050087
-0.000350440077393
-0.00690832016729
-0.000376057196163
-0.00680392097142
-0.000399745940867
-0.00669396158696
-0.000421579641505
-0.00657888749427
-0.000441611684927
-0.00645916290517
-0.00045992072876
-0.00633519678254
-0.0004765633099
-0.00620741738119
-0.000491620531782
-0.00607619662139
-0.000505149442802
-0.00594192675505
-0.000517230956664
-0.00580494354244
-0.000527920306206
-0.00566560440054
-0.000537295945572
-0.00552421090811
-0.000545409493435
-0.00538108776464
-0.000552335284741
-0.00523650515966
-0.000558120173627
-0.00509075774547
-0.000562833385567
-0.00494408745611
-0.00056651663004
-0.00479676171081
-0.000569233825177
-0.00464899728483
-0.000571021912196
-0.00450103689501
-0.000571940005798
-0.00435307474972
-0.000572021341978
-0.00420533074867
-0.000571321351157
-0.00405797835964
-0.000569871101729
-0.00391121567712
-0.000567723798905
-0.00376519626511
-0.000564910099727
-0.00362009646167
-0.000561482536945
-0.00347604982589
-0.000557473020121
-0.00333321014526
-0.000552934739898
-0.00319169005647
-0.0005479021709
-0.00305161937762
-0.000542430069851
-0.00291308841971
-0.000536556245351
-0.00277620135028
-0.000530337357634
-0.00264102457302
-0.000523814700477
-0.00250763497902
-0.000517046601246
-0.00237607367462
-0.000510077398646
-0.00224638904888
-0.000502966338418
-0.00211859595637
-0.000495759876653
-0.00199271364632
-0.000488517051681
-0.00186873041266
-0.000481285163745
-0.00174663647607
-0.000474121673542
-0.00162639396623
-0.000467073233904
-0.0015079649054
-0.000460194216014
-0.00139128631319
-0.000453528998878
-0.00127629340814
-0.000447127240364
-0.00116289941861
-0.000441029269089
-0.00105101399806
-0.000435278233975
-0.000940526973918
-0.000429908470653
-0.00083132117479
-0.000424954898706
-0.000723257964206
-0.000420444762534
-0.000616181127839
-0.000416406481354
-0.00050989894646
-0.000412869503602
-0.000404175214987
-0.000409882890097
-0.000298728891173
-0.000407542366178
-0.000193355562906
-0.000405952283215
-8.92872303661e-05
-0.000403526105547
-0.000364046517682
-0.000411224035386
0.00195410907125
-0.000866962526463
0.00216568886461
-0.00132061519877
0.00215710159673
-0.00176724780669
0.00212588025931
-0.00220446420704
0.00208387946442
-0.00263020513886
0.00203249566327
-0.00304264111408
0.00197265391205
-0.00344018489281
0.0019053326768
-0.00382149456156
0.00183155844628
-0.00418547607362
0.00175236748957
-0.00453126893675
0.00166877679128
-0.0048582356828
0.00158175446996
-0.00516593630406
0.00149220396423
-0.00545411202994
0.00140094690954
-0.00572265563781
0.00130872041251
-0.0059715958442
0.0012161703265
-0.0062010685105
0.00112385836606
-0.00641130545318
0.00103226180059
-0.00660260904986
0.000941786280013
-0.00677534692093
0.000852768001277
-0.00692993038205
0.000765488779579
-0.00706681482462
0.000680177737043
-0.00718648131016
0.000597026317555
-0.00728944165296
0.000516187824163
-0.0073762219032
0.000437791288954
-0.00744737088836
0.000361938209372
-0.00750344438059
0.000288715035218
-0.00754501600067
0.000218187233271
-0.00757266107187
0.000150410759708
-0.00758696912202
8.54239416167e-05
-0.00758852689548
2.32584733103e-05
-0.00757793192406
-3.60701809442e-05
-0.00755577450317
-9.25515045803e-05
-0.00752265226722
-0.000146191010286
-0.00747915108314
-0.00019699836201
-0.00742586078464
-0.000244998781608
-0.00736335491412
-0.000290220689664
-0.00729220761284
-0.000332707561068
-0.0072129725851
-0.000372504823006
-0.00712620117397
-0.000409672080573
-0.00703242066898
-0.000444269279881
-0.00693215358336
-0.000476369302159
-0.00682589552968
-0.000506043532662
-0.00671413565066
-0.000533374774693
-0.00659733415928
-0.000558442332815
-0.00647594383454
-0.000581335272169
-0.00635038742539
-0.000602137205863
-0.00622108005003
-0.000620939838408
-0.00608840653005
-0.000637827589547
-0.00595274450694
-0.000652891426804
-0.00581444188454
-0.000666213525406
-0.00567384040675
-0.000677881301666
-0.00553125324789
-0.000687972243573
-0.00538698878986
-0.000696568125459
-0.00524132850972
-0.000703740194385
-0.00509455063507
-0.000709563447254
-0.00494690834106
-0.000714102275267
-0.00479865298899
-0.00071742474338
-0.00465001276206
-0.000719588815057
-0.00450121516715
-0.000720656464917
-0.0043524661256
-0.000720680509968
-0.00420397149502
-0.000719718438189
-0.0040559167681
-0.000717819877622
-0.00390848739004
-0.000715039932946
-0.00376184913623
-0.000711427247131
-0.00361616711458
-0.000707036713305
-0.00347158702505
-0.000701918110123
-0.00332825276971
-0.000696128013731
-0.00318628871499
-0.000689718958019
-0.00304581593661
-0.000682750477928
-0.00290693568874
-0.00067527879631
-0.00276974431811
-0.000667366925668
-0.00263431803657
-0.000659074882833
-0.00250072659571
-0.000650468872157
-0.00236901949469
-0.00064161207563
-0.00223923847273
-0.000632572928178
-0.00211140517511
-0.000623416528479
-0.0019855325315
-0.000614212065805
-0.00186161392909
-0.000605024920781
-0.00173963348348
-0.00059592326149
-0.00161955668886
-0.000586970891766
-0.00150133956769
-0.000578233047226
-0.00138492076359
-0.000569770053596
-0.00127022946828
-0.000561642317611
-0.00115717876912
-0.000553904859971
-0.00104567218739
-0.000546611566347
-0.000935597969686
-0.000539810771907
-0.000826833692229
-0.000533549085648
-0.000719241261099
-0.000527868900253
-0.000612669034235
-0.000522813246521
-0.000506948304211
-0.00051842792501
-0.000401901948067
-0.000514772389425
-0.000297369997066
-0.000511923433685
-0.000193320770711
-0.000509854872273
-9.06128928119e-05
-0.000506093307491
-0.000454592628748
-0.000421374148386
0.0023754014476
-0.000888116211046
0.00263234291734
-0.00135242452241
0.00262132190349
-0.00180912430712
0.00258249185157
-0.00225565642185
0.00253032348756
-0.00268983333067
0.00246658441235
-0.00310973740623
0.00239246983162
-0.00351373153585
0.00230923860008
-0.00390046214608
0.00221820084315
-0.00426885392565
0.00212067101393
-0.00461809294308
0.00201792754448
-0.0049476058991
0.00191117913569
-0.00525703226264
0.00180154204033
-0.00554619772262
0.00169002407349
-0.00581508424031
0.00157751865229
-0.00606380520174
0.0014648030443
-0.0062925791481
0.00135254413355
-0.00650171061695
0.00124130518503
-0.00669156988442
0.00113155759408
-0.00686258050068
0.00102369086055
-0.00701520499119
0.000918025760001
-0.00714993828809
0.000814823850747
-0.00726729805576
0.000714299296788
-0.0073678224446
0.000616625935515
-0.00745206335312
0.000521946525198
-0.0075205868537
0.000430376767071
-0.0075739678136
0.000342011906832
-0.00761279165361
0.00025692799219
-0.00763764921464
0.0001751864134
-0.00764913900942
9.68331596555e-05
-0.007647861726
2.19021497332e-05
-0.00763442242735
-4.95868064666e-05
-0.00760942477598
-0.000117624501059
-0.00757347321466
-0.000182215784827
-0.00752716649183
-0.000243375846862
-0.0074711003554
-0.000301133073144
-0.0074058605802
-0.00035552562321
-0.00733202610646
-0.000406604076305
-0.00725016186721
-0.000454427524399
-0.00716082251958
-0.000499066205081
-0.00706454522559
-0.000540597121745
-0.00696185409681
-0.000579106704386
-0.00685325300346
-0.000614686001514
-0.00673923078958
-0.000647433462652
-0.00662025418397
-0.000677449803812
-0.00649677380653
-0.00070484099354
-0.00636921718634
-0.000729712864837
-0.00623799552154
-0.000752174397857
-0.00610349682058
-0.000772332184443
-0.00596609335079
-0.000790294070992
-0.00582613486813
-0.000806163549569
-0.00568395663402
-0.000820043827491
-0.0055398727122
-0.00083203225169
-0.00539418440627
-0.000842224835961
-0.00524717356151
-0.000850710792231
-0.0050991112222
-0.000857577530718
-0.00495025089125
-0.000862905385025
-0.00480083719538
-0.000866773040038
-0.00465109904285
-0.000869252485957
-0.00450125806247
-0.000870414784114
-0.00435152164232
-0.000870325271107
-0.00420209094463
-0.000869049504068
-0.00405315384197
-0.000866648680536
-0.00390489234084
-0.000863185569462
-0.00375747550119
-0.000858720110643
-0.00361106617734
-0.000853315111396
-0.00346581405803
-0.000847031975612
-0.00332186168425
-0.00083993596729
-0.00317933779351
-0.000832092057879
-0.003038362638
-0.000823569594147
-0.00289904183071
-0.00081443828731
-0.00276147100845
-0.00080477218194
-0.00262573035295
-0.000794645860127
-0.00249188866901
-0.000784137665893
-0.00235999871466
-0.00077332621952
-0.0022301007535
-0.000762292903108
-0.00210221875459
-0.00075111878772
-0.00197636348206
-0.000739886427595
-0.00185252957131
-0.000728677270746
-0.00173069819967
-0.000717572842138
-0.00161083497796
-0.000706652670506
-0.00149289223082
-0.000695994965307
-0.00137680759015
-0.000685675054185
-0.00126250587541
-0.000675765681534
-0.00114989818454
-0.00066633594848
-0.00103888335783
-0.000657451416255
-0.000929347399814
-0.000649173651383
-0.000821164580474
-0.000641560539657
-0.000714197462506
-0.000634666800309
-0.000608298519653
-0.000628545505109
-0.000503313599445
-0.000623250642202
-0.000399089238423
-0.000618839092427
-0.000295494777828
-0.00061536502712
-0.000192489384705
-0.00061271383277
-9.06714410836e-05
-0.00060777070359
-0.000545196728586
-0.000433955906234
0.00280927571803
-0.000914401528001
0.00311270148146
-0.0013919545628
0.00309878708015
-0.00186112419841
0.00305157375298
-0.00231914435217
0.00298825582841
-0.00276366985847
0.00291102210462
-0.00319267765531
0.00282138977801
-0.00360447638588
0.00272094942334
-0.00399770631934
0.00261134284279
-0.00437132653203
0.00249420322054
-0.00472459058103
0.0023711035726
-0.00505701594349
0.00224351639296
-0.00536834848772
0.00211278647584
-0.00565852714164
0.00198011453081
-0.00592764853718
0.00184655187719
-0.0061759359726
0.00171300222929
-0.00640371070806
0.00158023069114
-0.0066113692764
0.00144887553155
-0.00679936337039
0.00131946362204
-0.00696818579977
0.00119242524607
-0.00711835805368
0.00106811024011
-0.00725042321715
0.000946801375217
-0.00736493908801
0.000828727962914
-0.00746247574043
0.000714075675001
-0.00754361188238
0.000602996391845
-0.00760893488029
0.000495613996866
-0.00765903843282
0.000392030589542
-0.00769452341178
0.000292328873185
-0.00771599555257
0.000196575661183
-0.00772406616242
0.000104821986614
-0.00771934933894
1.71051184553e-05
-0.00770246190135
-6.6552948764e-05
-0.00767402035778
-0.000146142753461
-0.0076346404222
-0.000221670470213
-0.00758493324478
-0.000293155308994
-0.00752550510128
-0.000360631038639
-0.00745695335535
-0.000424144211381
-0.00737986624946
-0.000483754987099
-0.00729481899848
-0.000539535022878
-0.00720237385823
-0.000591567929941
-0.00710307652837
-0.000639946866385
-0.00699745661141
-0.000684774688848
-0.00688602447012
-0.000726161383219
-0.00676927212759
-0.000764223984418
-0.00664767064084
-0.000799083976975
-0.00652167143801
-0.000830867077524
-0.00639170425991
-0.000859700754483
-0.00625817888945
-0.000885713939333
-0.0061214836472
-0.000909034783245
-0.00598198743796
-0.000929790377034
-0.00584003878922
-0.000948104872535
-0.00569596810864
-0.000964099267734
-0.00555008718574
-0.000977889988573
-0.00540269153054
-0.000989588817284
-0.00525406025229
-0.000999302027001
-0.00510445832065
-0.0010071304974
-0.00495413666473
-0.00101316943466
-0.00480333419567
-0.00101750871215
-0.00465227797977
-0.00102023316367
-0.00450118486855
-0.00102142311996
-0.00435026157179
-0.00102115517049
-0.00419970579364
-0.00101950283852
-0.00404970609947
-0.00101653765257
-0.00390044251788
-0.00101232984167
-0.00375208612474
-0.0010069494976
-0.00360479916493
-0.00100046718272
-0.00345873437317
-0.000992954969542
-0.00331403473664
-0.000984486856691
-0.00317083260108
-0.000975139494398
-0.00302924926486
-0.000964992380526
-0.00288939396442
-0.000954128149812
-0.00275136350209
-0.000942632571617
-0.00261524117554
-0.000930594345102
-0.00248109663849
-0.000918104989717
-0.00234898483382
-0.000905258158995
-0.00221894623228
-0.000892149530711
-0.00209100578002
-0.000878875698092
-0.00196517359602
-0.000865534162947
-0.00184144395778
-0.000852221904986
-0.00171979645103
-0.000839035536294
-0.00160019500232
-0.000826069667035
-0.00148258940355
-0.000813417247427
-0.00136691441096
-0.000801167865022
-0.00125309150508
-0.000789408266337
-0.00114102803827
-0.000778220736484
-0.00103061914876
-0.000767683832153
-0.000921747077965
-0.000757871045898
-0.000814283272227
-0.000748851839347
-0.000708088763385
-0.000740691008334
-0.000603017057613
-0.000733450058548
-0.000498916805375
-0.000727187085044
-0.00039563989818
-0.000721957828155
-0.000293051270132
-0.000717801517748
-0.00019106986891
-0.000714547726869
-9.0165135787e-05
-0.000708534162163
-0.000635294886594
-0.000449247360627
0.0032584419996
-0.000946355401598
0.00360972222806
-0.00143997789566
0.0035923223197
-0.00192422141816
0.00353572981386
-0.00239605818663
0.00346000521042
-0.00285295080803
0.00336782727047
-0.00329275327593
0.00326110474677
-0.00371371893321
0.0031418275271
-0.00411449427392
0.00301203055241
-0.00449409598394
0.00287371724856
-0.00485187534643
0.0027287951524
-0.00518747502781
0.00257902824415
-0.00550078264045
0.00242600613868
-0.00579188475145
0.00227112865194
-0.00606102412954
0.00211560313226
-0.006308561844
0.00196045180659
-0.00653494534442
0.00180652593001
-0.00674068244969
0.00165452440985
-0.00692632135928
0.00150501421567
-0.00709243566465
0.00135845135611
-0.00723961413092
0.00121520050156
-0.0073684538411
0.00107555312575
-0.00747955652885
0.000939742805378
-0.00757352662927
0.000807958350427
-0.00765097109092
0.000680353725276
-0.00771249956091
0.000557055980609
-0.00775872525099
0.000438170325888
-0.00779026530088
0.00032378388934
-0.00780774119485
0.000213967356467
-0.00781177828854
0.000108776142609
-0.00780300551926
8.25061413022e-06
-0.00778205341585
-8.7585127599e-05
-0.00774955290609
-0.000178721692426
-0.00770613328921
-0.000265166411246
-0.00765242001551
-0.000346942772798
-0.00758903231499
-0.000424090321313
-0.00751658090023
-0.000496664510017
-0.0074356656946
-0.000564735909915
-0.00734687360595
-0.000628389502719
-0.00725077664002
-0.000687723501827
-0.00714792993635
-0.000742848153308
-0.0070388704518
-0.000793884311825
-0.00692411534478
-0.00084096186293
-0.00680416133267
-0.000884218227315
-0.00667948345655
-0.000923796531906
-0.00655053515957
-0.000959844203397
-0.00641774740357
-0.000992510989851
-0.00628152946928
-0.00102194779465
-0.00614226838118
-0.0010483046466
-0.00600033039696
-0.00107172990293
-0.00585606066196
-0.00109236825007
-0.00570978531328
-0.0011103604018
-0.00556181127501
-0.00112584122754
-0.00541242885557
-0.00113894005168
-0.00526191155361
-0.00114977899567
-0.00511051897049
-0.00115847395789
-0.00495849648598
-0.00116513324441
-0.00480607826643
-0.0011698592402
-0.00465348665442
-0.00117274734801
-0.00450093503527
-0.00117388827754
-0.0043486268234
-0.00117336725493
-0.00419675797776
-0.00117126675504
-0.00404551552594
-0.00116766587075
-0.00389507958022
-0.00116264324063
-0.00374562144203
-0.00115627643438
-0.00359730506098
-0.00114864479008
-0.00345028485268
-0.00113982866992
-0.00330470662909
-0.00112991194773
-0.00316070534585
-0.0011189810453
-0.00301840559632
-0.00110712687345
-0.00287791952969
-0.00109444364652
-0.00273934702582
-0.00108103016779
-0.00260277400264
-0.0010669885096
-0.00246827238819
-0.001052424617
-0.00233589897582
-0.00103744700412
-0.00220569528427
-0.00102216671177
-0.00207768702252
-0.00100669618613
-0.00195188391087
-0.000991148675973
-0.00182827974189
-0.000975637417921
-0.00170685221235
-0.000960274597428
-0.00158756349918
-0.000945170901576
-0.00147036013439
-0.000930434196268
-0.00135517397224
-0.000916169441602
-0.00124192213062
-0.000902477256985
-0.00113050820787
-0.0008894541636
-0.00102082238198
-0.000877191212307
-0.000912742889949
-0.000865774539239
-0.000806136602975
-0.000855284254664
-0.000700861189066
-0.000845795176219
-0.00059676677155
-0.000837376107145
-0.000493699848473
-0.00083009042854
-0.000391505446681
-0.000823993294988
-0.000290034619823
-0.00081911860044
-0.000189175398876
-0.000815259900849
-8.933072172e-05
-0.000808238077361
-0.000724558570233
-0.00046758798956
0.00372594907207
-0.000984660009398
0.00412670805387
-0.00149748406272
0.00410505931913
-0.00199965931387
0.00403781814777
-0.00248783234315
0.00394809121425
-0.00295923373966
0.00383914163204
-0.00341157843416
0.00371336233765
-0.0038430693285
0.00357323124039
-0.00425238101764
0.00342125498945
-0.00463862239844
0.00325987126915
-0.00500128457535
0.00309136988938
-0.00534018119329
0.00291783728347
-0.00565538676544
0.00274112404244
-0.00594717810702
0.00256283215678
-0.00621598149017
0.00238431859057
-0.00646232798201
0.0022067101845
-0.006686816857
0.00203092662393
-0.00689008780122
0.00185770698652
-0.00707280013988
0.00168763817406
-0.00723561922914
0.00152118191558
-0.00737920751638
0.00135870033899
-0.0075042205947
0.00120047768965
-0.00761130551857
0.00104673943691
-0.00770110216809
0.000897666781729
-0.0077742448702
0.000753408622224
-0.00783136557831
0.000614089157934
-0.00787309587761
0.00047981375591
-0.00790006963586
0.000350671312061
-0.00791292370401
0.000226736056975
-0.00791229893054
0.000108066875967
-0.00789883946386
-5.29200359681e-06
-0.00787319209003
-0.000113314368516
-0.00783600339682
-0.000215990476032
-0.00778791910354
-0.000313329041994
-0.00772958059509
-0.000405357355628
-0.00766162300883
-0.000492121692838
-0.0075846720623
-0.000573686427546