/*--------------------------------*- C++ -*----------------------------------*\
| =========                 |                                                 |
| \\      /  F ield         | OpenFOAM: The Open Source CFD Toolbox           |
|  \\    /   O peration     | Version:  v1906                                 |
|   \\  /    A nd           | Web:      www.OpenFOAM.com                      |
|    \\/     M anipulation  |                                                 |
\*---------------------------------------------------------------------------*/
FoamFile
{
    version     2.0;
    format      ascii;
    class       surfaceScalarField;
    location    "58";
    object      phia;
}
// * * * * * * * * * * * * * * * * * * * * * * * * * * * * * * * * * * * * * //

dimensions      [0 3 -1 0 0 0 0];
oriented        oriented;


internalField   nonuniform List<scalar> 
18240
(
0.0122002050542
-0.0122003893396
0.0250850779751
-0.0128851217198
0.0378954392984
-0.0128105383722
0.050544712374
-0.0126495343192
0.062973731735
-0.0124291768871
0.0751297404175
-0.0121562780156
0.0869653091812
-0.0118357051292
0.0984373722579
-0.011472337759
0.109508249271
-0.0110709919566
0.12014479115
-0.0106368195431
0.130319511372
-0.0101748136615
0.140009387423
-0.00969015468865
0.149196951804
-0.00918763700001
0.157868763686
-0.00867208973421
0.16601649045
-0.0081477791302
0.173635129845
-0.00761891501393
0.180724135768
-0.00708903920671
0.187285472801
-0.00656160913438
0.193324830369
-0.00603937262067
0.198849576917
-0.00552501409147
0.203870090988
-0.00502051225104
0.208397663387
-0.00452783445515
0.212445955621
-0.00404827446896
0.216028881534
-0.00358318174934
0.219162191251
-0.00313327739358
0.221861350674
-0.00269940836375
0.224143239074
-0.00228184239157
0.226024037143
-0.00188103958107
0.227521024717
-0.00149692917437
0.228650487809
-0.00112969670387
0.229429611499
-0.000779053679047
0.229874437358
-0.000445051358786
0.23000190778
-0.000127390060753
0.229828015702
0.000173674823103
0.22936699605
0.00046110976017
0.228633063631
0.000733723929257
0.227641172147
0.000991990374773
0.226404727605
0.00123624542406
0.224937633747
0.00146720109725
0.22325226817
0.00168517635513
0.221361503444
0.00189087936412
0.21927670058
0.00208462400864
0.217009715742
0.00226710632679
0.214570920364
0.00243862721422
0.211971186179
0.0025998615194
0.209219938253
0.00275109076013
0.206327108807
0.00289296205063
0.203301229064
0.0030257337659
0.200151344196
0.00315002175594
0.196885149537
0.00326606005024
0.193510858708
0.0033744314251
0.190035389856
0.00347534567856
0.186466180905
0.00356935230448
0.182809431
0.00365663822017
0.179071856522
0.00373772001943
0.175258992845
0.00381276343135
0.171376886404
0.00388225326257
0.167430461296
0.00394633623904
0.163425142342
0.00400546650449
0.159365290871
0.00405977383297
0.155255755187
0.00410968312127
0.151100379272
0.00415530937202
0.146903476682
0.00419704940876
0.142668415722
0.00423500532091
0.138399014065
0.00426954711978
0.134098203365
0.00430076581408
0.129769341508
0.00432900553938
0.125414959509
0.00435434769788
0.121037989317
0.00437711148795
0.116640595369
0.00439737010378
0.112225315502
0.00441541842664
0.107793979435
0.00443132251669
0.103348761188
0.00444535353849
0.0988911863377
0.0044575714059
0.0944230940696
0.00446822390555
0.0899457348939
0.00447736551888
0.0854606412865
0.00448522099007
0.0809688169844
0.00449183998515
0.0764715151866
0.00449742436292
0.0719695202053
0.00450201935699
0.0674638330705
0.00450580411099
0.0629550457034
0.00450881968803
0.0584439338851
0.00451122252164
0.0539309240436
0.00451304955139
0.0494165938384
0.00451443427652
0.0449012319264
0.00451540918611
0.0403852461347
0.00451608363738
0.035868818101
0.00451648342422
0.0313522218728
0.00451668799286
0.0268355815967
0.00451670255807
0.0223191241591
0.004516541035
0.0178030997564
0.00451609089622
0.0132881686486
0.00451500475081
0.00877608113636
0.00451215938741
0.00428091679354
0.00449523582727
0.00428095114364
0.01280901475
-0.0250096123418
0.0264875166448
-0.0265638575956
0.0400446413991
-0.0263678784229
0.0534203214397
-0.0260254493047
0.0665605235385
-0.0255695850597
0.0794132925985
-0.0250092786222
0.0919299180847
-0.0243525256402
0.104065871384
-0.0236085172556
0.115781680976
-0.0227869843349
0.127042812525
-0.0218981704337
0.13782019346
-0.0209523644908
0.148089730196
-0.0199599027774
0.157832654328
-0.0189307176581
0.167034788025
-0.0178744259602
0.175686786704
-0.0167999209425
0.183783235132
-0.0157155565917
0.191322853358
-0.0146287871796
0.198307497307
-0.0135464364701
0.204742382633
-0.0124743746277
0.210635047762
-0.0114178526318
0.215995633036
-0.0103812013941
0.220835845766
-0.00936821050737
0.22516931485
-0.00838183510129
0.229010581024
-0.00742460115609
0.232375533318
-0.00649830928388
0.235280435131
-0.005604453352
0.237742439042
-0.00474391449013
0.239778650671
-0.00391738442032
0.241406711377
-0.00312504702791
0.242643893063
-0.00236700175494
0.243507725108
-0.00164293239809
0.244015085551
-0.000952525541974
0.244182767811
-0.000295109020406
0.244026190056
0.000330148169825
0.24356291139
0.000924361311409
0.242808621651
0.00148791870218
0.241778712505
0.00202188178907
0.24048769566
0.00252717677142
0.238949956143
0.00300493195557
0.237178968174
0.00345608831978
0.235188066316
0.00388178141804
0.232989673855
0.00428294993221
0.230596075262
0.00466071356444
0.228018659609
0.00501598568731
0.225268688225
0.00534984967961
0.222356553449
0.0056631775817
0.219292536524
0.00595700342005
0.216086082689
0.00623214868279
0.212746545299
0.00648959089116
0.209282478566
0.00673009669597
0.205702364404
0.00695458414032
0.202013924392
0.007163764176
0.198224826495
0.00735849515165
0.194342017879
0.00753943362149
0.190372408941
0.00770737978639
0.186322228691
0.00786293844338
0.182197684032
0.0080068541818
0.178004339329
0.00813968335111
0.173747749024
0.00826211796696
0.169432863026
0.00837466952151
0.165064631131
0.00847798061463
0.16064743569
0.00857252142992
0.156185666406
0.00865888822323
0.151683181682
0.00873751322447
0.147143852677
0.00880894916473
0.142571054558
0.00887359335113
0.137968178717
0.00893195749589
0.13333815511
0.00898440665609
0.128683931772
0.00903141366423
0.12400802928
0.00907331361363
0.119312986672
0.00911054223873
0.114600949016
0.00914340658449
0.109874079071
0.009172306717
0.105134178786
0.00919752319746
0.100383066008
0.00921942154072
0.0956222306692
0.00923825706473
0.0908531760812
0.00925436157211
0.0860771103652
0.00926796609096
0.0812952519243
0.00927936931571
0.076508556513
0.00928877866367
0.0717179867805
0.00929646011832
0.0669242751741
0.00930259791873
0.0621281574937
0.00930742549955
0.0573301717648
0.00931110404833
0.0525308558426
0.00931383421605
0.0477305823761
0.0093157537253
0.042929720098
0.00931702916629
0.038128504911
0.00931777254535
0.0333271637142
0.00931811176476
0.0285258178627
0.00931812423982
0.0237245547407
0.0093178829398
0.0189233135357
0.00931740612318
0.014121734817
0.00931665957303
0.00931882570369
0.00931514342688
0.00451876832794
0.0092953661451
0.00879975525914
0.0129731367694
-0.0379829622475
0.0267859035982
-0.0403768536667
0.0404893734606
-0.0400715716716
0.0540095169215
-0.0395458193077
0.0672874699102
-0.0388477548801
0.0802691748727
-0.0379912037873
0.0929045315587
-0.036988090539
0.105148110461
-0.0358523085204
0.116959711812
-0.0345987840768
0.128304490605
-0.0332431525142
0.139153188434
-0.031801249874
0.149481927721
-0.0302888353865
0.159272206484
-0.0287211726004
0.168510465879
-0.0271128681
0.177187938576
-0.0254775580345
0.1853000804
-0.0238278702539
0.192846353171
-0.0221752125194
0.199829597238
-0.0205298412859
0.206255811961
-0.018900730036
0.212133525878
-0.0172957161987
0.217473617316
-0.0157214218599
0.222288717767
-0.0141834495589
0.226593095244
-0.0126863300807
0.230402108928
-0.0112337425647
0.233732163287
-0.00982846998365
0.236600219124
-0.00847262620573
0.239023815952
-0.00716760669723
0.241020636415
-0.00591431142701
0.242608588159
-0.00471308358806
0.2438054118
-0.00356392167874
0.24462880571
-0.00246640079031
0.245096059776
-0.00141986593849
0.245224210396
-0.000423324313805
0.245029904498
0.000524377355321
0.244530015208
0.0014241956848
0.243740111288
0.0022777555737
0.242675429883
0.00308651775017
0.241350635843
0.00385191327268
0.239780014988
0.004575516746
0.237977195173
0.0052588599623
0.235955395077
0.00590355453668
0.233727171048
0.00651113501406
0.231304675598
0.00708319095675
0.228699414243
0.0076212170844
0.225922506119
0.00812674829474
0.222984448042
0.0086012144654
0.219895373784
0.00904607648006
0.216664824504
0.00946268523481
0.213302004632
0.00985241745688
0.209815558244
0.0102165385399
0.206213819634
0.0105563370465
0.202504595735
0.0108729913612
0.198695410224
0.0111677021005
0.194793292144
0.0114415624837
0.190805012307
0.011695687864
0.186736878592
0.0119310900327
0.182594963991
0.0121488033314
0.178384908971
0.0123497629588
0.174112140328
0.0125349270877
0.169781681228
0.0127051594896
0.165398360479
0.0128613472696
0.160966630706
0.0130042879581
0.156490767459
0.0131348024245
0.151974696126
0.0132536267838
0.147422180639
0.0133615201937
0.142836659573
0.0134591617609
0.138221424003
0.013547252869
0.133579463336
0.0136264194328
0.12891363217
0.0136973085133
0.12422650625
0.0137604961204
0.119520537964
0.0138165778139
0.114797922912
0.0138660823924
0.110060743906
0.0139095562612
0.105310848499
0.0139474832124
0.100549981183
0.0139803622976
0.0957796722754
0.0140086340088
0.091001358228
0.014032751459
0.0862162821095
0.0140531131516
0.0814256018168
0.0140701272566
0.076630302426
0.0140841512121
0.0718312922856
0.0140955489469
0.0670293273665
0.014104637435
0.0622250951504
0.0141117367098
0.0574191511135
0.0141171235223
0.0526119903848
0.014121073971
0.0478039962214
0.0141238243312
0.0429954989772
0.0141256060057
0.0381867360392
0.0141266135892
0.0333778961563
0.0141270317439
0.0285690878282
0.0141270110454
0.0237603607535
0.0141266885084
0.0189516640929
0.014126177904
0.0141428307475
0.0141255671604
0.00933381231804
0.0141242383053
0.0045334725285
0.0140957799955
0.0133332625919
0.01314981631
-0.0511329925201
0.0271406615983
-0.0543679253751
0.0410191069821
-0.0539502421471
0.0547076978539
-0.0532346337515
0.0681442438831
-0.0522845196219
0.0812723976211
-0.0511195741875
0.0940403903183
-0.0497562938639
0.106401694907
-0.0482138214179
0.118315430856
-0.046512721334
0.129746533835
-0.0446744542974
0.140665846367
-0.0427207534793
0.151049964445
-0.0406731419242
0.160881066924
-0.0385524552223
0.170146540824
-0.0363785195706
0.17883865192
-0.034169838016
0.186954050425
-0.0319434351507
0.194493375227
-0.0297146947338
0.201460722947
-0.0274973440952
0.207863254971
-0.0253034080252
0.213710687095
-0.023143292124
0.21901494252
-0.0210258118443
0.223789694679
-0.0189583343289
0.228050087442
-0.0169468462126
0.231812344667
-0.0149961213937
0.235093563002
-0.0131098006696
0.237911388928
-0.0112905629332
0.240283879918
-0.00954019930941
0.242229242569
-0.00785977431134
0.243765752982
-0.00624968509038
0.244911547012
-0.00470980560981
0.245684591581
-0.00323952623586
0.246102522674
-0.0018378768452
0.24618267532
-0.000503547953181
0.245941995884
0.000764986696186
0.245396572469
0.00196955792103
0.244562338635
0.00311192912401
0.243454707156
0.00419409770957
0.242088469018
0.0052181006775
0.240477898726
0.00618604492934
0.238636677774
0.00710003954335
0.236577976543
0.00796222290055
0.234314380244
0.00877469910164
0.231857975553
0.00953957173949
0.229220282542
0.0102588867881
0.226412344535
0.0109346711121
0.223444664208
0.0115688801207
0.22032729455
0.0121634393284
0.217069777858
0.0127201955797
0.213681236222
0.0132409603699
0.210170312587
0.013727463833
0.206545259696
0.0141813989181
0.202813882806
0.0146043775568
0.1989836263
0.0149979749482
0.195061517831
0.0153636875357
0.191054252113
0.0157029768609
0.186968136476
0.0160172291269
0.182809171468
0.0163077981668
0.178582997893
0.0165759664562
0.174294973993
0.0168229869107
0.169950124156
0.017050045284
0.165553212516
0.0172583005183
0.161108693516
0.0174488485321
0.156620781836
0.017622760956
0.152093405055
0.0177810503425
0.147530269849
0.0179247071114
0.142934816967
0.0180546662514
0.138310283656
0.0181718423709
0.13365966121
0.0182770979714
0.128985753595
0.018371276483
0.124291137778
0.0184551722085
0.119578218526
0.0185295612693
0.114849191739
0.0185951733226
0.110106095421
0.0186527203241
0.10535077619
0.018702870129
0.100584936386
0.0187462730088
0.0958101039623
0.0187835372419
0.0910276757116
0.0188152533111
0.0862388906758
0.0188419715868
0.0814448694655
0.01886422415
0.0766465913237
0.0188825046606
0.0718449295348
0.0188972877514
0.0670406322469
0.0189090111538
0.0622343539454
0.0189180926156
0.0574266400819
0.0189249143452
0.0526179545819
0.0189298374004
0.0478086680554
0.0189331885277
0.0429990809566
0.0189352719408
0.0381894147738
0.0189363587572
0.0333798297701
0.0189366965428
0.0285704180026
0.0189365020943
0.0237612128585
0.018935970984
0.0189521853285
0.0189352809656
0.0141432726824
0.0189345560648
0.00933470476687
0.0189328810638
0.00453605813376
0.018894499312
0.0178693565145
0.0133816136282
-0.0645148196599
0.0276180923627
-0.0686046302579
0.0417344157489
-0.0680667898571
0.0556505681219
-0.0671510082966
0.0693008509693
-0.0659350207062
0.0826261473644
-0.0644450854935
0.0955725245367
-0.0627028813555
0.108091956201
-0.0607334595051
0.120142665869
-0.05856363223
0.131689280034
-0.0562212653255
0.142702824491
-0.0537344890893
0.153160532469
-0.0511310363973
0.163045558054
-0.0484376612603
0.17234655889
-0.045679696024
0.181057248462
-0.0428806969345
0.189175871722
-0.0400622228813
0.196704702773
-0.037243683879
0.203649505141
-0.0344422996804
0.210019049438
-0.0316730991021
0.215824616678
-0.0289490013462
0.221079578509
-0.0262809092424
0.225798972831
-0.0236778595036
0.229999163979
-0.0211471618307
0.233697499133
-0.0186945764429
0.236912049488
-0.0163244646243
0.239661343305
-0.0140399658887
0.241964179875
-0.0118431387887
0.243839428868
-0.00973512189623
0.245305905203
-0.00771625390069
0.24638222248
-0.00578621115068
0.247086716538
-0.00394410250613
0.247437343012
-0.00218858146746
0.247451647183
-0.000517924453613
0.247146675408
0.00106989009753
0.24653896094
0.00257721000026
0.245644462583
0.00400636903249
0.244478611074
0.00535989653986
0.243056256268
0.00664040664092
0.24139168527
0.00785057275034
0.239498600259
0.00899308509175
0.237390147796
0.0100706414264
0.2350789035
0.0110859130825
0.232576906371
0.0120415439475
0.229895647954
0.012940123768
0.227046109693
0.0137841931575
0.224038754794
0.0145762221737
0.220883566868
0.0153186194686
0.217590043226
0.0160137146496
0.214167233679
0.0166637702048
0.210623734396
0.0172709664851
0.206967726007
0.0178374153473
0.203206967531
0.018365146981
0.199348833341
0.0188561245326
0.195400306873
0.0193122321552
0.191368016063
0.0197352900502
0.187258226763
0.0201270433762
0.183076876553
0.0204891773059
0.178829567824
0.0208233065174
0.174521599844
0.0211309899639
0.170157961614
0.0214137207981
0.16574336222
0.0216729406816
0.161282223552
0.0219100300143
0.156778708941
0.0221263216306
0.152236715897
0.0223230913188
0.147659903125
0.0225015708262
0.143051683418
0.0226629386326
0.138415249073
0.022808332192
0.133753565112
0.0229388390032
0.129069393202
0.0230555080613
0.124365285335
0.0231593412367
0.119643606273
0.0232513039027
0.11490652785
0.0233323166911
0.110156050033
0.0234032652912
0.105393995945
0.0234649926152
0.100622031571
0.0235183077521
0.0958416616272
0.0235639786181
0.0910542479784
0.0236027400666
0.0862610064366
0.0236352870638
0.0814630238876
0.0236622819427
0.0766612561267
0.0236843481775
0.0718565437201
0.0237020767842
0.0670496109538
0.0237160207154
0.0622410804206
0.0237267004161
0.0574314731045
0.0237345989
0.0526212217075
0.0237401664603
0.047810671611
0.0237438164936
0.0430000927316
0.0237459294484
0.0381896810845
0.023746849631
0.0333795684602
0.0237468886495
0.0285698253862
0.0237463242627
0.0237604701346
0.0237454046233
0.0189514758712
0.0237443505631
0.0141428098277
0.0237432958325
0.00933474212101
0.023741025052
0.00453685762141
0.023692457672
0.0224062486193
0.0136760893535
-0.0781911218127
0.0282285171261
-0.0831572819125
0.0426499627251
-0.0824884591202
0.0568571373648
-0.0813584036125
0.0707799971484
-0.0798580977391
0.084355995146
-0.0780212970022
0.0975285052206
-0.0758756007208
0.110247640437
-0.0734527997695
0.122470564294
-0.0707867563103
0.134161597712
-0.0679124942703
0.145292120773
-0.0648652024092
0.155840290086
-0.061679390931
0.165790631073
-0.0583881818973
0.175133522224
-0.0550227615991
0.183864630309
-0.051611973721
0.191984304097
-0.0481820600427
0.199496976642
-0.0447565139941
0.20641057108
-0.0413560463433
0.212735950018
-0.0379986244659
0.218486392327
-0.0346995847517
0.223677129533
-0.0314717817771
0.228324917782
-0.0283257778203
0.23244767258
-0.0252700410131
0.23606413758
-0.0223111606435
0.239193612083
-0.0194540527251
0.241855706241
-0.0167021685623
0.244070147817
-0.0140576833853
0.24585660872
-0.0115216808206
0.247234575315
-0.00909431309872
0.248223230918
-0.00677495447456
0.248841375077
-0.0045623290627
0.249107348818
-0.00245463275968
0.249038989495
-0.000449637595019
0.248653545406
0.00145526643578
0.247967722031
0.00326297089795
0.246997634553
0.00497639876439
0.245758801505
0.00659867692113
0.244266131118
0.0081330289382
0.242533931523
0.00958272919752
0.240575910459
0.0109510674662
0.238405191998
0.0122413260197
0.236034321945
0.0134567535916
0.233475288748
0.0146005522734
0.230739532171
0.0156758596658
0.227837966431
0.0166857427467
0.224780990511
0.0176331859817
0.22157851213
0.0185210900941
0.218239958581
0.019352264332
0.214774300566
0.0201294285423
0.21119006283
0.0208552082608
0.207495347274
0.0215321389385
0.203697842963
0.0221626628747
0.199804848152
0.0227491347321
0.195823279431
0.0232938196207
0.191759692515
0.023798899302
0.18762029045
0.024266470943
0.183410943067
0.0246985535695
0.179137194288
0.025097087138
0.174804280262
0.0254639389816
0.170417135835
0.0258009029754
0.165980411445
0.026109705756
0.16149847884
0.0263920058559
0.156975446837
0.0266493995818
0.152415166431
0.0268834200377
0.147821245501
0.0270955425808
0.143197053444
0.0272871837012
0.138545734944
0.0274597060264
0.133870214262
0.0276144170515
0.129173208176
0.0277525736734
0.124457230039
0.0278753807872
0.119724601991
0.0279839953616
0.114977458912
0.0280795249297
0.110217759979
0.0281630312137
0.105447292616
0.0282355285489
0.100667683486
0.0282979870785
0.0958804025132
0.0283513311584
0.0910867733718
0.0283964421418
0.0862879776733
0.0284341567936
0.081485064975
0.0284652697053
0.0766789572101
0.0284905317599
0.0718704582514
0.0285106521917
0.0670602586411
0.0285262971458
0.0622489447378
0.0285380914102
0.0574370037556
0.0285466171139
0.0526248325247
0.0285524151733
0.0478127426497
0.0285559842141
0.043000968782
0.0285577818016
0.0381896737188
0.02855822377
0.0333789562783
0.0285576856469
0.0285688573604
0.028556502487
0.0237593682258
0.0285549707076
0.018950443326
0.0285533508572
0.0141420324781
0.0285517829989
0.0093343581253
0.0285487736498
0.00453693128229
0.0284899565798
0.0269432155912
0.0140388705516
-0.0922302040129
0.0289818051118
-0.0981004403407
0.0437799450175
-0.0972868211009
0.0583456324606
-0.095924310629
0.0726033490107
-0.0941160302072
0.0864863097744
-0.091904469937
0.0999346140945
-0.0893241130698
0.112896169705
-0.0864145590425
0.125326966238
-0.0832177518702
0.137191106979
-0.0797768291751
0.148460589785
-0.076134874334
0.159114889469
-0.0723338745356
0.16914039861
-0.0684138696556
0.178529770553
-0.064412306764
0.187281214885
-0.0603635858223
0.195397775427
-0.056298782876
0.202886625997
-0.052245521344
0.209758397971
-0.0482279695977
0.216026560724
-0.0442669329754
0.221706856107
-0.0403800204246
0.226816798037
-0.0365818585101
0.231375230071
-0.0328843392515
0.2354019464
-0.0292968813073
0.23891736484
-0.0258266977333
0.241942254843
-0.0224790560261
0.244497507488
-0.0192575292763
0.246603950063
-0.016164228746
0.248282192145
-0.0132000205447
0.24955250637
-0.0103647197688
0.250434731432
-0.00765726692785
0.250948201439
-0.00507588128572
0.25111169007
-0.00261819860705
0.250943369747
-0.000281389536885
0.250460717509
0.00193785128618
0.249680669932
0.00404295624796
0.248619481064
0.00603753031737
0.247292760187
0.00792534542705
0.245715468762
0.00971027275119
0.243901932686
0.0113962224672
0.241865852707
0.0129871092534
0.239620321396
0.0144868238009
0.237177837876
0.0158992080623
0.234550327702
0.0172280379215
0.231749159606
0.018477007564
0.228785166579
0.0196497199436
0.225668663211
0.0207496776952
0.222409466824
0.0217802790385
0.21901691451
0.0227448132095
0.21549988361
0.0236464600424
0.211866807909
0.024488288397
0.208125697029
0.0252732581167
0.204284151484
0.0260042203632
0.200349380805
0.026683921024
0.19632821733
0.0273150021635
0.192227132969
0.0279000062035
0.188052251734
0.0284413779664
0.183809365176
0.028941469175
0.17950394372
0.0294025406835
0.175141150836
0.029826767003
0.17072585329
0.0302162384839
0.166262634182
0.0305729656575
0.161755802232
0.0308988812165
0.157209403808
0.0311958440428
0.152627231389
0.0314656409082
0.148012834726
0.0317099901245
0.143369528625
0.0319305429175
0.138700403353
0.0321288866677
0.134008331885
0.0323065459573
0.129295979686
0.0324649854033
0.124565811539
0.0326056103872
0.119820100804
0.0327297694933
0.115060935949
0.032838754953
0.110290229387
0.0329338047256
0.105509723797
0.03301610269
0.100721000628
0.033086780385
0.0959254862966
0.0331469170099
0.0911244604284
0.0331975408632
0.0863190619981
0.0332396291824
0.0815102973498
0.0332741093209
0.0766990463553
0.0333018584757
0.0718860702434
0.0333237046384
0.0670720178423
0.0333404262504
0.0622574332463
0.0333527529661
0.0574427621632
0.0333613652917
0.0526283594816
0.0333668952082
0.0478144955292
0.0333699258507
0.0430013635523
0.0333709921023
0.0381890859142
0.0333705804415
0.0333777212294
0.0333691294936
0.0285672719914
0.0333670305145
0.0237576932634
0.0333646276957
0.0189489014333
0.0333622177425
0.0141408047261
0.0333599527602
0.00933356607367
0.0333560883035
0.00453663973996
0.0332869564514
0.0314798894568
0.0144762016545
-0.106706616411
0.0298903830158
-0.113514842995
0.0451424845489
-0.112539143849
0.0601392368141
-0.110921280924
0.074798299465
-0.108775307527
0.0890477132586
-0.106154094512
0.102823670962
-0.103100277423
0.116071552013
-0.0996626423869
0.128746131295
-0.0958925287682
0.140811494204
-0.0918423849093
0.152240652
-0.0875642198801
0.163014936094
-0.083108341275
0.173123242451
-0.0785223533331
0.182561187056
-0.0738504234099
0.191330229078
-0.0691327944407
0.19943680119
-0.0644055162178
0.206891481334
-0.0597003572284
0.213708224029
-0.0550448626449
0.219903666785
-0.0504625206058
0.22549651437
-0.0459730075109
0.23050700451
-0.0415924827146
0.234956449142
-0.0373339126235
0.238866848774
-0.0332074043165
0.242260570478
-0.0292205375507
0.245160085037
-0.0253786834117
0.247587753231
-0.0216853051007
0.249565656901
-0.0181422348384
0.251115465727
-0.0147499266541
0.252258336399
-0.0115076825727
0.253014836485
-0.00841385408963
0.253404891293
-0.00546601806221
0.253447748008
-0.00266113217783
0.253161946656
4.33985056912e-06
0.252565201149
0.00253452977348
0.251674690586
0.00493340490652
0.250506809256
0.00720535474345
0.249077253406
0.00935484929051
0.247401027972
0.0113864510264
0.245492465269
0.0133047427682
0.243365243522
0.015114293275
0.241032408168
0.0168196260403
0.23850639306
0.0184251945847
0.235799043152
0.0199353637013
0.232921636309
0.021354394658
0.229884905942
0.0226864348659
0.2266990623
0.0239355101098
0.223373814226
0.0251055200221
0.219918389306
0.0262002350927
0.216341554267
0.0272232960094
0.212651633669
0.0281782138009
0.208856528728
0.0290683716434
0.204963734426
0.0298970269471
0.2009803567
0.0306673146206
0.196913127975
0.0313822502604
0.192768422762
0.0320447341737
0.188552271701
0.0326575550845
0.184270375684
0.0332233944266
0.179928118518
0.0337448301723
0.175530579728
0.0342243410772
0.171082546001
0.0346643103721
0.166588522817
0.03506702975
0.162052744845
0.0354347027637
0.157479186563
0.0357694484382
0.152871571771
0.0360733042839
0.148233383353
0.03634822947
0.143567872068
0.0365961074164
0.138878065606
0.0368187485116
0.13416677679
0.0370178922781
0.129436612067
0.0371952096428
0.124689979253
0.0373523046904
0.119929095574
0.0374907165246
0.115155995058
0.0376119206434
0.11037253625
0.0377173304127
0.105580409347
0.0378082981218
0.100781143655
0.0378861161165
0.095976114563
0.0379520175726
0.09116655082
0.0380071773399
0.0863535414043
0.0380527124809
0.0815380426759
0.0380896828751
0.0767208852044
0.0381190915699
0.0719027808274
0.0381418851911
0.0670843295069
0.0381589541532
0.0622660263349
0.0381711329253
0.057448268435
0.0381792001483
0.0526313619872
0.0381838788088
0.0478155290377
0.0381858363391
0.0430009145467
0.0381856847328
0.0381875930275
0.0381839806858
0.0333755758527
0.0381812258857
0.0285648185703
0.0381778667864
0.0237552282013
0.0381742944825
0.0189466746059
0.0381708463679
0.0141390148888
0.0381676887028
0.00933234167935
0.0381628350892
0.00453607562061
0.0380832938874
0.0360160006294
0.0149956174395
-0.121702443257
0.0309697914287
-0.129489238423
0.0467603650824
-0.12832993695
0.0622670424823
-0.126428175239
0.0773990832412
-0.123907561474
0.0920782900651
-0.120833510706
0.106236279336
-0.117258471911
0.119815626272
-0.113242190117
0.132769961596
-0.108847060287
0.145063710179
-0.104136324807
0.156671473428
-0.0991721694877
0.16757716808
-0.0940142171088
0.177773012554
-0.0887183738156
0.187258442156
-0.0833360236862
0.196039017987
-0.0779135356615
0.204125378119
-0.0724920363455
0.211532264058
-0.0671073978379
0.218277642424
-0.0617903902818
0.224381931291
-0.056566953419
0.229867332619
-0.0514585474176
0.234757266941
-0.0464825503227
0.239075902608
-0.0416526762637
0.242847770357
-0.0369793947951
0.246097452616
-0.0324703372984
0.24884933759
-0.0281306806866
0.251127427918
-0.0239635025552
0.252955195425
-0.0199701043311
0.254355473474
-0.0161503015647
0.255350380532
-0.0125026814025
0.255961268285
-0.00902482858239
0.256208690807
-0.00571352219951
0.256112393053
-0.00256491093412
0.25569130209
0.000425359229895
0.254963370106
0.00326239512301
0.253946015474
0.00595069803751
0.252655762281
0.00849555145547
0.25110837972
0.0109021803096
0.249318899416
0.0131758846271
0.247301641505
0.015321958746
0.245070240934
0.017345656585
0.242637674819
0.0192521595076
0.240016289466
0.0210465518072
0.237217827367
0.0227338021306
0.234253453206
0.024318749507
0.231133779415
0.0258060936459
0.227868890436
0.0272003882726
0.224468366344
0.0285060374346
0.220941305058
0.029727293721
0.217296343858
0.0308682585158
0.213541679461
0.0319328833472
0.209685087435
0.032924972604
0.205733940203
0.0338481867679
0.20169522446
0.0347060465462
0.197575557253
0.0355019371078
0.193381201562
0.0362391129009
0.189118080641
0.0369207022926
0.184791791965
0.0375497125775
0.180407620036
0.0381290346153
0.175970548902
0.0386614477031
0.171485273633
0.0391496239551
0.166956211626
0.0395961328354
0.162387512956
0.0400034451244
0.157783070652
0.0403739369941
0.153146530115
0.0407098934823
0.148481298557
0.0410135120577
0.14379055366
0.0412869055708
0.139077252328
0.0415321052963
0.134344138752
0.0417510633685
0.129593752629
0.0419456553203
0.124828436754
0.0421176820312
0.12005034484
0.0422688717971
0.115261448766
0.0424008818388
0.110463546083
0.0425152999501
0.105658267032
0.0426136456177
0.100847081835
0.0426973713012
0.0960313075447
0.0427678632224
0.0912121152067
0.0428264423311
0.0863905366122
0.0428743648218
0.0815674713689
0.042912822839
0.0767436936258
0.0429429447772
0.0719198590857
0.0429657957794
0.0670965117717
0.0429823778735
0.0622740910207
0.0429936303136
0.0574529383196
0.0430004296113
0.0526333043596
0.0430035897687
0.0478153557718
0.0430038622422
0.0429991822904
0.0430019361471
0.0381848034209
0.0429984381987
0.0333721753088
0.0429939327118
0.0285611985381
0.0429889218672
0.0237517259587
0.0429838450523
0.0189435690665
0.0429790778955
0.0141365249861
0.0429748050652
0.00933062179839
0.0429688139097
0.0045352468927
0.0428787419304
0.0405512812599
0.015606397225
-0.137309049011
0.0322393653716
-0.146122425188
0.0486619443494
-0.144752734533
0.0647651651115
-0.142531611287
0.0804480182501
-0.139590626481
0.0956248700043
-0.136010570351
0.110222071152
-0.131855876757
0.124179205094
-0.127199523355
0.137448998015
-0.12211704781
0.149996792691
-0.116684309296
0.16179960425
-0.11097516582
0.172844912575
-0.105059705159
0.183129312887
-0.0990029486186
0.192657125661
-0.0928640057698
0.201439044061
-0.0866956180548
0.209490871443
-0.0805440224852
0.21683238287
-0.0744490626883
0.223486325899
-0.0684444814917
0.229477565359
-0.0625583357457
0.234832366208
-0.0568134859084
0.239577804839
-0.0512281213259
0.243741294437
-0.0458162930459
0.247350210335
-0.0405884326667
0.25043159994
-0.0355518437365
0.253011963926
-0.0307111563519
0.255117095521
-0.026068740728
0.256771967314
-0.0216250775974
0.258000655596
-0.0173790862526
0.25882629451
-0.0133284116609
0.259271052457
-0.00946967287392
0.259356126623
-0.0057986776327
0.259101761765
-0.00231062218146
0.258527275598
0.000999774222618
0.257650879641
0.0041387248877
0.256490172563
0.00711134405469
0.255061795889
0.00992387212186
0.253381568795
0.0125823563407
0.251464525284
0.0150928819359
0.249324947203
0.0174614953844
0.246976399329
0.0196941677047
0.24443176355
0.0217967631243
0.241703271963
0.0237750157605
0.2388025386
0.0256345122907
0.235740589683
0.0273806795894
0.232527892349
0.0290187764122
0.229174381839
0.0305538884185
0.225689487156
0.0319909258484
0.222082155252
0.0333346233898
0.21836087375
0.0345895417007
0.214533692325
0.0357600703118
0.210608242728
0.0368504314727
0.206591757627
0.037864684812
0.202491088215
0.0388067324405
0.198312720798
0.0396803244824
0.19406279229
0.0404890647036
0.189747104838
0.041236416312
0.185371139492
0.0419257076178
0.180940069159
0.0425601377066
0.176458770715
0.0431427818164
0.171931836558