/*--------------------------------*- C++ -*----------------------------------*\
| =========                 |                                                 |
| \\      /  F ield         | OpenFOAM: The Open Source CFD Toolbox           |
|  \\    /   O peration     | Version:  v1906                                 |
|   \\  /    A nd           | Web:      www.OpenFOAM.com                      |
|    \\/     M anipulation  |                                                 |
\*---------------------------------------------------------------------------*/
FoamFile
{
    version     2.0;
    format      ascii;
    class       volVectorField;
    location    "951";
    object      Ua;
}
// * * * * * * * * * * * * * * * * * * * * * * * * * * * * * * * * * * * * * //

dimensions      [0 1 -1 0 0 0 0];


internalField   nonuniform List<vector> 
9216
(
(-0.010364362975 0.0103713222345 0)
(-0.0109375201066 0.0334718150863 3.9143140518e-27)
(-0.0109335598781 0.0569285822997 -7.07841081847e-31)
(-0.0108309786454 0.0803924453862 0)
(-0.0106847925655 0.103466368831 0)
(-0.010499194902 0.126055983381 0)
(-0.0102787073268 0.14805989583 0)
(-0.010026651561 0.169385970303 0)
(-0.00974587575975 0.189951455118 0)
(-0.00943945310257 0.209682965977 0)
(-0.00911023333148 0.228516800281 0)
(-0.00876135687416 0.246398902548 0)
(-0.0083956380186 0.263284941604 0)
(-0.00801614052349 0.27913997048 0)
(-0.00762548281617 0.293938195649 0)
(-0.00722650148429 0.307662382982 0)
(-0.00682149527163 0.320303408141 0)
(-0.00641297678813 0.331859513157 0)
(-0.0060028617519 0.342335742424 0)
(-0.00559330221677 0.351743150972 0)
(-0.00518582294835 0.360098218921 0)
(-0.00478222733253 0.367422092648 0)
(-0.00438368178285 0.373740041554 0)
(-0.00399168292728 0.37908078061 0)
(-0.0036070895638 0.383476003011 0)
(-0.00323114128628 0.386959803251 0)
(-0.00286444035557 0.389568289862 0)
(-0.00250801323251 0.391339104551 0)
(-0.00216224722868 0.392311107094 0)
(-0.00182799396656 0.392523986203 0)
(-0.00150547665824 0.392017954315 0)
(-0.00119532047939 0.390833678417 0)
(-0.000897494406614 0.389011499381 0)
(-0.000612549903122 0.386591493878 0)
(-0.000340385333713 0.383613417617 0)
(-8.14038246776e-05 0.380116369171 0)
(0.000164657747938 0.376138665762 0)
(0.000397527379462 0.371717671565 0)
(0.000617592513089 0.366889682396 0)
(0.000824692101469 0.3616898057 0)
(0.00101931983176 0.356151871884 0)
(0.00120141129332 0.350308357211 0)
(0.00137154848172 0.344190315745 0)
(0.00152974806085 0.337827340283 0)
(0.00167666175774 0.331247513472 0)
(0.00181237071243 0.324477404934 0)
(0.00193757573796 0.317542038546 0)
(0.00205240394257 0.310464922376 0)
(0.00215758418014 0.303268031548 0)
(0.00225327091265 0.295971869146 0)
(0.00234019957302 0.288595461326 0)
(0.0024185336301 0.281156444737 0)
(0.00248899582329 0.273671071839 0)
(0.00255174305686 0.26615432103 0)
(0.0026074688331 0.258619906899 0)
(0.0026563113028 0.251080406531 0)
(0.00269892324987 0.243547270708 0)
(0.00273541715944 0.236030960806 0)
(0.00276639845346 0.2285409546 0)
(0.00279195189162 0.22108588664 0)
(0.00281263464885 0.213673544655 0)
(0.00282850692084 0.206311008399 0)
(0.00284008091362 0.199004631804 0)
(0.00284739889262 0.191760175249 0)
(0.0028509350539 0.184582771914 0)
(0.00285072300263 0.177477051324 0)
(0.0028472072058 0.170447088457 0)
(0.0028404222654 0.163496517031 0)
(0.00283079160382 0.156628463173 0)
(0.00281835988554 0.149845649576 0)
(0.00280353655046 0.1431503155 0)
(0.0027863831106 0.136544313185 0)
(0.00276730006759 0.130029018234 0)
(0.0027463699938 0.123605421302 0)
(0.00272398644566 0.11727403212 0)
(0.00270025404677 0.111034969 0)
(0.00267555875336 0.10488786081 0)
(0.00265002549358 0.0988319374097 0)
(0.00262402919 0.0928659324639 0)
(0.00259771073198 0.0869881770082 0)
(0.00257142859908 0.0811965062315 0)
(0.00254533341269 0.0754883584658 0)
(0.00251975986445 0.069860687819 0)
(0.00249486007789 0.0643100704902 0)
(0.00247093521792 0.0588326262941 0)
(0.00244812648594 0.0534241363589 0)
(0.00242668310731 0.0480799812385 0)
(0.00240670308538 0.0427952863759 0)
(0.00238831692009 0.0375649182948 0)
(0.00237142175043 0.0323837575561 0)
(0.0023556291792 0.0272470013229 0)
(0.00233957815966 0.0221513256783 0)
(0.00231948535057 0.0170978026305 0)
(0.0022788276416 0.012116421286 0)
(0.00220232192925 0.00699330869082 0)
(0.00274090339234 0.00274053741324 0)
(-0.0335513225594 0.0110306297973 0)
(-0.0370882296087 0.0373746716491 0)
(-0.0370007256425 0.0636459656181 -4.1090936171e-27)
(-0.0364980329535 0.0899493763365 0)
(-0.0357996012135 0.115781131106 0)
(-0.0349322373926 0.1410563022 0)
(-0.0339107000939 0.165667117498 0)
(-0.0327494350271 0.189512176303 0)
(-0.0314631267533 0.212499327104 0)
(-0.030067359276 0.234546693705 0)
(-0.0285776702413 0.255583213467 0)
(-0.0270100649417 0.275548773962 0)
(-0.0253798828089 0.294394225811 0)
(-0.0237024565715 0.312081072843 0)
(-0.0219919252066 0.328581108178 0)
(-0.0202620884658 0.343875802041 0)
(-0.0185251973857 0.357955694399 0)
(-0.0167930040166 0.370819611355 0)
(-0.0150755327822 0.382473940355 0)
(-0.0133823052233 0.392931793776 0)
(-0.0117210812109 0.402212273319 0)
(-0.0100992285246 0.410339672508 0)
(-0.00852241642459 0.417342803765 0)
(-0.00699609502208 0.4232542945 0)
(-0.005524123264 0.428110012111 0)
(-0.00411032765345 0.431948471171 0)
(-0.00275705532998 0.434810358533 0)
(-0.00146679117222 0.436738042935 0)
(-0.000240637739615 0.43777518393 0)
(0.000920017411562 0.437966319191 0)
(0.00201507498192 0.43735657125 0)
(0.00304407899184 0.435991086855 0)
(0.0040078617813 0.433915268151 0)
(0.00490669268436 0.431174250885 0)
(0.00574199580863 0.427812540485 0)
(0.00651461813601 0.423873901131 0)
(0.00722653365949 0.419401173086 0)
(0.00787905112043 0.414436114657 0)
(0.00847454851278 0.409019264075 0)
(0.00901467234325 0.403189820645 0)
(0.00950208765047 0.396985538644 0)
(0.00993867418787 0.390442648128 0)
(0.0103272814718 0.383595778044 0)
(0.0106699297106 0.376477913275 0)
(0.0109695611153 0.369120344546 0)
(0.0112282528653 0.361552659046 0)
(0.0114489558144 0.353802714802 0)
(0.0116337277937 0.345896662405 0)
(0.011785452385 0.337858942148 0)
(0.0119061002427 0.329712334243 0)
(0.011998420606 0.321477975856 0)
(0.0120642390898 0.313175436086 0)
(0.0121061159319 0.304822749427 0)
(0.0121256876775 0.29643651069 0)
(0.0121252858236 0.288031919596 0)
(0.0121063299547 0.279622889406 0)
(0.012070901241 0.271222096832 0)
(0.0120201930254 0.262841097593 0)
(0.0119560329563 0.254490374914 0)
(0.0118793966872 0.246179454983 0)
(0.0117918729675 0.237916948214 0)
(0.0116942444549 0.229710658615 0)
(0.0115878895561 0.221567612668 0)
(0.0114734340546 0.213494157883 0)
(0.0113520842662 0.20549597642 0)
(0.0112243518991 0.197578170257 0)
(0.0110913130637 0.189745258203 0)
(0.0109534088224 0.182001246959 0)
(0.0108116257455 0.174349612584 0)
(0.0106663737941 0.166793358747 0)
(0.0105185845484 0.159334984894 0)
(0.0103686683422 0.151976534181 0)
(0.0102175275897 0.144719552067 0)
(0.010065594545 0.137565127441 0)
(0.00991375770467 0.130513845496 0)
(0.00976248183048 0.123565825628 0)
(0.00961264648382 0.116720672745 0)
(0.00946474946262 0.10997751553 0)
(0.00931965685818 0.103334959538 0)
(0.00917789117225 0.0967911287069 0)
(0.00904029285572 0.0903436232196 0)
(0.00890739382014 0.0839895666977 0)
(0.00877999018889 0.0777255708199 0)
(0.00865860148444 0.0715477899338 0)
(0.00854395341064 0.0654518942517 0)
(0.00843652035513 0.0594331333597 0)
(0.00833691186144 0.0534863187804 0)
(0.00824548427185 0.0476058946355 0)
(0.00816259815873 0.0417859201554 0)
(0.00808821874839 0.0360201047432 0)
(0.0080218536447 0.0303016335891 0)
(0.00796168451845 0.0246226632268 0)
(0.00790281956446 0.0189719454381 0)
(0.00783043949522 0.0133256070856 0)
(0.00765503962939 0.00763790805772 0)
(0.00698913799099 0.00219647954606 0)
(-0.0574397297078 0.0111778304276 0)
(-0.0635901785351 0.0379914210794 0)
(-0.0633715555655 0.0645947791548 -4.11283774877e-27)
(-0.0624999161234 0.0912815138372 0)
(-0.0613176464637 0.117485363806 0)
(-0.059858849854 0.143116040296 0)
(-0.0581441960019 0.168061914999 0)
(-0.0561961708288 0.192219297391 0)
(-0.0540389837746 0.215494329351 0)
(-0.0516982611101 0.237803953418 0)
(-0.0492001278739 0.259076382989 0)
(-0.0465710112436 0.279251258174 0)
(-0.0438367593561 0.298279582787 0)
(-0.0410226142864 0.316123403011 0)
(-0.0381524160924 0.332755348573 0)
(-0.0352487748774 0.348157995095 0)
(-0.0323323795832 0.362323160495 0)
(-0.0294223673407 0.375251096093 0)
(-0.0265357289097 0.386949675455 0)
(-0.0236878494824 0.397433541688 0)
(-0.0208919823883 0.406723303087 0)
(-0.0181599185021 0.41484473393 0)
(-0.0155014872854 0.421828053457 0)
(-0.0129253045693 0.427707234942 0)
(-0.0104382596602 0.432519401099 0)
(-0.00804629845989 0.436304254111 0)
(-0.00575386938091 0.439103582745 0)
(-0.0035647169398 0.440960797132 0)
(-0.00148127889023 0.441920525788 0)
(0.000494517532193 0.442028230916 0)
(0.00236190858463 0.441329888586 0)
(0.0041204812841 0.439871644038 0)
(0.00577078977593 0.437699547776 0)
(0.00731362886144 0.434859323714 0)
(0.00875071194772 0.431396115974 0)
(0.0100838287014 0.427354283767 0)
(0.0113155652842 0.422777220777 0)
(0.0124484816281 0.41770719512 0)
(0.0134858400004 0.412185211941 0)
(0.0144307809564 0.406250893932 0)
(0.0152870609404 0.399942379792 0)
(0.0160582309746 0.393296241531 0)
(0.0167483785497 0.386347414583 0)
(0.0173613116646 0.37912914827 0)
(0.0179013002858 0.371672965344 0)
(0.0183722683609 0.364008643491 0)
(0.0187785307215 0.356164201906 0)
(0.0191239965862 0.348165911681 0)
(0.019412898934 0.340038308062 0)
(0.0196490134898 0.331804227702 0)
(0.0198363783544 0.323484843575 0)
(0.0199785331414 0.315099725544 0)
(0.0200792273979 0.306666894523 0)
(0.0201416843568 0.298202901792 0)
(0.0201692966421 0.289722896596 0)
(0.0201649188015 0.281240717779 0)
(0.0201315485807 0.272768968692 0)
(0.0200716512397 0.264319114252 0)
(0.0199878238398 0.255901555672 0)
(0.0198821533634 0.247525725594 0)
(0.0197568608301 0.2392001564 0)
(0.0196136938789 0.230932567309 0)
(0.0194545467678 0.222729920504 0)
(0.0192808873408 0.214598495375 0)
(0.0190943488145 0.206543929366 0)
(0.0188961903146 0.198571276962 0)
(0.018687856337 0.190685033656 0)
(0.0184704700505 0.18288917916 0)
(0.0182453569438 0.175187185653 0)
(0.0180135701073 0.167582046941 0)
(0.0177763752337 0.160076273223 0)
(0.0175348076421 0.1526719091 0)
(0.0172901168262 0.145370518818 0)
(0.0170433553159 0.138173197072 0)
(0.0167957817627 0.131080548635 0)
(0.016548482299 0.124092695919 0)
(0.0163027320104 0.117209257297 0)
(0.0160596496405 0.110429355264 0)
(0.0158205177503 0.103751596799 0)
(0.0155864718626 0.097174085165 0)
(0.0153587799572 0.0906944052671 0)
(0.0151385669496 0.0843096414216 0)
(0.0149270539615 0.0780163693831 0)
(0.0147253185855 0.0718106812924 0)
(0.014534493529 0.0656881850972 0)
(0.0143555613091 0.0596440359671 0)
(0.01418950892 0.0536729396911 0)
(0.014037150701 0.0477691819287 0)
(0.01389922902 0.0419266142316 0)
(0.0137762529096 0.0361386304879 0)
(0.0136685499586 0.0303980293343 0)
(0.0135762182665 0.0246966801882 0)
(0.0134993860139 0.0190245799739 0)
(0.0134369330571 0.0133640584417 0)
(0.0133297001664 0.0077720398026 0)
(0.0120874761581 0.00226361591575 0)
(-0.0818865465728 0.011307597765 0)
(-0.0907254010121 0.0385717167707 0)
(-0.0904045650561 0.0655216436414 4.1109273435e-27)
(-0.0891456775812 0.0925757929177 0)
(-0.087440972938 0.119130912221 0)
(-0.0853405474925 0.145091698286 0)
(-0.0828741604127 0.170342186205 0)
(-0.0800741224813 0.194775696732 0)
(-0.0769755078997 0.218296306584 0)
(-0.0736153261485 0.240819715991 0)
(-0.0700314862558 0.262273620951 0)
(-0.0662620875424 0.282597811373 0)
(-0.0623445411704 0.301744013839 0)
(-0.0583150803917 0.319675496066 0)
(-0.0542080822663 0.336366501247 0)
(-0.050055823457 0.351801528677 0)
(-0.0458880142748 0.365974524722 0)
(-0.0417317936601 0.378887998821 0)
(-0.0376114562207 0.390552122016 0)
(-0.033548650122 0.400983818002 0)
(-0.0295622502122 0.410205893584 0)
(-0.0256686982497 0.418246209649 0)
(-0.0218819559116 0.425136925042 0)
(-0.0182139149009 0.430913802794 0)
(-0.0146743625693 0.43561559575 0)
(-0.0112714008357 0.439283491657 0)
(-0.0080113796312 0.441960624584 0)
(-0.00489929325816 0.443691630457 0)
(-0.00193866913793 0.444522250841 0)
(0.00086806045279 0.444498966955 0)
(0.00351970734981 0.443668672535 0)
(0.0060159764362 0.442078394549 0)
(0.00835756478937 0.439774909292 0)
(0.0105458983966 0.43680462024 0)
(0.0125832814862 0.433213280724 0)
(0.0144725392951 0.429045791897 0)
(0.0162172130202 0.424346027141 0)
(0.0178212164378 0.419156675146 0)
(0.0192890405535 0.413519104858 0)
(0.0206254166018 0.407473249386 0)
(0.0218355293802 0.401057507508 0)
(0.0229246867125 0.394308662565 0)
(0.0238985382952 0.387261816107 0)
(0.0247627511475 0.379950338439 0)
(0.0255232310175 0.372405831917 0)
(0.0261858035539 0.364658111129 0)
(0.0267564361862 0.356735194327 0)
(0.027240926269 0.348663311974 0)
(0.0276451228883 0.340466925005 0)
(0.0279746241235 0.332168759952 0)
(0.0282349992855 0.323789851749 0)
(0.0284314986573 0.315349602482 0)
(0.0285692775471 0.306865844995 0)
(0.0286531217738 0.298354920435 0)
(0.0286876747297 0.28983175697 0)
(0.028677181639 0.281309959686 0)
(0.0286257202069 0.272801897382 0)
(0.0285369651588 0.264318797185 0)
(0.0284144216282 0.255870831626 0)
(0.0282612102361 0.247467210311 0)
(0.0280803010939 0.239116260042 0)
(0.0278743179089 0.230825506757 0)
(0.0276457691714 0.222601742777 0)
(0.0273968689279 0.214451094127 0)
(0.027129761158 0.206379071252 0)
(0.0268463540544 0.19839061913 0)
(0.0265485334014 0.190490150116 0)
(0.0262380074897 0.182681576724 0)
(0.0259165058957 0.174968327696 0)
(0.0255856324864 0.167353365419 0)
(0.025247046799 0.159839188025 0)
(0.0249023236628 0.152427834958 0)
(0.024553115564 0.145120879221 0)
(0.0242010181819 0.137919425389 0)
(0.0238477131275 0.130824096458 0)
(0.0234948397363 0.12383502876 0)
(0.0231441185368 0.116951857799 0)
(0.0227972301341 0.110173714104 0)
(0.0224559203246 0.103499211691 0)
(0.0221218874157 0.09692644809 0)
(0.0217968702499 0.0904529982537 0)
(0.0214825452458 0.084075920968 0)
(0.0211805984879 0.0777917597955 0)
(0.0208926335955 0.0715965567545 0)
(0.0206202286065 0.0654858603508 0)
(0.0203648550577 0.0594547450581 0)
(0.0201279198325 0.0534978223873 0)
(0.0199106962239 0.0476092578304 0)
(0.0197143549706 0.0417827696566 0)
(0.0195399220059 0.0360116168177 0)
(0.0193883456755 0.0302885508173 0)
(0.0192606016778 0.0246057211369 0)
(0.0191578342457 0.0189545561934 0)
(0.0190775828935 0.0133206759413 0)
(0.0189276137588 0.00778102926258 0)
(0.0170116983752 0.00228976831479 0)
(-0.106734098695 0.0114744828496 0)
(-0.118268988299 0.0393327381119 0)
(-0.117839570555 0.0667621228517 0)
(-0.116178101583 0.0943089777849 0)
(-0.11392922002 0.121332495843 0)
(-0.111160235386 0.147731863957 0)
(-0.10791128254 0.173385855383 0)
(-0.104225650587 0.198183832496 0)
(-0.100150248635 0.222027108134 0)
(-0.0957344066753 0.244829749948 0)
(-0.0910285980972 0.266518849335 0)
(-0.0860833525025 0.287034516247 0)
(-0.0809482184915 0.306329596667 0)
(-0.0756709679553 0.324369151891 0)
(-0.0702968593139 0.341129753968 0)
(-0.064868162359 0.356598636035 0)
(-0.0594237293726 0.370772748909 0)
(-0.0539988275184 0.383657759132 0)
(-0.0486249874248 0.395267034046 0)
(-0.0433300940687 0.405620642768 0)
(-0.0381384469342 0.414744408628 0)
(-0.0330710262979 0.42266902986 0)
(-0.0281456701085 0.429429287983 0)
(-0.0233774140627 0.435063344108 0)
(-0.0187786876562 0.43961212503 0)
(-0.0143596425365 0.443118785337 0)
(-0.0101283041768 0.445628236775 0)
(-0.00609084957551 0.447186727638 0)
(-0.00225170148638 0.447841464181 0)
(0.00138623880934 0.447640262316 0)
(0.0048215369547 0.446631227115 0)
(0.00805404568651 0.444862504234 0)
(0.0110847572158 0.442381835533 0)
(0.0139157330697 0.439236539288 0)
(0.0165500253583 0.435473168113 0)
(0.0189914888074 0.43113733229 0)
(0.0212447668554 0.426273528564 0)
(0.0233151114252 0.420924988782 0)
(0.0252083819495 0.41513354948 0)
(0.0269308763697 0.408939540333 0)
(0.0284893408807 0.402381689781 0)
(0.029890810065 0.395497047045 0)
(0.0311426239798 0.38832091899 0)
(0.0322522748444 0.380886822314 0)
(0.0332274284092 0.373226449611 0)
(0.0340757755945 0.36536965051 0)
(0.0348050566559 0.357344426046 0)
(0.0354229179975 0.349176938136 0)
(0.0359369395166 0.340891531788 0)
(0.0363544985683 0.332510771958 0)
(0.0366828025761 0.324055491787 0)
(0.0369287635157 0.315544854163 0)
(0.0370990388064 0.306996422472 0)
(0.0371999200342 0.298426242123 0)
(0.0372373850643 0.289848927744 0)
(0.0372170040771 0.281277757638 0)
(0.0371440046551 0.272724769757 0)
(0.0370231965197 0.264200860781 0)
(0.0368590494849 0.255715882135 0)
(0.0366556362513 0.247278735055 0)
(0.0364167210506 0.238897458626 0)
(0.0361457178086 0.230579313429 0)
(0.0358457856079 0.222330854989 0)
(0.0355197981454 0.21415800061 0)
(0.0351704411182 0.206066084337 0)
(0.034800188203 0.198059904393 0)
(0.0344113953072 0.190143758329 0)
(0.0340062785335 0.182321471141 0)
(0.0335870008404 0.174596412089 0)
(0.0331556482745 0.166971506019 0)
(0.0327143057531 0.159449235177 0)
(0.0322650291858 0.152031637802 0)
(0.0318099085225 0.144720299663 0)
(0.0313510347399 0.137516344893 0)
(0.0308905496936 0.1304204222 0)
(0.0304306082414 0.123432692852 0)
(0.0299734155836 0.116552816381 0)
(0.0295211856824 0.109779940121 0)
(0.029076167544 0.103112688259 0)
(0.028640601688 0.0965491563143 0)
(0.0282167372181 0.0900869064324 0)
(0.0278067882475 0.0837229690328 0)
(0.0274129436494 0.0774538458389 0)
(0.0270373253164 0.0712755194733 0)
(0.02668199241 0.0651834642325 0)
(0.0263489033915 0.0591726623568 0)
(0.0260399173217 0.0532376195252 0)
(0.0257567640194 0.04737238323 0)
(0.0255010511395 0.0415705556394 0)
(0.0252742609324 0.0358253071269 0)
(0.0250778005461 0.0301294020071 0)
(0.0249130779734 0.0244752196194 0)
(0.0247813470748 0.0188548720579 0)
(0.0246776545769 0.0132549239244 0)
(0.0244780569004 0.00775446976848 0)
(0.0219614622567 0.00229034049252 0)
(-0.132122563184 0.0116828271417 0)
(-0.14639600168 0.0403021838234 0)
(-0.145845488365 0.0683510618915 0)
(-0.143757868216 0.096530473994 0)
(-0.140933611838 0.124153401796 0)
(-0.137458401464 0.151112451727 0)
(-0.133384082288 0.177280014137 0)
(-0.12876630567 0.202540549777 0)
(-0.123665129346 0.226791963756 0)
(-0.118143454944 0.249946374476 0)
(-0.112265429344 0.271930266702 0)
(-0.106095017011 0.292684344163 0)
(-0.099694728963 0.312163081263 0)
(-0.0931245795733 0.330334027861 0)
(-0.0864412196268 0.347176923358 0)
(-0.0796973070481 0.362682669689 0)
(-0.0729410449548 0.376852214533 0)
(-0.0662159449196 0.389695389662 0)
(-0.0595607287384 0.401229750487 0)
(-0.0530094212817 0.411479455177 0)
(-0.0465915299067 0.420474219206 0)
(-0.0403323569917 0.428248369306 0)
(-0.0342533276167 0.434840013185 0)
(-0.0283723815462 0.440290326429 0)
(-0.0227043124397 0.444642949667 0)
(-0.0172611211505 0.447943477994 0)
(-0.0120522807566 0.45023902299 0)
(-0.00708500440271 0.451577825703 0)
(-0.00236442764237 0.452008905283 0)
(0.00210618930491 0.451581730864 0)
(0.006325323624 0.450345914833 0)
(0.0102930652809 0.448350997426 0)
(0.0140108435631 0.44564592121 0)
(0.0174814376873 0.442279146671 0)
(0.0207087860775 0.438298219672 0)
(0.0236978420409 0.433749632906 0)
(0.0264544761412 0.428678657249 0)
(0.028985334891 0.423129197585 0)
(0.0312977596658 0.41714366915 0)
(0.0333996608567 0.410762892006 0)
(0.0352994505795 0.404026001857 0)
(0.0370059283487 0.396970376117 0)
(0.0385282228182 0.389631574291 0)
(0.0398756846678 0.38204329262 0)
(0.0410578334729 0.374237332512 0)
(0.0420842550941 0.366243583339 0)
(0.0429645519848 0.358090019228 0)
(0.0437082449959 0.3498027106 0)
(0.0443247280811 0.341405849776 0)
(0.0448231768258 0.332921791176 0)
(0.0452125107333 0.324371104831 0)
(0.0455013127502 0.31577264323 0)
(0.0456978036826 0.307143619344 0)
(0.045809777499 0.29849969521 0)
(0.045844592236 0.289855078135 0)
(0.0458091250316 0.281222623393 0)
(0.0457097823107 0.272613939879 0)
(0.0455524762067 0.264039497421 0)
(0.0453426541914 0.255508732074 0)
(0.0450852958355 0.247030148309 0)
(0.0447849592984 0.238611414661 0)
(0.044445794656 0.230259452323 0)
(0.0440716023298 0.221980513834 0)
(0.04366585743 0.213780252177 0)
(0.0432317739054 0.205663778145 0)
(0.0427723334765 0.197635707193 0)
(0.0422903490467 0.189700194384 0)
(0.0417884921987 0.181860959465 0)
(0.0412693502599 0.174121301317 0)
(0.0407354474772 0.166484104382 0)
(0.0401892916527 0.158951836767 0)
(0.0396333859346 0.15152654297 0)
(0.0390702628392 0.144209831091 0)
(0.0385024854018 0.137002857572 0)
(0.0379326681841 0.129906309257 0)
(0.0373634682263 0.122920385731 0)
(0.0367975941036 0.116044781522 0)
(0.0362377882644 0.109278670835 0)
(0.0356868261427 0.102620694129 0)
(0.0351474922232 0.0960689488763 0)
(0.0346225717151 0.0896209834856 0)
(0.0341148229198 0.083273796343 0)
(0.0336269640909 0.077023838637 0)
(0.0331616447613 0.0708670224978 0)
(0.0327214304862 0.0647987328379 0)
(0.0323087760483 0.0588138438508 0)
(0.0319260116546 0.0529067382387 0)
(0.0315753230251 0.0470713299138 0)
(0.0312587468958 0.0413010894864 0)
(0.0309781700782 0.035589076551 0)
(0.030735351124 0.0299279914118 0)
(0.0305319354287 0.0243102381615 0)
(0.0303690624692 0.0187280574207 0)
(0.0302395335219 0.013167971948 0)
(0.0299896948783 0.00770720298242 0)
(0.0268932014295 0.00228183799361 0)
(-0.158186157809 0.0119378178972 0)
(-0.175259445115 0.0414979793531 0)
(-0.174570322203 0.0703131115398 4.13444841972e-27)
(-0.172024935376 0.0992735980071 0)
(-0.168584338409 0.127634911119 0)
(-0.164354079102 0.155281504772 0)
(-0.159399315955 0.182078014776 0)
(-0.15378976672 0.207903008285 0)
(-0.147600314289 0.232650387153 0)
(-0.140909018231 0.256230108981 0)
(-0.133795126882 0.278568188482 0)
(-0.126337298038 0.299606358177 0)
(-0.11861205594 0.319301402138 0)
(-0.110692515659 0.337624232098 0)
(-0.102647361761 0.354558769484 0)
(-0.0945400952366 0.370100690957 0)
(-0.0864285222129 0.38425609229 0)
(-0.078364491316 0.397040122335 0)
(-0.0703938411432 0.408475637952 0)
(-0.0625565526133 0.41859192677 0)
(-0.0548870489641 0.427423539383 0)
(-0.0474146219226 0.435009261297 0)
(-0.0401639113736 0.441391241495 0)
(-0.0331554131273 0.446614276966 0)
(-0.0264059478451 0.450725237322 0)
(-0.0199290868029 0.453772601027 0)
(-0.01373549565 0.455806070187 0)
(-0.00783322455743 0.456876232656 0)
(-0.00222793135607 0.457034248936 0)
(0.00307691868938 0.456331546004 0)
(0.00807986908402 0.45481953196 0)
(0.0127813878733 0.452549410172 0)
(0.0171834937826 0.449571561812 0)
(0.0212898013107 0.445935804166 0)
(0.0251052778707 0.441690867449 0)
(0.0286360885584 0.43688429373 0)
(0.0318894567122 0.431562272343 0)
(0.0348735201588 0.425769505269 0)
(0.0375972125902 0.419549092279 0)
(0.0400701399002 0.412942433141 0)
(0.0423024790014 0.405989144832 0)
(0.0443048681907 0.398726992547 0)
(0.046088316462 0.391191833821 0)
(0.0476641014277 0.383417575809 0)
(0.0490436837462 0.375436145903 0)
(0.0502386088517 0.367277476258 0)
(0.0512604244118 0.358969502637 0)
(0.0521205855802 0.350538178231 0)
(0.0528303768441 0.342007502649 0)
(0.0534008238463 0.333399566304 0)
(0.0538426240478 0.324734609698 0)
(0.054166070707 0.316031097061 0)
(0.0543809985705 0.30730580293 0)
(0.0544967264636 0.298573910103 0)
(0.0545220240702 0.289849116614 0)
(0.0544650783688 0.281143749409 0)
(0.0543334853679 0.272468881753 0)
(0.0541342426604 0.263834451689 0)
(0.0538737665334 0.255249378437 0)
(0.0535579092088 0.246721674265 0)
(0.0531919980383 0.238258549123 0)
(0.052780872548 0.229866506186 0)
(0.05232893946 0.221551426343 0)
(0.0518402222812 0.213318640713 0)
(0.0513184241931 0.205172990225 0)
(0.0507669819635 0.197118872279 0)
(0.0501891285493 0.189160274486 0)
(0.0495879436123 0.181300796407 0)
(0.0489664087966 0.173543660085 0)
(0.0483274487626 0.165891710903 0)
(0.0476739741536 0.158347410046 0)
(0.0470089093818 0.150912820456 0)
(0.0463352207262 0.143589587761 0)
(0.0456559295091 0.13637891807 0)
(0.0449741250634 0.129281554013 0)
(0.0442929640206 0.122297750765 0)
(0.0436156696719 0.115427253151 0)
(0.0429455195456 0.108669275231 0)
(0.0422858338362 0.1020224831 0)
(0.0416399542988 0.0954849819143 0)
(0.0410112249792 0.0890543075056 0)
(0.0404029657599 0.0827274232063 0)
(0.0398184487576 0.0765007218503 0)
(0.0392608698901 0.070370033244 0)
(0.0387333243094 0.0643306368287 0)
(0.0382387794602 0.0583772793967 0)
(0.0377800533375 0.0525041974774 0)
(0.0373597934449 0.0467051450157 0)
(0.0369804630938 0.0409734252933 0)
(0.0366443322401 0.0353019320525 0)
(0.0363534750408 0.0296832165554 0)
(0.0361097388108 0.024109538746 0)
(0.0359142048116 0.0185729521788 0)
(0.0357578439269 0.0130596661547 0)
(0.0354584562425 0.00764413646576 0)
(0.0317920368221 0.00226806433006 0)
(-0.185071342687 0.0122437067043 0)
(-0.205021311188 0.0429400397783 0)
(-0.204171389978 0.0726786193899 -4.13224662026e-27)
(-0.201128027464 0.1025794255 0)
(-0.197019180982 0.131827509829 0)
(-0.191972363649 0.16029727859 0)
(-0.186068137451 0.18784403774 0)
(-0.179392453581 0.214339426792 0)
(-0.172037138742 0.239672815038 0)
(-0.164097390321 0.263751928761 0)
(-0.155669331138 0.286502636148 0)
(-0.146847849631 0.307868347376 0)
(-0.137724761062 0.327809063705 0)
(-0.128387302326 0.346300161767 0)
(-0.118916950982 0.363330985807 0)
(-0.109388564497 0.378903310821 0)
(-0.0998698233284 0.393029735101 0)
(-0.0904209701869 0.405732059276 0)
(-0.0810948200866 0.417039710141 0)
(-0.0719370173506 0.426988266466 0)
(-0.0629864892843 0.435618138982 0)
(-0.0542760448812 0.442973444053 0)
(-0.0458330435773 0.449101091335 0)
(-0.0376800711652 0.454050081117 0)
(-0.0298355557733 0.457870983314 0)
(-0.0223142912028 0.460615551998 0)
(-0.0151278461672 0.462336423029 0)
(-0.00828487707743 0.463086847679 0)
(-0.00179136301623 0.462920431528 0)
(0.00434920042664 0.4618908438 0)
(0.010135625072 0.460051628111 0)
(0.0155688515247 0.457455757637 0)
(0.0206517102404 0.45415543548 0)
(0.0253887965636 0.450201994898 0)
(0.0297862650355 0.445645539889 0)
(0.0338516358816 0.440534818804 0)
(0.0375936251065 0.434917074479 0)
(0.0410219845847 0.428837921327 0)
(0.0441473604338 0.422341241836 0)
(0.0469811594718 0.415469098495 0)
(0.0495354295307 0.408261658666 0)
(0.0518227425116 0.400757131141 0)
(0.0538560861779 0.392991714103 0)
(0.0556487545292 0.38499955487 0)
(0.0572142437972 0.376812722164 0)
(0.058566145178 0.368461191912 0)
(0.0597180423837 0.359972847595 0)
(0.060683406401 0.351373496154 0)
(0.0614754964627 0.342686900189 0)
(0.0621072608088 0.333934826958 0)
(0.0625912469485 0.32513711406 0)
(0.0629395158529 0.3163117513 0)
(0.0631635698828 0.307474977327 0)
(0.063274289057 0.298641389295 0)
(0.0632818848224 0.289824062915 0)
(0.0631958654367 0.281034680082 0)
(0.0630250208498 0.272283660654 0)
(0.062777420273 0.263580295117 0)
(0.0624604288164 0.254932874559 0)
(0.0620807354461 0.246348814925 0)
(0.0616443972101 0.237834772466 0)
(0.0611568913162 0.229396748142 0)
(0.0606231789536 0.221040178852 0)
(0.0600477722423 0.212770014381 0)
(0.0594348075822 0.204590779097 0)
(0.0587881170838 0.196506618494 0)
(0.0581113012035 0.188521330751 0)
(0.0574077950215 0.180638384475 0)
(0.0566809314637 0.172860923667 0)
(0.0559339949601 0.165191761845 0)
(0.0551702692315 0.157633366896 0)
(0.0543930738764 0.150187838939 0)
(0.053605793831 0.142856882936 0)
(0.0528118974909 0.135641778295 0)
(0.0520149478219 0.128543347062 0)
(0.0512186031978 0.121561922644 0)
(0.0504266123167 0.114697320319 0)
(0.0496428006664 0.107948811036 0)
(0.0488710527236 0.101315099317 0)
(0.0481152879082 0.0947943063218 0)
(0.0473794341413 0.0883839584241 0)
(0.0466673974382 0.082080981926 0)
(0.0459830309662 0.0758817039052 0)
(0.0453301023409 0.0697818593908 0)
(0.0447122621309 0.0637766046982 0)
(0.044133012681 0.0578605367512 0)
(0.0435956798017 0.0520277182112 0)
(0.0431033867327 0.0462717082246 0)
(0.042659032348 0.0405855998848 0)
(0.0422652721219 0.0349620654744 0)
(0.0419244996544 0.0293934161997 0)
(0.0416387919155 0.0238716539887 0)
(0.0414092674641 0.0183885293376 0)
(0.041225328363 0.0129298609005 0)
(0.0408768715074 0.00756701228882 0)
(0.0366475517222 0.00225033016973 0)
(-0.212938550656 0.0126051340727 0)
(-0.235857091674 0.0446524916687 0)
(-0.234818580989 0.0754854927951 0)
(-0.23122706622 0.106499363997 0)
(-0.226385361489 0.136794169229 0)
(-0.220445777632 0.166232080423 0)
(-0.213507018301 0.194657339459 0)
(-0.20567403368 0.221933618545 0)
(-0.197058250336 0.247945343713 0)
(-0.187774441886 0.272598142504 0)
(-0.177937758326 0.295818314189 0)
(-0.167661154872 0.317551875393 0)
(-0.157053245702 0.337763240741 0)
(-0.146216573686 0.356433642699 0)
(-0.135246275883 0.373559370065 0)
(-0.124229127922 0.389149889665 0)
(-0.113242953036 0.403225909847 0)
(-0.102356385762 0.415817446718 0)
(-0.0916289726307 0.426961960329 0)
(-0.0811115803964 0.436702632761 0)
(-0.070847057998 0.445086857643 0)
(-0.060871077146 0.452164996222 0)
(-0.051213054767 0.457989428145 0)
(-0.0418970580453 0.462613888398 0)
(-0.0329426032119 0.466093044327 0)
(-0.0243652940203 0.46848223855 0)
(-0.0161772847888 0.469837314333 0)
(-0.00838759510736 0.470214451952 0)
(-0.0010023241513 0.469669973308 0)
(0.00597518266591 0.468260071459 0)
(0.0125441983918 0.46604068449 0)
(0.018706325368 0.463066867252 0)
(0.0244653707067 0.459392821897 0)
(0.0298271182412 0.455071628181 0)
(0.0347990929448 0.450154937278 0)
(0.0393903406433 0.444692851721 0)
(0.043611228661 0.438733791586 0)
(0.0474732661097 0.432324388036 0)
(0.0509889443829 0.425509394861 0)
(0.0541715926898 0.418331612645 0)
(0.0570352459894 0.410831822593 0)
(0.0595945195624 0.403048729029 0)
(0.0618644886102 0.395018910846 0)
(0.063860568822 0.386776782993 0)
(0.065598398063 0.378354569457 0)
(0.0670937167448 0.369782289347 0)
(0.068362248453 0.36108775778 0)
(0.0694195797944 0.352296603114 0)
(0.0702810423981 0.343432301956 0)
(0.0709615974119 0.334516232832 0)
(0.0714757265897 0.325567748913 0)