/*--------------------------------*- C++ -*----------------------------------*\
| =========                 |                                                 |
| \\      /  F ield         | OpenFOAM: The Open Source CFD Toolbox           |
|  \\    /   O peration     | Version:  v1906                                 |
|   \\  /    A nd           | Web:      www.OpenFOAM.com                      |
|    \\/     M anipulation  |                                                 |
\*---------------------------------------------------------------------------*/
FoamFile
{
    version     2.0;
    format      ascii;
    class       surfaceScalarField;
    location    "694";
    object      phi;
}
// * * * * * * * * * * * * * * * * * * * * * * * * * * * * * * * * * * * * * //

dimensions      [0 3 -1 0 0 0 0];
oriented        oriented;


internalField   nonuniform List<scalar> 
18240
(
-0.000199441625578
0.000199384743922
-0.000408338307025
0.000208828045888
-0.000615834256751
0.000207438515021
-0.000820319799263
0.000204414065435
-0.00102071480661
0.000200339810275
-0.00121612015339
0.000195331062588
-0.00140567706925
0.00018950414562
-0.00158870435137
0.000182950069294
-0.00176453988755
0.000175785279299
-0.00193271837256
0.000168098249958
-0.00209277107698
0.000160005128945
-0.00224443763432
0.000151583234894
-0.00238742179205
0.000142939385277
-0.00252164005209
0.000134131832968
-0.00264693418474
0.000125252403275
-0.00276336026425
0.000116336583579
-0.00287085857511
0.000107459803199
-0.00296958592912
9.86348946557e-05
-0.00305954336402
8.99224591418e-05
-0.00314095366617
8.13150428288e-05
-0.00321384653838
7.2861639978e-05
-0.00327848232132
6.45379499261e-05
-0.00333489440683
5.63849322714e-05
-0.00338335943104
4.83648777367e-05
-0.00342389645922
4.05141367237e-05
-0.00345678340864
3.27847819128e-05
-0.00348201318955
2.52114403192e-05
-0.00349985576546
1.77386767736e-05
-0.00351027149801
1.04020286177e-05
-0.00351351805794
3.14122067189e-06
-0.00350952192634
-4.00500856596e-06
-0.00349852876693
-1.10996733905e-05
-0.00348043470089
-1.80981549258e-05
-0.00345547938802
-2.50627543981e-05
-0.00342353829722
-3.19403087137e-05
-0.00338485657768
-3.87899024851e-05
-0.00333930411053
-4.55469765376e-05
-0.00328714851286
-5.22643967517e-05
-0.00322827463653
-5.8863710683e-05
-0.00316299463023
-6.53893928598e-05
-0.00309123264765
-7.17474290718e-05
-0.00301336961655
-7.7972983026e-05
-0.00292939407634
-8.39566781555e-05
-0.00283977878946
-8.9725677692e-05
-0.00274459812264
-9.51577128877e-05
-0.00264443288767
-0.000100275573836
-0.00253945637519
-0.000104949316696
-0.00243036248925
-0.000109203118744
-0.00231742470605
-0.000112906233587
-0.00220144089528
-0.000116090071404
-0.00208277497812
-0.000118629588321
-0.00196230960742
-0.000120566217055
-0.00184048564866
-0.000121782773659
-0.0017182514412
-0.00012232712451
-0.00159611837148
-0.000122087217884
-0.00147508930206
-0.000121112281858
-0.00135574074141
-0.000119299044692
-0.00123910515279
-0.000116708809415
-0.00112578354121
-0.000113270058436
-0.00101676934682
-0.000109078763376
-0.000912601933164
-0.000104115898704
-0.000814131485194
-9.85280738309e-05
-0.000721719202831
-9.23624014847e-05
-0.000635954800869
-8.5816581119e-05
-0.000556942485342
-7.89651822908e-05
-0.000484994315731
-7.19953996507e-05
-0.000419967725083
-6.49825807154e-05
-0.000361891980512
-5.81184734321e-05
-0.000310364344437
-5.14871029476e-05
-0.000265147271663
-4.5256050601e-05
-0.000225643065166
-3.94672586176e-05
-0.000191460456796
-3.42185383433e-05
-0.000161943021626
-2.9483836924e-05
-0.000136686992426
-2.52892163812e-05
-0.000115097801975
-2.15584297999e-05
-9.68448087828e-05
-1.82834460784e-05
-8.14275719247e-05
-1.53887537098e-05
-6.85742283386e-05
-1.28805308341e-05
-5.78455799645e-05
-1.07017689445e-05
-4.90147665928e-05
-8.85457660714e-06
-4.1715164391e-05
-7.27413121479e-06
-3.57839722228e-05
-5.95150592172e-06
-3.09408724389e-05
-4.81911482393e-06
-2.71103590161e-05
-3.84874754246e-06
-2.41952175217e-05
-2.89363737559e-06
-2.18245138285e-05
-2.3847747167e-06
-1.96700527421e-05
-2.13548226387e-06
-1.78738593015e-05
-1.80666666427e-06
-1.61346208397e-05
-1.72281792707e-06
-1.43133702257e-05
-1.82714780287e-06
-1.24536566811e-05
-1.8444175224e-06
-1.0565164546e-05
-1.88734399074e-06
-8.40951960503e-06
-2.14716433962e-06
-5.81893030211e-06
-2.5769009156e-06
-2.81051791971e-06
-2.98510422397e-06
-2.80099872346e-06
-0.000211011544294
0.000410334135
-0.000434600637826
0.00043234973334
-0.000655969820878
0.000428742552854
-0.000873875720474
0.000422251256747
-0.00108730459203
0.000413704001757
-0.00129531868759
0.000403275562284
-0.00149703826251
0.000391159478977
-0.00169171476101
0.000377556068049
-0.00187867721718
0.000362683949433
-0.00205740185055
0.000346751467393
-0.00222743381002
0.000329973783437
-0.0023884641497
0.000312541258699
-0.00254023122806
0.000294643748187
-0.00268260902448
0.00027643647586
-0.00281549063955
0.000258071999157
-0.00293889111314
0.000239663175625
-0.00305281486
0.000221322428487
-0.00315737532132
0.000203120913644
-0.00325264735794
0.000185134463468
-0.00333880508202
0.00016739797505
-0.00341595952934
0.000149957423462
-0.00348431522525
0.000132818757818
-0.00354399300103
0.00011600565088
-0.00359520528885
9.95024494971e-05
-0.00363806381081
8.33175055506e-05
-0.00367277334036
6.74200427772e-05
-0.00369942407203
5.18091372448e-05
-0.0037182034592
3.64444962374e-05
-0.00372917328425
2.13211832681e-05
-0.00373249913309
6.39443564081e-06
-0.00372821268702
-8.339622571e-06
-0.00371645884076
-2.29250261526e-05
-0.00369724316098
-3.73593377551e-05
-0.00367069574252
-5.16803949431e-05
-0.00363680524186
-6.5873611109e-05
-0.00359569943605
-7.9964552397e-05
-0.00354736606198
-9.39204054143e-05
-0.0034919493117
-0.000107748589739
-0.00342945791816
-0.000121392521507
-0.00336007663603
-0.000134836776568
-0.00328386149372
-0.000147997434179
-0.00320106492544
-0.000160834369373
-0.00311181768083
-0.000173236351326
-0.00301646575231
-0.00018514107818
-0.00291523820738
-0.000196415124065
-0.00280859360856
-0.000206981922126
-0.00269687348798
-0.000216696374505
-0.0025806555289
-0.00022548025586
-0.00246039383302
-0.000233191088054
-0.00233677614374
-0.000239762945627
-0.00221035510268
-0.000245068827182
-0.00208190749774
-0.000249063182639
-0.00195206495522
-0.000251637340571
-0.00182167412099
-0.000252759841233
-0.00169143727096
-0.000252329203936
-0.00156226755812
-0.00025031558738
-0.00143493905672
-0.000246626138697
-0.00131041607245
-0.000241257763539
-0.00118950178135
-0.00023417813468
-0.00107313734289
-0.000225463383228
-0.000962058877113
-0.000215185237528
-0.000857069289391
-0.000203533943016
-0.000758698450192
-0.000190722813645
-0.000667453044017
-0.000177075769458
-0.00058355641734
-0.000162851261856
-0.000507229221932
-0.000148334292984
-0.000438432407019
-0.000133768983335
-0.000377089818779
-0.00011947116507
-0.000322856128105
-0.000105710908165
-0.000275355838763
-9.27655429852e-05
-0.000234010421849
-8.08037349091e-05
-0.000198282715357
-6.9954928389e-05
-0.000167528508759
-6.02300778303e-05
-0.000141218571357
-5.16073023128e-05
-0.000118789992927
-4.39798483514e-05
-9.98236428089e-05
-3.72573252665e-05
-8.3868375988e-05
-3.13371746265e-05
-7.05729247038e-05
-2.61821393376e-05
-5.95315519411e-05
-2.17358429999e-05
-5.04372623625e-05
-1.79533366189e-05
-4.29559595297e-05
-1.47475538181e-05
-3.68538290888e-05
-1.20560764402e-05
-3.18680024332e-05
-9.79686150618e-06
-2.78004945879e-05
-7.91775057716e-06
-2.43170112457e-05
-6.36994319412e-06
-2.1428803014e-05
-5.27214989218e-06
-1.91696221174e-05
-4.38752499734e-06
-1.73577752092e-05
-3.61722642888e-06
-1.57375520255e-05
-3.33693368399e-06
-1.41371602137e-05
-3.42345468813e-06
-1.23783229295e-05
-3.59626621081e-06
-1.04962754552e-05
-3.76411962752e-06
-8.44310870568e-06
-4.18939685812e-06
-5.98911491841e-06
-5.01737065549e-06
-2.93621755148e-06
-6.02057827699e-06
-5.72574529807e-06
-0.000213873781189
0.00062414498537
-0.0004397483829
0.000658157075451
-0.000663588013584
0.000652515644118
-0.000883883854299
0.000642479403128
-0.00109954939238
0.000629302856178
-0.00130960170063
0.000613259875531
-0.00151315079866
0.000594641808838
-0.00170942742905
0.000573764318243
-0.00189777031067
0.000550959965333
-0.00207764688464
0.000526559263228
-0.00224862700268
0.000500886982457
-0.00241040043545
0.000474245548893
-0.00256274055104
0.00044691694397
-0.00270552240247
0.000419148902294
-0.00283867963977
0.000391162448515
-0.00296222631689
0.000363140273214
-0.00307620937468
0.000335238972685
-0.0031807362685
0.000307578255059
-0.00327592436882
0.000280256553814
-0.00336193543956
0.000253339739286
-0.00343892233231
0.00022687902702
-0.00350707056025
0.00020089817963
-0.00356654219312
0.000175413000752
-0.00361752431845
0.000150416528413
-0.00366016974048
0.000125899882418
-0.00369465198707
0.00010183526415
-0.00372110254486
7.81981598921e-05
-0.00373967209417
5.49482730198e-05
-0.00375046407318
3.20533188244e-05
-0.00375360199322
9.46804707404e-06
-0.00374915945091
-1.28401032521e-05
-0.00373723345117
-3.49137023269e-05
-0.00371787107645
-5.67776420235e-05
-0.00369114896736
-7.84634139859e-05
-0.00365709700776
-9.99793671612e-05
-0.00361578398806
-0.000121336653069
-0.00356723852316
-0.000142517554967
-0.00351154081708
-0.000163503552744
-0.00344874083938
-0.000184242097282
-0.00337895572881
-0.000204677406245
-0.00330228464673
-0.00022471616361
-0.00321891092061
-0.000244261926526
-0.00312901261695
-0.000263180318523
-0.00303286796268
-0.000281337779243
-0.00293076009072
-0.000298566498919
-0.00282308390188
-0.000314707944049
-0.00271024360158
-0.000329577386446
-0.00259275901338
-0.000343011615608
-0.00247115503793
-0.000354831932245
-0.00234606612129
-0.000364894077049
-0.00221811921216
-0.000373047181724
-0.00208803717381
-0.000379181223924
-0.00195652125319
-0.000383177782216
-0.00182435926162
-0.000384950143727
-0.00169231837277
-0.000384386818457
-0.00156126113295
-0.000381393072953
-0.001432043515
-0.000375853407699
-0.00130561019906
-0.000367704732859
-0.00118286575744
-0.000356927031801
-0.00106475556342
-0.00034358256715
-0.000952128876867
-0.000327813175976
-0.000845813546204
-0.000309854950472
-0.00074643705027
-0.000290098572355
-0.000654455659641
-0.000269061530251
-0.000570120964016
-0.000247184152865
-0.000493618836928
-0.000224839508465
-0.000424969002631
-0.000202416203175
-0.00036405314209
-0.000180389049615
-0.000310526958181
-0.000159234343443
-0.000263914207747
-0.000139379925876
-0.000223593192765
-0.000121122319763
-0.000188914787444
-0.000104634867937
-0.000159198188877
-8.9944602235e-05
-0.000133834963007
-7.69722098655e-05
-0.000112273419986
-6.5539576253e-05
-9.40812369235e-05
-5.54512540336e-05
-7.88622713863e-05
-4.65542744984e-05
-6.62493389691e-05
-3.87956260926e-05
-5.58483152538e-05
-3.21339732918e-05
-4.7314601509e-05
-2.64863295771e-05
-4.03340383202e-05
-2.17242153e-05
-3.46554711175e-05
-1.77322104315e-05
-3.00448768497e-05
-1.44025465001e-05
-2.63087159091e-05
-1.16516056742e-05
-2.32279914429e-05
-9.44566262325e-06
-2.06418833859e-05
-7.8544305324e-06
-1.83392599447e-05
-6.68427585499e-06
-1.62612100428e-05
-5.69079223806e-06
-1.46100710788e-05
-4.98252816337e-06
-1.32818264868e-05
-4.74594648942e-06
-1.15807828295e-05
-5.28874221761e-06
-9.51685935502e-06
-5.82078809207e-06
-7.3333751467e-06
-6.36653684124e-06
-4.90281520762e-06
-7.43258204399e-06
-2.48392328877e-06
-8.42022981267e-06
-8.20244740354e-06
-0.00021730042586
0.000841382137628
-0.000446534352564
0.000887324593217
-0.00067365805383
0.000879572261143
-0.000897061165405
0.000865815285786
-0.00111559461917
0.000847769133125
-0.00132822725865
0.000825824998642
-0.0015340435803
0.000800390779359
-0.00173225671485
0.000771909641745
-0.00192220742776
0.000740843112905
-0.00210336809201
0.000707651823863
-0.00227533092013
0.000672782035651
-0.00243780522846
0.000636651500658
-0.00259059875791
0.00059964256429
-0.00273361238842
0.000562094009614
-0.00286681841748
0.000524300533507
-0.00299025617589
0.000486509474422
-0.0031040100053
0.00044892499658
-0.00320820787699
0.000411707717507
-0.00330300040216
0.000374981600479
-0.00338856326594
0.000338834559212
-0.00346507756377
0.000303326422696
-0.00353273602445
0.000268489206468
-0.0035917243379
0.000234335221253
-0.0036422307356
0.000200856350005
-0.00368442781743
0.000168031943957
-0.00371848501723
0.000135826987122
-0.00374455047175
0.000104199878564
-0.0037627660191
7.30996580193e-05
-0.00377324888863
4.24739581408e-05
-0.00377610912422
1.22656268529e-05
-0.00377143107386
-1.75787205078e-05
-0.00375929331073
-4.71124558094e-05
-0.00373975017379
-7.63795217528e-05
-0.0037128545244
-0.00010541826619
-0.00367863961568
-0.000134251123932
-0.00363714493667
-0.000162888689989
-0.00358839870974
-0.000191318695904
-0.00353244697934
-0.000219510815115
-0.00346933667367
-0.000247405460925
-0.00339914766683
-0.000274920191153
-0.00332197587211
-0.000301939196769
-0.00323796744099
-0.000328322375276
-0.00314730069313
-0.000353896429781
-0.00305022090631
-0.000378467620129
-0.00294701932134
-0.000401815207716
-0.00283806647613
-0.000423708366766
-0.00272378611505
-0.000443901928709
-0.00260468479701
-0.000462156992199
-0.00248131884681
-0.000478237771116
-0.00235431848989
-0.000491933460094
-0.00222434746356
-0.000503052156756
-0.00209212300117
-0.000511437888949
-0.00195837419105
-0.000516953012071
-0.00182386907898
-0.000519479422294
-0.00168939051299
-0.000518883798761
-0.00155578751137
-0.000515012625923
-0.00142396535423
-0.000507687220384
-0.00129491079214
-0.000496770079842
-0.00116961158498
-0.000482233197664
-0.00104908935466
-0.000464111705882
-0.00093429763209
-0.000442608307828
-0.000826199315747
-0.000417957340581
-0.000725529526815
-0.000390769797162
-0.000632688089535
-0.000361905327645
-0.000547881500281
-0.000331991196691
-0.000471306315916
-0.000301415524569
-0.000403050916571
-0.000270670901353
-0.000342994815119
-0.000240445119168
-0.000290745348614
-0.00021148256116
-0.000245702985582
-0.000184422035549
-0.000207124814654
-0.000159699136927
-0.000174220673432
-0.000137538790287
-0.000146204859775
-0.000117959401513
-0.000122376638313
-0.000100800144213
-0.000102167139923
-8.5748395543e-05
-8.51787168055e-05
-7.24397942622e-05
-7.10985085852e-05
-6.0633449995e-05
-5.95739923157e-05
-5.03191752414e-05
-5.01803583746e-05
-4.15251759173e-05
-4.25327802128e-05
-3.41316198739e-05
-3.63243755958e-05
-2.79289282028e-05
-3.13115866929e-05
-2.27410220402e-05
-2.72842558805e-05
-1.84254187279e-05
-2.40659598392e-05
-1.48658179696e-05
-2.15034892518e-05
-1.20039123786e-05
-1.90929453749e-05
-1.02594077294e-05
-1.69616843447e-05
-8.80902126137e-06
-1.5130742417e-05
-7.51556247395e-06
-1.33302357175e-05
-6.77567543425e-06
-1.14904447732e-05
-6.5775737845e-06
-1.00859141491e-05
-6.68602838916e-06
-8.14988733883e-06
-7.74935098134e-06
-5.84206793835e-06
-8.66222870595e-06
-3.846039709e-06
-9.41780042981e-06
-1.97838400242e-06
-1.02745949809e-05
-1.01708174489e-05
-0.000221873905689
0.00106319307809
-0.000455785137176
0.00112116888242
-0.000687410360567
0.00111113068572
-0.000915044536495
0.00109338227066
-0.00113746397529
0.00107012145616
-0.00135357977435
0.00104187344489
-0.00156243986157
0.00100918348961
-0.00176323850972
0.000972640669539
-0.00195531707063
0.000932854018877
-0.00213816154788
0.000890428394576
-0.00231139225282
0.000845944834868
-0.0024747531087
0.000799944203341
-0.00262809510252
0.000752916459757
-0.0027713625019
0.000705293095422
-0.00290457485179
0.000657444710738
-0.00302781412116
0.000609680405808
-0.00314120830496
0.000562251083846
-0.00324492163363
0.000515352862352
-0.00333914104269
0.00046913319519
-0.00342406998887
0.000423695689447
-0.00349991775679
0.000379106873616
-0.00356689649153
0.000335400724093
-0.00362521272953
0.000292584883334
-0.00367506692927
0.000250644164964
-0.00371664647977
0.000209545876822
-0.00375012705934
0.000169242233864
-0.00377566656475
0.000129674945189
-0.00379340786277
9.07768742629e-05
-0.00380347333293
5.2476342643e-05
-0.0038059688787
1.46985177372e-05
-0.00380097912264
-2.26300300573e-05
-0.00378857284017
-5.95798090505e-05
-0.00376879908002
-9.62131783915e-05
-0.00374169444954
-0.00013258226316
-0.00370728065809
-0.000168723048154
-0.00366557409729
-0.000204652848726
-0.00361658522508
-0.000240363928798
-0.00356033075846
-0.000275821119027
-0.00349683505726
-0.000310955772105
-0.00342614477729
-0.0003456645689
-0.0033483317874
-0.000379805041209
-0.0032635094319
-0.000413196994093
-0.00317183572677
-0.000445621006442
-0.00307352956176
-0.00047682388978
-0.00296887200089
-0.000506521212873
-0.00285821997434
-0.000534407666114
-0.00274200297216
-0.000560164006736
-0.00262073127152
-0.000583471953618
-0.00249498484158
-0.000604024549501
-0.00236541279748
-0.000621543044164
-0.00223271227426
-0.00063578650789
-0.00209761823992
-0.000646562248229
-0.00196087706842
-0.000653720131276
-0.00182324414482
-0.000657134871056
-0.00168548637972
-0.00065665999659
-0.00154843620165
-0.000652078082355
-0.00141304177195
-0.000643094478682
-0.00128038271463
-0.000629439301769
-0.00115152895245
-0.000611095720061
-0.00102764182131
-0.000588005111547
-0.000909765461446
-0.00056049035541
-0.000799171980227
-0.000528553793008
-0.000696797259047
-0.00049314729763
-0.00060286134478
-0.000455843552343
-0.000517399228513
-0.000417453839476
-0.000440682348957
-0.000378133322804
-0.000372956910083
-0.000338395750767
-0.000314148217293
-0.000299253468672
-0.000263766965158
-0.000261862839691
-0.000221023343643
-0.000227164755676
-0.000184969495453
-0.000195751957998
-0.000154612432319
-0.000167894839611
-0.000128991272507
-0.00014357926048
-0.000107264839138
-0.000122525880471
-8.88216722471e-05
-0.000104190380448
-7.33688293327e-05
-8.78921397608e-05
-6.07827511286e-05
-7.32184758025e-05
-5.07551892826e-05
-6.03441668784e-05
-4.27488899396e-05
-4.95287191047e-05
-3.6296832341e-05
-4.0580207714e-05
-3.11090423677e-05
-3.3112556339e-05
-2.69736007848e-05
-2.6871493318e-05
-2.37058870493e-05
-2.16875499137e-05
-2.11481155195e-05
-1.74190252348e-05
-1.91642690954e-05
-1.39824833861e-05
-1.73248381696e-05
-1.20927033306e-05
-1.5528858116e-05
-1.05978384569e-05
-1.34909339254e-05
-9.54514525472e-06
-1.15823520121e-05
-8.67574226892e-06
-9.77680016864e-06
-8.37445767415e-06
-8.25076212855e-06
-8.20253866591e-06
-6.86042880682e-06
-9.13152610761e-06
-4.89801413583e-06
-1.06191704867e-05
-3.03794340574e-06
-1.1264228847e-05
-1.53031759772e-06
-1.1765890899e-05
-1.16959222646e-05
-0.000227738726908
0.00129086871354
-0.00046770992887
0.00136107414587
-0.00070514595342
0.00134849976692
-0.000938218568536
0.00132638804149
-0.00116560975415
0.00129744556964
-0.00138615863448
0.00126235517739
-0.00159886767679
0.00122182522623
-0.00180291069631
0.00117661623682
-0.00199763262615
0.00112750834805
-0.00218254242007
0.00107527043147
-0.0023572997898
0.0010206343147
-0.00252169866253
0.000964275055434
-0.00267564784939
0.00090679753522
-0.00281915180989
0.000848728859889
-0.00295229122158
0.000790515896567
-0.003075205819
0.000732526766082
-0.00318807829088
0.000675055377241
-0.00329112131866
0.000618327787631
-0.00338456578842
0.00056250972014
-0.00346865214962
0.000507714286287
-0.0035436224445
0.000454009675946
-0.00360971510895
0.000401426178886
-0.00366715974226
0.00034996268639
-0.00371617425232
0.000299592231554
-0.00375696133822
0.000250267007238
-0.00378970708516
0.000201922500183
-0.00381457841293
0.000154481372636
-0.00383172258004
0.000107856699287
-0.0038412652501
6.1955342707e-05
-0.00384331076457
1.66809894001e-05
-0.00383794086731
-2.80622152728e-05
-0.00382521599785
-7.23662726551e-05
-0.00380517506279
-0.000116314871732
-0.00377783834968
-0.00015997899721
-0.00374320901445
-0.000203411515992
-0.00370127829918
-0.000246641935919
-0.00365202941264
-0.000289670267037
-0.00359544563288
-0.000332461599523
-0.00353151692802
-0.000374940229818
-0.00346025101892
-0.000416985450342
-0.00338168242098
-0.000458427559112
-0.00329588564475
-0.00049904676537
-0.00320298536123
-0.00053857305145
-0.00310316973938
-0.000576690054429
-0.002996699338
-0.000613040550402
-0.00288391768855
-0.000647236617795
-0.00276525533892
-0.00067887139667
-0.00264123410788
-0.000707536086543
-0.00251246139421
-0.000732836940282
-0.00237962314516
-0.000754418312177
-0.00224346190028
-0.00077198066612
-0.00210475200956
-0.000785301792343
-0.00196426086614
-0.00079423676522
-0.00182272334677
-0.000798694750268
-0.00168084554915
-0.000798556467502
-0.00153940047991
-0.000793539783398
-0.00139937311652
-0.000783134691611
-0.00126203239339
-0.000766791971229
-0.00112848711117
-0.000744649319129
-0.00100015808003
-0.00071634283127
-0.000878005774985
-0.000682647260059
-0.000764041487136
-0.000642524950876
-0.000659676729605
-0.000597517207154
-0.000564532495322
-0.000550990205257
-0.000478171050902
-0.00050381888982
-0.0004011127622
-0.000455190706496
-0.000334014260343
-0.000405495526599
-0.000276928454758
-0.000356336771856
-0.000229182232232
-0.000309608715248
-0.000189663873631
-0.000266679775331
-0.000157110552557
-0.000228303901555
-0.00013024353229
-0.00019475769096
-0.000107839977781
-0.00016598115751
-8.8817542986e-05
-0.00014154338992
-7.24653352602e-05
-0.000120539884964
-5.87223930792e-05
-0.000101631832884
-4.79368440646e-05
-8.39998565839e-05
-3.99012962782e-05
-6.83760974178e-05
-3.37335083718e-05
-5.56913091166e-05
-2.87816783071e-05
-4.55276641235e-05
-2.48333919385e-05
-3.7055214534e-05
-2.17602808705e-05
-2.99384106973e-05
-1.94007728684e-05
-2.40403948504e-05
-1.76432311793e-05
-1.91706705234e-05
-1.60480087683e-05
-1.55716774694e-05
-1.45688196565e-05
-1.35653189766e-05
-1.32304161246e-05
-1.19279863891e-05
-1.19524106267e-05
-1.0814321538e-05
-1.03384128479e-05
-1.0279559048e-05
-8.56557630637e-06
-1.01366674105e-05
-6.64738935249e-06
-1.01128615797e-05
-5.31676423688e-06
-1.0454340594e-05
-4.12967583439e-06
-1.17937067155e-05
-2.57163482621e-06
-1.28127301784e-05
-1.28468520269e-06
-1.30427928176e-05
-1.29723156544e-05
-0.000235040598501
0.00152584676437
-0.000482570008181
0.00160853693315
-0.000727234922951
0.00159309829441
-0.000967047281562
0.0015661335906
-0.00120056722678
0.00153089873628
-0.00142654515609
0.00148826611868
-0.00164392925777
0.00143914222553
-0.00185187304013
0.00138449272412
-0.00204973177025
0.00132529963752
-0.00223705028941
0.00126252132318
-0.00241354393142
0.00119706019977
-0.00257907566594
0.00112973886897
-0.00273363115134
0.00106128501074
-0.00287729428327
0.000992323865596
-0.00301022395336
0.000923377418066
-0.0031326336971
0.000854868313116
-0.00324477388626
0.00078712743021
-0.00334691742343
0.000720403227974
-0.00343934787424
0.000654872233733
-0.00352235065624
0.000590649265234
-0.00359620588548
0.000527797361812
-0.00366118348982
0.000466336472052
-0.0037175391137
0.000406251358942
-0.00376551157607
0.000347498063984
-0.00380532043091
0.000290009679505
-0.00383716460158
0.000233700892281
-0.00386122068265
0.00017847220494
-0.00387764208983
0.000124213333265
-0.00388655768348
7.08067651779e-05
-0.0038880712722
1.81309555031e-05
-0.00388226065861
-3.3935769855e-05
-0.00386917783699
-8.55114162987e-05
-0.00384884898578
-0.000136705294513
-0.00382127614798
-0.000187612720133
-0.00378643912848
-0.000238308609964
-0.00374429962976
-0.000288840773413
-0.00369480605606
-0.000339222336097
-0.00363790100104
-0.000389424353415
-0.0035735297041
-0.000439368332428
-0.00350165119743
-0.000488919831419
-0.0034222503593
-0.00053788323492
-0.00333535197614
-0.000585998823193
-0.00324103496694
-0.000632942399094
-0.0031394472881
-0.000678328542396
-0.00303081946919
-0.000721717520814
-0.00291547676876
-0.000762626307712
-0.00279384839628
-0.000800545020271
-0.00266647153106
-0.0008349550669
-0.00253399148862
-0.000865357408404
-0.00239714885577
-0.00089129694691
-0.00225675989902
-0.000912403650507
-0.00211366949017
-0.000928421621323
-0.00196868993148
-0.00093924314544
-0.00182252233749
-0.000944885842297
-0.00167572859587
-0.000945371421252
-0.0015288964462
-0.000940388365572
-0.00138302681182
-0.000929020783154
-0.00123984273233
-0.000909988532671
-0.00110027283631
-0.000884231875403
-0.0009663629439
-0.000850261070981
-0.00083815964641
-0.000810864076979
-0.000719580726215
-0.000761112875691
-0.000613401225704
-0.000703701996415
-0.000517288757092
-0.000647111730628
-0.000429594268374
-0.000591508593822
-0.000351667042009
-0.000533123616676
-0.000285174186681
-0.000471979379079
-0.000230453561764
-0.000411060080148
-0.000186401978356
-0.000353649374726
-0.000151347572795
-0.000301734356401
-0.000123550765114
-0.000256088559202
-0.000101379300632
-0.000216926581256
-8.32300787486e-05
-0.000184117611473
-6.75954199126e-05
-0.000157172516996
-5.34537704947e-05
-0.000134671737274
-4.12116874659e-05
-0.000113867895711
-3.24300450058e-05
-9.27768023917e-05
-2.71397155055e-05
-7.36583166524e-05
-2.34351252078e-05
-5.93913029969e-05
-2.02462079816e-05
-4.87104127337e-05
-1.76816193119e-05
-3.9613587336e-05
-1.58245662412e-05
-3.17882244562e-05
-1.44872955794e-05
-2.53696745789e-05
-1.36492462644e-05
-2.00008202785e-05
-1.27338114216e-05
-1.64798802873e-05
-1.19477962297e-05
-1.43429860529e-05
-1.09549040408e-05
-1.29118084514e-05
-9.86659738407e-06
-1.18923265949e-05
-8.56948088859e-06
-1.15655594539e-05
-7.30807023926e-06
-1.13870037509e-05
-5.74215503846e-06
-1.16668736724e-05
-4.18907253029e-06
-1.19978123245e-05
-3.33730229724e-06
-1.26402330313e-05
-2.1830664969e-06
-1.39541695084e-05
-1.0884644419e-06
-1.41234875064e-05
-1.40570676268e-05
-0.000243954745587
0.0017697388681
-0.000500703475854
0.00186522038398
-0.000754162375245
0.00184649072195
-0.00100213542537
0.00181404032184
-0.00124302978778
0.00177172648022
-0.00147548695672
0.00172065659922
-0.00169839322824
0.00166198159957
-0.00191088471043
0.00159691715528
-0.00211233894147
0.00152668661417
-0.00230235509338
0.00145247005881
-0.0024807267168
0.00137536421675
-0.00264741022545
0.00129635463802
-0.00280249249587
0.00121629938854
-0.00294615972155
0.00113592311818
-0.00307866948554
0.00105581911387
-0.0032003266794
0.000976457432909
-0.00331146392869
0.000898196588094
-0.00341242604019
0.000821297329146
-0.00350355840385
0.000745936655818
-0.0035851983717
0.00067222146667
-0.00365766936833
0.000600200750337
-0.00372127669983
0.000529876459437
-0.00377630494134
0.000461212495685
-0.00382301600976
0.000394142373238
-0.00386164800985
0.000328575233634
-0.00389241411826
0.000264400969163
-0.00391550177481
0.000201494207406
-0.0039310716008
0.000139717984397
-0.00393925645696
7.89268896396e-05
-0.00394016022662
1.89705371881e-05
-0.00393385687342
-4.03027911731e-05
-0.00392038954649
-9.90417941891e-05
-0.0038997703309
-0.000157386955397
-0.00387198073011
-0.000215464075267
-0.00383697337315
-0.000273377031034
-0.00379467523311
-0.000331199212441
-0.00374499271515
-0.000388964368221
-0.00368781900221
-0.000446656729321
-0.00362304367237
-0.000504201382855
-0.00355056497203
-0.000561455224434
-0.00347030420741
-0.000618199489963
-0.00338222233528
-0.000674134830001
-0.00328633779535
-0.00072887947621
-0.00318274510171
-0.000781972235032
-0.00307163238456
-0.000832878951292
-0.00295329913231
-0.000881007354636
-0.00282816680299
-0.000925721510351
-0.00269679332328
-0.000966372983245
-0.00255986838645
-0.00100232156967
-0.00241821719795
-0.00103298789242
-0.0022727657864
-0.00105788913183
-0.00212449601175
-0.00107672425175
-0.00197432409598
-0.0010894436958
-0.0018229291234
-0.00109630841777
-0.00167056685284
-0.0010977566872
-0.00151732285724
-0.00109365837006
-0.00136407495146
-0.00108228857699
-0.00121390915829
-0.00106017581411
-0.00106660522222
-0.00103154871752
-0.000926368936743
-0.000990515295713
-0.000788864087203
-0.000948377487215
-0.000663426245405
-0.000886554106366
-0.000557095151856
-0.000810047331535
-0.00046114004653
-0.00074306046049
-0.000371124419214
-0.000681512873154
-0.000290947652169
-0.00061328883933
-0.000224806177395
-0.000538112399851
-0.000173418138574
-0.000462436841515
-0.000134658139134
-0.000392402892528
-0.000105746516137
-0.000330634323494
-8.43528141085e-05
-0.000277472705484
-6.84407546328e-05
-0.000232828195223
-5.59869040488e-05
-0.000196557619228
-4.46321086894e-05
-0.000168524177304
-3.24147156552e-05
-0.000146875855279
-2.05022086121e-05
-0.000125786088294
-1.36767335249e-05
-9.95996316668e-05
-1.2666641137e-05
-7.46711396489e-05
-1.2445526874e-05
-5.96098558646e-05
-1.10868790858e-05
-5.00668496809e-05
-9.84876230818e-06
-4.08477768744e-05
-9.3477928276e-06
-3.2281329462e-05
-9.08144399491e-06
-2.56270266492e-05
-9.25238669625e-06
-1.98206955514e-05
-9.24033510244e-06
-1.64821018033e-05
-9.19312668025e-06
-1.43799697376e-05
-8.86101759661e-06
-1.32327503954e-05
-8.11304361999e-06
-1.26283765068e-05
-7.17958961356e-06
-1.24860275761e-05
-5.95442678811e-06
-1.25991075051e-05
-4.9531558959e-06
-1.26572749927e-05
-3.72279143757e-06
-1.32182562786e-05
-2.69075308974e-06
-1.36588858721e-05
-1.91917910596e-06
-1.47174971895e-05
-9.38688350496e-07
-1.50959476402e-05
-1.49882643132e-05
-0.000254701328547
0.00202437832467
-0.00052254830196
0.00213300128698
-0.000786554389674
0.00211043112407
-0.00104426129902
0.00207168103435
-0.00129388372081
0.00202128274126
-0.00153393277228
0.00196063924023
-0.00176322653651
0.00189120881016
-0.00198089183921
0.00181451568014
-0.00218634742668
0.00173207524163
-0.00237927356664
0.00164532902118
-0.00255957279917
0.00155559610336
-0.00272732709061
0.00146404139106
-0.00288275518541
0.00137165981849
-0.00302617350489
0.00127927362886
-0.00315796213727
0.00118753987545
-0.00327853713663
0.00109696448462
-0.00338832879332
0.00100792031365
-0.00348776575543
0.000920666362349
-0.00357726373934
0.000835366813239
-0.00365721828897
0.000752108272599
-0.00372800017608
0.000670915077843
-0.00378995304764
0.000591761929085
-0.00384339213364
0.00051458443684
-0.00388860393648
0.000439287252186
-0.00392584598072
0.000365750671164
-0.00395534681166
0.000293835468769
-0.00397730551487
0.000223386951644
-0.00399189114209
0.000154237979157