/*--------------------------------*- C++ -*----------------------------------*\
| =========                 |                                                 |
| \\      /  F ield         | OpenFOAM: The Open Source CFD Toolbox           |
|  \\    /   O peration     | Version:  v1906                                 |
|   \\  /    A nd           | Web:      www.OpenFOAM.com                      |
|    \\/     M anipulation  |                                                 |
\*---------------------------------------------------------------------------*/
FoamFile
{
    version     2.0;
    format      ascii;
    class       volVectorField;
    location    "694";
    object      Ua;
}
// * * * * * * * * * * * * * * * * * * * * * * * * * * * * * * * * * * * * * //

dimensions      [0 1 -1 0 0 0 0];


internalField   nonuniform List<vector> 
9216
(
(-0.00666002832277 0.00666294722451 0)
(-0.00684661385655 0.0207791167231 2.37981890894e-27)
(-0.00683238971648 0.0349748851249 -4.60954758853e-31)
(-0.00678408244251 0.049161494905 0)
(-0.00671648099205 0.0632019643242 0)
(-0.00663117044778 0.0770609658208 0)
(-0.0065295133255 0.0906990641567 0)
(-0.00641260081269 0.10407962738 0)
(-0.00628127824825 0.117168448906 0)
(-0.00613660034528 0.12993366826 0)
(-0.00597942051822 0.142345970913 0)
(-0.00581084905478 0.154378502103 0)
(-0.00563172449783 0.166007016415 0)
(-0.00544314932386 0.177209698289 0)
(-0.00524586961273 0.187967216243 0)
(-0.00504090110392 0.198262444042 0)
(-0.00482882103359 0.208080427413 0)
(-0.00461049000115 0.217408026255 0)
(-0.00438625911333 0.226233814926 0)
(-0.00415678927947 0.234547677853 0)
(-0.00392217681663 0.242340673868 0)
(-0.00368286877815 0.249604627687 0)
(-0.00343871282109 0.256331988541 0)
(-0.00318996071482 0.262515461167 0)
(-0.00293625052211 0.268147885846 0)
(-0.00267768491825 0.273221951376 0)
(-0.00241376029857 0.277730111459 0)
(-0.00214449837864 0.2816644159 0)
(-0.00186934512255 0.285016472119 0)
(-0.00158832865272 0.287777421812 0)
(-0.00130095447087 0.28993798448 0)
(-0.00100733459916 0.291488558775 0)
(-0.000707159317963 0.292419276864 0)
(-0.000400768438402 0.292720436845 0)
(-8.8189321568e-05 0.292382552074 0)
(0.000229921104953 0.291396986949 0)
(0.000553060952984 0.289756034749 0)
(0.000880157446885 0.287453793285 0)
(0.00121011384972 0.284486207971 0)
(0.00154138923144 0.280852161882 0)
(0.00187222586496 0.276553418609 0)
(0.00220063089976 0.27159585603 0)
(0.00252420089592 0.265989233912 0)
(0.00284059288878 0.259748467921 0)
(0.00314686451364 0.25289316037 0)
(0.00344049970116 0.245448788717 0)
(0.00371820193339 0.237445993406 0)
(0.00397749344964 0.228921565061 0)
(0.0042149361481 0.21991756887 0)
(0.00442826340381 0.210482048236 0)
(0.00461407521413 0.200668168193 0)
(0.00477039717163 0.190534607684 0)
(0.00489399350171 0.180144907284 0)
(0.00498322247839 0.169567505095 0)
(0.00503521303563 0.158875262097 0)
(0.00504890464095 0.148144928967 0)
(0.00502232263806 0.13745640486 0)
(0.00495564888646 0.126891278083 0)
(0.00484860059693 0.11653136832 0)
(0.00470330901052 0.106456449658 0)
(0.00452178057077 0.0967421620485 0)
(0.00430851402874 0.0874572661634 0)
(0.00406787722939 0.0786613850914 0)
(0.0038060064922 0.0704029946847 0)
(0.00352815865633 0.0627190320306 0)
(0.00324127179616 0.0556338058127 0)
(0.00295184782608 0.0491580337185 0)
(0.0026672514977 0.0432877286046 0)
(0.00239296576983 0.0380057641844 0)
(0.00213381702613 0.0332840911548 0)
(0.0018922574217 0.0290875043092 0)
(0.0016700591674 0.0253764091497 0)
(0.00146730054668 0.0221097273824 0)
(0.00128399491614 0.0192463235462 0)
(0.00111923733573 0.0167462897748 0)
(0.000972452350176 0.0145712175811 0)
(0.000842396173166 0.0126847377827 0)
(0.000728050825948 0.0110527867807 0)
(0.000627761930075 0.00964423412998 0)
(0.000540207954756 0.00843102945151 0)
(0.000463645356697 0.00738839396267 0)
(0.00039660051015 0.0064947863477 0)
(0.000336849097362 0.00573214587598 0)
(0.000280064497331 0.00509350458441 0)
(0.000217025404696 0.00449612450675 0)
(0.000194077104783 0.00413938461187 0)
(0.00018590480129 0.00373438794975 0)
(0.000163184033142 0.00338441920212 0)
(0.000162476317981 0.00308498740371 0)
(0.000172690144277 0.00274839432823 0)
(0.000171291416633 0.00241386374715 0)
(0.000171979615915 0.00206247893418 0)
(0.000192146574337 0.00168664016206 0)
(0.000216233221029 0.00128011416597 0)
(0.000243647114892 0.000792067722025 0)
(0.000261464701223 0.000254378444076 0)
(-0.0208099842934 0.00688648795759 0)
(-0.0219701309828 0.0220710794557 0)
(-0.021896326869 0.0371678885301 -2.44621032454e-27)
(-0.02171011336 0.0522678151129 0)
(-0.0214565738691 0.0672002787097 0)
(-0.0211409507192 0.0819357328887 0)
(-0.0207667655044 0.0964338995094 0)
(-0.0203376549183 0.110656361843 0)
(-0.0198571369026 0.124566855869 0)
(-0.0193291884937 0.138131565451 0)
(-0.018757591013 0.151319340231 0)
(-0.0181465379516 0.164101722452 0)
(-0.0174998173591 0.176453027855 0)
(-0.0168215347728 0.188350245229 0)
(-0.0161151689785 0.199773001686 0)
(-0.0153844334123 0.210703352839 0)
(-0.0146322163847 0.221125649402 0)
(-0.013861593252 0.231026240953 0)
(-0.0130746595704 0.240393270382 0)
(-0.0122736999614 0.249216325657 0)
(-0.0114599215505 0.257486197742 0)
(-0.0106347780881 0.265194522875 0)
(-0.00979861137644 0.272333542608 0)
(-0.00895211758251 0.278895780429 0)
(-0.00809490575803 0.284873838438 0)
(-0.0072270824913 0.29026014661 0)
(-0.00634774468684 0.295046820127 0)
(-0.00545664786511 0.299225511053 0)
(-0.00455266365891 0.302787340794 0)
(-0.00363548899502 0.305722881204 0)
(-0.00270411731292 0.308022152198 0)
(-0.00175850516805 0.309674810513 0)
(-0.000798141599693 0.310670241197 0)
(0.000176354804843 0.310997834617 0)
(0.00116455284409 0.310647225994 0)
(0.00216481128227 0.309608789476 0)
(0.00317534736095 0.307873946756 0)
(0.00419316440684 0.305435848686 0)
(0.00521479128257 0.302289738261 0)
(0.00623567826039 0.298433775542 0)
(0.00725050263298 0.293869392429 0)
(0.00825318212783 0.28860218439 0)
(0.00923663245414 0.282642168011 0)
(0.0101935295698 0.276004631755 0)
(0.0111153991072 0.268710207661 0)
(0.011994211044 0.260785567708 0)
(0.0128206942267 0.252263255492 0)
(0.0135867622902 0.243182143919 0)
(0.0142829916245 0.233587050031 0)
(0.0149017772915 0.223528941671 0)
(0.0154340182992 0.213064464526 0)
(0.0158728336088 0.202255969356 0)
(0.0162096731012 0.191171124617 0)
(0.0164384766669 0.179882822373 0)
(0.0165516725233 0.168468868641 0)
(0.0165447988323 0.157011528714 0)
(0.0164128853219 0.145596775409 0)
(0.0161552974377 0.134312851464 0)
(0.0157723100461 0.123248523792 0)
(0.0152694481867 0.112490754175 0)
(0.0146542209453 0.102122207764 0)
(0.0139398751778 0.092218245993 0)
(0.0131417107753 0.0828437744799 0)
(0.0122782517261 0.0740510957606 0)
(0.0113667898615 0.0658801892641 0)
(0.010428263708 0.0583581189024 0)
(0.00948463392402 0.0514966957325 0)
(0.00855904870237 0.0452906237851 0)
(0.00767000764992 0.0397190725094 0)
(0.00683205508 0.0347491024005 0)
(0.00605324670821 0.0303401637416 0)
(0.00533808512363 0.0264477725252 0)
(0.00468682745638 0.0230265281269 0)
(0.00409854850674 0.0200317901133 0)
(0.00357053656607 0.0174206367336 0)
(0.00310038227745 0.015151996153 0)
(0.00268447801935 0.0131868479575 0)
(0.00231907908647 0.0114886492372 0)
(0.00199911929983 0.0100240794779 0)
(0.00171993801018 0.0087633079005 0)
(0.00147639690891 0.00767990380481 0)
(0.00126393713342 0.00675045131009 0)
(0.00107721065071 0.00595378647853 0)
(0.00091023489453 0.00527206330897 0)
(0.000750492162873 0.00465069026299 0)
(0.000643387357912 0.0040740572389 0)
(0.00056674194377 0.00365696155314 0)
(0.000494887908098 0.00331013642424 0)
(0.000480692068064 0.00296320513683 0)
(0.000503881381306 0.0026817406952 0)
(0.000513084413666 0.00238892891867 0)
(0.000532249425012 0.00202201049132 0)
(0.000575740225114 0.00163782330135 0)
(0.000699954452594 0.00129150846763 0)
(0.00084927951462 0.000823856108075 0)
(0.000767422515788 0.000225965921847 0)
(-0.0351666612662 0.00694184302891 0)
(-0.037148745666 0.0222539388087 0)
(-0.0369975034658 0.0374429228728 -2.44957957816e-27)
(-0.0366770688961 0.0526524139202 0)
(-0.0362496782602 0.0676923443199 0)
(-0.035720513024 0.0825317961295 0)
(-0.0350942569256 0.0971294959924 0)
(-0.0343763647982 0.111446519816 0)
(-0.0335727104398 0.12544620054 0)
(-0.0326896867698 0.139094438387 0)
(-0.0317337978639 0.152359883899 0)
(-0.0307118158834 0.165214009687 0)
(-0.0296303151668 0.177631154479 0)
(-0.0284958849598 0.189588459384 0)
(-0.0273146185514 0.201065786835 0)
(-0.0260923990788 0.212045540353 0)
(-0.0248343592056 0.222512477962 0)
(-0.023545255837 0.232453439804 0)
(-0.022228914668 0.241857084756 0)
(-0.020888705421 0.250713561356 0)
(-0.019526981871 0.259014207514 0)
(-0.0181456606393 0.266751209443 0)
(-0.0167456606086 0.27391730826 0)
(-0.0153275762471 0.280505491859 0)
(-0.013891114177 0.286508748114 0)
(-0.0124358421747 0.2919198266 0)
(-0.0109606213854 0.296731065272 0)
(-0.00946440816967 0.300934247051 0)
(-0.00794568913706 0.304520517655 0)
(-0.00640331267991 0.307480352945 0)
(-0.00483595974576 0.309803593658 0)
(-0.00324296167185 0.311479537932 0)
(-0.00162381394949 0.312497077401 0)
(2.10077672516e-05 0.312844969465 0)
(0.00169047155938 0.312512113597 0)
(0.00338226652169 0.311487980461 0)
(0.00509313613068 0.309763025478 0)
(0.00681831719645 0.307329283566 0)
(0.00855177369647 0.304180890425 0)
(0.010285890043 0.300314798612 0)
(0.0120115938492 0.295731343388 0)
(0.0137183932887 0.290434995667 0)
(0.0153943636817 0.284434874481 0)
(0.017026594699 0.277745421271 0)
(0.0186009898512 0.270386745191 0)
(0.0201031368718 0.262385099122 0)
(0.0215178368184 0.253772965544 0)
(0.0228303328541 0.244589257547 0)
(0.0240254680008 0.234879128201 0)
(0.025089137286 0.224693916693 0)
(0.0260070103217 0.214090804996 0)
(0.0267660743811 0.203132656473 0)
(0.0273530236184 0.191887768941 0)
(0.0277559699542 0.180429803138 0)
(0.0279629891089 0.168837740237 0)
(0.0279645052781 0.157195707389 0)
(0.0277526602314 0.145592407349 0)
(0.0273244148154 0.134119769273 0)
(0.026680925224 0.122870885531 0)
(0.0258298373805 0.111937760312 0)
(0.0247848929423 0.101408490524 0)
(0.023567719778 0.0913639347891 0)
(0.0222072442037 0.0818727131762 0)
(0.0207345837882 0.0729883069143 0)
(0.0191788066946 0.0647523538212 0)
(0.0175742252966 0.0571953452705 0)
(0.0159614692388 0.0503308733897 0)
(0.0143818226483 0.0441512339188 0)
(0.012869240341 0.0386296046239 0)
(0.011447886169 0.0337257186253 0)
(0.0101312812892 0.0293921066192 0)
(0.00892516028646 0.0255788910962 0)
(0.00782921548708 0.0222369942968 0)
(0.00684028476227 0.0193197479417 0)
(0.00595371683364 0.0167832743225 0)
(0.00516497675572 0.014585880097 0)
(0.00446866389979 0.0126875953026 0)
(0.00385795408934 0.0110507777371 0)
(0.00332426611732 0.00964144400356 0)
(0.00285909988787 0.00842972985149 0)
(0.00245425814434 0.00738941765534 0)
(0.00210228492374 0.00649740994477 0)
(0.00179623591431 0.00573307065883 0)
(0.00153059982915 0.00508090588503 0)
(0.00130630344393 0.00448552507635 0)
(0.00113047585307 0.00394979575272 0)
(0.00100180152184 0.00361105261118 0)
(0.000864888816175 0.00314209959133 0)
(0.000778513100467 0.0027417477086 0)
(0.000791253036493 0.00248880418684 0)
(0.000879412944477 0.00227998006596 0)
(0.000885399981264 0.00181142425617 0)
(0.000988869652545 0.00148068349962 0)
(0.00113654808845 0.00107194742519 0)
(0.00126643593335 0.000641175286087 0)
(0.00122830621674 0.000197642004747 0)
(-0.0497208875442 0.00699923396968 0)
(-0.0525469403869 0.0224576779734 0)
(-0.0523306211683 0.0377704930444 2.44925482051e-27)
(-0.0518731537692 0.0531090797739 0)
(-0.0512637372127 0.0682744654163 0)
(-0.0505100773931 0.083234527645 0)
(-0.0496188279212 0.0979468221965 0)
(-0.0485976730904 0.112371619019 0)
(-0.0474550753938 0.126471650387 0)
(-0.0462001421523 0.140212409469 0)
(-0.0448423104405 0.153562310725 0)
(-0.0433912428635 0.166492774307 0)
(-0.0418564986589 0.178978251934 0)
(-0.0402474585852 0.190996170848 0)
(-0.0385729943291 0.20252682659 0)
(-0.0368414404215 0.213553201813 0)
(-0.0350602819018 0.22406074435 0)
(-0.0332361944399 0.234037085032 0)
(-0.0313747710194 0.243471731863 0)
(-0.0294806482569 0.252355725097 0)
(-0.0275572868925 0.260681291745 0)
(-0.0256071917367 0.268441487234 0)
(-0.0236317480379 0.275629861055 0)
(-0.0216315261031 0.282240135084 0)
(-0.0196061620318 0.288265924765 0)
(-0.0175547262644 0.29370049175 0)
(-0.0154756335098 0.298536548628 0)
(-0.0133670541777 0.302766107074 0)
(-0.0112268476332 0.306380381083 0)
(-0.00905300492474 0.309369737451 0)
(-0.00684362503037 0.311723732084 0)
(-0.0045973557736 0.313431170217 0)
(-0.00231341573282 0.31448024702 0)
(7.92309783604e-06 0.314858802179 0)
(0.00236529405385 0.314554617419 0)
(0.00475578699 0.313555826268 0)
(0.00717488385023 0.311851382962 0)
(0.00961610085829 0.309431647895 0)
(0.0120709451629 0.30628900314 0)
(0.0145287270812 0.302418570281 0)
(0.0169765826621 0.297818907107 0)
(0.0193995320988 0.292492767652 0)
(0.0217805960841 0.286447766853 0)
(0.0241011461455 0.279697049064 0)
(0.0263410971288 0.272259779496 0)
(0.0284795309094 0.264161575209 0)
(0.0304948753399 0.255434691 0)
(0.0323656882739 0.246118110723 0)
(0.0340706662676 0.236257380649 0)
(0.0355893857415 0.225904385723 0)
(0.0369019760396 0.215116962327 0)
(0.0379896186776 0.20395859658 0)
(0.0388338727829 0.192498199533 0)
(0.0394170887043 0.180810173845 0)
(0.039722022817 0.1689747729 0)
(0.0397332441737 0.157078472516 0)
(0.0394384698715 0.145213931005 0)
(0.0388314443938 0.13347856051 0)
(0.03791329339 0.121971967356 0)
(0.0366929736273 0.110793851418 0)
(0.0351899777925 0.100041003236 0)
(0.0334346494816 0.0898041009319 0)
(0.031474365257 0.080157654661 0)
(0.0293552218004 0.0711542020323 0)
(0.0271134552219 0.0628369836206 0)
(0.0247959103453 0.0552446677995 0)
(0.0224673824037 0.0483960563818 0)
(0.0201937940621 0.0422791728221 0)
(0.0180277729465 0.0368560351664 0)
(0.0160034693261 0.032073218237 0)
(0.0141379668117 0.0278716757949 0)
(0.0124359892673 0.0241930194475 0)
(0.0108941335743 0.0209828729406 0)
(0.00950519439518 0.0181921739201 0)
(0.00826145342858 0.0157765519867 0)
(0.00715661539045 0.0136941138934 0)
(0.00618414860051 0.0119034819966 0)
(0.00533412587597 0.0103648693617 0)
(0.00459319432936 0.00904322106568 0)
(0.00394839635419 0.00790903753519 0)
(0.00338822174632 0.00693688547781 0)
(0.00290212063208 0.00610456023522 0)
(0.0024805945633 0.00539277093505 0)
(0.00211632465013 0.00479031014295 0)
(0.00181010817467 0.00421640665922 0)
(0.00159556414942 0.00378390981226 0)
(0.00141367223325 0.00337943974107 0)
(0.00124571405717 0.0029198307135 0)
(0.00116459185814 0.00260025427417 0)
(0.00110221877412 0.0022015901638 0)
(0.00114690095669 0.0018690516678 0)
(0.0013100141858 0.00163307795559 0)
(0.00134817651701 0.00117521759127 0)
(0.0014949731058 0.000811250864516 0)
(0.00164587490881 0.000488856128972 0)
(0.00162970766704 0.000159697626341 0)
(-0.0644219390971 0.00707333797438 0)
(-0.0680882763317 0.0227268770924 0)
(-0.0678054432538 0.0382115345354 0)
(-0.0672076891984 0.0537244225049 0)
(-0.0664114293183 0.0690584750747 0)
(-0.0654271420259 0.0841803575339 0)
(-0.0642637421369 0.0990462385045 0)
(-0.0629314146934 0.113615304787 0)
(-0.0614414081934 0.127849461464 0)
(-0.0598057805879 0.141713630914 0)
(-0.0580370793239 0.155175904732 0)
(-0.0561480916308 0.168207629393 0)
(-0.0541515232471 0.180783421503 0)
(-0.0520597684205 0.192881105849 0)
(-0.0498846061194 0.204481587579 0)
(-0.0476370125638 0.215568653676 0)
(-0.0453269008291 0.226128718354 0)
(-0.0429630039886 0.236150511517 0)
(-0.0405526867473 0.245624729292 0)
(-0.0381019255931 0.254543650957 0)
(-0.0356152138343 0.262900745102 0)
(-0.0330956508764 0.270690272478 0)
(-0.0305449422459 0.277906908004 0)
(-0.0279635865108 0.284545388077 0)
(-0.0253509496146 0.29060019995 0)
(-0.0227055203098 0.296065314083 0)
(-0.0200250305455 0.30093396806 0)
(-0.0173067530113 0.305198499702 0)
(-0.0145476536199 0.308850233906 0)
(-0.0117447239863 0.311879412759 0)
(-0.00889518497033 0.314275223623 0)
(-0.00599682877645 0.316025828907 0)
(-0.00304828149453 0.317118496641 0)
(-4.94154998139e-05 0.317539840682 0)
(0.00299837650714 0.317276122312 0)
(0.00609177060771 0.31631366073 0)
(0.00922523689974 0.314639337697 0)
(0.0123906967681 0.312241213475 0)
(0.0155773248625 0.309109218025 0)
(0.0187713671928 0.305235933193 0)
(0.0219561050438 0.300617404498 0)
(0.0251119248832 0.295253988164 0)
(0.0282165111036 0.289151155185 0)
(0.0312452222984 0.282320242156 0)
(0.0341715176949 0.274779069544 0)
(0.036967607797 0.266552404722 0)
(0.0396050123454 0.257672207655 0)
(0.0420553245765 0.248177662364 0)
(0.0442906730297 0.238114942836 0)
(0.046284309486 0.227536824282 0)
(0.0480106584768 0.216502097097 0)
(0.0494453792386 0.205075058509 0)
(0.0505647826122 0.193325178867 0)
(0.051345424313 0.181327319902 0)
(0.0517636177079 0.169162684056 0)
(0.0517965840977 0.156920361517 0)
(0.0514251198529 0.144698232519 0)
(0.0506384154939 0.132601638575 0)
(0.0494365837324 0.120738888705 0)
(0.0478278666753 0.109220358535 0)
(0.045836423072 0.0981555360732 0)
(0.04349884784 0.087653167299 0)
(0.0408947156502 0.0777976356498 0)
(0.0380907454616 0.0686312896507 0)
(0.0351151177722 0.0601965124145 0)
(0.0320225586028 0.0525523487048 0)
(0.0289153195948 0.0457314678702 0)
(0.0258967663102 0.0397140013203 0)
(0.0230435820132 0.0344413576876 0)
(0.0203989625705 0.0298377267645 0)
(0.0179794816176 0.0258262107747 0)
(0.0157846343864 0.0223364418855 0)
(0.0138038482928 0.0193074088645 0)
(0.0120226421655 0.016688124131 0)
(0.0104286081926 0.0144356165679 0)
(0.0090148726478 0.012509377334 0)
(0.00777630487915 0.0108658037781 0)
(0.0066999498002 0.00946043193696 0)
(0.00576472034624 0.00825624643366 0)
(0.0049519872264 0.007225223575 0)
(0.0042471107272 0.00634355161691 0)
(0.00363635040674 0.00559014072423 0)
(0.00310681313512 0.00494749111741 0)
(0.00264945658209 0.00440736436292 0)
(0.00224777640043 0.00385601480632 0)
(0.00205326080102 0.00354814930248 0)
(0.00187579997252 0.00315042371332 0)
(0.00168202798529 0.00271515271889 0)
(0.00149375158232 0.00223059198869 0)
(0.00145999817208 0.00190437055028 0)
(0.00144629420632 0.0015149265883 0)
(0.00160819715128 0.00127493329549 0)
(0.00179169565402 0.000985498103767 0)
(0.00181460797702 0.00061748055036 0)
(0.001886920497 0.000355407075086 0)
(0.001866119646 0.000117473719113 0)
(-0.0793197848001 0.00716574389245 0)
(-0.0838332875172 0.0230669365812 0)
(-0.0834806609533 0.0387714568829 0)
(-0.0827372632733 0.0545062214349 0)
(-0.0817470187209 0.0700544549978 0)
(-0.0805233411664 0.0853814439689 0)
(-0.0790776613762 0.100441696884 0)
(-0.0774229547211 0.115193048535 0)
(-0.075573530987 0.129596354267 0)
(-0.0735446958216 0.143615806121 0)
(-0.0713523804594 0.157219086349 0)
(-0.0690127906979 0.170377453345 0)
(-0.0665420365409 0.18306574815 0)
(-0.0639557978651 0.195262321155 0)
(-0.0612689803476 0.206948882593 0)
(-0.0584954264728 0.218110278049 0)
(-0.0556476304408 0.228734196036 0)
(-0.0527365314103 0.23881081375 0)
(-0.0497713266343 0.248332394251 0)
(-0.0467593846697 0.257292848042 0)
(-0.0437061879604 0.265687278414 0)
(-0.0406153849651 0.273511528011 0)
(-0.0374888646717 0.280761746811 0)
(-0.0343269312082 0.287433996035 0)
(-0.03112847763 0.293523900822 0)
(-0.0278912390987 0.299026356748 0)
(-0.0246120208028 0.30393529247 0)
(-0.0212869915127 0.308243485734 0)
(-0.0179119442243 0.311942431913 0)
(-0.0144826260002 0.315022249831 0)
(-0.010995058626 0.317471695409 0)
(-0.00744588845198 0.31927815154 0)
(-0.00383278888191 0.320427738991 0)
(-0.00015491011137 0.320905535793 0)
(0.00358669559769 0.320695872759 0)
(0.00738859873411 0.319782746776 0)
(0.0112445647823 0.318150357987 0)
(0.0151451387607 0.315783771985 0)
(0.0190773232657 0.312669696098 0)
(0.0230243416768 0.308797359172 0)
(0.0269655475206 0.30415945998 0)
(0.0308764897403 0.298753156127 0)
(0.0347291634981 0.292581034965 0)
(0.0384924588065 0.285652015888 0)
(0.0421327837055 0.277982116037 0)
(0.0456148728747 0.269595012995 0)
(0.0489026573135 0.260522344216 0)
(0.0519602428943 0.250803702476 0)
(0.0547527049859 0.240486292844 0)
(0.0572468419567 0.229624296956 0)
(0.0594113943119 0.218277959608 0)
(0.0612169435236 0.20651265451 0)
(0.0626349632292 0.194398190124 0)
(0.0636363748586 0.182008971676 0)
(0.0641900279242 0.169425916157 0)
(0.0642629687593 0.156739978528 0)
(0.0638251588012 0.144055781986 0)
(0.0628587325517 0.131490054034 0)
(0.0613638687678 0.119161453419 0)
(0.0593425548693 0.107193725167 0)
(0.0568226336549 0.0957120125747 0)
(0.0538312669426 0.0848624018848 0)
(0.0505207916854 0.0747495460232 0)
(0.046995526561 0.0653746036699 0)
(0.0432266740587 0.0567688100172 0)
(0.0392629790488 0.0490448861953 0)
(0.0352786835599 0.0422702706236 0)
(0.031440137466 0.0364074255297 0)
(0.0278558095268 0.0313582084663 0)
(0.0245727041281 0.0270090891103 0)
(0.0215983827171 0.0232573206877 0)
(0.0189200223163 0.0200173663587 0)
(0.0165137294081 0.0172208703374 0)
(0.0143522106022 0.0148169317725 0)
(0.0124154966702 0.0127687849738 0)
(0.0106993405276 0.0110418131491 0)
(0.0092073752428 0.00958855973731 0)
(0.00792431502371 0.00835328474563 0)
(0.00681315604007 0.00729525964163 0)
(0.00584753237972 0.00639143069491 0)
(0.00501165578289 0.0056212522535 0)
(0.00428891017552 0.004964258578 0)
(0.00366185188245 0.00440563487356 0)
(0.00312054673657 0.00392437694421 0)
(0.00267024041901 0.00344873376016 0)
(0.00244499430995 0.00313220417525 0)
(0.00220823311851 0.00269508226364 0)
(0.00206608643293 0.00235800399302 0)
(0.00196126524227 0.00200290541968 0)
(0.00191138303246 0.00165829607255 0)
(0.00176338690839 0.00121257948426 0)
(0.00181857075086 0.00091239062961 0)
(0.00204723040718 0.0007310651724 0)
(0.00210018569971 0.00048803720134 0)
(0.00209841029786 0.000269658961498 0)
(0.00207849721569 8.89610133424e-05 0)
(-0.0944605174002 0.00727801510201 0)
(-0.0998321144787 0.0234820263881 0)
(-0.0994051264546 0.039455692064 2.46717418034e-27)
(-0.0985089204673 0.0554617813938 0)
(-0.0973154015353 0.0712715389138 0)
(-0.0958411078738 0.0868485606078 0)
(-0.0941002604256 0.102145339369 0)
(-0.0921089517526 0.117118057896 0)
(-0.0898848964583 0.131726285812 0)
(-0.0874470096414 0.145933321046 0)
(-0.0848149624954 0.159706351062 0)
(-0.0820087406354 0.173016538932 0)
(-0.0790481993109 0.185839022338 0)
(-0.075952637942 0.198152825676 0)
(-0.07274038555 0.209940687169 0)
(-0.0694284245123 0.221188801534 0)
(-0.0660320457677 0.231886483212 0)
(-0.0625645692602 0.242025756612 0)
(-0.0590371223923 0.251600886627 0)
(-0.0554585112333 0.260607866021 0)
(-0.0518351687781 0.26904388259 0)
(-0.0481712066881 0.276906789957 0)
(-0.0444685385277 0.284194607022 0)
(-0.0407270885437 0.290905065919 0)
(-0.0369450399305 0.297035222779 0)
(-0.0331191329253 0.302581135911 0)
(-0.0292449672988 0.307537609328 0)
(-0.0253173318965 0.311897993134 0)
(-0.0213305303692 0.315654034303 0)
(-0.0172787426937 0.318795754133 0)
(-0.0131564186585 0.321311440786 0)
(-0.00895867166079 0.323187585293 0)
(-0.00468178675538 0.324408960434 0)
(-0.000323753190854 0.324958805858 0)
(0.00411517912683 0.324819104279 0)
(0.00863190574509 0.323970993347 0)
(0.0132198911243 0.322395330123 0)
(0.0178686247962 0.320073412792 0)
(0.0225631642673 0.31698785049 0)
(0.0272837979696 0.313123576767 0)
(0.0320058795278 0.308468963384 0)
(0.0366998697348 0.303017008747 0)
(0.041331624838 0.296766525273 0)
(0.0458629476509 0.289723262609 0)
(0.0502524060702 0.28190088585 0)
(0.0544563798861 0.273321685175 0)
(0.0584303057598 0.264016991529 0)
(0.0621299518424 0.254027133246 0)
(0.065512741661 0.243400977045 0)
(0.0685386868998 0.232194964111 0)
(0.0711711112747 0.220471669436 0)
(0.0733762967845 0.208298125546 0)
(0.0751222192335 0.195744144887 0)
(0.0763753446736 0.182881965888 0)
(0.0770963478473 0.169788913138 0)
(0.0772376525327 0.156555181359 0)
(0.0767504171394 0.143293729789 0)
(0.0756059404964 0.13014011707 0)
(0.0738128987721 0.117222509833 0)
(0.0713529800022 0.104678944984 0)
(0.0682625330845 0.092644088168 0)
(0.0644888857833 0.0813511390113 0)
(0.0603805997742 0.0709616906372 0)
(0.0561354573808 0.0613370065828 0)
(0.051511360674 0.0524638605573 0)
(0.046520391136 0.0446042878503 0)
(0.0415030226135 0.0379085566421 0)
(0.036738153509 0.032291040573 0)
(0.0323730007926 0.0275738238181 0)
(0.0284407747266 0.0235801972301 0)
(0.0249224874095 0.0201734355406 0)
(0.0217828435397 0.0172517125034 0)
(0.0189764825074 0.0147395422231 0)
(0.0164537191333 0.0125898563218 0)
(0.0141805554202 0.0107827240741 0)
(0.0121625372073 0.00930123538225 0)
(0.0104321881147 0.00809075382112 0)
(0.00897529766721 0.0070661880627 0)
(0.00771448405129 0.00617944384445 0)
(0.00661337205808 0.00542370882611 0)
(0.00566298294838 0.00478491719943 0)
(0.00484514660041 0.00424027750729 0)
(0.00413444499175 0.00377744950939 0)
(0.00351974290743 0.00336138764005 0)
(0.00307568233239 0.00298940445934 0)
(0.00282446561067 0.00266478531132 0)
(0.00259795386198 0.00230203875149 0)
(0.00239526838664 0.00192919500041 0)
(0.00231122668294 0.00161724842381 0)
(0.00219288773665 0.00126231337942 0)
(0.00218378501958 0.000991431745359 0)
(0.00207366121972 0.000663236114184 0)
(0.0021461413176 0.000478552097837 0)
(0.00228466366774 0.00035185262177 0)
(0.00225609049278 0.000193905257028 0)
(0.00223492292486 6.38395859083e-05 0)
(-0.109893612401 0.00741138475526 0)
(-0.116137205353 0.0239766524465 0)
(-0.115630233491 0.0402710400291 -2.46679459986e-27)
(-0.114572244705 0.056600314069 0)
(-0.11316383599 0.0727211723507 0)
(-0.111424951753 0.0885951281701 0)
(-0.109372946618 0.104172234357 0)
(-0.107027425111 0.119406682716 0)
(-0.104409929033 0.134256499402 0)
(-0.101543422632 0.148683915671 0)
(-0.0984517587708 0.162655537822 0)
(-0.0951591435712 0.17614243401 0)
(-0.0916896040051 0.189120125093 0)
(-0.0880664691195 0.201568481585 0)
(-0.0843118686029 0.213471525259 0)
(-0.0804462641926 0.224817135094 0)
(-0.0764880243447 0.235596658229 0)
(-0.0724530659129 0.245804432475 0)
(-0.0683545779589 0.255437232633 0)
(-0.0642028518934 0.264493662145 0)
(-0.0600052250523 0.272973517767 0)
(-0.0557661473153 0.280877161015 0)
(-0.051487356013 0.288204928987 0)
(-0.0471681461052 0.294956613149 0)
(-0.0428057006169 0.30113102263 0)
(-0.0383954589428 0.306725636472 0)
(-0.0339314910494 0.311736334813 0)
(-0.0294068735356 0.316157191654 0)
(-0.0248140621013 0.319980311683 0)
(-0.0201452843054 0.323195676847 0)
(-0.015392985093 0.325791109147 0)
(-0.010550267357 0.327752133317 0)
(-0.00561149879759 0.329062006079 0)
(-0.000572945122007 0.329701844796 0)
(0.00456653074476 0.329650865921 0)
(0.00980472322453 0.32888678154 0)
(0.015135329447 0.327386386701 0)
(0.0205472343116 0.32512634102 0)
(0.0260238772176 0.32208415171 0)
(0.031542770657 0.318239344677 0)
(0.037075217513 0.31357479188 0)
(0.0425862984504 0.3080781542 0)
(0.0480351780078 0.301743361424 0)
(0.053375763443 0.294572044747 0)
(0.0585577298945 0.286574798161 0)
(0.063527925499 0.277772167678 0)
(0.0682319420816 0.268195178684 0)
(0.0726161200131 0.257885410522 0)
(0.0766290754698 0.246894311965 0)
(0.0802237392608 0.235281965847 0)
(0.0833580568716 0.223114889627 0)
(0.0859956322741 0.21046311291 0)
(0.0881036885481 0.197396633035 0)
(0.0896479382071 0.183982557702 0)
(0.0905821784044 0.170287758768 0)
(0.090837092819 0.156393660752 0)
(0.0903270185071 0.142423739817 0)
(0.0890037536282 0.128552245429 0)
(0.0869210935761 0.11490824408 0)
(0.0839986232905 0.101643144898 0)
(0.0803275528409 0.0888477678314 0)
(0.0754978467942 0.0769802306833 0)
(0.0704388392864 0.0663958092328 0)
(0.0656370152561 0.0565052219773 0)
(0.0601200405705 0.0471538579663 0)
(0.0538167091029 0.039036808185 0)
(0.0475051971952 0.0324883323813 0)
(0.0416654188225 0.0272776832463 0)
(0.0364761452417 0.023061096326 0)
(0.0319062875946 0.0195588380706 0)
(0.0278763086064 0.0165996405319 0)
(0.0243185527294 0.0140715924389 0)
(0.0211578490962 0.0118919550414 0)
(0.0183043609486 0.0100211907224 0)
(0.015691823323 0.00847775067222 0)
(0.0133486413938 0.00729352126139 0)
(0.011391605321 0.00640131814166 0)
(0.00982441670181 0.005635555751 0)
(0.00845170993951 0.00493331150212 0)
(0.0072295998591 0.0043399135535 0)
(0.00618232201127 0.0038530105025 0)
(0.00529323913537 0.00343558839986 0)
(0.00451697459145 0.00307617487313 0)
(0.00384751031782 0.00273173120839 0)
(0.00343802037328 0.00245194870096 0)
(0.00315393740472 0.00213993646145 0)
(0.00296438544381 0.00185322673361 0)
(0.00277206556615 0.00152822313192 0)
(0.0026195902248 0.0012193204172 0)
(0.0024605872809 0.000912406056871 0)
(0.00237757075605 0.00067092672256 0)
(0.00236826249045 0.000482232420059 0)
(0.0022734635411 0.000298183104284 0)
(0.0024162337731 0.000212295751396 0)
(0.00236453791577 0.000126049759205 0)
(0.00233486408258 3.92984980058e-05 0)
(-0.125671749702 0.00756716007284 0)
(-0.132803878503 0.0245561003544 0)
(-0.132210105506 0.0412258315092 0)
(-0.130979367048 0.0579331765427 0)
(-0.129341865437 0.0744174534456 0)
(-0.127321333303 0.0906376385958 0)
(-0.124938693086 0.106540860012 0)
(-0.12221754542 0.122078938906 0)
(-0.119183773487 0.137208076665 0)
(-0.115864921085 0.151889254295 0)
(-0.112289556218 0.166088410004 0)
(-0.108486635831 0.179776524531 0)
(-0.104484876311 0.192929604309 0)
(-0.100312135513 0.205528563184 0)
(-0.0959948104639 0.217558999763 0)
(-0.0915572641963 0.229010864198 0)
(-0.0870212983256 0.239878011236 0)
(-0.0824056994407 0.250157641261 0)
(-0.0777258867937 0.259849642223 0)
(-0.0729936927984 0.268955857064 0)
(-0.068217294991 0.277479314205 0)
(-0.0634013098076 0.285423466825 0)
(-0.0585470341209 0.292791488588 0)
(-0.0536528080094 0.299585665943 0)
(-0.048714451312 0.305806910691 0)
(-0.0437257298695 0.31145439434 0)
(-0.0386788082345 0.316525283866 0)
(-0.0335646746926 0.321014543837 0)
(-0.028373540769 0.324914770806 0)
(-0.0230952493207 0.328216007628 0)
(-0.0177197471327 0.330905665709 0)
(-0.0122375632358 0.332968286938 0)
(-0.00664050920316 0.33438549685 0)