/*--------------------------------*- C++ -*----------------------------------*\
| =========                 |                                                 |
| \\      /  F ield         | OpenFOAM: The Open Source CFD Toolbox           |
|  \\    /   O peration     | Version:  v1906                                 |
|   \\  /    A nd           | Web:      www.OpenFOAM.com                      |
|    \\/     M anipulation  |                                                 |
\*---------------------------------------------------------------------------*/
FoamFile
{
    version     2.0;
    format      ascii;
    class       surfaceScalarField;
    location    "288";
    object      phi;
}
// * * * * * * * * * * * * * * * * * * * * * * * * * * * * * * * * * * * * * //

dimensions      [0 3 -1 0 0 0 0];
oriented        oriented;


internalField   nonuniform List<scalar> 
18240
(
-0.000201395865153
0.000201394491547
-0.000407457545911
0.000206060347324
-0.000613364484049
0.000205905267159
-0.000816605010407
0.000203239273197
-0.00101589522157
0.000199288465589
-0.00121022142447
0.000194325194503
-0.00139872926654
0.000188506110539
-0.00158068081511
0.000181950903081
-0.00175545372545
0.000174771213324
-0.00192252548917
0.000167071605511
-0.0020814818199
0.000158954661586
-0.00223199577945
0.000150514433969
-0.00237383745091
0.000141840016575
-0.00250684526142
0.000133009099385
-0.00263093912436
0.000124092189671
-0.00274608433451
0.000115147535292
-0.00285231159147
0.000106225529633
-0.00294967336546
9.73654130785e-05
-0.00303827406942
8.85988562742e-05
-0.00311821764497
7.99488599978e-05
-0.00318965098252
7.14312971585e-05
-0.00325270036665
6.30567047303e-05
-0.00330753123515
5.48285053277e-05
-0.00335427014966
4.67487020708e-05
-0.00339308434098
3.88113576336e-05
-0.00342408519105
3.10135597205e-05
-0.0034474314093
2.33426700579e-05
-0.00346320950816
1.57941740538e-05
-0.00347156505381
8.35101789777e-06
-0.0034725554748
1.01026071355e-06
-0.00346631369951
-6.24766669621e-06
-0.00345286825832
-1.34215199378e-05
-0.00343234512808
-2.05307546059e-05
-0.00340475071891
-2.7566209276e-05
-0.0033702152392
-3.45453089207e-05
-0.00332873452856
-4.1448180105e-05
-0.00328045899742
-4.82879423736e-05
-0.00322539098132
-5.50312885364e-05
-0.00316372127504
-6.1685140501e-05
-0.00309547987054
-6.82008135809e-05
-0.00302092067339
-7.45779235011e-05
-0.00294012515756
-8.07516471364e-05
-0.00285343363981
-8.67138628037e-05
-0.00276100359324
-9.23837673353e-05
-0.00266328420721
-9.77455224404e-05
-0.00256053359169
-0.000102703142603
-0.0024533307329
-0.00010723303661
-0.00234205803135
-0.000111225533905
-0.00222744178154
-0.000114650483341
-0.0021100072522
-0.000117389397602
-0.00199063369194
-0.000119411860058
-0.00186998860567
-0.000120603760591
-0.00174907950914
-0.000120951137181
-0.00162867463529
-0.00012036882319
-0.00150983507553
-0.000118884768994
-0.0013933350612
-0.000116469968693
-0.0012801690163
-0.000113213387952
-0.00117099255386
-0.000109152326737
-0.00106660969393
-0.000104431209236
-0.000967455665311
-9.91350773316e-05
-0.000874071223953
-9.34326431859e-05
-0.000786636073523
-8.74203174807e-05
-0.000705427213529
-8.12560937279e-05
-0.00063039475986
-7.50206472083e-05
-0.000561595614558
-6.88448581268e-05
-0.000498800186407
-6.27857564703e-05
-0.000441898849549
-5.69454260781e-05
-0.00039053374245
-5.13569565362e-05
-0.000344482069988
-4.60942569601e-05
-0.000303309763098
-4.11654028478e-05
-0.000266735342475
-3.66158465987e-05
-0.00023430064629
-3.24290947989e-05
-0.000205715037494
-2.86262414472e-05
-0.000180538055344
-2.5172976053e-05
-0.000158503101736
-2.20752113134e-05
-0.000139211025141
-1.9290010249e-05
-0.000122434756763
-1.68163403584e-05
-0.000107825799644
-1.46089816703e-05
-9.52014851896e-05
-1.26641633e-05
-8.42672828096e-05
-1.09359918444e-05
-7.48913061112e-05
-9.41505454319e-06
-6.68542249405e-05
-8.04070741303e-06
-6.01474600768e-05
-6.74549647105e-06
-5.48932019158e-05
-5.26000431625e-06
-5.02408702384e-05
-4.69018910607e-06
-4.55955985919e-05
-4.65551837409e-06
-4.15645827913e-05
-4.0699565712e-06
-3.81225499409e-05
-3.46032935342e-06
-3.46942157041e-05
-3.4723983284e-06
-3.08507537354e-05
-3.87495866732e-06
-2.68749158702e-05
-4.03083683859e-06
-2.27536529694e-05
-4.17143918251e-06
-1.80299528542e-05
-4.78612652464e-06
-1.23947721586e-05
-5.70869384994e-06
-5.99656100166e-06
-6.48755532784e-06
-6.04041501368e-06
-0.000208189110651
0.00040958203618
-0.00043218707674
0.000430056776968
-0.000652840330652
0.000426556746542
-0.000869751158214
0.000420148503088
-0.00108211493506
0.000411650539688
-0.00128903149371
0.00040124030601
-0.00148964638077
0.000389119441719
-0.00168319574692
0.000375499072231
-0.00186902413881
0.000360598241741
-0.00204658532221
0.000344631924616
-0.00221544330579
0.000327811524221
-0.00237526255105
0.000310333239005
-0.00252580441701
0.000292381054343
-0.00266691176847
0.000274116544345
-0.00279850485598
0.000255684808272
-0.00292056257988
0.000237206019312
-0.00303312074914
0.00021878365715
-0.00313625119358
0.000200497446631
-0.00323006461717
0.000182412757943
-0.00331468769212
0.000164574544477
-0.00339027208822
0.000147016775681
-0.00345696878374
0.000129757247188
-0.00351494452349
0.000112806035185
-0.00356435195313
9.61614440399e-05
-0.00360535468775
7.98166522861e-05
-0.0036380915148
6.37573848157e-05
-0.00366271143531
4.79659770362e-05
-0.00367933002172
3.24216320191e-05
-0.00368807599543
1.71011748899e-05
-0.00368903770157
1.98284218775e-06
-0.00368232345593
-1.29569899291e-05
-0.00366799661871
-2.7735423089e-05
-0.00364615049036
-4.2371391471e-05
-0.00361683009739
-5.68716510982e-05
-0.00358012455167
-7.12449911894e-05
-0.00353607390387
-8.54819983173e-05
-0.00348477981873
-9.95760981523e-05
-0.00342629615518
-0.00011349649885
-0.00336075863283
-0.000127216984906
-0.00328825804825
-0.000140681689539
-0.00320898874938
-0.00015384221868
-0.00312310392037
-0.000166616026018
-0.00303088193545
-0.000178931974044
-0.00293256413504
-0.000190681074752
-0.00282853759278
-0.00020176993949
-0.002719157093
-0.00021206402379
-0.00260494219024
-0.000221448235592
-0.00248638602093
-0.000229764012838
-0.00236416286084
-0.000236877104393
-0.00223892550862
-0.000242612156956
-0.00211151565455
-0.000246829053482
-0.00198274870274
-0.000249360360119
-0.00185361494175
-0.000250096658792
-0.00172504921698
-0.000248929174354
-0.00159811248855
-0.000245837678891
-0.0014737507164
-0.000240831441318
-0.00135295898597
-0.000234025150433
-0.00123654700338
-0.000225568546589
-0.00112529985783
-0.000215701252894
-0.00101977097572
-0.000204671698431
-0.000920453100648
-0.000192775152381
-0.000827607352437
-0.000180276129425
-0.000741441036704
-0.000167447725645
-0.000661960621899
-0.000154512402658
-0.000589142657473
-0.000141688086109
-0.000522798005451
-0.000129142316419
-0.000462731165311
-0.000117037099869
-0.000408612957175
-0.000105487323067
-0.00036013126682
-9.46003275893e-05
-0.000316872781931
-8.44362695288e-05
-0.000278467515327
-7.50452214717e-05
-0.000244476526555
-6.64328774544e-05
-0.000214527145001
-5.85998123874e-05
-0.000188201264002
-5.15124433024e-05
-0.000165158911397
-4.51422166231e-05
-0.000145026830521
-3.94368368809e-05
-0.000127512332235
-3.43562157379e-05
-0.000112294540626
-2.98428215716e-05
-9.91301211564e-05
-2.58546559909e-05
-8.77480658253e-05
-2.23352994929e-05
-7.7945433862e-05
-1.92441795511e-05
-6.94786564725e-05
-1.65261095051e-05
-6.21115251628e-05
-1.4139672925e-05
-5.53387268454e-05
-1.20527902095e-05
-4.94975636716e-05
-1.05574762649e-05
-4.45114994437e-05
-9.66397884286e-06
-4.03613944287e-05
-8.24966360504e-06
-3.69108975066e-05
-6.93827222536e-06
-3.37106172231e-05
-6.70735789517e-06
-3.03960959244e-05
-7.22858195358e-06
-2.66210562405e-05
-7.85432241972e-06
-2.25257336139e-05
-8.31841401885e-06
-1.80858865261e-05
-9.28870686114e-06
-1.28254729049e-05
-1.10432539129e-05
-6.30700449279e-06
-1.30873240955e-05
-1.23884399728e-05
-0.000212294723518
0.000621875083555
-0.000437460094086
0.000655220240962
-0.000660406500209
0.000649501371519
-0.000879709885607
0.000639450096879
-0.00109433087882
0.000626269814117
-0.00130330664948
0.000610214450227
-0.00150576033097
0.000591571569264
-0.00170092092664
0.000570658263656
-0.00188813164137
0.00054780763406
-0.00206685295073
0.000523352116279
-0.00223665847855
0.000497616022429
-0.002397229077
0.000470903079798
-0.0025483425358
0.000443493848593
-0.00268986337558
0.000415637076624
-0.00282173044803
0.000387551663396
-0.0029439454771
0.000359421298503
-0.00305656135589
0.00033139987094
-0.00315967122252
0.000303608254406
-0.00325339916032
0.000276141701424
-0.00333789045669
0.000249067627412
-0.0034133055423
0.000222433681402
-0.00347981125865
0.000196265770893
-0.00353757835688
0.000170575908556
-0.0035867731107
0.000145360203766
-0.00362755853146
0.000120605949011
-0.00366008549544
9.62897203559e-05
-0.00368449788707
7.23834474864e-05
-0.00370092240841
4.88530213136e-05
-0.00370947806574
2.56631874617e-05
-0.0037102639746
2.77719242722e-06
-0.00370337374921
-1.98395960974e-05
-0.00368888069681
-4.22184537056e-05
-0.00366685795567
-6.43853101944e-05
-0.00363736057118
-8.63575116258e-05
-0.00360045199255
-0.000108143715808
-0.00355618258315
-0.00012973854652
-0.00350462299449
-0.000151125016955
-0.00344583849282
-0.00017226707026
-0.00337992917959
-0.000193115154513
-0.00330699940178
-0.000213596843351
-0.00322720434884
-0.000233626049733
-0.00314071385456
-0.000253091724886
-0.00304776450025
-0.000271870609892
-0.0029486176323
-0.000289813668144
-0.00284361639626
-0.000306761673233
-0.00273313875915
-0.000322528781143
-0.00261765932405
-0.000336920262773
-0.00249769891641
-0.000349713892218
-0.00237389053244
-0.000360681091022
-0.00224692549763
-0.000369570095617
-0.00211761887767
-0.000376135298662
-0.00198684708641
-0.000380129512361
-0.00185560149815
-0.000381346584512
-0.001724907625
-0.000379625465518
-0.00159585512665
-0.000374899369172
-0.00146949695645
-0.000367196934866
-0.00134686153816
-0.000356674131901
-0.00122885058018
-0.000343590945028
-0.00111625605371
-0.000328312721803
-0.00100968219858
-0.000311260018524
-0.000909589488622
-0.000292886907352
-0.000816253005623
-0.000273628815371
-0.000729826756893
-0.000253893930724
-0.000650317702444
-0.000234038358203
-0.000577647438119
-0.000214378378588
-0.000511625856216
-0.000195180930004
-0.000452004748096
-0.000176678017634
-0.00039845208588
-0.000159056964078
-0.000350602981152
-0.000142469051846
-0.000308039046572
-0.000127017157475
-0.00027034047633
-0.000112763383672
-0.000237067797201
-9.97227700951e-05
-0.000207808592067
-8.78789016599e-05
-0.00018215366383
-7.71852344534e-05
-0.000159734003448
-6.75824860801e-05
-0.00014019206379
-5.8997625912e-05
-0.000123213022414
-5.13568359436e-05
-0.000108494682431
-4.45811386016e-05
-9.57752138026e-05
-3.85967303785e-05
-8.48023494835e-05
-3.33293002962e-05
-7.53559350467e-05
-2.87140545514e-05
-6.72126225024e-05
-2.46916057468e-05
-6.01505120546e-05
-2.12265616454e-05
-5.38787331991e-05
-1.83471009201e-05
-4.82947613142e-05
-1.61664993332e-05
-4.36430093936e-05
-1.4341390484e-05
-3.91464128974e-05
-1.27758484643e-05
-3.48510689829e-05
-1.12638141503e-05
-3.14372813902e-05
-1.01558201076e-05
-2.87365715654e-05
-9.97001650725e-06
-2.50716297314e-05
-1.15680901919e-05
-2.05458971243e-05
-1.2897667077e-05
-1.5840540955e-05
-1.4053266309e-05
-1.06360931656e-05
-1.63160685266e-05
-5.46119714615e-06
-1.83352826444e-05
-1.78861395616e-05
-0.000216090657515
0.000837963932851
-0.00044435515996
0.000883482994093
-0.000670500878327
0.000875645165976
-0.000892894968184
0.000861842367825
-0.00111038883464
0.000843761885247
-0.00132195671553
0.000821780638794
-0.00152668787345
0.00079630111784
-0.00172379589307
0.000767764799693
-0.00191262243633
0.000736632803804
-0.00209263743574
0.000703365904093
-0.00226343271993
0.000668410229607
-0.00242471397622
0.000632183465089
-0.00257628819117
0.000595067352684
-0.0027180517705
0.000557400207397
-0.00284997600402
0.000519475641011
-0.00297209484712
0.00048154021562
-0.0030844913157
0.000443796642895
-0.00318728696217
0.000406404620459
-0.00328063069066
0.000369486425517
-0.00336469064145
0.000333129088997
-0.0034396458343
0.000297390707366
-0.00350568030756
0.000262302709532
-0.0035629774269
0.000227875864816
-0.00361171572445
0.000194102089051
-0.00365206552301
0.000160959738428
-0.00368418585771
0.000128414921263
-0.00370822317196
9.6426049559e-05
-0.00372430883314
6.49449507645e-05
-0.00373255984374
3.39208679584e-05
-0.00373307668112
3.30177552459e-06
-0.00372594618581
-2.69619900192e-05
-0.00371123965915
-5.69157444546e-05
-0.00368901836348
-8.65971133826e-05
-0.00365933187482
-0.000116033338398
-0.00362222654663
-0.00014523825727
-0.00357774415014
-0.000174208997822
-0.00352593350921
-0.000202923784053
-0.00346684914835
-0.000231338449045
-0.00340056588324
-0.000259385753556
-0.00332717680338
-0.000286972272648
-0.00324681007602
-0.00031397978137
-0.00315962528739
-0.000340262732942
-0.00306583152722
-0.000365651668347
-0.00296568145147
-0.000389950585694
-0.00285949028749
-0.000412941272182
-0.00274762831826
-0.000434379116209
-0.00263054198235
-0.000453997090156
-0.00250874703937
-0.000471499710649
-0.00238285351228
-0.000486568210482
-0.00225356051886
-0.000498857611184
-0.00212168231458
-0.000508011314782
-0.00198813768862
-0.000513673353331
-0.00185396290469
-0.000515524196214
-0.00172027723653
-0.000513315495754
-0.00158826331562
-0.00050692122821
-0.00145909947375
-0.000496370099687
-0.00133391493634
-0.000481871110322
-0.00121371526033
-0.000463804061081
-0.001099345292
-0.000442698518745
-0.000991444433447
-0.00041917713582
-0.000890455092958
-0.000393894054306
-0.000796629078179
-0.000367472469529
-0.000710068462821
-0.000340473108134
-0.000630743071748
-0.00031338168299
-0.000558523254891
-0.00028661676078
-0.000493185634911
-0.00026053637645
-0.000434434761856
-0.000235447331851
-0.000381904569777
-0.000211604940613
-0.000335179900514
-0.000189212107053
-0.000293804550556
-0.000168410297011
-0.000257310206184
-0.000149276211147
-0.000225228393825
-0.000131822617014
-0.000197114360617
-0.000116011861108
-0.000172547712019
-0.000101770604467
-0.000151143441776
-8.90065221239e-05
-0.000132544710782
-7.76160911007e-05
-0.000116429682761
-6.74927056619e-05
-0.000102502833518
-5.85288786542e-05
-9.05004157693e-05
-5.06210735261e-05
-8.01813528278e-05
-4.36704090414e-05
-7.13305874623e-05
-3.75876584871e-05
-6.37493387887e-05
-3.22958968761e-05
-5.72414667595e-05
-2.77579173554e-05
-5.16566081382e-05
-2.39560421205e-05
-4.64411907763e-05
-2.14069877739e-05
-4.15854784628e-05
-1.9225319581e-05
-3.70499775809e-05
-1.73425425051e-05
-3.30590081615e-05
-1.52877649725e-05
-2.90314653765e-05
-1.42200992749e-05
-2.48877461123e-05
-1.41548375059e-05
-2.19259462874e-05
-1.45761471548e-05
-1.7707434701e-05
-1.71692821705e-05
-1.26686928638e-05
-1.91506707672e-05
-8.42411124891e-06
-2.06204655883e-05
-4.40657355738e-06
-2.24171234763e-05
-2.2327738187e-05
-0.000220806597605
0.00105876873198
-0.00045369094249
0.00111636526614
-0.000684302784692
0.00110625513867
-0.000910915324395
0.00108845299384
-0.00113229625809
0.00106514101252
-0.00134735484158
0.00103683747439
-0.00155513914983
0.00100408378512
-0.00175484303528
0.000967467144256
-0.00194580737202
0.000927595729545
-0.00212751669398
0.000885073944835
-0.00229959001924
0.000840482433418
-0.00246176904788
0.00079436153407
-0.00261390293303
0.000747200475223
-0.00275593308121
0.000699429793686
-0.00288787666486
0.000651418903772
-0.00300981206263
0.000603475542862
-0.00312186424804
0.000555849054892
-0.00322419300818
0.000508733919404
-0.00331698150837
0.000462275826315
-0.00340042780977
0.000416576678224
-0.00347473663166
0.000371701255564
-0.00354011375612
0.00032768203083
-0.00359676041058
0.000284525231135
-0.00364486981182
0.00024221476021
-0.00368462349627
0.000200717284868
-0.00371618931876
0.000159985244991
-0.00373971923292
0.000119961116329
-0.00375534828781
8.05798694062e-05
-0.00376319365531
4.17727941675e-05
-0.00376335447455
3.46991762749e-06
-0.00375591220446
-3.43962334974e-05
-0.00374093146245
-7.1887658146e-05
-0.00371846211547
-0.000109056952832
-0.00368854132177
-0.000145943811989
-0.0036511978239
-0.000182570833037
-0.0036064554478
-0.000218939652134
-0.00355433987483
-0.000255027162678
-0.00349488346672
-0.000290781936839
-0.00342813424736
-0.000326121797915
-0.00335416130145
-0.000360931478315
-0.00327306495563
-0.000395062430677
-0.00318498146128
-0.000428332278112
-0.00309009285995
-0.000460526778247
-0.00298862990516
-0.000491400243731
-0.00288088098656
-0.000520677813006
-0.00276719421116
-0.000548054233589
-0.00264798755747
-0.000573193488194
-0.00252375426548
-0.000595724020728
-0.00239507919569
-0.000615236311615
-0.00226265168138
-0.00063128002313
-0.00212728860253
-0.000643371932869
-0.00198994705298
-0.000651014700978
-0.00185173502384
-0.000653738941219
-0.0017138928125
-0.000651162970442
-0.00157775431072
-0.000643067622246
-0.00144467418722
-0.000629460633852
-0.0013159482737
-0.000610609674995
-0.00119272785779
-0.000587038769043
-0.00107594801916
-0.000559494375958
-0.000966280886805
-0.000528860964819
-0.00086414134705
-0.000496051299885
-0.000769723764365
-0.000461907757133
-0.000683057664395
-0.000427157259922
-0.000604047330492
-0.000392409705573
-0.000532501593675
-0.000358180334063
-0.000468145495769
-0.000324910144205
-0.000410630410595
-0.000292980218151
-0.000359538063466
-0.000262715053692
-0.000314391748228
-0.000234376390325
-0.000274672720149
-0.000208147163682
-0.000239849512773
-0.000184117519553
-0.000209404543481
-0.000162285790415
-0.000182856267212
-0.00014257874639
-0.00015976506776
-0.000124880824433
-0.000139733517535
-0.000109057657844
-0.000122401916076
-9.49677754573e-05
-0.000107446809094
-8.24685289135e-05
-9.45771053743e-05
-7.14198106737e-05
-8.35334124815e-05
-6.16866409999e-05
-7.40851895311e-05
-5.31410053581e-05
-6.60310222487e-05
-4.56646615827e-05
-5.91983216966e-05
-3.91514441062e-05
-5.34250878675e-05
-3.35551899152e-05
-4.85780460158e-05
-2.88273030759e-05
-4.40877979759e-05
-2.59243552998e-05
-3.96861155102e-05
-2.36570298913e-05
-3.5305540594e-05
-2.17559690736e-05
-3.02558994227e-05
-2.03728414667e-05
-2.56152869983e-05
-1.88986821765e-05
-2.1358324519e-05
-1.84540438306e-05
-1.79492887081e-05
-1.8030881506e-05
-1.50293190992e-05
-2.01401375283e-05
-1.07045224396e-05
-2.35289474027e-05
-6.6269014682e-06
-2.47549664983e-05
-3.38591161396e-06
-2.57173335678e-05
-2.57426069163e-05
-0.00022673591241
0.00128550275024
-0.000465677432292
0.00135530501864
-0.000702092575224
0.00134266828108
-0.000934141527061
0.00132050007296
-0.00116049809272
0.00129149571676
-0.00137999763843
0.00125633526184
-0.00159164072354
0.00121572519159
-0.00179459988199
0.00117042473993
-0.00198821890611
0.00112121329917
-0.002172005419
0.00106885914599
-0.00234561769825
0.00101409353412
-0.00250884791101
0.000957590744627
-0.00266160296476
0.000899954688238
-0.00280388498946
0.000841711195813
-0.00293577214369
0.000783305633751
-0.00305740110279
0.00072510434733
-0.0031689512586
0.000667399301071
-0.0032706313402
0.000610414425446
-0.00336266802103
0.000554313236396
-0.00344529678886
0.00049920658453
-0.00351875446782
0.000445160446401
-0.00358327345343
0.000392203022386
-0.00363907710159
0.000340331335055
-0.00368637623601
0.000289516929154
-0.00372536639501
0.000239711002309
-0.00375622573531
0.000190848805227
-0.0037791134478
0.000142853644639
-0.00379416855375
9.56405193504e-05
-0.0038015091807
4.91196213311e-05
-0.00380123216327
3.1998846274e-06
-0.00379341325664
-4.22074459047e-05
-0.00377810787549
-8.7184531168e-05
-0.00375535271152
-0.000131802864751
-0.00372516807669
-0.000176118374105
-0.00368756155573
-0.000220166524196
-0.00364253253666
-0.000263957054937
-0.00359007829924
-0.000307469074386
-0.00353020081748
-0.000350646417057
-0.00346291503919
-0.000393394013534
-0.00338825711699
-0.000435575392162
-0.00330629355108
-0.000477011736624
-0.00321712890286
-0.000517482604895
-0.00312091360077
-0.00055672797346
-0.00301784909178
-0.000594451108051
-0.0029081930245
-0.000630320997977
-0.00279226250272
-0.000663972856851
-0.00267043995847
-0.000695005473319
-0.00254318125007
-0.000722973751909
-0.00241103195977
-0.00074737859134
-0.00227465118003
-0.000767656061453
-0.00213484524077
-0.000783175624004
-0.00199260276506
-0.000793257596014
-0.00184912117608
-0.000797223858739
-0.00170580144847
-0.000794488447743
-0.00156419871359
-0.000784679212434
-0.00142592118096
-0.000767749412227
-0.00129251550361
-0.000744028967622
-0.00116534756478
-0.000714221926367
-0.00104548526261
-0.000679372986367
-0.000933630863926
-0.000640732627869
-0.000830136600839
-0.000599562936197
-0.000735090046544
-0.000556972025177
-0.000648408273524
-0.000513856444996
-0.000569901769905
-0.000470933586831
-0.000499303492389
-0.000428795885945
-0.000436276528549
-0.000387954422785
-0.000380413374559
-0.00034886087872
-0.000331231915571
-0.000311914298872
-0.000288177360296
-0.000277448874799
-0.000250641437601
-0.000245700921479
-0.000218003667974
-0.000216773386619
-0.000189676186687
-0.000190631481683
-0.000165133685298
-0.000167139963208
-0.00014391599281
-0.000146117714526
-0.000125617426327
-0.000127376032891
-0.000109876895075
-0.000110728626664
-9.63731161983e-05
-9.59932697811e-05
-8.48202202232e-05
-8.29941702359e-05
-7.496572339e-05
-7.15632285026e-05
-6.65889660255e-05
-6.15404327472e-05
-5.95013065015e-05
-5.27753143368e-05
-5.35475669441e-05
-4.51285197025e-05
-4.85773950177e-05
-3.85493172972e-05
-4.38439127202e-05
-3.35862966211e-05
-3.95284161377e-05
-3.02677424833e-05
-3.52263005042e-05
-2.79894567519e-05
-3.13355093549e-05
-2.56802855594e-05
-2.77560665573e-05
-2.39890528164e-05
-2.34904191532e-05
-2.32059014497e-05
-1.90330245425e-05
-2.29555982771e-05
-1.4431997567e-05
-2.26757425992e-05
-1.149309796e-05
-2.31258852864e-05
-8.9989545651e-06
-2.60761857511e-05
-5.54669946546e-06
-2.82584193432e-05
-2.79379415108e-06
-2.85216052396e-05
-2.85649410648e-05
-0.000234074205415
0.00151957514382
-0.000480586721789
0.00160181539438
-0.000724237382254
0.00158631706695
-0.000963032264354
0.00155929300954
-0.00119552573937
0.00152398736379
-0.00142046428552
0.00148127203013
-0.00163679366354
0.00143205289642
-0.00184366564565
0.00137729514115
-0.00204043413862
0.00131798033378
-0.00222664268444
0.00125506635067
-0.00240200530159
0.00118945495899
-0.00256638346102
0.00112196785387
-0.00271976113372
0.00105333149257
-0.00286222019305
0.000984169559229
-0.00299391719242
0.000915002160149
-0.00311506286981
0.000846249763911
-0.00322590438117
0.000778240827463
-0.00332671085771
0.000711221180246
-0.00341776159626
0.000645364593336
-0.00349933711264
0.000580783044916
-0.00357171206244
0.000517536756352
-0.0036351502237
0.000455642939289
-0.00368990049163
0.000395083855551
-0.00373619422202
0.000335813379993
-0.00377424291907
0.000277763001858
-0.00380423681339
0.0002208465392
-0.00382634336201
0.000164964695851
-0.00384070645804
0.000110008720172
-0.00384744538728
5.58643998841e-05
-0.00384665460591
2.41561750372e-06
-0.00383840328175
-5.04514359819e-05
-0.00382273609626
-0.000102843651892
-0.003799674082
-0.000154855931835
-0.00376921712624
-0.000206565585147
-0.00373134707482
-0.000258025917441
-0.00368603282772
-0.000309259795828
-0.00363323651716
-0.000360253017911
-0.00357292148679
-0.0004109482654
-0.00350506153066
-0.000461240137708
-0.00342965078026
-0.000510971694931
-0.00334671432302
-0.000559933498034
-0.00325631727131
-0.000607864782383
-0.00315857322695
-0.000654457473847
-0.00305364899638
-0.00069936124073
-0.0029417678379
-0.000742188960626
-0.00282320967759
-0.000782518973979
-0.00269831258375
-0.00081989197185
-0.00256747861518
-0.000853798972275
-0.00243119032389
-0.000883660353739
-0.00229004398626
-0.000908798214145
-0.00214480283041
-0.000928415468917
-0.00199646388404
-0.000941597820737
-0.00184632122806
-0.000947370319225
-0.00169598745501
-0.000944829386931
-0.00154733249811
-0.00093334353095
-0.00140233181869
-0.000912763243619
-0.00126290030214
-0.000883475384612
-0.00113072879515
-0.000846409523492
-0.0010070804529
-0.00080303883442
-0.00089267198728
-0.000755158038067
-0.000787718552389
-0.000704534080851
-0.000692112533701
-0.000652595073712
-0.00060559849453
-0.000600387839662
-0.000527861016995
-0.000548687747997
-0.000458547728537
-0.000498126228543
-0.000397258216136
-0.000449261058856
-0.000343528125819
-0.000402608594599
-0.000296807535852
-0.000358653043948
-0.000256444979305
-0.000317829640929
-0.000221705166163
-0.000280458956231
-0.000191836178104
-0.000246660582147
-0.000166151685646
-0.000216334533499
-0.000144077068334
-0.000189233588761
-0.00012514027515
-0.000165074241632
-0.000108936635412
-0.000143599948129
-9.51092053329e-05
-0.000124576929305
-8.33428974661e-05
-0.000107780950372
-7.3359556548e-05
-9.29994301965e-05
-6.49148838921e-05
-8.00303652916e-05
-5.77979155581e-05
-6.86805768731e-05
-5.18323905428e-05
-5.87642788881e-05
-4.68837877839e-05
-5.01008616815e-05
-4.29010165649e-05
-4.25565490904e-05
-3.88053350553e-05
-3.77086947329e-05
-3.48145703287e-05
-3.42870122014e-05
-3.12476921712e-05
-3.15879976746e-05
-2.7379833311e-05
-2.95825380816e-05
-2.36357095074e-05
-2.77713626635e-05
-1.97376391264e-05
-2.71457940784e-05
-1.63180107254e-05
-2.64189722962e-05
-1.24170382311e-05
-2.66230558622e-05
-8.75739949189e-06
-2.68310569931e-05
-7.01595891555e-06
-2.78617103896e-05
-4.55004872921e-06
-3.0774529057e-05
-2.28299613828e-06
-3.08389592046e-05
-3.08720133785e-05
-0.000243014547008
0.00176258779983
-0.000498764975732
0.00185756413679
-0.00075122320182
0.00183877329981
-0.000998190920655
0.00180625888877
-0.0012380708301
0.0017638654283
-0.00146950114302
0.00171270060577
-0.00169136568906
0.00165391577806
-0.00190279884978
0.00158872675006
-0.00210317682053
0.00151835685228
-0.00229209765812
0.00144398587014
-0.00246935382644
0.0013667099282
-0.00263490057017
0.00128751356071
-0.0027888233843
0.00120725341063
-0.00293130678075
0.00112665225694
-0.00306260627472
0.00104630112521
-0.00318302422959
0.000966667431802
-0.00329289023273
0.000888106752284
-0.00339254547236
0.000810876639586
-0.00348233112126
0.000735150720837
-0.00356257963407
0.000661032401454
-0.00363360885813
0.000588567142153
-0.00369571773864
0.000517753421063
-0.00374918372699
0.000448551828208
-0.00379426073611
0.00038089288992
-0.00383117804378
0.000314683260378
-0.00386013908593
0.000249811125851
-0.00388132079168
0.000186150467624
-0.00389487251581
0.000123565179043
-0.00390091538889
6.19126112114e-05
-0.00389954137159
1.04769250382e-06
-0.00389081279487
-5.91732130101e-05
-0.00387476215909
-0.000118886646262
-0.00385139282
-0.000178216796998
-0.00382068061943
-0.000237268374362
-0.00378257697844
-0.00029611918608
-0.0037370138381
-0.000354811564393
-0.0036839104239
-0.000413344050565
-0.00362318232357
-0.000471663060492
-0.00355475219896
-0.00052965609044
-0.00347856214797
-0.000587146946718
-0.00339458633397
-0.000643894073391
-0.00330284281189
-0.000699593015457
-0.00320340283259
-0.000753882396563
-0.00309639586368
-0.000806353845488
-0.00298200953551
-0.00085656191491
-0.00286048456382
-0.000904031944916
-0.00273210782892
-0.000948258376853
-0.00259720993408
-0.000988688845773
-0.00245617667311
-0.00102468771286
-0.00230949013988
-0.001055481951
-0.00215780624487
-0.00108009900592
-0.00200207445461
-0.00109733133952
-0.0018436712925
-0.00110577893534
-0.00168447945527
-0.00110402819807
-0.00152682809579
-0.00109100662065
-0.0013732164551
-0.00106638945684
-0.00122610178291
-0.00103060661946
-0.00108768536486
-0.000984844155979
-0.000959528067114
-0.000931213370551
-0.000842322862227
-0.000872381146376
-0.000735984814004
-0.0008108886082
-0.000640056281557
-0.00074854105801
-0.000554018328866
-0.000686442049335
-0.00047740483346
-0.000625318066579
-0.000409781042451
-0.000565766611654
-0.000350698203557
-0.000508361341246
-0.000299652658003
-0.000453672350309
-0.000256038240349
-0.000402286289826
-0.000219089738868
-0.000354797493204
-0.000187884281371
-0.000311682825738
-0.000161464418916
-0.000273099422075
-0.000139000099481
-0.000238817826291
-0.000119871463011
-0.000208382050538
-0.000103623293095
-0.000181342943091
-8.98727066445e-05
-0.000157371743063
-7.82741408772e-05
-0.000136197179202
-6.85239088307e-05
-0.000117553431626
-6.03543979613e-05
-0.000101191506551
-5.35299947476e-05
-8.68779905371e-05
-4.78460950517e-05
-7.43882191262e-05
-4.31261456559e-05
-6.35085961828e-05
-3.92070607481e-05
-5.40441924174e-05
-3.58701773188e-05
-4.59188598622e-05
-3.25612253557e-05
-4.10449438417e-05
-2.94518500043e-05
-3.74264061198e-05
-2.65904020215e-05
-3.448193822e-05
-2.35336063979e-05
-3.26752295135e-05
-1.99355532165e-05
-3.14087349444e-05
-1.65291740115e-05
-3.05943891869e-05
-1.29148025652e-05
-3.00775556629e-05
-1.03454173118e-05
-2.92366676717e-05
-7.43777669542e-06
-2.97832229055e-05
-5.21916642071e-06
-3.01269160146e-05
-3.76820645121e-06
-3.22700289182e-05
-1.83343661433e-06
-3.28179198801e-05
-3.27301747525e-05
-0.000253784876787
0.00201637095832
-0.000520654376463
0.00212443152827
-0.0007836780937
0.00210179525048
-0.00104039591533
0.00206297484096
-0.0012890193067
0.00201248708312
-0.00152805643762
0.00195173604289
-0.00175632327043
0.00188218102333
-0.00197294507753
0.00180534705726
-0.00217733954294
0.00172274993615
-0.00236918612795
0.00163583118249
-0.00254838668805
0.00154590935509
-0.00271502242719
0.00145414829427
-0.00286931114491
0.00136154128871
-0.00301156797336
0.00126890839605
-0.00314217130297
0.00117690396535
-0.0032615349608
0.00108603078103
-0.00337008644983
0.000996658176393
-0.00346825098118
0.000909041327448
-0.00355644016429
0.000823340358275
-0.00363504468478
0.000739637647589
-0.00370442966972
0.000657953212924
-0.00376493224304
0.000578257406683
-0.00381686016822
0.000500481591988
-0.00386049143973
0.000424526382647
-0.00389607395089
0.000350268490033
-0.0039238254401
0.00027756577219
-0.00394393295517
0.00020626171453
-0.00395655236933