/*--------------------------------*- C++ -*----------------------------------*\
| =========                 |                                                 |
| \\      /  F ield         | OpenFOAM: The Open Source CFD Toolbox           |
|  \\    /   O peration     | Version:  v1906                                 |
|   \\  /    A nd           | Web:      www.OpenFOAM.com                      |
|    \\/     M anipulation  |                                                 |
\*---------------------------------------------------------------------------*/
FoamFile
{
    version     2.0;
    format      ascii;
    class       volScalarField;
    location    "51";
    object      pa;
}
// * * * * * * * * * * * * * * * * * * * * * * * * * * * * * * * * * * * * * //

dimensions      [0 2 -2 0 0 0 0];


internalField   nonuniform List<scalar> 
9216
(
980.589036767
980.225506705
979.379884407
978.134886565
976.477880871
974.416085682
971.951332678
969.098836702
965.862357395
962.258741625
958.294178336
953.993844509
949.361446664
944.424239848
939.189872858
933.677959192
927.889038012
921.846476638
915.56089099
909.065743632
902.358060664
895.480091252
888.442695646
881.266656847
873.953466649
866.529246389
859.003270536
851.408646393
843.736284982
836.023860163
828.269723938
820.520923416
812.775949093
805.02137955
797.271822199
789.567602773
781.906971139
774.332028456
766.841427682
759.4605941
752.190057124
745.056492929
738.073576614
731.263068713
724.609442974
718.131805607
711.840222291
705.751183561
699.866622506
694.204394091
688.764407271
683.55427141
678.574972051
673.834832799
669.3366196
665.082127326
661.072140072
657.30871649
653.797386755
650.542305055
647.540042876
644.776161109
642.240201724
639.915528534
637.797587889
635.881984186
634.165386399
632.622881741
631.240903707
630.009527708
628.921139717
627.963330912
627.126530554
626.392311496
625.749463784
625.190886486
624.707645935
624.284509785
623.913499998
623.590993823
623.314196226
623.075235407
622.868236491
622.689870088
622.54044561
622.414412109
622.307549705
622.22047004
622.15506996
622.108020218
622.075861486
622.054112325
622.038909753
622.029132763
622.023968453
622.022199495
980.941950447
980.576126878
979.757041819
978.513831433
976.853611432
974.784447383
972.311833256
969.448370309
966.202347636
962.586362693
958.61123479
954.293316408
949.645627022
944.691532863
939.442601488
933.911249331
928.105652094
922.0464076
915.748373048
909.239094339
902.521456643
895.620419861
888.561665119
881.366622336
874.043664474
866.608331141
859.073352947
851.460406367
843.773229653
836.040122575
828.280456634
820.509409005
812.731340448
804.958539134
797.200656118
789.482140431
781.81331669
774.225242946
766.725564151
759.33226614
752.057853544
744.915325562
737.916886547
731.086639475
724.426835739
717.942535652
711.644334937
705.546518892
699.654929681
693.984773981
688.540527373
683.326136564
678.343317908
673.602220243
669.108404681
664.857239375
660.848291738
657.08328921
653.573632297
650.326338167
647.332882234
644.579451279
642.05453407
639.740694993
637.62921511
635.721805315
634.016357654
632.489624378
631.119761466
629.895107731
628.811617243
627.862766916
627.036003564
626.314364379
625.680508482
625.132421692
624.65947081
624.245180084
623.878437336
623.558864645
623.28534717
623.051785124
622.850522483
622.67546307
622.527025064
622.402805937
622.29903569
622.215523328
622.150553781
622.103227044
622.072292696
622.051484257
622.036245729
622.026991513
622.022359343
622.020529396
981.765866887
981.36815523
980.543380083
979.291678216
977.620468903
975.537296048
973.048694483
970.165416446
966.897939615
963.257574303
959.25806006
954.914773223
950.240090993
945.250366935
939.970135619
934.409553202
928.571253516
922.480603921
916.15290905
909.608806346
902.86217067
895.934257732
888.842079872
881.612453876
874.258161845
866.790187665
859.229554591
851.591965167
843.885936748
836.123918795
828.329780917
820.51755281
812.703202521
804.902225831
797.116725182
789.369111068
781.677954537
774.06397212
766.539149854
759.118646937
751.817242969
744.647400205
737.630293932
730.775006936
724.090635233
717.58717263
711.271496971
705.156271633
699.245349373
693.565536274
688.116286267
682.895237815
677.909804961
673.168277681
668.672411794
664.422909022
660.419268352
656.662393363
653.158359792
649.915484171
646.93386293
644.197152836
641.689522817
639.394722902
637.304923466
635.419384118
633.732352787
632.221726704
630.867685483
629.665036685
628.6126757
627.687172692
626.882887903
626.177581547
625.553100583
625.02167521
624.56256773
624.159211477
623.806827675
623.500553638
623.233710541
623.005412177
622.811074364
622.642343713
622.498570461
622.37856796
622.28284426
622.205664431
622.141861281
622.095328211
622.06659533
622.04616016
622.031747254
622.023264995
622.01841706
622.016169882
982.990218228
982.580317967
981.745036112
980.479381526
978.789768731
976.684048846
974.169213933
971.255604782
967.954865564
964.279395214
960.241179186
955.855740751
951.137429074
946.106424207
940.779331711
935.166271502
929.280570866
923.141440187
916.76542233
910.171992733
903.375434468
896.399827414
889.263048639
881.984212625
874.58778356
867.081411885
859.481298337
851.79593151
844.043984874
836.244035109
828.404272833
820.543521718
812.678946792
804.825620496
796.992573127
789.194810763
781.462507875
773.811222222
766.246383226
758.778426411
751.438116905
744.24448688
737.204197463
730.324475467
723.608835832
717.075796476
710.731878416
704.589886898
698.659762075
692.947969375
687.474605044
682.242214662
677.246198721
672.50035558
668.002036568
663.75497094
659.75999667
656.01741547
652.525715691
649.293227232
646.329517085
643.618504969
641.144250536
638.886471634
636.83315965
634.981939997
633.328613735
631.851324582
630.528886849
629.357242426
628.329449252
627.43062492
626.653807818
625.969866057
625.374746967
624.870281956
624.43137511
624.043759808
623.704590961
623.40786605
623.152156705
622.938191608
622.755628081
622.594670023
622.457326948
622.34523438
622.257534597
622.185742
622.128649348
622.086360605
622.057147955
622.037564413
622.024547874
622.016405632
622.011758739
622.009720736
984.63350598
984.213979546
983.364843761
982.079987353
980.365052181
978.228149454
975.677069024
972.722794283
969.376972102
965.65161033
961.560349541
957.117605864
952.344080209
947.255588122
941.864143977
936.185399289
930.234245852
924.029613473
917.586265072
910.926869029
904.068946731
897.027086689
889.827421202
882.491580664
875.042093261
867.479757901
859.818381763
852.077952298
844.265131615
836.398778113
828.494918358
820.565883617
812.637226221
804.725626808
796.831981362
788.977998399
781.185084164
773.464977334
765.851589449
758.365522358
750.996266174
743.751860396
736.653990274
729.710906775
722.94903884
716.381518398
709.998118889
703.819658479
697.85993401
692.123980529
686.624057897
681.356480684
676.34407466
671.596313697
667.09377497
662.847172045
658.859528922
655.129608308
651.655912696
648.448116143
645.51297463
642.84102679
640.418764157
638.213525433
636.211490173
634.413251864
632.807064753
631.369704792
630.085943819
628.95694495
627.967516098
627.101014499
626.348524221
625.698483214
625.148474162
624.680984387
624.262588085
623.890364526
623.56832411
623.287734886
623.04823644
622.847944937
622.675887762
622.52729398
622.402337373
622.302162495
622.224147457
622.159931263
622.107526539
622.069239443
622.04350569
622.02596759
622.014050264
622.006699532
622.002643774
622.000783909
986.703618004
986.274377314
985.408048888
984.09835428
982.351350686
980.174592976
977.577336512
974.571040938
971.167068387
967.378498449
963.219299541
958.707617424
953.861295547
948.696380434
943.226183198
937.466325809
931.431307534
925.144079498
918.622303443
911.879675311
904.934391439
897.81355319
890.5420454
883.137745246
875.618356576
867.985010303
860.246817788
852.424405893
844.533680101
836.585237701
828.604400227
820.607531015
812.600338141
804.604498436
796.627369361
788.692258747
780.850606779
773.090248198
765.420703078
757.86706545
750.423500744
743.105814981
735.944826921
728.953968503
722.134988875
715.505653883
709.062778305
702.840139663
696.847806818
691.076508832
685.545739615
680.250104005
675.2196545
670.459537194
665.942921774
661.700970999
657.721262511
654.014263382
650.568012485
647.384827788
644.513639576
641.920761572
639.579648497
637.43873277
635.496296738
633.748173095
632.194489186
630.808623989
629.572487509
628.491284031
627.538656281
626.712857335
626.004105637
625.402095783
624.895014634
624.449781505
624.045076512
623.699507528
623.401029686
623.136336908
622.913379119
622.730936492
622.577818793
622.44762183
622.336612251
622.249468697
622.178921355
622.121398496
622.07722058
622.047413841
622.025325181
622.010658658
622.001313535
621.994237738
621.99056956
621.988912044
989.210014496
988.769761547
987.882862986
986.542252194
984.755315544
982.529535195
979.875300015
976.805228601
973.330271963
969.464320136
965.222583199
960.625886323
955.691514193
950.431131903
944.86465984
939.009351615
932.878088419
926.491102414
919.867627775
913.024514863
905.978141159
898.763083853
891.410641
883.92617186
876.315299152
868.585113784
860.752516088
852.832726335
844.851627886
836.821686067
828.748691809
820.6531877
812.546787664
804.458707099
796.395951719
788.391804983
780.485323434
772.651183924
764.900394638
757.249113887
749.724420141
742.343791579
735.10517807
728.022742873
721.133734745
714.447357163
707.952291147
701.673237199
695.61746497
689.804766182
684.244636618
678.921805428
673.870407338
669.090005598
664.575919397
660.343886952
656.374564331
652.670466723
649.270939856
646.237176849
643.489838819
640.979751434
638.707919488
636.592860508
634.706991611
633.020218743
631.512174203
630.152299417
628.982599719
627.961337706
627.046314882
626.272425426
625.610837877
625.046827844
624.574815067
624.157077461
623.787027388
623.475643894
623.19314142
622.948023775
622.76136947
622.601137356
622.468479947
622.356930578
622.259429349
622.183602158
622.121802094
622.075765834
622.042445412
622.019237356
622.001832625
621.990576092
621.984565444
621.979260682
621.9761584
621.974892269
992.163272708
991.710534191
990.799297509
989.421441801
987.587722575
985.303239276
982.579660875
979.43219534
975.872658002
971.913516368
967.57539023
962.877211711
957.835307633
952.465737782
946.787268483
940.815318111
934.567928288
928.064241626
921.322987757
914.360634075
907.204006896
899.885472894
892.43346196
884.845649179
877.122359325
869.281623418
861.337722335
853.31675191
845.23440936
837.093494302
828.910873091
820.703363944
812.496737044
804.302164751
796.150838547
788.078607482
780.071053574
772.122957139
764.276898979
756.544120142
748.923202052
741.439534918
734.10140534
726.94032575
719.976076381
713.201124102
706.627721284
700.286156327
694.188175176
688.323527404
682.717154816
677.371808766
672.300368944
667.504659249
662.992388727
658.761402005
654.771811019
651.22213899
648.046487274
645.138668393
642.441833588
639.972423886
637.716821551
635.65814659
633.821767565
632.181318219
630.716050476
629.441184806
628.34434038
627.356361828
626.500054659
625.787104883
625.171929461
624.645548196
624.213769877
623.83693898
623.510336137
623.225630581
622.947376875
622.733109326
622.582311969
622.445482211
622.34038532
622.246795028
622.168149277
622.107905252
622.061065177
622.026219537
622.001509679
621.983887174
621.974065878
621.967163282
621.963873332
621.962152439
621.95977007
621.959063271
995.57672446
995.109410413
994.170019712
992.748804004
990.858364724
988.505703678
985.701315351
982.462054056
978.802274129
974.73500614
970.281721646
965.463154282
960.298661202
954.802488718
948.991907037
942.88616738
936.504211029
929.865448263
922.988897068
915.892480421
908.612834639
901.180422123
893.604974882
885.890045557
878.040178553
870.072418389
862.012374577
853.875917327
845.668166057
837.402928653
829.092796247
820.772186209
812.446738421
804.146336083
795.912000456
787.725594008
779.585697196
771.531138914
763.580339885
755.72463646
747.97920964
740.389481125
732.965640637
725.704833244
718.621963862
711.75773998
705.119972663
698.70108732
692.535004186
686.627200668
680.98417733
675.604586386
670.513673901
665.694623201
661.162985144
656.970310836
653.23293633
649.926372788
646.812957107
643.937797126
641.281797501
638.857525244
636.640245404
634.629182928
632.887746871
631.299392206
629.91037709
628.697196991
627.659556776
626.77160253
625.93715428
625.266469681
624.71159251
624.22042597
623.840808455
623.496885306
623.23219745
622.968882208
622.663250775
622.492652707
622.381357522
622.284646815
622.191631319
622.124134387
622.060817266
622.014749104
621.987682371
621.968282436
621.955953034
621.946949249
621.942040228
621.941499266
621.941761263
621.943465287
621.942407206
621.942266722
999.466658306
998.981288969
998.008599574
996.537774032
994.580653878
992.147166221
989.248490539
985.903028561
982.126898281
977.935940938
973.350314965
968.393985532
963.084669211
957.441817367
951.480664372
945.22231133
938.686741524
931.893952504
924.861482265
917.618553201
910.203211446
902.640278545
894.923118137
887.060619996
879.066773464
870.966650559
862.775932087
854.499296354
846.154491266
837.748112219
829.302699822
820.85612962
812.417464592
804.01212986
795.648904061
787.315072399
779.051494066
770.874452806
762.782696545
754.787911322
746.925469328
739.220580974
731.66767491
724.282088727
717.098041395
710.133291098
703.402304479
696.910330363
690.685495972
684.730826014
679.032601113
673.616617244
668.497490374
663.624972859
659.223894076
655.331366698
651.780660166
648.537483234
645.46469592
642.645803181
640.030966302
637.640599741
635.503711423
633.622909854
631.930539827
630.405249816
629.061512538
627.948087722
626.966734656
626.132878
625.410693985
624.794552603
624.204545901
623.78285817
623.517621167
623.225132668
622.9953667
622.715879574
622.395810909
622.245161415
622.20821884
622.157520081
622.046932414
622.0137227
621.944964923
621.904110604
621.900287481
621.900677348
621.905622508
621.910112614
621.911353405
621.914342846
621.919027929
621.923694723
621.924951556
621.925216646
1003.84975126
1003.34297642
1002.33133406
1000.80216076
998.768195078
996.241068173
993.233276223
989.765004754
985.853360289
981.5194007
976.783487794
971.671348162
966.19973798
960.387646064
954.255542653
947.824683499
941.115967469
934.150196385
926.944016194
919.545102754
911.979895232
904.253313737
896.375575828
888.351800567
880.20918225
871.962505875
863.6164396
855.184269703
846.692339843
838.150354376
829.559396413
820.97765624
812.409625679
803.858632558
795.34184926
786.870631063
778.467425558
770.123611362
761.885620569
753.76515954
745.759961491
737.890403637
730.204960325
722.711073211
715.399465353
708.324926079
701.493059607
694.91925868
688.6159528
682.594884958
676.852412524
671.408770898
666.225394796
661.489731726
657.429253072
653.712709309
650.243141343
647.044995577
644.013555567
641.26277392
638.740445699
636.503313143
634.459250987
632.574969571
630.98720101
629.487096807
628.210010819
627.203410628
626.356472297
625.577982075
624.759011067
624.267469728
623.87965482
623.528252901
623.291705413
623.007984292
622.728793381
622.454372757
622.233527461
622.129765788
622.153883805
622.105278686
621.965767406
621.929663635
621.820884929
621.797101561
621.822026668
621.834580667
621.850827704
621.869782112
621.881058945
621.88994921
621.896607176
621.90403462
621.908009281
621.908637684
1008.7442997
1008.21315391
1007.15727065
1005.56062806
1003.43794817
1000.80279563
997.66949939
994.060478632
989.99498072
985.496064732
980.588258047
975.297174263
969.642510325
963.641498813
957.317679664
950.693629593
943.791570515
936.63246019
929.242326848
921.662902931
913.927874998
906.024896527
897.961987587
889.770655284
881.465429966
873.048649946
864.533732695
855.945634975
847.297919165
838.582542356
829.85449839
821.130902078
812.406500537
803.698426232
795.023302287
786.397105916
777.81161699
769.312910679
760.919521977
752.625402568
744.447701887
736.429825085
728.60383982
720.951391719
713.517097761
706.320121916
699.379553475
692.709160715
686.326153775
680.239235586
674.457972919
668.944987385
663.863419739
659.516437529
655.65681958
651.981876529
648.603198755
645.491691058
642.579138405
639.937198655
637.533363029
635.316264514
633.429848024
631.710693478
630.111751035
628.645974565
627.323754862
626.547262429
625.851686265
624.960204841
624.346878836
624.02124515
623.545259083
623.283837667
623.196471082
622.994656411
622.751199808
622.514851275
622.327644683
622.231806871
622.244570706
622.161234559
622.015558705
621.936031628
621.777745854
621.764229965
621.774557809
621.772747005
621.794538593
621.834792989
621.851023516
621.868109797
621.877306605
621.885873519
621.892028262
621.893780883
1014.18022637
1013.61982097
1012.5087601
1010.83436428
1008.6092541
1005.84973175
1002.57243417
998.802522671
994.562344455
989.877376716
984.774435752
979.281143095
973.419152229
967.206408565
960.668301695
953.828948953
946.711128236
939.336595282
931.753953577
923.980831616
916.041617625
907.943022107
899.689029931
891.309847218
882.822359765
874.222715247
865.538510805
856.783424799
847.956039004
839.079878005
830.190607594
821.304971999
812.412508676
803.536540597
794.692463678
785.869291729
777.112809474
768.441361045
759.842169164
751.367680908
743.03057805
734.828071116
726.825524366
719.033632568
711.448446597
704.116021972
697.049917967
690.274454609
683.800443937
677.650926256
671.823430747
666.31544691
661.651468075
657.599421245
653.754961961
650.141606398
646.877137728
643.965447398
641.234430916
638.719180309
636.475886233
634.254425363
632.326367431
630.830106488
629.206022211
627.933752877
626.905848761
626.088371472
625.343371125
624.741318511
624.24052408
623.954955682
623.741593769
623.514985416
623.342771539
623.135251073
622.909710522
622.693475904
622.511605837
622.38489329
622.308870499
622.209167916
622.134068966
622.02690052
621.892896344
621.863140784
621.807876755
621.754443305
621.762299857
621.813944934
621.828285298
621.850193856
621.862096775
621.871498284
621.878511541
621.881406898
1020.18615791
1019.59205113
1018.41626396
1016.64707573
1014.30407994
1011.40144435
1007.95900821
1004.00514383
999.566992305
994.67257706
989.34889636
983.627968224
977.533549541
971.084712156
964.308421101
957.230677451
949.878462177
942.272987585
934.465345047
926.481014992
918.319181794
910.0015919
901.546326756
892.970968052
884.279061637
875.494361081
866.628671028
857.680852261
848.675225458
839.632652083
830.579915398
821.507926114
812.434461118
803.380173599
794.326501184
785.318913325
776.375134311
767.483050007
758.694789563
750.029302707
741.470471527
733.084592055
724.892868088
716.920097987
709.191212115
701.700559105
694.495137125
687.598174838
681.025751174
674.798835674
668.862812407
663.833206569
659.560122024
655.525603763
651.737317969
648.297737
645.183870021
642.397535141
639.843538844
637.547405874
635.617043524
633.521715344
631.600066526
630.134699664
628.560158464
627.291472564
626.697435617
626.010931034
625.449592175
625.034769436
624.631365471
624.27809145
624.00472429
623.755486869
623.535510819
623.313138756
623.090777342
622.880223651
622.694813681
622.544850096
622.42566749
622.309603457
622.203101252
622.078829642
621.98155194
621.936732355
621.886276504
621.800944222
621.78198712
621.815873946
621.814354414
621.836360841
621.851238662
621.860459077
621.868048814
621.871934304
1026.78934385
1026.15519859
1024.90982921
1023.03105326
1020.54651949
1017.47974706
1013.84776809
1009.68233228
1005.02089631
999.88881123
994.319263985
988.342798574
981.989088156
975.277981351
968.236659288
960.899496065
953.287759279
945.433623928
937.376486481
929.154247382
920.759505195
912.208315824
903.528102477
894.733164147
885.839187053
876.859610614
867.787919575
858.651137208
849.476522106
840.25508804
831.007811641
821.742401869
812.470802963
803.20613755
793.957980341
784.750462852
775.570532222
766.474218352
757.479126494
748.565745807
739.798989088
731.200313538
722.802044558
714.628174578
706.712208852
699.074329841
691.699119704
684.670482766
677.972711121
671.549519521
666.104450548
661.541491263
657.277512541
653.328934664
649.754099942
646.517559134
643.61010416
641.089774507
638.777237935
636.634410203
634.708851002
632.58656711
631.029043493
629.608602862
628.262266729
627.514143056
627.027055672
626.466812394
625.876618444
625.393605867
624.967175906
624.590134062
624.269519448
623.985616232
623.730860678
623.490322675
623.261479767
623.047975098
622.855907699
622.689841185
622.546468654
622.413988794
622.290443046
622.169616937
622.068613495
621.991829153
621.914925201
621.862157185
621.853352865
621.834678737
621.809585055
621.827249859
621.844163562
621.854596685
621.862419414
621.865965707
1034.02978507
1033.35059568
1032.01930059
1030.01898597
1027.37038184
1024.10971516
1020.26055647
1015.85218851
1010.93452191
1005.53572722
999.691520431
993.430176202
986.788876692
979.788654095
972.460161606
964.83321891
956.93834838
948.811804995
940.487457931
931.994726932
923.339754086
914.546752943
905.635804887
896.609888852
887.494406191
878.300435854
869.024184472
859.705901366
850.337034768
840.924375875
831.47938331
822.012563094
812.533194574
803.055990815
793.595686022
784.138444736
774.737562502
765.41913984
756.162597234
747.018486279
738.012811363
729.179084443
720.546618191
712.151989935
704.036480568
696.17822192
688.643004035
681.472345272
674.569232556
668.472750445
663.511151211
658.985485197
654.825605874
651.124260004
647.739389446
644.6668187
641.925184256
639.745217855
637.698862591
635.818791913
634.47686736
632.632342681
630.783402946
629.769510512
628.864851753
628.062574539
627.431016058
626.82601161
626.235943199
625.713824264
625.255020992
624.851480183
624.498809232
624.186778556
623.907133
623.650437885
623.412514802
623.193080267
622.994005526
622.816534388
622.65818091
622.513304048
622.379619553
622.255880773
622.147629001
622.056167843
621.976160455
621.917309167
621.880567261
621.836123239
621.802716716
621.814020678
621.835879557
621.850704138
621.861034296
621.863652015
1041.95023271
1041.22250295
1039.79031475
1037.6412746
1034.8053544
1031.31779511
1027.2180608
1022.53523303
1017.32192692
1011.61937027
1005.46756143
998.894220195
991.933843133
984.613833499
976.97182232
969.030751502
960.826019485
952.402786027
943.789089526
935.000911563
926.06853242
917.00648847
907.841538659
898.582722682
889.243485774
879.833515804
870.354991474
860.822075297
851.261856862
841.649767871
832.001922075
822.324663398
812.630319688
802.932960197
793.213346283
783.522244236
773.872798522
764.291713867
754.800929472
745.388358632
736.118946562
727.018071508
718.12446004
709.471817266
701.103569695
693.053276023
685.323536985
677.9990219
671.073170355
665.430095072
660.63226008
656.182539105
652.296154287
648.943730444
646.219043977
643.354906427
640.419583607
638.524983564
636.904507671
635.331302566
634.299646113
633.148562792
631.676274062
630.434975507
629.414653499
628.535814515
627.790794866
627.120773349
626.507100936
625.960164436
625.478729243
625.055757381
624.683644736
624.353859314
624.058611593
623.790556696
623.545099195
623.320146967
623.115153652
622.929509337
622.761182119
622.6070963
622.465603984
622.336303814
622.220995165
622.120424145
622.033751526
621.963288436
621.906547666
621.850258661
621.810520524
621.802960347
621.829741114
621.852151044
621.864730971
621.866089768
1050.60685529
1049.81773699
1048.27150255
1045.94869421
1042.89089223
1039.13685819
1034.74405369
1029.74748521
1024.20043075
1018.15296621
1011.65212828
1004.73324146
997.425107598
989.760641635
981.771109877
973.487924147
964.94588329
956.190692543
947.257502118
938.155610095
928.92466679
919.579183188
910.147928694
900.643187793
891.073390516
881.442745975
871.748246198
862.025998229
852.257082694
842.440441894
832.582494523
822.690303524
812.775384469
802.815006419
792.856441198
782.910130931
772.996761378
763.137290372
753.358573
743.688450792
734.119652995
724.724643413
715.533095401
706.593647793
697.943696298
689.635067022
681.684953877
674.109837416
667.657074764
662.313496043
657.504348184
653.227049719
649.96560519
646.874846852
644.660200907
642.050373461
639.377066187
638.241326347
637.358168293
636.061962773
634.762682038
633.490356687
632.12914206
630.880518157
629.791718009
628.847888303
628.034530846
627.321238495
626.689152027
626.131474993
625.641626849
625.211198806
624.831399948
624.493859535
624.191243813
623.917266745
623.667399609
623.438714195
623.229309202
623.037711666
622.862119498
622.700585888
622.551955589
622.415961237
622.293273328
622.184449137
622.08958977
622.00912767
621.941491546
621.882316462
621.835971074
621.808284009
621.822094663
621.857505126
621.870848079
621.873283811
1060.0602452
1059.19513363
1057.51143139
1054.98769528
1051.67084727
1047.6069464
1042.86284977
1037.50178972
1031.57609227
1025.1411707
1018.25141239
1010.94899198
1003.25932182
995.221923581
986.861812224
978.209460102
969.301610573
960.179362486
950.888040631
941.450169476
931.893516444
922.250061379
912.529126117
902.77728222
892.975085106
883.126926484
873.230749945
863.288702755
853.323494663
843.299819872
833.231838873
823.122767522
812.948123506
802.748825157
792.533397396
782.320401895
772.121647579
761.967872163
751.8806407
741.889819006
732.032028027
722.300449306
712.777708471
703.507817499
694.544561494
685.940516924
677.649894033
670.290587476
664.222409934
658.885620192
654.175447112
650.046765459
647.438706265
644.478807525
642.896748969
642.069628417
640.664918048
639.207833074
637.926675857
636.503799984
635.06271335
633.662720759
632.29729022
631.045951358
629.93932833
628.977003046
628.146294458
627.425825937
626.796907809
626.246209556
625.76297526
625.337236801
624.959835812
624.62272296
624.319314575
624.044090592
623.792620947
623.561598079
623.348660506
623.152055449
622.970175483
622.801617632
622.645543349
622.501755187
622.370634662
622.252735235
622.148529383
622.058425432
621.982119714
621.918670979
621.869548426
621.835698505
621.82354525
621.86080459
621.880596105
621.886084007
1070.37628498
1069.42181275
1067.57326343
1064.80829095
1061.18421032
1056.76068088
1051.60861141
1045.81633704
1039.45346004
1032.58152067
1025.26098336
1017.53907152
1009.44124771
1000.99275962
992.231359557
983.179582934
973.8779005
964.36058062
954.66707767
944.861492319
934.960818682
924.998597349
914.993503663
904.965824463
894.935397505
884.871233668
874.769523424
864.645621282
854.470543902
844.240246509
833.965819
823.604099333
813.198429196
802.745148535
792.263866589
781.768476162
771.268262917
760.796328206
750.382507656
740.044513602
729.825821089
719.767023654
709.858502679
700.217885621
690.902041931
681.951723449
673.468360712
666.418732795
660.538493706
655.630849055
650.821570284
646.122025294
645.36959128
645.053763264
644.008545062
642.893977688
641.451028149
639.824115885
638.203012393
636.571309075
634.999624785
633.528502301
632.169915835
630.952025818
629.882877097
628.956070305
628.156790974
627.465785518
626.864744369
626.338461366
625.874612283
625.462995626
625.095279026
624.764305548
624.464102164
624.189815823
623.937370548
623.703659609
623.486497829
623.284204382
623.095380592
622.918929147
622.754200948
622.601056097
622.459827551
622.331157188
622.215841412
622.114765007
622.028722124
621.958501588
621.90545249
621.869970556
621.851563161
621.861104527
621.896459123
621.905307575
1081.64280205
1080.58025461
1078.53233241
1075.47698228
1071.48532473
1066.63255944
1061.00690647
1054.71256319
1047.84041247
1040.46984111
1032.67135072
1024.49294622
1015.96246251
1007.09156205
997.896207201
988.408035312
978.65774966
968.707543832
958.591559972
948.362143198
938.091949728
927.791587761
917.48130872
907.205219377
896.939739161
886.666122906
876.39099814
866.072179637
855.700633775
845.261979983
834.758325103
824.181354661
813.536495268
802.825180655
792.068446254
781.293609339
770.455698646
759.644848013
748.879892665
738.169524757
727.559426383
717.089249335
706.779216422
696.741957748
686.988461295
677.520584664
669.351412801
662.44441396
656.568544766
652.255831739
648.341309031
646.944310679
646.564323978
646.139661288
645.014989322
643.509177222
641.695611019
639.767395384
637.891433421
636.129619062
634.522480789
633.080872051
631.800414271
630.677980229
629.703155209
628.860659007
628.132464046
627.499948089
626.946219608
626.456945487
626.020605284
625.628222187
625.272923874
624.948957633
624.651240353
624.375834506
624.119658324
623.880367978
623.656174944
623.44564965
623.247610237
623.061135908
622.885655317
622.72101345
622.567497332
622.425801893
622.296986738
622.18247046
622.08400482
622.00367361
621.943688294
621.905020467
621.885778562
621.878232901
621.918125223
621.929724463
1093.96449692
1092.76950938
1090.47808834
1087.07039486
1082.63556805
1077.26779627
1071.07677458
1064.19098556
1056.72791335
1048.78769308
1040.46262611
1031.80079031
1022.81117053
1013.49934559
1003.85572615
993.902748778
983.666551405
973.212314754
962.623044403
951.949042541
941.254195767
930.599343295
919.987827405
909.439024119
898.961113329
888.520287556
878.072016048
867.581114919
857.026836905
846.392115131
835.673027094
824.877610678
813.99193142
803.012814299
791.961718608
780.854363798
769.697067191
758.538178284
747.418568664
736.289028145
725.2599097
714.356789252
703.59436565
693.087334338
682.746457847
673.437921203
665.352636447
658.021692629
651.96651612
650.973180816
650.619286203
649.531294814
648.538155727
647.222397241
645.388937826
643.277255837
641.058140559
638.916300927
636.964797409
635.239188027
633.73831949
632.441141209
631.321500437
630.355892466
629.521819236
628.798468419
628.166525801
627.60877243
627.11107523
626.662148599
626.253240419
625.877597367
625.530062059
625.206832575
624.904893375
624.621892239
624.355936008
624.105505706
623.869329308
623.646287282
623.435368259
623.235707563
623.046671058
622.867954274