/*--------------------------------*- C++ -*----------------------------------*\
| =========                 |                                                 |
| \\      /  F ield         | OpenFOAM: The Open Source CFD Toolbox           |
|  \\    /   O peration     | Version:  v1906                                 |
|   \\  /    A nd           | Web:      www.OpenFOAM.com                      |
|    \\/     M anipulation  |                                                 |
\*---------------------------------------------------------------------------*/
FoamFile
{
    version     2.0;
    format      ascii;
    class       volVectorField;
    location    "191";
    object      U;
}
// * * * * * * * * * * * * * * * * * * * * * * * * * * * * * * * * * * * * * //

dimensions      [0 1 -1 0 0 0 0];


internalField   nonuniform List<vector> 
9216
(
(0.00271313474266 -0.0027164643354 0)
(0.00286058710148 -0.00876656755015 1.18012392543e-27)
(0.00285255678517 -0.0149110924263 1.84412004515e-31)
(0.00281536456567 -0.0210563359963 0)
(0.0027638046992 -0.0270990238083 0)
(0.00269918756801 -0.0330150611128 0)
(0.00262337709466 -0.0387786183764 0)
(0.00253751706358 -0.0443668832348 0)
(0.00244313424547 -0.049759677955 0)
(0.00234125131805 -0.0549397657146 0)
(0.00223340779216 -0.0598924944207 0)
(0.00212050813754 -0.0646060576759 0)
(0.00200403445295 -0.069071043834 0)
(0.0018846920379 -0.0732806098688 0)
(0.00176383938697 -0.0772299502697 0)
(0.00164193463211 -0.0809164284862 0)
(0.00152018903695 -0.0843390106634 0)
(0.0013988067707 -0.0874983974081 0)
(0.00127886190165 -0.0903964620783 0)
(0.00116032410491 -0.0930364148573 0)
(0.00104416145783 -0.095422265102 0)
(0.000930142795991 -0.0975590288966 0)
(0.00081916665932 -0.0994522251047 0)
(0.000710834740467 -0.101108129681 0)
(0.000606011246573 -0.102533300503 0)
(0.000504160722535 -0.103734868756 0)
(0.00040613936603 -0.104720088598 0)
(0.000311295114022 -0.105496658178 0)
(0.000220496146624 -0.106072283992 0)
(0.000132990020967 -0.106455019821 0)
(4.96721196507e-05 -0.106652836848 0)
(-3.03071533783e-05 -0.106674007665 0)
(-0.000106047726196 -0.106526637208 0)
(-0.000178494056563 -0.106218955157 0)
(-0.000246688262152 -0.105759040047 0)
(-0.000311652606652 -0.105155101751 0)
(-0.000372403638425 -0.104415089407 0)
(-0.000430047483929 -0.103547030794 0)
(-0.000483568297171 -0.102558645825 0)
(-0.000534149421819 -0.101457678496 0)
(-0.000580740044869 -0.100251530334 0)
(-0.000624592487533 -0.0989475739023 0)
(-0.000664621572989 -0.0975528164891 0)
(-0.000702141254323 -0.0960741942281 0)
(-0.000736030697492 -0.0945182678454 0)
(-0.000767654657363 -0.0928914868771 0)
(-0.000795858632794 -0.0911999291402 0)
(-0.000822048685452 -0.0894495330594 0)
(-0.00084503730482 -0.0876458817855 0)
(-0.000866259274069 -0.0857943927631 0)
(-0.000884498776623 -0.0839001573845 0)
(-0.000901208776273 -0.0819680852089 0)
(-0.000915149034688 -0.0800027990196 0)
(-0.000927777891859 -0.0780087227448 0)
(-0.000937838949882 -0.0759900413829 0)
(-0.000946785711667 -0.0739507307334 0)
(-0.000953353342814 -0.0718945799226 0)
(-0.000958978739602 -0.0698251537351 0)
(-0.000962400458038 -0.0677458848064 0)
(-0.000965030008208 -0.0656599687503 0)
(-0.000965620310963 -0.0635705209529 0)
(-0.000965547555142 -0.0614803992479 0)
(-0.000963593026706 -0.0593924290189 0)
(-0.000961090491282 -0.0573091572099 0)
(-0.000956861781108 -0.0552331383712 0)
(-0.000952190119543 -0.0531666193543 0)
(-0.000945951402089 -0.0511118868223 0)
(-0.000939372417698 -0.0490708907333 0)
(-0.000931393750561 -0.0470456438707 0)
(-0.00092317879508 -0.0450377879193 0)
(-0.000913743241215 -0.0430490430094 0)
(-0.000904181731449 -0.0410807276359 0)
(-0.000893591771323 -0.0391342474092 0)
(-0.00088299310243 -0.0372105758522 0)
(-0.000871570803321 -0.0353107783738 0)
(-0.000860264768078 -0.03343546567 0)
(-0.000848349837281 -0.0315853425879 0)
(-0.000836680646523 -0.0297606416459 0)
(-0.000824622776183 -0.0279616925214 0)
(-0.000812940982163 -0.0261883457853 0)
(-0.000801089355824 -0.0244405550282 0)
(-0.000789736950526 -0.0227177974879 0)
(-0.000778421540784 -0.0210196676753 0)
(-0.000767707414564 -0.0193453046268 0)
(-0.000757201866996 -0.0176939985658 0)
(-0.000747339493544 -0.0160646447362 0)
(-0.000737747636622 -0.0144563905227 0)
(-0.000728630312261 -0.0128681959649 0)
(-0.000719404540794 -0.0112996595252 0)
(-0.000709518068961 -0.00975106253494 0)
(-0.000696899522727 -0.00822526438867 0)
(-0.000676956789366 -0.00673174272696 0)
(-0.000631453090523 -0.00530507135745 0)
(-0.000550424558353 -0.00373466153516 0)
(-0.000761960238406 -0.00276603809643 0)
(-0.00122425942849 -0.0012238596695 0)
(0.00878371477552 -0.00289176379595 0)
(0.00971265953829 -0.00978590298834 0)
(0.00969065013982 -0.0166675260703 -1.23926439688e-27)
(0.00956155757573 -0.0235548833364 0)
(0.00938300954517 -0.030318012536 0)
(0.00916214097673 -0.0369353068905 0)
(0.00890361823438 -0.043379403884 0)
(0.00861135663507 -0.0496251916228 0)
(0.008289999555 -0.0556503252568 0)
(0.007943496887 -0.0614355941336 0)
(0.00757654546809 -0.0669648107576 0)
(0.00719282043051 -0.0722248935495 0)
(0.00679672563987 -0.0772055846871 0)
(0.00639135181063 -0.0818994071258 0)
(0.00598057304828 -0.0863012886 0)
(0.00556673426697 -0.090408464807 0)
(0.00515309787079 -0.094220072542 0)
(0.004741243822 -0.0977370535896 0)
(0.00433385993636 -0.100961760721 0)
(0.00393183499451 -0.103897895849 0)
(0.00353738756129 -0.106550152264 0)
(0.00315083277309 -0.108924201991 0)
(0.00277404560964 -0.111026380712 0)
(0.00240688775117 -0.112863723829 0)
(0.00205100711185 -0.114443689848 0)
(0.00170591382451 -0.115774236664 0)
(0.00137311858741 -0.11686357412 0)
(0.00105185298718 -0.117720269154 0)
(0.000743553035296 -0.118353016492 0)
(0.000447220580144 -0.11877076095 0)
(0.000164257136078 -0.118982481668 0)
(-0.000106542088249 -0.118997296444 0)
(-0.000363814960337 -0.118824296408 0)
(-0.000608959807376 -0.118472735991 0)
(-0.000840598972588 -0.117951707927 0)
(-0.00106030237288 -0.117270332193 0)
(-0.00126669929191 -0.116437555303 0)
(-0.00146152853332 -0.115462284918 0)
(-0.00164341466631 -0.114353204195 0)
(-0.00181425046324 -0.113118901421 0)
(-0.00197264660818 -0.111767695332 0)
(-0.00212063127802 -0.110307760296 0)
(-0.00225679329052 -0.108746967474 0)
(-0.00238327610327 -0.107093003456 0)
(-0.00249863691341 -0.10535322959 0)
(-0.0026051102916 -0.103534792269 0)
(-0.00270121464208 -0.101644503908 0)
(-0.00278925156308 -0.0996889421953 0)
(-0.00286769371447 -0.0976743549252 0)
(-0.00293888370453 -0.0956067441296 0)
(-0.00300124656571 -0.0934917981564 0)
(-0.00305714216481 -0.0913349575682 0)
(-0.00310494824782 -0.0891413749503 0)
(-0.00314701855736 -0.0869159587065 0)
(-0.00318169039952 -0.0846633627153 0)
(-0.00321129224485 -0.0823880047658 0)
(-0.00323413131718 -0.080094085393 0)
(-0.00325249341144 -0.0777855773997 0)
(-0.00326467265097 -0.0754662748715 0)
(-0.003272900023 -0.0731397514041 0)
(-0.00327547622633 -0.0708094376452 0)
(-0.00327456708352 -0.0684785462659 0)
(-0.00326850418339 -0.0661501774813 0)
(-0.00325938207751 -0.0638272111847 0)
(-0.00324558736372 -0.0615124376005 0)
(-0.00322913751449 -0.059208417443 0)
(-0.00320849907549 -0.0569176364767 0)
(-0.00318560851742 -0.0546423362248 0)
(-0.00315903350165 -0.0523846905078 0)
(-0.00313062392826 -0.0501466087188 0)
(-0.00309906685204 -0.0479299333865 0)
(-0.00306611991832 -0.0457362213842 0)
(-0.00303060153561 -0.043566958452 0)
(-0.00299416898915 -0.0414233234142 0)
(-0.00295577977541 -0.0393064178827 0)
(-0.00291698173646 -0.037217018965 0)
(-0.00287687271208 -0.035155820872 0)
(-0.00283688018878 -0.0331231804077 0)
(-0.00279623919382 -0.0311193687132 0)
(-0.0027562447602 -0.0291443147594 0)
(-0.00271625991052 -0.0271978643564 0)
(-0.00267743085266 -0.0252795247302 0)
(-0.00263923147432 -0.0233887317294 0)
(-0.00260263272936 -0.0215245996921 0)
(-0.00256717920878 -0.0196861968994 0)
(-0.0025335995694 -0.017872309439 0)
(-0.00250138479508 -0.0160817305398 0)
(-0.00247078303741 -0.0143130534618 0)
(-0.00244072950027 -0.0125649634753 0)
(-0.00240992707361 -0.0108360089399 0)
(-0.00237433489805 -0.00912469046743 0)
(-0.00232549051779 -0.00742857581001 0)
(-0.00224219606347 -0.00574575332287 0)
(-0.00208280997969 -0.00393047637389 0)
(-0.00231004622208 -0.00230582692673 0)
(-0.00275919821652 -0.000758377157286 0)
(0.0150369645067 -0.00293761496398 0)
(0.0166501796557 -0.00994657355617 0)
(0.0165900636464 -0.0169183317006 -1.23721893807e-27)
(0.0163597274702 -0.0239062282104 0)
(0.0160489360041 -0.0307662429747 0)
(0.0156673730852 -0.0374752377885 0)
(0.0152216596609 -0.0440048337047 0)
(0.0147186068701 -0.0503293457466 0)
(0.0141656850749 -0.0564261292235 0)
(0.0135701934662 -0.0622758152722 0)
(0.0129397000933 -0.0678622707948 0)
(0.012281141763 -0.0731725625709 0)
(0.0116014620328 -0.0781967433256 0)
(0.0109066591652 -0.0829276813741 0)
(0.0102026316392 -0.0873607542772 0)
(0.00949416760866 -0.0914936267343 0)
(0.00878598727052 -0.0953259219261 0)
(0.00808165053464 -0.0988590063047 0)
(0.00738477534479 -0.102095685745 0)
(0.00669783616711 -0.105040031783 0)
(0.00602353833264 -0.107697124457 0)
(0.00536348355277 -0.11007293128 0)
(0.00471968608222 -0.112174101547 0)
(0.00409308915763 -0.114007896079 0)
(0.00348521623484 -0.115582024554 0)
(0.00289652916664 -0.116904614687 0)
(0.00232821374184 -0.117984081758 0)
(0.00178037650701 -0.11882912488 0)
(0.00125396787575 -0.119448615703 0)
(0.000748817573356 -0.119851610433 0)
(0.000265698265172 -0.120047249136 0)
(-0.000195791597828 -0.120044779237 0)
(-0.00063501403058 -0.11985345553 0)
(-0.00105257636898 -0.119482571395 0)
(-0.00144797446279 -0.118941360678 0)
(-0.0018220115235 -0.118239025111 0)
(-0.00217429104211 -0.117384645117 0)
(-0.00250579247278 -0.116387205876 0)
(-0.00281621604669 -0.115255514793 0)
(-0.0031066993041 -0.113998229497 0)
(-0.00337702104768 -0.112623780942 0)
(-0.00362845273443 -0.111140402453 0)
(-0.0038608300841 -0.109556062414 0)
(-0.00407553040608 -0.107878495387 0)
(-0.004272422312 -0.106115144202 0)
(-0.0044529581372 -0.10427319123 0)
(-0.00461701496942 -0.102359513366 0)
(-0.00476608884229 -0.100380714083 0)
(-0.00490004238089 -0.0983430889299 0)
(-0.00502038500539 -0.0962526561267 0)
(-0.00512694585466 -0.0941151362416 0)
(-0.00522122090574 -0.0919359794812 0)
(-0.00530299153981 -0.0897203568468 0)
(-0.00537371798555 -0.0874731823904 0)
(-0.00543312673763 -0.0851991170854 0)
(-0.00548262658209 -0.0829025839729 0)
(-0.00552188913484 -0.0805877824953 0)
(-0.00555226255398 -0.0782586932456 0)
(-0.00557337175162 -0.0759191035747 0)
(-0.00558650253528 -0.0735726010889 0)
(-0.00559124782461 -0.0712226069489 0)
(-0.00558883515513 -0.0688723556838 0)
(-0.00557884605319 -0.0665249370777 0)
(-0.00556245862725 -0.0641832624228 0)
(-0.00553926597461 -0.0618501119176 0)
(-0.0055104073939 -0.0595280866269 0)
(-0.00547551117478 -0.0572196624288 0)
(-0.0054356883358 -0.0549271295786 0)
(-0.0053906226949 -0.0526526512535 0)
(-0.00534140450381 -0.0503981914601 0)
(-0.00528778882699 -0.0481655795597 0)
(-0.00523084860907 -0.0459564303663 0)
(-0.00517041912804 -0.0437722125615 0)
(-0.00510755395389 -0.0416141620661 0)
(-0.00504217083079 -0.0394833579176 0)
(-0.00497529700022 -0.0373806310862 0)
(-0.00490692783903 -0.0353066450818 0)
(-0.00483805218331 -0.0332618043812 0)
(-0.00476873226823 -0.0312463400447 0)
(-0.0046999018875 -0.0292602190169 0)
(-0.00463167276989 -0.0273032353736 0)
(-0.00456490076496 -0.0253749203559 0)
(-0.00449971997387 -0.0234746385438 0)
(-0.0044368722575 -0.0216015020761 0)
(-0.00437646385526 -0.0197544666053 0)
(-0.00431904754262 -0.0179322453608 0)
(-0.00426458031901 -0.0161333933894 0)
(-0.00421322454187 -0.0143561860389 0)
(-0.00416443618609 -0.0125985975036 0)
(-0.0041173899933 -0.0108579065872 0)
(-0.0040700491576 -0.00912998720021 0)
(-0.00401911062835 -0.00740697545187 0)
(-0.00395929132442 -0.00567319379034 0)
(-0.00388312481869 -0.00386304748083 0)
(-0.00392867663947 -0.00206692535232 0)
(-0.00372117604714 -0.000545272129724 0)
(0.0214379439712 -0.00298285329417 0)
(0.0237561458174 -0.0100966297947 0)
(0.0236672502304 -0.0171636587814 1.23664381534e-27)
(0.0233336123098 -0.0242475345746 0)
(0.0228842385372 -0.0311981813574 0)
(0.0223335621658 -0.0379909567184 0)
(0.0216910724892 -0.044596312505 0)
(0.0209668202648 -0.050987850765 0)
(0.0201715184665 -0.0571425834798 0)
(0.0193159698639 -0.0630410814739 0)
(0.0184109633842 -0.0686674202048 0)
(0.0174667514952 -0.0740090617917 0)
(0.0164931092187 -0.0790566253743 0)
(0.0154988915032 -0.0838036336039 0)
(0.0144922575644 -0.0882461954273 0)
(0.0134802938001 -0.0923827091023 0)
(0.0124693787432 -0.0962135373113 0)
(0.0114648360303 -0.0997407314281 0)
(0.0104714029705 -0.1029677472 0)
(0.00949287509542 -0.105899223537 0)
(0.00853264476162 -0.10854075867 0)
(0.00759330547752 -0.110898751998 0)
(0.00667723669187 -0.112980240009 0)
(0.00578614826861 -0.114792793272 0)
(0.00492169936932 -0.11634440071 0)
(0.00408497317978 -0.117643407659 0)
(0.00327712666705 -0.118698432466 0)
(0.00249879473478 -0.119518330651 0)
(0.00175077413655 -0.120112129801 0)
(0.00103335950242 -0.120489007818 0)
(0.00034706634802 -0.120658234069 0)
(-0.000308090763501 -0.12062916415 0)
(-0.000931829762853 -0.12041116791 0)
(-0.00152438766105 -0.120013623064 0)
(-0.00208570325399 -0.119445871084 0)
(-0.00261624901963 -0.11871719556 0)
(-0.00311616006607 -0.117836773989 0)
(-0.0035861218599 -0.116813665733 0)
(-0.00402644632325 -0.115656764755 0)
(-0.00443800735607 -0.114374790859 0)
(-0.00482126597231 -0.112976247401 0)
(-0.00517725221744 -0.111469416118 0)
(-0.00550654289596 -0.109862321995 0)
(-0.0058102865911 -0.108162731504 0)
(-0.00608913772025 -0.106378125544 0)
(-0.00634432236296 -0.104515703416 0)
(-0.00657653376584 -0.102582362155 0)
(-0.00678703437866 -0.100584705867 0)
(-0.00697651859295 -0.0985290332951 0)
(-0.00714624637038 -0.0964213502922 0)
(-0.00729688045069 -0.0942673658612 0)
(-0.00742964512341 -0.092072506764 0)
(-0.00754514499347 -0.0898419206412 0)
(-0.00764454258131 -0.0875804918564 0)
(-0.00772836761353 -0.085292850289 0)
(-0.00779770479435 -0.0829833867149 0)
(-0.00785300215401 -0.0806562660424 0)
(-0.00789526069255 -0.0783154393528 0)
(-0.00792485131926 -0.0759646608791 0)
(-0.00794269637401 -0.0736074949238 0)
(-0.00794910384984 -0.0712473341054 0)
(-0.00794493120495 -0.0688874000285 0)
(-0.00793044623917 -0.0665307618167 0)
(-0.00790646207012 -0.0641803292042 0)
(-0.00787323273993 -0.061838870246 0)
(-0.0078315499985 -0.0595089969316 0)
(-0.00778168210311 -0.0571931815228 0)
(-0.00772442141567 -0.0548937351814 0)
(-0.00766007378263 -0.0526128238341 0)
(-0.00758944928084 -0.0503524403667 0)
(-0.00751290900524 -0.0481144207208 0)
(-0.007431290576 -0.0459004120286 0)
(-0.00734501879439 -0.0437118893637 0)
(-0.0072549602635 -0.0415501218588 0)
(-0.00716160298566 -0.0394161911123 0)
(-0.00706583543391 -0.0373109570192 0)
(-0.00696819926225 -0.035235079425 0)
(-0.00686958981585 -0.0331889844636 0)
(-0.00677058551727 -0.0311728899181 0)
(-0.00667206696497 -0.0291867738072 0)
(-0.00657462476799 -0.0272304030568 0)
(-0.00647909626015 -0.0253033046483 0)
(-0.00638605111257 -0.0234047965238 0)
(-0.00629624340952 -0.0215339606199 0)
(-0.00621017285373 -0.0196896697951 0)
(-0.00612844778158 -0.0178705549663 0)
(-0.00605141593743 -0.0160750120807 0)
(-0.00597943564726 -0.0143011251197 0)
(-0.00591258634038 -0.0125465876184 0)
(-0.00585091112493 -0.0108084399741 0)
(-0.00579443277468 -0.00908270784769 0)
(-0.00574401702081 -0.00736357315651 0)
(-0.0057036389971 -0.00564309020427 0)
(-0.00568478120417 -0.00390491355131 0)
(-0.0057255452014 -0.00220592942151 0)
(-0.00527154538718 -0.000620335909543 0)
(0.0279454628181 -0.00304224938755 0)
(0.0309704796413 -0.0102939043836 0)
(0.0308501984553 -0.0174931069316 0)
(0.030407910141 -0.0247059875304 0)
(0.0298126786247 -0.0317776177042 0)
(0.0290840953721 -0.0386816425087 0)
(0.0282350577316 -0.0453870827291 0)
(0.0272792363085 -0.0518666242328 0)
(0.026231029997 -0.0580968397853 0)
(0.0251050044681 -0.0640582762299 0)
(0.0239155143388 -0.0697353451838 0)
(0.0226762545292 -0.0751161227104 0)
(0.0214000674625 -0.0801920558982 0)
(0.0200986587042 -0.0849576263364 0)
(0.0187825892331 -0.0894099788693 0)
(0.0174611300169 -0.0935485581646 0)
(0.0161423973557 -0.0973747506038 0)
(0.0148332937554 -0.100891564383 0)
(0.0135397314112 -0.104103335097 0)
(0.0122666052528 -0.107015480761 0)
(0.0110180562963 -0.109634285816 0)
(0.00979743549293 -0.111966732804 0)
(0.00860757475983 -0.114020357571 0)
(0.00745071691865 -0.115803144014 0)
(0.00632877801883 -0.117323431575 0)
(0.00524323312279 -0.118589853129 0)
(0.00419536680336 -0.119611275256 0)
(0.00318611529709 -0.120396760882 0)
(0.00221630905072 -0.120955525219 0)
(0.00128647751117 -0.121296908818 0)
(0.000397091752244 -0.121430334832 0)
(-0.000451657356148 -0.121365302884 0)
(-0.00125960880158 -0.121111317295 0)
(-0.00202688161789 -0.120677885968 0)
(-0.00275360778464 -0.120074480183 0)
(-0.00344019593272 -0.119310501495 0)
(-0.00408704795672 -0.118395246291 0)
(-0.00469483880998 -0.117337879729 0)
(-0.00526421407745 -0.11614740074 0)
(-0.00579608339728 -0.114832618831 0)
(-0.00629129986218 -0.113402124332 0)
(-0.00675096647316 -0.111864268684 0)
(-0.00717609864135 -0.11022714189 0)
(-0.00756794368182 -0.108498558617 0)
(-0.00792762806061 -0.106686041602 0)
(-0.00825649026001 -0.10479681494 0)
(-0.00855571517799 -0.102837793972 0)
(-0.00882667898944 -0.100815585801 0)
(-0.00907057376996 -0.0987364852441 0)
(-0.00928876376012 -0.0966064814727 0)
(-0.00948240277163 -0.0944312608513 0)
(-0.00965280057248 -0.0922162176725 0)
(-0.00980103607208 -0.0899664628731 0)
(-0.00992833227544 -0.087686837474 0)
(-0.010035668504 -0.0853819261379 0)
(-0.0101241614 -0.0830560716127 0)
(-0.0101946798592 -0.0807133910038 0)
(-0.0102482293152 -0.0783577894441 0)
(-0.010285571795 -0.0759929766728 0)
(-0.0103076106228 -0.0736224788808 0)
(-0.0103150184329 -0.0712496532794 0)
(-0.0103086180207 -0.0688776955748 0)
(-0.0102890206397 -0.0665096520297 0)
(-0.0102569986732 -0.0641484215123 0)
(-0.0102131359506 -0.061796763689 0)
(-0.0101581888367 -0.0594572949303 0)
(-0.0100927490868 -0.057132491894 0)
(-0.0100175880198 -0.0548246837653 0)
(-0.00993333530276 -0.0525360518689 0)
(-0.00984080308812 -0.0502686163321 0)
(-0.00974068068015 -0.0480242347854 0)
(-0.00963383537993 -0.0458045861815 0)
(-0.0095210261765 -0.0436111686359 0)
(-0.00940317913336 -0.0414452820774 0)
(-0.00928112070228 -0.0393080272415 0)
(-0.0091558266913 -0.0372002892775 0)
(-0.00902817768788 -0.0351227389095 0)
(-0.00889918077495 -0.0330758175872 0)
(-0.00876974794265 -0.0310597416031 0)
(-0.00864089014918 -0.0290744905816 0)
(-0.0085135203264 -0.0271198143014 0)
(-0.00838861959319 -0.0251952235656 0)
(-0.00826706458689 -0.0232999994665 0)
(-0.00814976574759 -0.0214331837897 0)
(-0.00803751958607 -0.0195935859759 0)
(-0.00793112004666 -0.0177797670004 0)
(-0.00783124028273 -0.0159900319379 0)
(-0.00773853004363 -0.0142223862652 0)
(-0.00765356298875 -0.0124744876609 0)
(-0.00757700997217 -0.0107435539191 0)
(-0.00750983195294 -0.00902625757043 0)
(-0.00745391720446 -0.00731876117169 0)
(-0.00741314653593 -0.00561741291594 0)
(-0.00739301570288 -0.00391817482432 0)
(-0.00737336185984 -0.00226151202737 0)
(-0.00666291943963 -0.000657448036784 0)
(0.0345973486654 -0.00311750568847 0)
(0.0383400905288 -0.0105464523367 0)
(0.0381838109283 -0.0179172496361 0)
(0.0376248425405 -0.0252963898089 0)
(0.0368733786545 -0.0325232567346 0)
(0.0359546502909 -0.0395693960104 0)
(0.0348855445414 -0.0464020908016 0)
(0.0336838892123 -0.0529929248463 0)
(0.0323683083596 -0.0593179853546 0)
(0.030957553308 -0.0653578853497 0)
(0.0294699401703 -0.0710975706791 0)
(0.0279228547366 -0.0765260153638 0)
(0.0263324323541 -0.0816358278324 0)
(0.0247133039535 -0.0864228118206 0)
(0.0230785114228 -0.0908855109705 0)
(0.0214394517835 -0.0950247682229 0)
(0.0198059626665 -0.0988433147747 0)
(0.0181863881947 -0.10234540611 0)
(0.0165877563914 -0.105536505776 0)
(0.015015893134 -0.108423023816 0)
(0.0134756275878 -0.111012102696 0)
(0.0119709013459 -0.113311451022 0)
(0.0105049611582 -0.11532921363 0)
(0.00908043396697 -0.117073877388 0)
(0.00769948813563 -0.118554198822 0)
(0.00636386426672 -0.119779154848 0)
(0.00507500254644 -0.120757903202 0)
(0.00383403216602 -0.121499753486 0)
(0.00264187195072 -0.122014140484 0)
(0.00149918843953 -0.12231060143 0)
(0.000406480785547 -0.122398742408 0)
(-0.000635979761841 -0.12228824261 0)
(-0.00162806659731 -0.121988766787 0)
(-0.00256987905595 -0.121509990365 0)
(-0.00346165194502 -0.120861544115 0)
(-0.00430383487414 -0.120052981716 0)
(-0.00509700110519 -0.11909374726 0)
(-0.00584192754919 -0.117993143601 0)
(-0.00653949509288 -0.11676030023 0)
(-0.00719076990265 -0.115404143873 0)
(-0.00779689534528 -0.113933371885 0)
(-0.00835917515555 -0.112356428143 0)
(-0.00887895804765 -0.110681481949 0)
(-0.00935772374238 -0.108916411497 0)
(-0.00979696158478 -0.107068789098 0)
(-0.010198260266 -0.105145872005 0)
(-0.0105631825163 -0.103154595519 0)
(-0.0108933591594 -0.10110157097 0)
(-0.0111903613476 -0.0989930852316 0)
(-0.0114557995372 -0.096835106244 0)
(-0.0116911952542 -0.0946332881755 0)
(-0.0118980854308 -0.0923929832724 0)
(-0.0120778950533 -0.0901192524144 0)
(-0.0122320472591 -0.0878168804057 0)
(-0.0123618385779 -0.0854903913156 0)
(-0.0124685543366 -0.0831440651061 0)
(-0.012553348078 -0.08078195562 0)
(-0.0126173619517 -0.0784079072556 0)
(-0.0126616110364 -0.0760255723231 0)
(-0.0126871071578 -0.0736384254983 0)
(-0.0126947489902 -0.0712497792352 0)
(-0.0126854468626 -0.0688627936165 0)
(-0.0126600186072 -0.0664804874181 0)
(-0.0126193144404 -0.0641057443938 0)
(-0.01256411507 -0.0617413145014 0)
(-0.0124952545148 -0.0593898180349 0)
(-0.0124135219465 -0.0570537424153 0)
(-0.0123197769387 -0.05473543759 0)
(-0.0122148554757 -0.052437109513 0)
(-0.012099676642 -0.0501608109471 0)
(-0.0119751504807 -0.0479084333707 0)
(-0.0118422744999 -0.045681693586 0)
(-0.0117020450775 -0.0434821249404 0)
(-0.0115555428442 -0.0413110641472 0)
(-0.0114038474042 -0.0391696432071 0)
(-0.0112481112489 -0.0370587758859 0)
(-0.0110894792081 -0.0349791530949 0)
(-0.0109291523757 -0.0329312323062 0)
(-0.0107683130714 -0.0309152357162 0)
(-0.0106081776753 -0.0289311421872 0)
(-0.0104499284952 -0.0269786883784 0)
(-0.0102947581816 -0.0250573654835 0)
(-0.0101438081959 -0.0231664207214 0)
(-0.00999820509148 -0.0213048554097 0)
(-0.00985900925244 -0.0194714267024 0)
(-0.00972724623609 -0.0176646412147 0)
(-0.00960387295554 -0.0158827508949 0)
(-0.00948982141142 -0.0141237415989 0)
(-0.00938601369214 -0.0123853203251 0)
(-0.00929348098601 -0.0106649244465 0)
(-0.00921350072483 -0.00895977901339 0)
(-0.00914789595919 -0.00726711151775 0)
(-0.00909926323328 -0.00558476301788 0)
(-0.00906851086405 -0.00391058531742 0)
(-0.00901284254714 -0.0022759572329 0)
(-0.00810155962641 -0.000667199264723 0)
(0.0414305789588 -0.00321073503642 0)
(0.0459068779822 -0.0108599895527 0)
(0.0457081525291 -0.0184444058906 1.22705018723e-27)
(0.0450216366911 -0.0260298704323 0)
(0.0441001324101 -0.033448623989 0)
(0.0429751769688 -0.0406695814652 0)
(0.0416683706782 -0.047657916295 0)
(0.0402024140395 -0.0543839385226 0)
(0.0386008355305 -0.0608232612442 0)
(0.036887144857 -0.0669567370933 0)
(0.0350840979539 -0.0727701431703 0)
(0.0332131081253 -0.0782537363316 0)
(0.0312938424747 -0.0834017183273 0)
(0.0293439644546 -0.0882116642428 0)
(0.0273790368602 -0.0926839529515 0)
(0.0254125230723 -0.0968212332887 0)
(0.023455897609 -0.100627944553 0)
(0.021518796411 -0.104109904581 0)
(0.0196092268619 -0.107273967106 0)
(0.0177337696948 -0.110127749039 0)
(0.0158978063577 -0.112679419104 0)
(0.0141057071777 -0.114937542373 0)
(0.0123610280366 -0.116910969446 0)
(0.0106666515927 -0.11860876252 0)
(0.00902493326895 -0.120040147163 0)
(0.00743778740721 -0.121214484451 0)
(0.00590678242277 -0.122141252744 0)
(0.00443317814503 -0.122830036067 0)
(0.00301798260819 -0.123290512547 0)
(0.00166195543161 -0.123532442038 0)
(0.000365641814297 -0.123565639591 0)
(-0.000870643612521 -0.123399995831 0)
(-0.00204678150337 -0.123045362304 0)
(-0.00316288752304 -0.122511617359 0)
(-0.00421927193304 -0.121808582359 0)
(-0.00521646481111 -0.120945997318 0)
(-0.00615518423603 -0.119933485788 0)
(-0.00703635391169 -0.118780520527 0)
(-0.00786106503272 -0.117496389603 0)
(-0.00863059026039 -0.116090165068 0)
(-0.00934633943016 -0.114570674581 0)
(-0.0100098713392 -0.112946475582 0)
(-0.0106228446927 -0.111225833737 0)
(-0.0111870286371 -0.109416704328 0)
(-0.0117042510223 -0.107526719114 0)
(-0.0121764094708 -0.105563175574 0)
(-0.0126054183547 -0.103533031341 0)
(-0.012993221637 -0.101442901389 0)
(-0.0133417404304 -0.0992990606903 0)
(-0.0136528888833 -0.0971074487123 0)
(-0.0139285235261 -0.0948736782537 0)
(-0.0141704632831 -0.0926030472649 0)
(-0.0143804422451 -0.0903005524448 0)
(-0.0145601347899 -0.0879709065737 0)
(-0.014711113079 -0.0856185565858 0)
(-0.0148348775707 -0.083247702216 0)
(-0.0149328204714 -0.0808623175299 0)
(-0.0150062622689 -0.0784661688011 0)
(-0.0150564209711 -0.076062835947 0)
(-0.0150844536564 -0.0736557283238 0)
(-0.0150914320317 -0.0712481019025 0)
(-0.0150783883009 -0.0688430734232 0)
(-0.0150462929509 -0.0664436256638 0)
(-0.0149961040759 -0.064052622019 0)
(-0.0149287475641 -0.0616728051341 0)
(-0.0148451640917 -0.0593067994364 0)
(-0.0147462918246 -0.0569571089008 0)
(-0.014633108418 -0.0546261089588 0)
(-0.0145066122106 -0.0523160397661 0)
(-0.014367860376 -0.0500289960574 0)
(-0.0142179458025 -0.047766914135 0)
(-0.0140580288282 -0.045531559272 0)
(-0.0138893119788 -0.043324512149 0)
(-0.0137130639239 -0.0411471560064 0)
(-0.0135305917176 -0.0390006631147 0)
(-0.0133432590323 -0.0368859852102 0)
(-0.0131524555516 -0.0348038408646 0)
(-0.0129596099733 -0.0327547087656 0)
(-0.012766159648 -0.030738820228 0)
(-0.0125735588194 -0.028756155906 0)
(-0.0123832488534 -0.0268064410779 0)
(-0.0121966633938 -0.0248891460931 0)
(-0.0120152014508 -0.0230034858878 0)
(-0.0118402303355 -0.0211484208211 0)
(-0.0116730649153 -0.019322659475 0)
(-0.0115149735238 -0.0175246595816 0)
(-0.011367169113 -0.0157526328279 0)
(-0.0112308299923 -0.0140045492519 0)
(-0.0111071225347 -0.0122781593628 0)
(-0.01099726413 -0.010571039518 0)
(-0.0109025913529 -0.00888068051608 0)
(-0.0108246249024 -0.00720468747465 0)
(-0.0107649171515 -0.00554116283684 0)
(-0.0107218651377 -0.00388740127674 0)
(-0.0106406276551 -0.0022700884786 0)
(-0.00954815511103 -0.000667541650978 0)
(0.0484861961534 -0.00332404509645 0)
(0.0537159531301 -0.0112411557461 0)
(0.0534664130098 -0.0190850989074 -1.22639648873e-27)
(0.052638257009 -0.0269204801277 0)
(0.0515288864067 -0.0345706477662 0)
(0.0501770874448 -0.0420012305328 0)
(0.0486101351179 -0.0491748785695 0)
(0.0468565475184 -0.0560604827905 0)
(0.0449456272999 -0.0626332778088 0)
(0.0429063773862 -0.068874646755 0)
(0.0407665760279 -0.0747716318584 0)
(0.0385520735734 -0.0803162958255 0)
(0.0362863256464 -0.0855049968452 0)
(0.0339901360768 -0.0903376431583 0)
(0.0316815876563 -0.0948169783784 0)
(0.029376111857 -0.0989479336963 0)
(0.0270866686998 -0.102737067805 0)
(0.0248239874755 -0.106192103161 0)
(0.0225968494853 -0.109321558519 0)
(0.0204123733622 -0.112134469995 0)
(0.0182762983004 -0.114640190404 0)
(0.0161932366933 -0.116848253961 0)
(0.0141669033488 -0.11876829347 0)
(0.0122003002379 -0.120409995339 0)
(0.0102958737586 -0.121783085102 0)
(0.00845562630391 -0.122897326644 0)
(0.00668120548852 -0.123762532081 0)
(0.00497395556018 -0.124388571613 0)
(0.00333495741117 -0.124785380235 0)
(0.0017650411385 -0.124962957355 0)
(0.000264800578546 -0.124931348479 0)
(-0.00116542036924 -0.124700685799 0)
(-0.00252550257169 -0.124281031335 0)
(-0.00381558962452 -0.123682502384 0)
(-0.00503606133984 -0.122915143825 0)
(-0.00618754474202 -0.121988917419 0)
(-0.00727090072731 -0.120913660611 0)
(-0.00828722190958 -0.119699049603 0)
(-0.00923781204872 -0.118354562207 0)
(-0.0101241775313 -0.116889444643 0)
(-0.0109480004416 -0.115312680059 0)
(-0.0117111256465 -0.113632961174 0)
(-0.0124155292897 -0.111858667669 0)
(-0.0130633032931 -0.109997846917 0)
(-0.0136566216379 -0.108058199653 0)
(-0.014197724562 -0.10604706961 0)
(-0.0146888845293 -0.103971438493 0)
(-0.015132391558 -0.101837924382 0)
(-0.0155305205546 -0.0996527842725 0)
(-0.015885519839 -0.0974219215762 0)
(-0.0161995809952 -0.0951508951766 0)
(-0.0164748319073 -0.0928449351609 0)
(-0.016713311072 -0.0905089574227 0)
(-0.0169169661384 -0.0881475851579 0)
(-0.0170876344433 -0.0857651679837 0)
(-0.0172270482023 -0.0833658067304 0)
(-0.0173368218662 -0.0809533745956 0)
(-0.0174184649622 -0.0785315420072 0)
(-0.017473376072 -0.0761037981656 0)
(-0.0175028637375 -0.0736734723418 0)
(-0.0175081470905 -0.0712437506218 0)
(-0.0174903805925 -0.0688176917368 0)
(-0.0174506601021 -0.0663982407301 0)
(-0.0173900509145 -0.0639882353706 0)
(-0.0173095957201 -0.0615904104581 0)
(-0.0172103428215 -0.0592073977397 0)
(-0.0170933529597 -0.0568417210446 0)
(-0.0169597250316 -0.0544957918115 0)
(-0.0168105985321 -0.05217189427 0)
(-0.0166471746413 -0.0498721762014 0)
(-0.0164707139628 -0.0475986329261 0)
(-0.0162825493357 -0.0453530895437 0)
(-0.0160840799408 -0.0431371889564 0)
(-0.0158767764762 -0.0409523721496 0)
(-0.0156621693908 -0.0387998653044 0)
(-0.0154418494057 -0.0366806652323 0)
(-0.0152174513537 -0.0345955283695 0)
(-0.0149906495125 -0.0325449594343 0)
(-0.0147631402564 -0.030529206348 0)
(-0.0145366337285 -0.0285482517301 0)
(-0.0143128352378 -0.0266018117495 0)
(-0.0140934371705 -0.0246893351707 0)
(-0.0138801003804 -0.0228100031824 0)
(-0.0136744469235 -0.0209627332498 0)
(-0.013478045911 -0.0191461829761 0)
(-0.0132924101815 -0.0173587568395 0)
(-0.0131189917519 -0.0155986176773 0)
(-0.0129591875623 -0.0138637028149 0)
(-0.0128143531223 -0.0121517565865 0)
(-0.0126858241906 -0.0104603788953 0)
(-0.0125749325121 -0.00878713266108 0)
(-0.0124829762012 -0.00712964419937 0)