/*--------------------------------*- C++ -*----------------------------------*\
| =========                 |                                                 |
| \\      /  F ield         | OpenFOAM: The Open Source CFD Toolbox           |
|  \\    /   O peration     | Version:  v1906                                 |
|   \\  /    A nd           | Web:      www.OpenFOAM.com                      |
|    \\/     M anipulation  |                                                 |
\*---------------------------------------------------------------------------*/
FoamFile
{
    version     2.0;
    format      ascii;
    class       volVectorField;
    location    "925";
    object      Ua;
}
// * * * * * * * * * * * * * * * * * * * * * * * * * * * * * * * * * * * * * //

dimensions      [0 1 -1 0 0 0 0];


internalField   nonuniform List<vector> 
9216
(
(-0.0103648479717 0.0103708965954 0)
(-0.0109380623678 0.0334702803844 3.91464014138e-27)
(-0.0109340786539 0.0569258499444 -7.07737438178e-31)
(-0.0108314914223 0.0803884770861 0)
(-0.0106852707616 0.103461191343 0)
(-0.0104996623572 0.126049602258 0)
(-0.0102791272804 0.148052344327 0)
(-0.0100270557278 0.169377261737 0)
(-0.00974622018737 0.189941628694 0)
(-0.00943977720188 0.209672041778 0)
(-0.00911048669828 0.22850482227 0)
(-0.00876158646761 0.246385896076 0)
(-0.00839578762572 0.263270953393 0)
(-0.00801626410357 0.279125029739 0)
(-0.00762551900649 0.293922350637 0)
(-0.00722651089285 0.307645665492 0)
(-0.00682141208557 0.320285866336 0)
(-0.00641286750688 0.331841180474 0)
(-0.00600265681615 0.342316666329 0)
(-0.00559307349112 0.351723365803 0)
(-0.00518549783809 0.360077770406 0)
(-0.0047818821338 0.367401015601 0)
(-0.0043832415411 0.373718379985 0)
(-0.0039912277088 0.379058569516 0)
(-0.0036065427108 0.383453284126 0)
(-0.00323058560172 0.386936611691 0)
(-0.00286379808044 0.389544665508 0)
(-0.0025073692046 0.391315082591 0)
(-0.00216152318495 0.392286725311 0)
(-0.00182727583306 0.39249928007 0)
(-0.00150468628881 0.39199296 0)
(-0.00119454314001 0.390808436498 0)
(-0.000896652301496 0.38898603852 0)
(-0.000611728653268 0.386565849695 0)
(-0.000339507995926 0.383587621862 0)
(-8.05547415233e-05 0.380090456988 0)
(0.000165554259549 0.37611266709 0)
(0.000398388886951 0.371691621302 0)
(0.000618493041322 0.36686360909 0)
(0.00082555150322 0.361663743835 0)
(0.00102021014926 0.356125848296 0)
(0.00120225524324 0.350282405841 0)
(0.00137241585794 0.34416446209 0)
(0.00153056466717 0.337801617531 0)
(0.00167749489283 0.331221945431 0)
(0.00181314966176 0.32445202388 0)
(0.00193836511434 0.317516866905 0)
(0.002053136593 0.310439991301 0)
(0.00215832186367 0.303243361745 0)
(0.00225395027837 0.295947490499 0)
(0.0023408794136 0.28857139308 0)
(0.00241915436824 0.281132715307 0)
(0.00248961319589 0.273647698684 0)
(0.00255230138168 0.266131330952 0)
(0.00260802075082 0.258597315766 0)
(0.00265680492171 0.25105823934 0)
(0.00269940809268 0.243525541407 0)
(0.00273584515643 0.236009692433 0)
(0.00276681602504 0.228520159314 0)
(0.00279231463387 0.221065585335 0)
(0.00281298590627 0.213653747386 0)
(0.00282880591896 0.206291733779 0)
(0.00284036797192 0.198985887893 0)
(0.00284763667631 0.191741978247 0)
(0.00285116091196 0.184565127641 0)
(0.00285090295385 0.177459973511 0)
(0.00284737569743 0.170430580838 0)
(0.00284054846242 0.163480590847 0)
(0.00283090712061 0.156613119963 0)
(0.00281843691507 0.149830898161 0)
(0.00280360395108 0.143136155458 0)
(0.00278641589488 0.136530751022 0)
(0.00276732441365 0.130016051582 0)
(0.00274636360303 0.123593054521 0)
(0.00272397289419 0.117262261167 0)
(0.00270021353419 0.111023796272 0)
(0.00267551232731 0.104877280676 0)
(0.00264995572747 0.0988219505397 0)
(0.00262395466861 0.0928565319439 0)
(0.00259761624262 0.086979362088 0)
(0.00257133030785 0.0811882689988 0)
(0.00254521819786 0.0754806973158 0)
(0.00251964146514 0.0698535946655 0)
(0.0024947272622 0.0643035440824 0)
(0.00247079914783 0.0588266600958 0)
(0.00244797737519 0.053418732082 0)
(0.00242652882275 0.0480751376557 0)
(0.00240653359716 0.0427910139095 0)
(0.00238813298875 0.037561230978 0)
(0.00237120385349 0.0323806938093 0)
(0.00235534846055 0.0272446339722 0)
(0.00233914458601 0.0221498335282 0)
(0.00231868042909 0.017097628167 0)
(0.00227679139648 0.0121195597916 0)
(0.00219803055026 0.00699115844193 0)
(0.00276326369682 0.00276286494495 0)
(-0.0335526555253 0.0110301777156 0)
(-0.037089561344 0.0373728959369 0)
(-0.0370020255854 0.0636428062302 -4.10943700702e-27)
(-0.0364993529588 0.0899447913589 0)
(-0.0358009108157 0.115775143177 0)
(-0.0349335828429 0.141048928898 0)
(-0.0339120358874 0.165658388158 0)
(-0.0327508170869 0.189502115775 0)
(-0.0314644972877 0.212487972007 0)
(-0.0300687836961 0.234534076069 0)
(-0.0285790792162 0.255569375819 0)
(-0.027011532904 0.275533753889 0)
(-0.0253813296857 0.294378069903 0)
(-0.0237039650363 0.312063822568 0)
(-0.0219934054379 0.328562812514 0)
(-0.0202636308509 0.343856504806 0)
(-0.018526703522 0.357935445509 0)
(-0.016794571168 0.370798455828 0)
(-0.0150770552526 0.382451928006 0)
(-0.0133838865565 0.392908969916 0)
(-0.0117226097555 0.402188686873 0)
(-0.0101008131255 0.410315368545 0)
(-0.00852394080593 0.417317829929 0)
(-0.00699767258474 0.423228695262 0)
(-0.00552563438752 0.428083833561 0)
(-0.00411188916565 0.431921757074 0)
(-0.00275854547056 0.434783153441 0)
(-0.00146832936258 0.436710389836 0)
(-0.000242101225595 0.437747125796 0)
(0.000918507700399 0.437937898235 0)
(0.00201364164215 0.437327829356 0)
(0.00304260105303 0.435962061065 0)
(0.00400646222037 0.433886003467 0)
(0.00490525087512 0.431144787588 0)
(0.00574063236268 0.427782917576 0)
(0.0065132137543 0.423844157508 0)
(0.00722520656876 0.41937134603 0)
(0.0078776842329 0.414406241986 0)
(0.00847325704119 0.408989381628 0)
(0.00901334198515 0.403159965111 0)
(0.00950083008658 0.396955744323 0)
(0.00993737866109 0.390412950507 0)
(0.0103260556954 0.383566209904 0)
(0.01066866685 0.376448508744 0)
(0.0109683645525 0.369091134733 0)
(0.0112270202283 0.361523676613 0)
(0.0114477858712 0.353773989182 0)
(0.0116325228319 0.345868224647 0)
(0.011784306347 0.337830819853 0)
(0.0119049204318 0.329684556746 0)
(0.011997296005 0.321450568924 0)
(0.0120630820766 0.313148427201 0)
(0.0121050104588 0.304796162366 0)
(0.0121245514069 0.296410370978 0)
(0.0121241976702 0.288006248993 0)
(0.0121052128177 0.279597711329 0)
(0.0120698290346 0.271197430848 0)
(0.0120190939726 0.262816964888 0)
(0.0119549760488 0.254466792801 0)
(0.0118783153351 0.246156442254 0)
(0.0117908313378 0.237894519751 0)
(0.0116931811234 0.229688830697 0)
(0.0115868639814 0.221546397689 0)
(0.0114723897658 0.213473569497 0)
(0.0113510761312 0.20547602441 0)
(0.0112233282874 0.197558865607 0)
(0.0110903243761 0.189726608116 0)
(0.0109524080014 0.181983259749 0)
(0.0108106588422 0.174332292877 0)
(0.0106653981481 0.166776712273 0)
(0.0105176419809 0.15931901386 0)
(0.010367720299 0.151961241864 0)
(0.0102166117768 0.144704938381 0)
(0.0100646763108 0.137551193405 0)
(0.00991287075362 0.130500588963 0)
(0.00976159513499 0.123553245569 0)
(0.00961178984912 0.116708765147 0)
(0.00946389528419 0.109966277578 0)
(0.00931883112569 0.10332438566 0)
(0.00917706944678 0.0967812146316 0)
(0.0090394973379 0.0903343621914 0)
(0.00890660299076 0.0839809535675 0)
(0.00877922235215 0.077717598481 0)
(0.00865783758567 0.0715404535437 0)
(0.00854320737924 0.0654451879925 0)
(0.00843577452066 0.0594270549257 0)
(0.00833617398244 0.0534808663552 0)
(0.00824473424611 0.0476010712541 0)
(0.00816182984539 0.0417817303528 0)
(0.00808739248113 0.0360165567695 0)
(0.00802091154024 0.0302987261615 0)
(0.00796048092074 0.0246203633597 0)
(0.00790103722196 0.0189700836015 0)
(0.00782729834283 0.0133236439128 0)
(0.00764795959819 0.00763070224403 0)
(0.00698711040498 0.00219215257516 0)
(-0.0574418549391 0.0111773806463 0)
(-0.0635922508686 0.0379896126945 0)
(-0.0633735987334 0.0645915764076 -4.11318195278e-27)
(-0.0625019726751 0.091276868048 0)
(-0.0613197101424 0.11747929472 0)
(-0.0598609411377 0.14310856926 0)
(-0.0581463007337 0.168053069251 0)
(-0.0561983118655 0.192209105919 0)
(-0.0540411413037 0.215482826715 0)
(-0.0517004601616 0.237791175712 0)
(-0.0492023431944 0.259062370924 0)
(-0.0465732698268 0.279236053213 0)
(-0.0438390308769 0.298263229887 0)
(-0.0410249275752 0.316105947207 0)
(-0.0381547363431 0.332736837407 0)
(-0.0352511327947 0.348138475555 0)
(-0.0323347366212 0.362302681178 0)
(-0.0294247561245 0.37522970473 0)
(-0.0265381079955 0.386927420716 0)
(-0.0236902535132 0.397410471122 0)
(-0.0208943678523 0.406699464611 0)
(-0.0181623220233 0.414820174396 0)
(-0.0155038640609 0.421802819728 0)
(-0.0129276931308 0.42768137284 0)
(-0.010440614571 0.432492956143 0)
(-0.00804865990314 0.436277271037 0)
(-0.00575619184143 0.439076105812 0)
(-0.00356704198447 0.440932869944 0)
(-0.00148356137157 0.441892191272 0)
(0.000492235074982 0.441999531708 0)
(0.00235967073622 0.441300867034 0)
(0.0041182456276 0.439842341488 0)
(0.00576859992104 0.437670005171 0)
(0.00731144231407 0.434829581479 0)
(0.00874857163439 0.431366213282 0)
(0.0100816921246 0.427324259592 0)
(0.0113134739141 0.422747112901 0)
(0.0124463935747 0.417677041346 0)
(0.0134837952515 0.412155048818 0)
(0.0144287385823 0.40622075801 0)
(0.0152850593793 0.399912306225 0)
(0.016056230601 0.393266265555 0)
(0.0167464161786 0.386317569963 0)
(0.017359349176 0.379099468773 0)
(0.0178993728108 0.371643483143 0)
(0.0183703395039 0.363979390794 0)
(0.0187766338801 0.356135209286 0)
(0.0191220971922 0.348137209641 0)
(0.0194110286278 0.34000992539 0)
(0.0196471396689 0.331776193119 0)
(0.0198345309021 0.323457184076 0)
(0.0199766814678 0.315072467937 0)
(0.0200773996593 0.306640063833 0)
(0.0201398520642 0.298176522831 0)
(0.0201674862759 0.289696992389 0)
(0.0201631039814 0.281215310995 0)
(0.0201297541788 0.272744080162 0)
(0.020069853024 0.26429476439 0)
(0.0199860451444 0.255877763043 0)
(0.0198803720618 0.247502508194 0)
(0.0197550987835 0.239177530332 0)
(0.0196119310398 0.230910548032 0)
(0.0194528035731 0.222708521594 0)
(0.0192791457138 0.21457772963 0)
(0.0190926277955 0.206523807694 0)
(0.0188944736986 0.198551809457 0)
(0.0186861617724 0.190666228579 0)
(0.0184687830353 0.182871043891 0)
(0.0182436937195 0.175169725797 0)
(0.018011917721 0.167565267257 0)
(0.0177747484901 0.160060176813 0)
(0.0175331949372 0.152656498227 0)
(0.017288531488 0.145355794206 0)
(0.0170417869177 0.13815915869 0)
(0.0167942421128 0.131067195066 0)
(0.0165469619521 0.124080025046 0)
(0.0163012412083 0.11719726576 0)
(0.0160581797545 0.110418039125 0)
(0.0158190773969 0.103740951055 0)
(0.0155850530307 0.0971641043637 0)
(0.0153573895295 0.0906850831173 0)
(0.0151371972918 0.0843009714705 0)
(0.0149257099765 0.0780083447734 0)
(0.0147239925459 0.0718032955544 0)
(0.0145331877258 0.0656814320972 0)
(0.0143542668141 0.0596379107795 0)
(0.0141882236136 0.0536674382969 0)
(0.0140358612737 0.0477643013192 0)
(0.0138979234274 0.041922350069 0)
(0.013774903951 0.0361349726011 0)
(0.0136671211593 0.0303949509638 0)
(0.0135746514501 0.0246941150407 0)
(0.0134976193434 0.0190223692334 0)
(0.0134349874566 0.0133619081004 0)
(0.0133279524681 0.00776878466175 0)
(0.0120908388503 0.00226154926464 0)
(-0.0818894891371 0.0113071661056 0)
(-0.0907282453113 0.0385698930284 0)
(-0.090407373741 0.0655184222175 4.11127186594e-27)
(-0.0891484994299 0.092571123223 0)
(-0.0874438148344 0.119124811702 0)
(-0.0853434199577 0.145084190136 0)
(-0.0828770642486 0.170333297507 0)
(-0.0800770669085 0.1947654584 0)
(-0.0769784904996 0.21828475349 0)
(-0.073618354665 0.240806886105 0)
(-0.0700345549421 0.262259555348 0)
(-0.0662652026071 0.282582553267 0)
(-0.0623476937237 0.301727608557 0)
(-0.0583182752712 0.31965799015 0)
(-0.0542113079345 0.336347942411 0)
(-0.0500590838338 0.351781965092 0)
(-0.0458912958464 0.365954005015 0)
(-0.0417350999447 0.378866571526 0)
(-0.0376147725153 0.390529835568 0)
(-0.0335519801428 0.4009607204 0)
(-0.0295655787953 0.410182032402 0)
(-0.0256720297457 0.418221631864 0)
(-0.0218852753346 0.425111677002 0)
(-0.0182172275986 0.430887930212 0)
(-0.0146776541757 0.435589143654 0)
(-0.0112746778084 0.439256504489 0)
(-0.00801462853033 0.441933146072 0)
(-0.00490252169867 0.44366370381 0)
(-0.00194186474508 0.44449391858 0)
(0.000864889051547 0.444470271292 0)
(0.00351657148103 0.443639655609 0)
(0.00601286743484 0.44204909812 0)
(0.00835449323586 0.439745373308 0)
(0.0105428549806 0.436774884717 0)
(0.0125802760779 0.433183384577 0)
(0.0144695619779 0.429015773644 0)
(0.0162142726374 0.424315924561 0)
(0.0178183028619 0.419126525666 0)
(0.0192861618001 0.41348894511 0)
(0.0206225625677 0.407443115599 0)
(0.0218327074091 0.401027435071 0)
(0.0229218869631 0.394278686415 0)
(0.0238957675273 0.38723197027 0)
(0.0247599998911 0.379920656409 0)
(0.0255205055336 0.372376346228 0)
(0.026183094883 0.364628853727 0)
(0.0267537501361 0.356706196139 0)
(0.0272382544358 0.348634603262 0)
(0.0276424706932 0.340438534983 0)
(0.0279719838148 0.332140717116 0)
(0.0282323759505 0.323762183507 0)
(0.0284288852277 0.31532233545 0)
(0.0285666788609 0.306839004671 0)
(0.0286505315345 0.298328531464 0)
(0.0286850975999 0.289805842837 0)
(0.0286746121223 0.28128454293 0)
(0.0286231628828 0.272776999338 0)
(0.0285344153966 0.264294438159 0)
(0.0284118839879 0.255847030665 0)
(0.0282586809454 0.24744398532 0)
(0.0280777847476 0.23909362762 0)
(0.027871811596 0.230803482275 0)
(0.027643277527 0.222580340251 0)
(0.0273943898224 0.214430326259 0)
(0.0271272992449 0.206358949363 0)
(0.0268439079025 0.198371153189 0)
(0.0265461076093 0.190471348712 0)
(0.0262356011687 0.182663447071 0)
(0.0259141234928 0.174950875673 0)
(0.0255832735033 0.167336595561 0)
(0.0252447154006 0.15982310361 0)
(0.0249000195435 0.152412437974 0)
(0.0245508424715 0.145106170496 0)
(0.0241987758276 0.137905404556 0)
(0.0238455046972 0.130810762108 0)
(0.0234926647647 0.123822378387 0)
(0.0231419795137 0.116939887983 0)
(0.0227951262526 0.110162420451 0)
(0.022453853235 0.103488589046 0)
(0.0221198557774 0.0969164904647 0)
(0.0217948747037 0.0904436990919 0)
(0.0214805836878 0.0840672731341 0)
(0.0211786702705 0.0777837559404 0)
(0.0208907354401 0.0715891894058 0)
(0.0206183580233 0.065479122376 0)
(0.0203630067637 0.0594486297272 0)
(0.020126088277 0.053492323439 0)
(0.0199088723289 0.0476043683986 0)
(0.0197125277578 0.0417784804242 0)
(0.0195380758869 0.0360079117807 0)
(0.0193864631336 0.0302853980914 0)
(0.0192586691132 0.0246030631907 0)
(0.0191558640251 0.0189523038593 0)
(0.0190756770399 0.0133187233467 0)
(0.0189260733173 0.00777914303195 0)
(0.0170118549394 0.00228892998176 0)
(-0.106737876676 0.0114740768058 0)
(-0.118272629033 0.0393308983411 0)
(-0.117843166698 0.0667588816059 0)
(-0.116181713978 0.0943042788619 0)
(-0.113932862087 0.121326358034 0)
(-0.111163916448 0.147724311133 0)
(-0.107915008926 0.173376915963 0)
(-0.104229428773 0.198173538843 0)
(-0.100154081764 0.222015496471 0)
(-0.0957382981592 0.24481685988 0)
(-0.0910325476576 0.266504723306 0)
(-0.0860873604177 0.287019199042 0)
(-0.0809522812409 0.306313134805 0)
(-0.0756750830485 0.324351593218 0)
(-0.07030102057 0.341111147114 0)
(-0.0648723652043 0.356579030104 0)
(-0.0594279657975 0.370752193045 0)
(-0.054003091742 0.383636302366 0)
(-0.0486292705595 0.395244724967 0)
(-0.0433343900123 0.405597529467 0)
(-0.0381427467962 0.414720538479 0)
(-0.0330753244183 0.422644449593 0)
(-0.0281499583072 0.429404043527 0)
(-0.0233816876658 0.435037480703 0)
(-0.0187829396533 0.439585687125 0)
(-0.0143638695467 0.443091816765 0)
(-0.0101325006058 0.445600780656 0)
(-0.00609501343245 0.447158826526 0)
(-0.0022558286323 0.447813159992 0)
(0.00138214904047 0.447611596623 0)
(0.00481748734504 0.446602241738 0)
(0.00805003672524 0.444833240576 0)
(0.0110807909782 0.442352333028 0)
(0.0139118088164 0.439206837446 0)
(0.0165461442187 0.435443305457 0)
(0.018987649119 0.431107346875 0)
(0.0212409688077 0.42624345793 0)
(0.0233113527748 0.420894870025 0)
(0.0252046622314 0.415103419137 0)
(0.0269271930273 0.408909434412 0)
(0.0284856930289 0.402351643655 0)
(0.0298871950396 0.395467095502 0)
(0.0311390406348 0.388291096119 0)
(0.0322487205482 0.380857161518 0)
(0.0332239018823 0.373196983524 0)
(0.0340722743418 0.36534041102 0)
(0.0348015793481 0.357315444229 0)
(0.0354194623492 0.349148244239 0)
(0.0359335042357 0.340863155193 0)
(0.0363510816539 0.33248274118 0)
(0.0366794028518 0.324027834443 0)
(0.0369253793373 0.315517596935 0)
(0.0370956692143 0.306969591093 0)
(0.0371965638292 0.298399861346 0)
(0.0372340416006 0.28982302133 0)
(0.0372136726815 0.281252348279 0)
(0.0371406851001 0.272699879087 0)
(0.0370198887346 0.264176509293 0)
(0.0368557537349 0.255692089191 0)
(0.0366523531078 0.247255518773 0)
(0.0364134513194 0.238874835909 0)
(0.036142462707 0.230557299858 0)
(0.0358425464718 0.222309464861 0)
(0.035516576781 0.214137246813 0)
(0.0351672393338 0.206045978419 0)
(0.0347970082882 0.198040456457 0)
(0.034408239423 0.190124977123 0)
(0.0340031492911 0.182303363946 0)
(0.0335839005947 0.174578984851 0)
(0.0331525797647 0.166954763258 0)
(0.0327112713313 0.15943318014 0)
(0.0322620314974 0.152016272371 0)
(0.0318069497104 0.144705624536 0)
(0.0313481171346 0.137502359507 0)
(0.0308876750193 0.130407124919 0)
(0.0304277782961 0.123420080887 0)
(0.0299706314783 0.116540885993 0)
(0.0295184484861 0.109768686553 0)
(0.0290734775679 0.103102105938 0)
(0.0286379590761 0.096539238794 0)
(0.028214141292 0.0900776466289 0)
(0.0278042380144 0.0837143592149 0)
(0.0274104371986 0.07744587795 0)
(0.0270348602187 0.071268185209 0)
(0.0266795651621 0.0651767554346 0)
(0.0263465096834 0.0591665710439 0)
(0.026037551547 0.0532321378686 0)
(0.0257544195308 0.0473675027984 0)
(0.0254987201633 0.041566265578 0)
(0.0252719357745 0.0358215907396 0)
(0.0250754763476 0.0301262345364 0)
(0.0249107596286 0.0244725646381 0)
(0.0247790642458 0.0188526854437 0)
(0.0246754909428 0.0132531892097 0)
(0.0244761808992 0.00775317813158 0)
(0.0219604004634 0.0022898720632 0)
(-0.132127196129 0.0116824573833 0)
(-0.146400461526 0.0403003240347 0)
(-0.14584989353 0.0683477929801 0)
(-0.143762294388 0.0965257375195 0)
(-0.140938076711 0.124147215624 0)
(-0.13746291617 0.151104841477 0)
(-0.13338865581 0.177271009555 0)
(-0.128770945188 0.20253018512 0)
(-0.123669839914 0.226780277148 0)
(-0.11814823957 0.249933407501 0)
(-0.112270288817 0.271916063761 0)
(-0.106099950118 0.292668951894 0)
(-0.0996997324665 0.312146547938 0)
(-0.093129648545 0.33031640284 0)
(-0.086446347557 0.347158256588 0)
(-0.0797024862505 0.362663011296 0)
(-0.0729462667433 0.376831614466 0)
(-0.0662212000231 0.389673897422 0)
(-0.0595660075178 0.401207414912 0)
(-0.0530147140808 0.411456324323 0)
(-0.0465968272537 0.420450340252 0)
(-0.0403376498388 0.428223788542 0)
(-0.0342586075324 0.434814775992 0)
(-0.0283776408044 0.440264477353 0)
(-0.0227095441906 0.444616532436 0)
(-0.0172663193591 0.447916535617 0)
(-0.0120574404008 0.45021159778 0)
(-0.00709012125258 0.451549959384 0)
(-0.00236949848272 0.451980639011 0)
(0.00210116708986 0.45155310544 0)
(0.00632035145132 0.45031697167 0)
(0.0102881453973 0.448321777056 0)
(0.0140059769504 0.445616462826 0)
(0.0174766247079 0.442249489072 0)
(0.0207040261941 0.438268400819 0)
(0.0236931345612 0.433719690397 0)
(0.0264498195609 0.428648628271 0)
(0.0289807277764 0.423099118936 0)
(0.0312931998593 0.417113577143 0)
(0.033395146475 0.410732822479 0)
(0.0352949790907 0.403995990087 0)
(0.0370014976648 0.396940456813 0)
(0.0385238302305 0.389601781508 0)
(0.0398713280373 0.382013659753 0)
(0.0410535100583 0.374207892227 0)
(0.0420799628278 0.366214367567 0)
(0.0429602881907 0.3580610591 0)
(0.0437040077549 0.349774036452 0)
(0.0443205148762 0.341377491101 0)
(0.0448189859803 0.332893776617 0)
(0.0452083399821 0.324343462149 0)
(0.0454971607478 0.315745399286 0)
(0.0456936685326 0.307116800075 0)
(0.0458056583076 0.298473325604 0)
(0.0458404875966 0.289829182196 0)
(0.045805034612 0.281197224102 0)
(0.0457057053188 0.272589059165 0)
(0.0455484129834 0.264015156106 0)
(0.0453386046525 0.255484949836 0)
(0.0450812610562 0.247006943616 0)
(0.0447809399554 0.238588804745 0)
(0.0444417925769 0.230237453104 0)
(0.0440676189356 0.221959139904 0)
(0.0436618952379 0.213759516725 0)
(0.0432278349969 0.205643692964 0)
(0.0427684209351 0.197616282615 0)
(0.0422864654556 0.189681439306 0)
(0.0417846410093 0.181842881306 0)
(0.0412655343449 0.174103906069 0)
(0.0407316704181 0.166467396588 0)
(0.0401855563555 0.158935819594 0)
(0.0396296958365 0.151511218202 0)
(0.0390666206108 0.14419519923 0)
(0.0384988940652 0.136988917834 0)
(0.037929129907 0.129893059689 0)
(0.0373599853529 0.122907823215 0)
(0.0367941680567 0.116032901897 0)
(0.0362344204817 0.10926746891 0)
(0.0356835170862 0.102610163811 0)
(0.0351442422183 0.0960590831893 0)
(0.0346193800744 0.0896117747255 0)
(0.0341116886747 0.083265236142 0)
(0.0336238852251 0.0770159182006 0)
(0.0331586188365 0.0708597327606 0)
(0.0327184540039 0.0647920647789 0)
(0.0323058450024 0.0588077886359 0)
(0.0319231211058 0.0529012872629 0)
(0.0315724677762 0.0470664741425 0)
(0.031255921739 0.0412968185502 0)
(0.030975371305 0.0355853773608 0)
(0.0307325787151 0.0299248446626 0)
(0.0305291983376 0.0243076207375 0)
(0.0303663850289 0.0187259573514 0)
(0.030236964272 0.0131664026958 0)
(0.0299873229961 0.00770618531389 0)
(0.0268913796802 0.0022815147933 0)
(-0.158191668711 0.0119374897857 0)
(-0.175264747368 0.0414960951698 0)
(-0.174575560461 0.0703098107198 4.13479617431e-27)
(-0.172030200312 0.0992688143329 0)
(-0.168589651963 0.127628664769 0)
(-0.164359454932 0.155273822574 0)
(-0.159404765256 0.182068928851 0)
(-0.153795298178 0.207892555102 0)
(-0.147605934104 0.23263860732 0)
(-0.140914729793 0.256217046583 0)
(-0.133800930998 0.278553890396 0)
(-0.126343192752 0.299590873417 0)
(-0.118618036998 0.319284781128 0)
(-0.110698576453 0.33760652613 0)
(-0.102653493978 0.354540030103 0)
(-0.09454628886 0.37008096958 0)
(-0.0864347663038 0.384235439765 0)
(-0.0783707739965 0.39701858874 0)
(-0.0704001504223 0.408453272336 0)
(-0.0625628762783 0.418568777116 0)
(-0.0548933753915 0.427399652495 0)
(-0.0474209398298 0.434984682888 0)
(-0.0401702105711 0.441366016181 0)
(-0.033161684109 0.446588448399 0)
(-0.0264121824831 0.450698848248 0)
(-0.0199352777954 0.453745693424 0)
(-0.0137416371753 0.455778685338 0)
(-0.00783931160472 0.456848411267 0)
(-0.00223396036248 0.457006031264 0)
(0.00307095071329 0.456302971881 0)
(0.00807396599803 0.454790647098 0)
(0.0127755484672 0.452520244624 0)
(0.0171777203008 0.449542158818 0)
(0.0212840939653 0.445906201673 0)
(0.0250996357037 0.44166110291 0)
(0.0286305104285 0.436854404235 0)
(0.0318839405736 0.431532294682 0)
(0.0348680640028 0.425739475893 0)
(0.0375918136801 0.419519047272 0)
(0.0400647957234 0.412912408147 0)
(0.0422971864551 0.405959175023 0)
(0.0442996245306 0.398697112544 0)
(0.046083118446 0.391162077669 0)
(0.0476589462646 0.383387976893 0)
(0.0490385682076 0.375406736933 0)
(0.0502335302204 0.367248289205 0)
(0.0512553795763 0.35894056873 0)
(0.0521155719902 0.350509527893 0)
(0.0528253916011 0.34197916551 0)
(0.0533958646625 0.333371571148 0)
(0.0538376883437 0.324706984477 0)
(0.054161156575 0.316003868841 0)
(0.0543761038852 0.3072789979 0)
(0.0544918498396 0.29854755352 0)
(0.0545171639872 0.289823232803 0)
(0.0544602341164 0.281118361691 0)
(0.0543286561842 0.272444012434 0)
(0.054129428648 0.263810121982 0)
(0.0538689678097 0.255225608439 0)
(0.0535531267832 0.246698482863 0)
(0.0531872329724 0.238235953973 0)
(0.0527761267815 0.229844523618 0)
(0.0523242149803 0.221530071342 0)
(0.0518355218936 0.213297926832 0)
(0.0513137507039 0.205152929576 0)
(0.0507623388885 0.197099475468 0)
(0.0501845193162 0.189141550623 0)
(0.0495833722102 0.181282753065 0)
(0.0489618790068 0.173526303334 0)
(0.0483229647499 0.165875045297 0)
(0.0476695397356 0.15833143868 0)
(0.0470045285679 0.150897544976 0)
(0.0463308970362 0.143575008442 0)
(0.0456516664635 0.136365033843 0)
(0.0449699255594 0.129268362558 0)
(0.0442888307794 0.122285248545 0)
(0.0436116046798 0.115415435513 0)
(0.042941524459 0.108658136453 0)
(0.0422819094902 0.10201201649 0)
(0.0416361010724 0.0954751798729 0)
(0.041007442374 0.0890451616483 0)
(0.0403992527268 0.0827189244692 0)
(0.0398148033506 0.0764928607012 0)
(0.0392572895672 0.0703627998927 0)
(0.0387298056896 0.064324021544 0)
(0.0382353186494 0.0583712727531 0)
(0.0377766458828 0.0524987904497 0)
(0.0373564348725 0.0467003289011 0)
(0.0369771493277 0.0409691907216 0)
(0.0366410608508 0.0352982675125 0)
(0.03635024686 0.0296801099407 0)
(0.0361065599314 0.0241069778406 0)
(0.0359110893039 0.0185709303504 0)
(0.0357548165232 0.0130582055164 0)
(0.0354555691303 0.00764325896407 0)
(0.0317896421282 0.00226780363347 0)
(-0.185077756932 0.0122434312732 0)
(-0.205027482047 0.0429381253195 0)
(-0.204177487593 0.0726752765544 -4.13259458163e-27)
(-0.201134158679 0.102574584055 0)
(-0.197025372063 0.131821189278 0)
(-0.191978631254 0.160289508419 0)
(-0.186074495071 0.18783485236 0)
(-0.179398911649 0.214328865658 0)
(-0.172043704502 0.239660921804 0)
(-0.164104067588 0.263738750643 0)
(-0.155676120417 0.286488223128 0)
(-0.146854748101 0.307852751372 0)
(-0.13773176295 0.327792337851 0)
(-0.128394399088 0.34628235967 0)
(-0.118924131879 0.363312160988 0)
(-0.109395816894 0.378883516177 0)
(-0.09987713337 0.393009022565 0)
(-0.0904283231291 0.405710479502 0)
(-0.0811022009689 0.417017312377 0)
(-0.0719444112572 0.426965098455 0)
(-0.0629938819264 0.43559424701 0)
(-0.0542834227221 0.442948872997 0)
(-0.045840394283 0.449075884801 0)
(-0.0376873835715 0.454024281577 0)
(-0.0298428202037 0.457844632272 0)
(-0.0223214993016 0.460588690126 0)
(-0.0151349911323 0.462309090306 0)
(-0.00829195340207 0.46305908352 0)
(-0.00179836667769 0.462892274919 0)
(0.00434227237598 0.461862333744 0)
(0.0101287761582 0.460022806188 0)
(0.0155620830219 0.457426659528 0)
(0.0206450224507 0.454126100319 0)
(0.025382189145 0.450172459794 0)
(0.0297797366312 0.445615841516 0)
(0.03384518459 0.440504993664 0)
(0.0375872483316 0.434887158884 0)
(0.0410156794664 0.428807951379 0)
(0.0441411236455 0.422311253339 0)
(0.0469749876319 0.415439126924 0)
(0.0495293189589 0.408231739065 0)
(0.0518166896192 0.400727298086 0)
(0.0538500871824 0.392962001604 0)
(0.0556428058295 0.384969996346 0)
(0.0572083416649 0.376783350357 0)
(0.0585602861236 0.368432038882 0)
(0.0597122228332 0.359943944646 0)
(0.0606776230652 0.351344873846 0)
(0.0614697460161 0.342658588282 0)
(0.0621015402666 0.333906854427 0)
(0.0625855533512 0.325109509052 0)
(0.0629338466542 0.316284541141 0)
(0.0631579226475 0.307448188484 0)
(0.0632686618535 0.298615047369 0)
(0.0632762759265 0.28979819259 0)
(0.0631902737224 0.281009305107 0)
(0.0630194454959 0.272258803778 0)
(0.0627718611385 0.263555978046 0)
(0.0624548861387 0.254909117882 0)
(0.0620752101913 0.246325638059 0)
(0.0616388907594 0.237812193576 0)
(0.0611514057803 0.229374784078 0)
(0.0606177168407 0.221018845071 0)
(0.0600423367322 0.212749324895 0)
(0.0594294021805 0.204570746406 0)
(0.0587827458535 0.196487253552 0)
(0.0581059684074 0.188502642928 0)
(0.0574025053164 0.180620381541 0)
(0.0566756895415 0.172843611787 0)
(0.0559288057104 0.165175145593 0)
(0.055165137389 0.157617449282 0)
(0.054388004162 0.150172621446 0)
(0.0536007906177 0.142842365569 0)
(0.0528069649311 0.135627959646 0)
(0.0520100895397 0.128530224371 0)
(0.0512138224109 0.121549491878 0)
(0.0504219115639 0.114685576246 0)
(0.0496381819283 0.107937747308 0)
(0.0488665171879 0.101304708558 0)
(0.0481108360949 0.0947845802157 0)
(0.047375065712 0.0883748878339 0)
(0.0466631113298 0.082072557031 0)
(0.0459788252531 0.0758739144125 0)
(0.0453259743929 0.0697746947955 0)
(0.0447082085562 0.0637700546218 0)
(0.0441290295547 0.0578545912835 0)
(0.0435917627639 0.0520223681628 0)
(0.0430995313985 0.0462669449333 0)
(0.0426552347615 0.0405814150214 0)
(0.0422615294643 0.0349584508536 0)
(0.0419208110154 0.0293903610247 0)
(0.0416351596551 0.0238691482092 0)
(0.0414056971558 0.0183865770766 0)
(0.0412218289632 0.012928481436 0)
(0.0408734822316 0.00756620930871 0)
(0.03664467177 0.00225009282761 0)
(-0.21294589591 0.0126049166536 0)
(-0.235864158336 0.0446505406336 0)
(-0.234825566208 0.0754821017786 0)
(-0.231234093229 0.106494452231 0)
(-0.226392461521 0.136787759227 0)
(-0.220452970626 0.166224203786 0)
(-0.213514320345 0.194648034166 0)
(-0.205681457092 0.221922927532 0)
(-0.19706580344 0.247933314469 0)
(-0.187782128813 0.272584826116 0)
(-0.177945579066 0.295803764424 0)
(-0.167669105377 0.317536147783 0)
(-0.157061318258 0.337746391656 0)
(-0.146224757274 0.356415728598 0)
(-0.135254556793 0.373540446763 0)
(-0.124237490269 0.389130011844 0)
(-0.113251379499 0.403205130588 0)
(-0.102364858122 0.415795817308 0)
(-0.0916374725035 0.426939530065 0)
(-0.0811200896638 0.436679449008 0)
(-0.0708555594166 0.445062965857 0)
(-0.0608795545905 0.452140440175 0)
(-0.0512214936529 0.457964250077 0)
(-0.0419054453648 0.462588129289 0)
(-0.0329509277845 0.466066744081 0)
(-0.0243735463675 0.468455436235 0)
(-0.0161854572714 0.469810048334 0)
(-0.00839568170736 0.470186760139 0)
(-0.00101032054489 0.46964189326 0)
(0.00596727955297 0.46823164129 0)
(0.0125363923445 0.466011944393 0)
(0.0186986173496 0.463037851799 0)
(0.0244577605963 0.459363569311 0)
(0.0298196049481 0.455042174607 0)
(0.0347916743689 0.450125318582 0)
(0.0393830140183 0.444663103735 0)
(0.0436039905549 0.438703950126 0)
(0.0474661127388 0.432294488811 0)
(0.0509818715764 0.425479473424 0)
(0.0541645961607 0.41830170428 0)
(0.057028321258 0.410801962262 0)
(0.0595876621845 0.40301895125 0)
(0.0618576940668 0.394989249651 0)
(0.0638538327144 0.386747271823 0)
(0.0655917159824 0.378325241136 0)
(0.0670870844479 0.369753176008 0)
(0.0683556617283 0.361058890855 0)
(0.0694130346338 0.352268013282 0)
(0.0702745348734 0.343404019156 0)
(0.0709551238516 0.334488286222 0)