/*--------------------------------*- C++ -*----------------------------------*\
| =========                 |                                                 |
| \\      /  F ield         | OpenFOAM: The Open Source CFD Toolbox           |
|  \\    /   O peration     | Version:  v1906                                 |
|   \\  /    A nd           | Web:      www.OpenFOAM.com                      |
|    \\/     M anipulation  |                                                 |
\*---------------------------------------------------------------------------*/
FoamFile
{
    version     2.0;
    format      ascii;
    class       volScalarField;
    location    "169";
    object      p;
}
// * * * * * * * * * * * * * * * * * * * * * * * * * * * * * * * * * * * * * //

dimensions      [0 2 -2 0 0 0 0];


internalField   nonuniform List<scalar> 
9216
(
276.335947857
276.416022595
276.581709797
276.834433746
277.172769921
277.595149079
278.099599676
278.683836065
279.345242657
280.080975229
280.88793058
281.762860322
282.702325251
283.702819281
284.76070591
285.872350164
287.034035808
288.24210441
289.492853388
290.782682151
292.107972008
293.46523983
294.851001507
296.261933491
297.694721633
299.146230771
300.613340907
302.093124484
303.582671765
305.079275045
306.580245095
308.083101067
309.585379248
311.084828081
312.579212051
314.066508366
315.544707123
317.01200974
318.466627169
319.906977798
321.331485603
322.738776008
324.127475817
325.496405508
326.84438254
328.170408821
329.473479026
330.752762022
332.007415465
333.23676033
334.440102958
335.61690189
336.766598206
337.888774202
338.982992651
340.048946974
341.086309707
342.09487411
343.074411921
344.024806414
344.945919252
345.837715218
346.700137804
347.533225893
348.33699754
349.111558984
349.856996086
350.573476046
351.26114582
351.920226899
352.550920282
353.153494585
353.728197108
354.275335571
354.795195005
355.288113225
355.754403473
356.194423698
356.608505043
356.997014881
357.360291403
357.698700324
358.012576071
358.30227205
358.568109169
358.810419895
359.029505594
359.225675858
359.399219061
359.550444109
359.679681733
359.787379921
359.874558364
359.941070202
359.978535051
359.99071155
276.255888273
276.336323126
276.502350977
276.756070567
277.095837831
277.520002023
278.02655447
278.613163587
279.277187508
280.015735933
280.825682557
281.703732682
282.646429115
283.650221441
284.711462106
285.826475065
286.991540681
288.202962953
289.457043214
290.750146245
292.07866373
293.439080039
294.827926766
296.241849106
297.677552911
299.131872339
300.601710774
302.084110108
303.576186664
305.075202136
306.578495347
308.083554699
309.587947053
311.089390661
312.585681036
314.074765121
315.554665444
317.02355373
318.479674078
319.921415849
321.347236518
322.755733326
324.145566547
325.515529378
326.864472373
328.191371185
329.495252835
330.775260993
332.030584627
333.260520604
334.464405267
335.641674125
336.791796767
337.914333553
339.008874115
340.075091004
341.112681929
342.121420351
343.101101478
344.051589853
344.972769008
345.864586076
346.727004917
347.560047857
348.363752003
349.138208168
349.883520078
350.599840662
351.287333753
351.946207751
352.576679662
353.179006185
353.753449852
354.300307654
354.819879118
355.312492479
355.778474718
356.21817533
356.631938354
357.020123763
357.383081637
357.721171226
358.034737557
358.324128179
358.589672639
358.831697138
359.050507447
359.24640195
359.419658922
359.570547957
359.699318796
359.806203145
359.891447913
359.954939066
359.9907616
360.002915546
276.089381361
276.170962346
276.338517411
276.594531771
276.937332104
277.365219954
277.876128702
278.467655268
279.137090438
279.881466718
280.697590743
281.582092848
282.53145583
283.542062017
284.610215005
285.732181924
286.904206827
288.122547598
289.383481173
290.683335677
292.018488503
293.385394818
294.780579894
296.200665162
297.642356115
299.102466926
300.577905017
302.065694897
303.562960239
305.066947244
306.575004736
308.084607224
309.593333555
311.098889374
312.599084296
314.09185413
315.575237047
317.047394955
318.50658894
319.951199825
321.379703118
322.790688668
324.182835462
325.554930304
326.905842771
328.23454292
329.540076749
330.821582895
332.078268872
333.30942691
334.514411173
335.692652703
336.843637932
337.966922806
339.062112636
340.128875507
341.166923572
342.176025742
343.155990445
344.106677635
345.027982923
345.919848911
346.782250581
347.615205933
348.418762443
349.193006966
349.938053109
350.654050384
351.341172224
351.999624306
352.629633148
353.231453529
353.805357495
354.351640987
354.870613116
355.362601871
355.827943834
356.266989017
356.680090914
357.067610609
357.429907262
357.767341473
358.080266522
358.369031023
358.63397098
358.875411879
359.093661428
359.289010524
359.461725516
359.612043566
359.740151704
359.846150036
359.929963622
359.991012125
360.026739785
360.040466041
275.833393255
275.916256983
276.086200118
276.345804279
276.693335569
277.127019029
277.644695239
278.243855042
278.921679348
279.675085663
280.50076986
281.395252088
282.354914825
283.376043927
284.454859539
285.587550115
286.770295089
287.999291652
289.270769702
290.581012388
291.926364705
293.303249287
294.708170216
296.137725541
297.588607723
299.057614025
300.541644653
302.037711808
303.54293619
305.054555143
306.569917873
308.086492846
309.601862049
311.113727562
312.619904808
314.118328438
315.607044705
317.08421652
318.548115085
319.997124174
321.429731115
322.844530327
324.240213892
325.615574408
326.969495413
328.300953592
329.609009205
330.892807934
332.151571457
333.384599018
334.59125841
335.770987344
336.923285015
338.04771338
339.143889413
340.211486423
341.250227011
342.25988445
343.240276413
344.191266423
345.112758277
346.004697537
346.867066552
347.699885924
348.503209987
349.277128153
350.021760717
350.737260019
351.423806324
352.081608676
352.710900813
353.311941607
353.885010914
354.430409596
354.948455144
355.439481319
355.903833626
356.341868511
356.753948728
357.140442197
357.501717307
357.838141532
358.150076824
358.437877944
358.701888047
358.942436684
359.159835048
359.354373149
359.526312961
359.675880362
359.803247965
359.908511031
359.991645072
360.052435692
360.090285429
360.106875626
275.486848587
275.571354906
275.744574995
276.009113364
276.363143257
276.804778574
277.331728251
277.941336215
278.630628899
279.396365765
280.23508771
281.143165054
282.116840744
283.152271306
284.245561447
285.392796009
286.590065268
287.833488221
289.119229681
290.443516451
291.802648068
293.193007823
294.611069092
296.053402925
297.516681546
298.997683864
300.493297194
302.00052147
303.516469816
305.038371884
306.56357353
308.089539306
309.613851436
311.134211522
312.64843863
314.154470169
315.650359117
317.134274093
318.60449581
320.059416349
321.497534905
322.917456351
324.317886486
325.697629968
327.055585244
328.390742052
329.702176175
330.989046707
332.250590829
333.486121027
334.69502001
335.876738037
337.030788189
338.156743903
339.254234688
340.322944
341.362605498
342.373001223
343.353958411
344.30534807
345.227082274
346.119113038
346.981430025
347.814059648
348.617062985
349.390535042
350.134602831
350.849424518
351.535187401
352.192106977
352.820424732
353.420406864
353.992341905
354.536539091
355.053325603
355.543044587
356.006052117
356.442714857
356.853406778
357.238506502
357.598393848
357.933447014
358.244038948
358.530534397
358.793286303
359.032632465
359.248891536
359.442358996
359.61330163
359.761949773
359.888488101
359.99304667
360.075691329
360.136435927
360.175236761
360.193489991
275.04797121
275.134561499
275.312001144
275.582901842
275.945307607
276.397181501
276.936055934
277.559080429
278.2630774
279.044599645
279.899985693
280.825412436
281.816942879
282.870569046
283.982248752
285.147937216
286.363612798
287.625298442
288.929078256
290.27111115
291.647640821
293.055004097
294.489636705
295.948078437
297.426976488
298.923088951
300.433286765
301.95455628
303.484000486
305.018840931
306.556418309
308.094193677
309.629748469
311.160785131
312.685126128
314.200713735
315.705608233
317.197986884
318.676141252
320.138475372
321.583502335
323.00984169
324.416215469
325.80144502
327.164446589
328.504227813
329.819883084
331.110589807
332.375603775
333.614255423
334.825945363
336.010140842
337.16637155
338.294226419
339.393349869
340.463439048
341.504240642
342.515548495
343.497200991
344.449079184
345.371104698
346.263238175
347.125477647
347.957857189
348.760445577
349.533345301
350.276691075
350.99064867
351.675413584
352.331209794
352.958287956
353.556923839
354.127416454
354.670086019
355.185271502
355.673328319
356.134625571
356.569543341
356.978469527
357.361796812
357.719919365
358.053229569
358.362114442
358.646952372
358.908109408
359.145935679
359.360761542
359.552893578
359.722610036
359.870155214
359.995736004
360.099518725
360.18163394
360.242198263
360.281285472
360.300051407
274.514492285
274.603663755
274.786348529
275.065157602
275.437966425
275.902540678
276.456184093
277.095796227
277.817938848
278.618902876
279.494772103
280.441482225
281.454873502
282.530736521
283.664850578
284.853015278
286.091075597
287.374941539
288.700602906
290.06414043
291.461733695
292.88966701
294.344333442
295.822237906
297.31999938
298.834352806
300.362150543
301.900363811
303.446083905
304.996523344
306.54901675
308.101021422
309.650117854
311.194009835
312.730523914
314.257608559
315.77333291
317.275885012
318.763569663
320.234805762
321.688123349
323.122160168
324.535658078
325.927459059
327.296501153
328.641814087
329.962514957
331.257803724
332.526958882
333.769332952
334.984348333
336.171493056
337.330316963
338.4604279
339.561488282
340.633211882
341.675360966
342.687743612
343.670211437
344.622657502
345.545014648
346.437253658
347.299382208
348.131443576
348.933515438
349.705708995
350.448167776
351.161066576
351.844610485
352.499033571
353.124597274
353.721588924
354.290320015
354.831124028
355.344354177
355.830380882
356.289589023
356.722375094
357.129144043
357.510305907
357.866272483
358.197453787
358.504254394
358.787069873
359.046283061
359.282260295
359.49534769
359.685867293
359.854113601
360.000349468
360.124804503
360.227676056
360.309133505
360.369331935
360.408360626
360.42724168
273.883599241
273.97590829
274.1649702
274.453388943
274.838823382
275.318786654
275.890291282
276.549921081
277.293911109
278.118226953
279.018638861
279.990788702
281.030248246
282.132568067
283.293317236
284.508114418
285.772651396
287.082710214
288.434175117
289.823040511
291.24541593
292.697528996
294.175726961
295.676477649
297.196369895
298.73211403
300.280542342
301.838609829
303.403394874
304.972100226
306.542053647
308.110708502
309.675644158
311.234566383
312.78530645
314.325820537
315.854188171
317.368610599
318.867408245
320.349018099
321.811990254
323.254984539
324.67676637
326.076202703
327.452257403
328.803986876
330.130535175
331.431129437
332.705075001
333.951750926
335.170605321
336.361151141
337.522961917
338.655668008
339.758952881
340.832549971
341.87623962
342.889846608
343.873237708
344.826319825
345.749038396
346.641376008
347.503351242
348.335017584
349.1364626
349.907807203
350.649204874
351.36084066
352.042930423
352.695719785
353.319482562
353.914519516
354.481156672
355.019743074
355.530648612
356.014261447
356.470985188
356.901235928
357.305438835
357.684024717
358.037426538
358.366075547
358.670397499
358.950808893
359.207713024
359.441496239
359.652524092
359.841137963
360.0076516
360.152348398
360.275480135
360.377266971
360.457902151
360.517558534
360.556313819
360.575117733
273.151873711
273.247946332
273.444655136
273.744583744
274.14511671
274.643446166
275.236217479
275.919619414
276.689482072
277.541371965
278.470679004
279.472693034
280.54266828
281.675875446
282.867641979
284.113381823
285.408616137
286.748986812
288.13026434
289.548351651
290.99928514
292.479234021
293.984498848
295.511509794
297.056825097
298.617129951
300.18923597
301.770081115
303.356730147
304.946375232
306.536336744
308.124063691
309.707134438
311.283257067
312.850268585
314.406134089
315.948945516
317.47691951
318.988395075
320.481830328
321.955799222
323.408987448
324.840188324
326.248298032
327.632311037
328.991314946
330.324485623
331.631081912
332.910440796
334.161972249
335.385154564
336.579529593
337.744698559
338.880317795
339.9860952
341.061786699
342.107193439
343.122159056
344.106567353
345.060340788
345.983439112
346.875857693
347.737626906
348.568811343
349.369509277
350.139852249
350.880004467
351.590162103
352.270553009
352.921435583
353.543097556
354.135854893
354.700050107
355.236050117
355.744244045
356.225040615
356.678865219
357.106156732
357.507364015
357.882942338
358.233349452
358.559041645
358.860469706
359.138074875
359.392284761
359.623509405
359.832137493
360.01853278
360.183030996
360.325937087
360.447523636
360.548031635
360.627670464
360.6866191
360.724949041
360.743569916
272.315215527
272.415766826
272.621566034
272.935158626
273.353580322
273.873616914
274.491452076
275.202782684
276.002940003
276.887004901
277.849910663
278.886530586
279.991749083
281.160516355
282.387888136
283.669052477
284.999346069
286.374262414
287.789454169
289.240731512
290.724058171
292.235546367
293.771451587
295.328167889
296.902223983
298.490280553
300.089128551
301.695688659
303.307011329
304.920277547
306.532799507
308.142021573
309.745521024
311.341008743
312.926328189
314.499454999
316.058495322
317.601683885
319.127381085
320.634069905
322.120351859
323.584942925
325.026668692
326.444459583
327.837345396
329.204450136
330.544986364
331.858249896
333.143614103
334.400524838
335.62849502
336.82709993
337.995972357
339.134798504
340.243313895
341.321300083
342.368581471
343.385022636
344.370526472
345.325032743
346.248516253
347.140986169
348.002485405
348.833090285
349.63291031
350.40208812
351.140799179
351.849251684
352.527686166
353.176374915
353.795621023
354.385757296
354.947144699
355.480170331
355.985245137
356.462801325
356.91328923
357.337173983
357.734931811
358.107046205
358.45400368
358.776289622
359.074383848
359.348756437
359.599863204
359.828141765
360.034007355
360.217849272
360.380027536
360.520870324
360.640671929
360.739690611
360.818149839
360.876238659
360.91402243
360.932385549
271.368747968
271.4746047
271.691161603
272.020894995
272.460397607
273.005939168
273.653122919
274.397033894
275.232390759
276.153686468
277.155310181
278.231647471
279.377157825
280.586430736
281.85422283
283.175479453
284.545344113
285.95915921
287.412460829
288.900970126
290.420583034
291.967359896
293.537515836
295.127412574
296.733552101
298.352572223
299.981244016
301.616470752
303.255288083
304.894864937
306.532504424
308.165645678
309.791864989
311.408875966
313.014529606
314.606813395
316.183849967
317.743894661
319.285332793
320.806675783
322.306557169
323.783727698
325.237050422
326.665494959
328.06813201
329.444127262
330.792735674
332.113295206
333.405221185
334.668000289
335.90118518
337.104388988
338.277280551
339.419579645
340.531053083
341.611510863
342.660803132
343.678817815
344.665478816
345.620743964
346.544604233
347.437083174
348.298236688
349.128153079
349.926953238
350.694790905
351.431853241
352.13836069
352.81456717
353.460759754
354.077258053
354.66441336
355.222606976
355.752248374
356.253773085
356.727639859
357.174327328
357.5943305
357.988156935
358.356322364
358.699346293
359.017747491
359.312039278
359.582724704
359.830292104
360.0552105
360.257925408
360.438854834
360.598386007
360.736871948
360.854628809
360.951935201
361.029028811
361.086103787
361.123232809
361.141281764
270.306695833
270.418830368
270.648097291
270.996860895
271.461145921
272.036564537
272.717987729
273.49973873
274.375784641
275.339909113
276.385857071
277.507448429
278.698661096
279.953685897
281.266958022
282.633169871
284.047270476
285.504455767
287.000153539
288.530005858
290.089851131
291.675707324
293.283757297
294.910336822
296.551925588
298.205141274
299.866736165
301.533596152
303.20274118
304.871327016
306.5366465
308.196132584
309.84735985
311.488045042
313.116047279
314.729367584
316.326147129
317.904665054
319.463334953
321.0007011
322.515433557
324.006323201
325.472275716
326.91230587
328.325530935
329.711164437
331.068509435
332.396952198
333.695955531
334.965052721
336.203841247
337.411977246
338.589169956
339.735177027
340.849799902
341.932880136
342.984296438
344.003962258
344.991823521
345.947857318
346.872071371
347.764504062
348.625224165
349.45433163
350.251958402
351.018269394
351.753463016
352.45777205
353.131464067
353.774841575
354.388241844
354.972035859
355.526627057
356.052449836
356.549967123
357.019667252
357.462060725
357.877676398
358.267057233
358.630755647
358.969328832
359.283333597
359.573321288
359.839832719
360.083393055
360.304507075
360.503654403
360.681285423
360.837817281
360.973630513
361.089066032
361.184421487
361.259950826
361.315862295
361.352231871
361.369911003
269.122230105
269.241801407
269.486101101
269.857313611
270.350731617
270.961122987
271.682430865
272.50802732
273.430957182
274.444150674
275.540594504
276.713459291
277.956185314
279.262532224
280.626599732
282.042826986
283.505977396
285.011114919
286.55357616
288.128941742
289.733009174
291.361768655
293.011382691
294.678170097
296.358594411
298.049256577
299.746891375
301.448366835
303.150685882
304.850989103
306.546557336
308.234815588
309.913336053
311.57983827
313.232190324
314.868408125
316.486654051
318.085234004
319.662594106
321.217315929
322.748111511
324.25381723
325.733387735
327.185888977
328.610491443
330.006462796
331.373160959
332.710026687
334.016576773
335.292396914
336.537135371
337.750496397
338.932234733
340.082149982
341.200081974
342.285907242
343.339535782
344.360907879
345.34999304
346.306788373
347.231318735
348.123636789
348.983823721
349.811990504
350.608279551
351.372865736
352.105958244
352.807801706
353.478677281
354.1189034
354.728835449
355.308865361
355.859420822
356.380963522
356.873986385
357.339010798
357.776582965
358.187269774
358.571654185
358.930330177
359.263897502
359.572956106
359.858100538
360.119914304
360.358964331
360.57579566
360.770926452
360.944843167
361.097996565
361.230797272
361.34361246
361.436764079
361.510523985
361.565110181
361.600613563
361.617872341
267.807265348
267.935679184
268.197815154
268.595581112
269.123314316
269.774690577
270.542469806
271.41883223
272.395690059
273.464949306
274.618710494
275.84940781
277.149892653
278.513471042
279.933906399
281.405398436
282.92254778
284.480313534
286.073969331
287.699061238
289.351369897
291.026878023
292.721743841
294.432280881
296.154943975
297.886321141
299.623130364
301.362220559
303.100574935
304.835315881
306.563709222
308.283169828
309.991265861
311.685719281
313.364407457
315.025363032
316.666771928
318.286970716
319.884442263
321.457810861
323.005836094
324.527406493
326.02153206
327.487337131
328.924052294
330.331006757
331.707620181
333.053395111
334.367908911
335.650806554
336.901793066
338.12062688
339.307113204
340.46109822
341.582464368
342.671126653
343.727028169
344.750138258
345.740450874
346.697983602
347.622777957
348.514900413
349.374443322
350.201527505
350.996304016
351.758956397
352.489703336
353.188800358
353.85654186
354.493261769
355.099334063
355.675173081
356.221232525
356.738003412
357.226011853
357.685815866
358.118001472
358.523178202
358.901973986
359.255029647
359.582992989
359.886512707
360.166232113
360.422783009
360.656779279
360.868811372
361.059440624
361.22919392
361.378559124
361.507980762
361.617856343
361.708531412
361.780298675
361.833395993
361.867922739
361.884703602
266.352196406
266.49118335
266.774595401
267.20391533
267.772221164
268.471761876
269.293778358
270.228951186
271.267800553
272.401007585
273.619645945
274.915327751
276.280275488
277.707336452
279.189956736
280.7221305
282.298336792
283.913473174
285.562791878
287.241842139
288.946420187
290.672527755
292.41633907
294.174176534
295.942494691
297.717871964
299.497009108
301.276732691
303.054001761
304.825915443
306.589720222
308.342817577
310.082769384
311.807298851
313.514293219
315.201803251
316.86804164
318.511379419
320.130341471
321.723600478
323.289970437
324.828398785
326.337958695
327.817840332
329.267342509
330.685863603
332.072893163
333.42800295
334.750838696
336.041111596
337.298590635
338.523094441
339.714484309
340.872658351
341.997546152
343.089103659
344.147310091
345.172165248
346.163688487
347.12191735
348.04690966
348.938744165
349.79752248
350.623373027
351.416453214
352.176953205
352.905099081
353.601155849
354.265429644
354.898269416
355.500068285
356.071263957
356.612337398
357.123811619
357.606249066
358.060248261
358.486439542
358.885480114
359.258048413
359.604837912
359.926550605
360.223890064
360.497554779
360.748230639
360.976584531
361.183257876
361.368860295
361.533963808
361.679098039
361.80474469
361.911333647
361.999240688
362.068781537
362.12020776
362.153639828
362.169887978
264.74554813
264.897278309
265.206253862
265.673313751
266.289851765
267.046234302
267.931737259
268.935146615
270.045271665
271.251335987
272.543237829
273.911691589
275.348272713
276.845392283
278.396227203
279.994627221
281.63501505
283.312289757
285.021739659
286.758967011
288.519825254
290.300368152
292.096810454
293.905499651
295.722898518
297.545577908
299.37021825
301.193617662
303.012703539
304.824543746
306.626359466
308.415534804
310.189621257
311.946342183
313.683594665
315.39944968
317.09214975
318.760105243
320.401888633
322.016227996
323.601998879
325.158216014
326.684023791
328.178687149
329.641581539
331.072183556
332.47006094
333.834863445
335.166313123
336.464195727
337.72835151
338.958666172
340.155063627
341.317499907
342.445955187
343.54043033
344.600942938
345.627525105
346.620221329
347.579089153
348.504201041
349.395645477
350.253530953
351.077990164
351.869183722
352.627305054
353.352584809
354.045295106
354.705752111
355.334318975
355.931407788
356.497479893
357.033045396
357.53866178
358.014931236
358.462496981
358.882038621
359.274266637
359.639916088
359.979739631
360.294500274
360.584963543
360.851889666
361.096025605
361.318097778
361.518804743
361.698810063
361.85873624
361.999158858
362.120601471
362.223531437
362.308353779
362.375410552
362.424978627
362.457190485
362.472841139
262.973507492
263.140749429
263.480727834
263.993300664
264.667578706
265.491416258
266.451528745
267.534300041
268.726439327
270.015449644
271.389907266
272.839578268
274.355410757
275.929444872
277.55467773
279.224912476
280.934610748
282.678759879
284.452759474
286.252327883
288.073426728
289.912201381
291.764935537
293.628019459
295.497931786
297.371234776
299.244581214
301.114729698
302.978563948
304.833110118
306.675555136
308.503258886
310.313759103
312.104777024
313.874219913
315.620180743
317.340935972
319.034940525
320.700821449
322.337369699
323.943531258
325.518396892
327.061192046
328.571265717
330.04808003
331.491199075
332.90027863
334.275055397
335.615337168
336.92099272
338.191942145
339.428146311
340.629598937
341.796319662
342.928344036
344.025720482
345.088508317
346.116772923
347.110585019
348.070020245
348.995162857
349.886108559
350.742968484
351.565874971
352.354987592
353.110498959
353.832640702
354.521688113
355.177965103
355.80184738
356.393765204
356.954204358
357.483705476
357.982863162
358.452322998
358.892777516
359.304961083
359.689643677
360.047623964
360.379721187
360.686766887
360.969596179
361.229038883
361.4659108
361.681005073
361.875084243
362.048872072
362.203047143
362.338236576
362.455009887
362.553874113
362.635271376
362.699572114
362.747070923
362.777926573
362.79291703
261.019283405
261.205642625
261.583649174
262.151664173
262.895652272
263.80007927
264.848300522
266.023647168
267.310259913
268.693635973
270.160904665
271.70088226
273.303971526
274.96197035
276.667842978
278.415491043
280.199547073
282.015200074
283.858055075
285.724022535
287.609232366
289.509967167
291.422611561
293.343616932
295.269483015
297.196757378
299.122050814
301.042064157
302.953618931
304.853684348
306.739401278
308.60809782
310.457293
312.284703821
314.088247501
315.866041748
317.616401364
319.337832532
321.029024566
322.688840659
324.316306787
325.910600499
327.471038576
328.997065284
330.488239794
331.944224688
333.364773818
334.749721385
336.098970354
337.412482291
338.690267888
339.932372933
341.138865501
342.309834731
343.445375934
344.545592635
345.610590788
346.640469598
347.635323249
348.595242751
349.520322342
350.410659414
351.266361281
352.087555659
352.874394144
353.627063974
354.345791527
355.030851448
355.682572368
356.301339742
356.887601464
357.441867649
357.96471084
358.456765573
358.918724936
359.351335838
359.755393563
360.13173479
360.481229445
360.804771505
361.103269725
361.37763779
361.628784004
361.857601359
362.064958054
362.251687907
362.418581913
362.5663812
362.695769447
362.807367461
362.90172785
362.979328426
363.040571717
363.085783113
363.115136666
363.1293917
258.862220293
259.072492271
259.497783747
260.134142793
260.963128961
261.964587164
263.11743803
264.401131506
265.796689327
267.28731624
268.85862541
270.498569886
272.197186845
273.946252775
275.738923149
277.569402734
279.432669066
281.324254487
283.240081286
285.176339423
287.129394693
289.095717984
291.071829929
293.054261495
295.039534605
297.024167722
299.004704597
300.977758871
302.940062111
304.888505014
306.82016914
308.732341506
310.62251759
312.488407288
314.327938152
316.139255395
317.920718187
319.670891652
321.388537087
323.072600302
324.722199071
326.336609281
327.915251547
329.457677049
330.963554385
332.432655907
333.864845276
335.260064855
336.61832364
337.939687391
339.224271331
340.472201516
341.683632543
342.858744564
343.997702837
345.100665913
346.167782281
347.199185137
348.19499121
349.155306296
350.080227185
350.969846784
351.824263738
352.643592209
353.427969967
354.177571171
354.892608946
355.573352984
356.220130988
356.833336211
357.413432232
357.960952997
358.47650473
358.960765226
359.414479015
359.838453155
360.233551043
360.600683991
360.940801682
361.254882629
361.54392282
361.808924468
362.050884247
362.270782153
362.469570285
362.648162182
362.807423961
362.948165993
363.071134883
363.177007383
363.266384054
363.339787404
363.397654074
363.440330789
363.468023153
363.481469523
256.476538341
256.717262064
257.202296016
257.924067431
258.857859482
259.97715677
261.255004374
262.665930482
264.187216469
265.799529022
267.487010673
269.236985843
271.039455184
272.88652421
274.77186466
276.690260027
278.6372524
280.608884831
282.601522156
284.611727818
286.636175813
288.671580689
290.714638002
292.761976967
294.810136576
296.855579259
298.894739555
300.9240977
302.940253565
304.939992067
306.920320546
308.878476027
310.811926048
312.718370903
314.595748084
316.442234496
318.256240886
320.036401333
321.781560302
323.490759209
325.163220687
326.798333027
328.395633984
329.954795623
331.475608699
332.957968557
334.401860618
335.807348417
337.17455881
338.503660674
339.794878449
341.048460985
342.264677538
343.443783755
344.586012473
345.691582875
346.76068957
347.793499648
348.790154258
349.750769434
350.675436952
351.564238607
352.417254537
353.234578069
354.016322953
354.762637506
355.473716609
356.149816534
356.791258238
357.398439127
357.971834938
358.512004475
359.019588876
359.495311978
359.939974689
360.35445149
360.73968121
361.096658885
361.426424533
361.730051776
362.008635271
362.263277255
362.4950742
362.705104122
362.894412993
363.064003795
363.214826151
363.347766969
363.463641839
363.563189203
363.647064481
363.715832527
363.769968146
363.809854103
363.835714286
363.848263918
253.829505741
254.109847015
254.671789684
255.501978024
256.566604378
257.830338321
259.258437327
260.819231378
262.485607421
264.235569308
266.052045838
267.922207399
269.836568323
271.788090934
273.771414348
275.782255726
277.816983494
279.872335998
281.945248658
284.032750606
286.1318957
288.239701767
290.35308451
292.468792989
294.583370323
296.693176494
298.794467835
300.883517767
302.956736487
305.010766497
307.042525937
309.049200405
311.028227459
312.977293664
314.894345572
316.7775965
318.625519115
320.436828698
322.21046694
323.945585753
325.641528752
327.297811978
328.91410634
330.49021942
332.026079067
333.52171709
334.97725557
336.392894614
337.768854821
339.105432283
340.40304281
341.662056563
342.882829837
344.065700804
345.210986022
346.318970625
347.38990168
348.423980994
349.421372252
350.382191464
351.306520518
352.194418949
353.045941859
353.86114381
354.640103267
355.382932936
356.08979748
356.760929511
357.396638688
357.997319484
358.563457987
359.095636028
359.594531246
360.060917192
360.49565748
360.899700631
361.274070376
361.61985605
361.938199676
362.23028262
362.497311067
362.740500831
362.961061263
363.160180662
363.339010643
363.49865414
363.640153561
363.764479921
363.872525454
363.965095199
364.042901535
364.106561937
364.156590834
364.193395723
364.217237311
364.228804324
250.878702242
251.211941514
251.875067868
252.845280298
254.075399102
255.517856757
257.127636786
258.865364949
260.698933879
262.603819922
264.562363013
266.56243152
268.595923179
270.657418343
272.743123007
274.850121342
276.975898378
279.118069827
281.274253248
283.442018299
285.618862811
287.802172425
289.989143059
292.176676812
294.361298577
296.539190526
298.70631787
300.858631123
302.992263613
305.103673312
307.189685201
309.247446238
311.274366377
313.268111074
315.226630368
317.14818098
319.03131222
320.874836937
322.677810447
324.439513719
326.159429718
327.837220754
329.47270796
331.065851639
332.616732133
334.12553456
335.5925355
337.018038915
338.402377868
339.746083777
341.049778804
342.313898865
343.538893936
344.725213783
345.873273986
346.983429503
348.055984212
349.09117698
350.089184315
351.050118827
351.97404433
352.860987319
353.710955563
354.523955405
355.300012559
356.039186496
356.741600789
357.4074548
358.037036662
358.630730355
359.189030587
359.712540581
360.201976036
360.658164061
361.08203698
361.474625794
361.837050203
362.170505814
362.476250026
362.755586674
363.009848998
363.240381625