/*--------------------------------*- C++ -*----------------------------------*\
| =========                 |                                                 |
| \\      /  F ield         | OpenFOAM: The Open Source CFD Toolbox           |
|  \\    /   O peration     | Version:  v1906                                 |
|   \\  /    A nd           | Web:      www.OpenFOAM.com                      |
|    \\/     M anipulation  |                                                 |
\*---------------------------------------------------------------------------*/
FoamFile
{
    version     2.0;
    format      ascii;
    class       volScalarField;
    location    "17";
    object      p;
}
// * * * * * * * * * * * * * * * * * * * * * * * * * * * * * * * * * * * * * //

dimensions      [0 2 -2 0 0 0 0];


internalField   nonuniform List<scalar> 
9216
(
310.466795982
310.648331626
311.04565959
311.647272082
312.420665302
313.382500904
314.536567274
315.828342685
317.278316529
318.918767622
320.70754386
322.565321438
324.443017295
326.388035018
328.369750697
330.368777459
332.445721788
334.655578052
336.979372118
339.344342291
341.712617679
344.029204208
346.264806582
348.446713888
350.598567705
352.73023612
354.699983513
356.500032633
358.325172276
360.275815367
362.28957549
364.235130354
366.126546587
368.060580334
370.040231462
372.062142201
374.12257581
376.177124104
378.218881931
380.279162867
382.359789198
384.390643635
386.35865051
388.304218441
390.225546976
392.121566577
393.992246793
395.835108172
397.649486299
399.432773324
401.184511428
402.902525741
404.586686821
406.235053646
407.847649147
409.421946827
410.956659385
412.469897766
413.967466087
415.426224763
416.845433005
418.225845631
419.569503285
420.877218422
422.148156789
423.369423315
424.538964592
425.682031427
426.806150809
427.880657521
428.907672793
429.915225056
430.901042863
431.858367831
432.781266616
433.666451263
434.511509261
435.316457099
436.083363533
436.813108344
437.500614828
438.15174787
438.764335528
439.335269347
439.861501899
440.335255498
440.775435189
441.204078356
441.590080023
441.904761863
442.135215062
442.308788046
442.448651401
442.550641884
442.616312508
442.645733717
310.291225301
310.468029005
310.854555114
311.448637727
312.240466533
313.240814723
314.415250527
315.695765452
317.122193454
318.728968487
320.472634335
322.322318469
324.268523614
326.33648403
328.344271799
330.297037078
332.332367387
334.552444238
336.948176401
339.369279606
341.792740389
344.126186242
346.331462772
348.481516325
350.621154454
352.725661562
354.738635396
356.581799624
358.39737642
360.319787218
362.250614315
364.198180784
366.121069979
368.036039005
370.017508819
372.036754343
374.081008512
376.132233647
378.193638653
380.238444523
382.280218981
384.325813044
386.333353052
388.298583204
390.232125606
392.138767682
394.017130171
395.867055606
397.68639426
399.474449993
401.229374773
402.950877836
404.637160717
406.28803625
407.902588587
409.481667034
411.026035004
412.542580895
414.03127213
415.486206168
416.904236589
418.28539189
419.629124568
420.93603047
422.204724196
423.432241938
424.618429514
425.7724061
426.897130759
427.964921011
428.972352829
429.967477566
430.948617633
431.903955953
432.826016041
433.710658348
434.555170739
435.350429401
436.115620156
436.852055308
437.536585116
438.187864219
438.803852293
439.37642315
439.906870406
440.381944362
440.816914225
441.225210734
441.600865528
441.925022517
442.160456531
442.334918712
442.475096133
442.57894598
442.644057389
442.673767646
309.908880421
310.082058597
310.474088527
311.074382524
311.868626446
312.871302559
314.064779342
315.379675493
316.811350008
318.433946631
320.175985985
322.01135949
323.968498154
326.017379489
328.100689189
330.182208427
332.358079696
334.611045643
336.90774675
339.284051396
341.683599811
344.054211422
346.348246166
348.56077302
350.715580719
352.831879207
354.769100546
356.539650979
358.362930365
360.221225063
362.101144008
364.019614095
365.949685285
367.920147485
369.923219149
371.955975024
374.008112811
376.071057551
378.138154078
380.205546335
382.278617725
384.342462987
386.365295073
388.346357433
390.292972652
392.20906663
394.095140571
395.951153463
397.775714798
399.567610142
401.325136034
403.047900302
404.73487207
406.385507222
408.000092679
409.580140829
411.126718424
412.642541809
414.127529905
415.579281801
416.995649387
418.375929596
419.71936937
421.025716606
422.293958884
423.522963867
424.712134919
425.862832291
426.976663494
428.040071588
429.061729293
430.066367931
431.05090044
432.007335548
432.929774294
433.814786086
434.660292189
435.465603306
436.233176909
436.960418367
437.648087958
438.300051057
438.912685826
439.482784132
440.006580308
440.476683137
440.896746563
441.277034563
441.633772003
441.968693093
442.218299059
442.394960572
442.534478175
442.642379264
442.711135985
442.744544464
309.317823387
309.486027805
309.875876842
310.487363585
311.304082809
312.340857443
313.549111529
314.882230407
316.343036519
317.949381324
319.715870371
321.611499062
323.636615915
325.719432199
327.776555234
329.883352255
332.118409098
334.43592202
336.800318506
339.224935783
341.666630101
344.097431173
346.439794133
348.685340888
350.800150989
352.751670949
354.561101316
356.292457731
358.0806125
359.950971957
361.86570798
363.827228687
365.821297357
367.838592839
369.875968106
371.932164596
374.0023344
376.081138595
378.163915949
380.248673312
382.333760865
384.405261575
386.442815784
388.441391714
390.403926637
392.333086238
394.229668452
396.093901599
397.924995732
399.72191068
401.482798345
403.206549148
404.892957263
406.542116301
408.154827592
409.732939192
411.277668236
412.790340238
414.270996529
415.718611614
417.131877878
418.509956886
419.852046909
421.157537374
422.425455274
423.655152087
424.845682539
425.996289911
427.107074836
428.174377495
429.205498952
430.213113769
431.197274329
432.152734183
433.074481298
433.959102863
434.804490653
435.610026029
436.375443119
437.101122652
437.788377515
438.437460088
439.045440996
439.60973363
440.128994462
440.599087393
441.022712376
441.408714237
441.758477108
442.059644225
442.305987368
442.499054301
442.646324907
442.754549591
442.816764432
442.84894772
308.512725582
308.678960025
309.071149802
309.687560903
310.519067988
311.567467272
312.841658186
314.227668451
315.690820325
317.332333025
319.143784723
321.117814664
323.160581976
325.197765197
327.290294861
329.502789337
331.828375138
334.23382438
336.672750559
339.167231202
341.627601759
344.039364064
346.461507382
348.700819796
350.707489425
352.461519948
354.159748153
355.936098441
357.786024655
359.704762612
361.671834575
363.680546168
365.721701656
367.783649911
369.86062708
371.949515372
374.046532862
376.147384748
378.248120128
380.346122106
382.438170929
384.51444164
386.562130488
388.575098146
390.553038246
392.496605013
394.405552448
396.279807637
398.118817192
399.921649881
401.686474305
403.411611343
405.09736494
406.744351682
408.353602644
409.92744973
411.467497526
412.974908485
414.450013359
415.892424494
417.30136686
418.676063622
420.015708216
421.319535584
422.586652184
423.816321826
425.0077152
426.16018885
427.273692856
428.347511259
429.385843575
430.39599028
431.379362175
432.333072299
433.253330698
434.13704013
434.982068459
435.787342377
436.552322927
437.277383956
437.963134731
438.609062502
439.213121497
439.773213387
440.288416124
440.757145886
441.181534109
441.565429171
441.909532176
442.208937512
442.457416901
442.654027471
442.805889566
442.907292784
442.960446804
442.987176917
307.466884202
307.637067412
308.03552277
308.664632761
309.516602457
310.581856704
311.861890368
313.338385816
314.880857293
316.560959976
318.434597979
320.456929711
322.481600281
324.520461085
326.711287175
329.040877803
331.488249944
334.010974576
336.478757728
338.940782023
341.447028427
343.955804323
346.44735183
348.606602411
350.336571223
351.994170676
353.745191295
355.581687851
357.494639935
359.467856329
361.487575829
363.545388266
365.63255478
367.739045439
369.857700939
371.983601227
374.112455533
376.240014265
378.362411328
380.476441414
382.578397985
384.661638601
386.718446029
388.743643675
390.735404781
392.692844703
394.614373245
396.499099684
398.346481454
400.155420192
401.924238052
403.650914688
405.33555552
406.979322168
408.583762496
410.151478548
411.68473309
413.185085003
414.65328328
416.089364918
417.492900215
418.863224282
420.199557228
421.501078554
422.766943282
423.996405276
425.188816674
426.343741385
427.461123586
428.541028129
429.58579405
430.59934696
431.583072768
432.535597841
433.45439298
434.336981161
435.181423973
435.986472291
436.75140509
437.476121637
438.160660811
438.804389599
439.405906159
439.963776144
440.477290697
440.945741405
441.370221244
441.752794239
442.0939162
442.390566427
442.640063966
442.844656603
443.00022418
443.093020031
443.147396603
443.165580742
306.163431041
306.352568614
306.76478508
307.414772776
308.299158128
309.384524231
310.693134881
312.230258973
313.865172467
315.637146559
317.616681726
319.591958236
321.593200462
323.729618446
326.02632662
328.490476267
331.070250835
333.609772831
336.107735257
338.671752857
341.28280585
343.914547837
346.343646291
348.156159149
349.773827722
351.487210648
353.303348154
355.208138631
357.183887753
359.215676262
361.29136968
363.401683615
365.537834058
367.690834587
369.853138896
372.018792198
374.18284525
376.340760827
378.488525371
380.62265868
382.739471376
384.834304347
386.902544875
388.940432921
390.945699587
392.916684231
394.850737051
396.746043738
398.601975325
400.417099368
402.189875766
403.917973168
405.600751217
407.240331086
408.838966964
410.39912324
411.92401678
413.415889119
414.875987098
416.304721089
417.701917339
419.067029638
420.399319003
421.697960355
422.962133031
424.191107436
425.384300213
426.541317635
427.662052285
428.746682661
429.796446138
430.813299674
431.798135673
432.750280592
433.668109313
434.549768929
435.393622613
436.198435204
436.963365978
437.687970927
438.371928854
439.014606834
439.615012234
440.172161774
440.685448766
441.154452616
441.579729032
441.962402362
442.30275436
442.598767276
442.847990174
443.053221861
443.209362919
443.306577858
443.354779675
443.368728953
304.630181534
304.82748816
305.25255965
305.922172146
306.817322454
307.964105246
309.316638764
310.925216519
312.655038974
314.553183735
316.566322615
318.565238255
320.624029588
322.828165173
325.213424602
327.823093442
330.455095138
333.041722932
335.685381508
338.388989584
341.12767619
343.848276057
345.838452246
347.457307975
349.141781134
350.930792683
352.821939812
354.797414994
356.839891587
358.935241482
361.07162887
363.239127737
365.428693638
367.631725693
369.840614448
372.048928466
374.251281694
376.442848126
378.619460916
380.777608163
382.913859609
385.024866508
387.107911098
389.160420888
391.180173673
393.165151574
395.111988981
397.018178109
398.882880149
400.704329669
402.480959781
404.210324895
405.891041808
407.525859531
409.117635685
410.66909465
412.18447091
413.666776575
415.117800417
416.538314991
417.928366406
419.287516543
420.615063339
421.910181708
423.172045268
424.399905343
425.593153874
426.751350872
427.874288101
428.962018742
430.015103667
431.034413303
432.020353682
432.972483347
433.889702089
434.770628046
435.613915709
436.41842745
437.183286044
437.90786878
438.591664967
439.234056608
439.834282558
440.391607906
440.905501736
441.375630103
441.802173937
442.185626723
442.52605904
442.822034719
443.071416432
443.275589833
443.418892661
443.534444824
443.568374307
443.580628095
302.850545318
303.054509547
303.495639124
304.198019056
305.104688016
306.281149563
307.699343426
309.387676745
311.208863604
313.20351417
315.326131143
317.413941862
319.584210188
321.874308342
324.282516906
326.916958541
329.655462419
332.417743354
335.231321171
338.097249309
340.985382518
343.337226379
345.057650331
346.69364714
348.449894067
350.320270549
352.291405855
354.342648338
356.457607777
358.622357571
360.824876256
363.054715775
365.302527146
367.55975596
369.818788613
372.072999901
374.31677659
376.545125131
378.753836233
380.939495858
383.099055094
385.230165456
387.331365588
389.400923057
391.436817971
393.436810441
395.39710024
397.314723218
399.188520155
401.016506701
402.797023963
404.527590276
406.20632243
407.836029801
409.420067269
410.962031626
412.467099815
413.93906889
415.380286796
416.791888018
418.174121865
419.526645691
420.848780539
422.139686997
423.398502972
424.624427158
425.816782346
426.975041248
428.098866813
429.188124556
430.242942356
431.263582692
432.25009015
433.202053889
434.118641646
434.998780118
435.841355711
436.645349098
437.40990156
438.13432055
438.818011884
439.460372377
440.060762038
440.618575223
441.133325244
441.604666734
442.032508903
442.416932057
442.757841333
443.054149753
443.303413312
443.504976954
443.652941995
443.788555302
443.797121191
443.807728141
300.815565655
301.022734376
301.478156715
302.208279629
303.157304107
304.355965129
305.832727304
307.604396117
309.518181658
311.558565691
313.82736318
316.078868626
318.304547188
320.669364336
323.232299931
325.977655373
328.838358948
331.764368817
334.751555075
337.788344468
340.57390296
342.532787175
344.141803833
345.854099831
347.693741314
349.651677034
351.707834175
353.841498448
356.035877279
358.276611191
360.551235884
362.848860136
365.159869302
367.475657057
369.788621961
372.092093362
374.380384701
376.648483104
378.892256854
381.108503133
383.294630125
385.449151389
387.571526183
389.660600785
391.714506826
393.730826956
395.705508847
397.635238019
399.518561239
401.353366949
403.137890187
404.869581111
406.546244725
408.170540773
409.746353938
411.278371392
412.772668285
414.233826709
415.664758696
417.066955903
418.440861415
419.786214921
421.102347503
422.388389056
423.643421769
424.866571584
426.057072406
427.214292236
428.33775776
429.427151607
430.482310656
431.503138863
432.489433887
433.440746899
434.356370773
435.235419963
436.076949353
436.880049098
437.643905369
438.367814593
439.051156296
439.693340339
440.293787504
440.851953708
441.36736658
441.839637776
442.268503502
442.653819427
442.995449718
443.292686025
443.543554475
443.748295488
443.910890791
444.046179573
444.042895035
444.051213134
298.532728596
298.726421098
299.191340706
299.934725033
300.915562109
302.154145457
303.699012239
305.576868627
307.638667416
309.70331235
311.998136566
314.372646297
316.784871544
319.289605956
322.021898354
324.926172391
327.952410181
331.066496028
334.240823213
337.40268747
339.803798841
341.495741841
343.134247478
344.927947173
346.862051329
348.917310911
351.067876463
353.292900015
355.574920163
357.898978735
360.252164853
362.623254709
365.002479291
367.381203083
369.7519023
372.107958257
374.443733559
376.754338459
379.035839341
381.285361771
383.500845011
385.681588958
387.827790789
389.938689323
392.01247489
394.046535905
396.036619295
397.979159046
399.872514634
401.714428823
403.50300717
405.235649647
406.909976313
408.528558396
410.095891326
411.617757895
413.101071036
414.551190576
415.971581516
417.364081713
418.729315448
420.067093147
421.37674434
422.657357291
423.907947246
425.127558527
426.315329524
427.470520136
428.592527113
429.680874484
430.735194077
431.75516427
432.740415362
433.690446339
434.6046029
435.48211038
436.322140409
437.123874259
437.88655039
438.609482351
439.292050745
439.93367784
440.533812778
441.091934949
441.607562577
442.080251917
442.509608197
442.895312998
443.237130918
443.534465905
443.785417836
443.989901464
444.156965816
444.281979129
444.288094992
444.298815764
295.894192479
296.162165792
296.647908111
297.369124421
298.37008711
299.651125673
301.266050393
303.252992225
305.473923298
307.727974147
310.090484542
312.433362941
314.949531137
317.686631491
320.629789067
323.737993917
326.977860369
330.318372857
333.677366843
336.648507109
338.641182876
340.249214953
341.997694069
343.901202934
345.947514627
348.112689567
350.36967395
352.696740612
355.075695112
357.491075903
359.929662704
362.380078413
364.832552628
367.278523281
369.710644691
372.122470595
374.508517167
376.864151638
379.185751458
381.470907166
383.718161143
385.927560484
388.099920528
390.234732818
392.330148542
394.383311867
396.389767337
398.34580831
400.249699899
402.098985248
403.891582147
405.624847847
407.29639495
408.908914689
410.46759812
411.979243019
413.451526992
414.890560782
416.300337436
417.683017488
419.039389551
420.369320887
421.672130613
422.946858174
424.192448005
425.407860918
426.592141547
427.744446777
428.864056972
429.950364391
431.002851168
432.021044366
433.004459008
433.952545365
434.864668361
435.740117991
436.578145942
437.378005143
438.1389848
438.860426459
439.541724958
440.182314954
440.781659815
441.339244059
441.854567341
442.327130822
442.756431382
443.141990108
443.483393716
443.779916219
444.029337042
444.229765311
444.386466033
444.461597896
444.525902017
444.549178916
292.792176437
293.177680782
293.702700522
294.471672448
295.495159385
296.817777196
298.497806954
300.580587826
302.925259003
305.342867329
307.876838901
310.340380421
312.952254836
315.889145101
319.055887925
322.406132995
325.901273775
329.486383395
332.905220338
335.30097613
337.072338626
338.83411134
340.723212776
342.762743878
344.942624241
347.234737167
349.612470189
352.05366951
354.539727099
357.054947802
359.586056902
362.121757817
364.652473192
367.169872556
369.666924548
372.137479349
374.576360351
376.979297036
379.343092228
381.665951789
383.947090198
386.187288872
388.38787957
390.54847607
392.667101278
394.740595408
396.764280036
398.73443915
400.649276689
402.506146577
404.302679329
406.036074316
407.70423931
409.310283421
410.860161894
412.361567179
413.822875651
415.250906223
416.65013632
418.023014372
419.370467954
420.6924056
421.988127036
423.256619507
424.496756697
425.70741949
426.887565279
428.036258286
429.152678619
430.236111757
431.285927722
432.301547517
433.282404434
434.227908877
435.13742993
436.010296348
436.845814727
437.643293884
438.402068157
439.12151083
439.801037064
440.440096816
441.038165049
441.594730655
442.109282871
442.581293021
443.010201123
443.395443272
443.736519496
444.0327132
444.281867266
444.480858872
444.63173053
444.697522918
444.803848369
444.821812966
289.268902019
289.653652058
290.312640299
291.237404686
292.281709205
293.633402891
295.367867596
297.529427381
299.94983893
302.50646844
305.217636705
307.873990745
310.672077463
313.846708251
317.276587226
320.906105655
324.657349092
328.226938444
331.43629914
333.630095801
335.376462596
337.268654701
339.311673279
341.510225709
343.844599899
346.282355536
348.796656258
351.365129342
353.969115561
356.593062072
359.223963575
361.850908584
364.464730396
367.057555312
369.622812624
372.154777501
374.648775793
377.101017955
379.508848544
381.871234243
384.188129094
386.46105129
388.691732222
390.879778199
393.023009123
395.117897458
397.159506152
399.144267985
401.070318996
402.934884266
404.735192956
406.468099851
408.132169923
409.731268021
411.272164643
412.763315615
414.213761253
415.630966361
417.01983168
418.38304422
419.721638296
421.035544328
422.324034485
423.586041952
424.820373371
426.025836236
427.201310832
428.345781303
429.45834465
430.538201165
431.584636583
432.596995207
433.574651958
434.516986048
435.423365666
436.293143586
437.12566573
437.92028438
438.676373713
439.39333883
440.07061954
440.707685364
441.304028268
441.859150833
442.372552962
442.843714774
443.272088568
443.657136047
443.998420809
444.295454271
444.546809396
444.750362408
444.905839383
444.966212958
445.096963337
445.107400782
285.349634202
285.636197766
286.41822277
287.577477919
288.757578103
290.09638699
291.856919457
294.075178867
296.469552984
299.15024283
302.067520164
304.988974146
308.049460887
311.521390541
315.257068272
319.173754386
323.004665027
326.617524434
329.45025295
331.50684492
333.430468667
335.509560125
337.747581053
340.13766711
342.651416857
345.255732334
347.923774496
350.633462734
353.366633256
356.108354137
358.846303892
361.57030436
364.271874827
366.943850579
369.580299592
372.176058107
374.727146673
377.230398936
379.683857349
382.087378303
384.441712578
386.749106198
389.011546105
391.22849653
393.397549338
395.514734118
397.574796014
399.574463938
401.51180441
403.384020563
405.187816344
406.919560165
408.578763813
410.170400034
411.702100681
413.182969319
414.622711093
416.029352509
417.408135291
418.761923702
420.091819211
421.397753284
422.678962122
423.934325459
425.162588455
426.36249472
427.532859096
428.672599959
429.780747554
430.856436345
431.898888847
432.907394146
433.881285185
434.819918602
435.722660488
436.588880521
437.417953738
438.209267773
438.962231488
439.676281581
440.350884936
440.985536001
441.579750926
442.13305874
442.644990692
443.115070692
443.542816444
443.927787158
444.269687085
444.568254347
444.822489822
445.030411704
445.189511567
445.263463894
445.405082151
445.405525232
280.897859875
281.164664211
281.91933915
283.205420143
284.728882894
286.220123535
287.986071741
290.343298249
292.766954329
295.390843695
298.325117104
301.621601035
305.036288628
308.875762348
312.921240415
316.928980601
320.880124727
324.414201457
326.940890406
329.044613677
331.223994087
333.545094016
336.023979978
338.642248141
341.363691449
344.157133183
346.996924965
349.862148688
352.735838758
355.604273688
358.456292736
361.282855674
364.076463646
366.830932078
369.541196245
372.202810834
374.812652476
377.368332819
379.868772024
382.314853137
384.708152783
387.051635055
389.347329142
391.594410464
393.790274417
395.930466683
398.009427912
400.024173744
401.972652778
403.85220538
405.6590283
407.388916363
409.04245069
410.626060788
412.148323223
413.618890721
415.048156097
416.444589899
417.813673372
419.158377041
420.479827533
421.77793607
423.051896582
424.300537554
425.522550916
426.716627275
427.881529521
429.016124581
430.11939215
431.190417434
432.228377403
433.232521819
434.20215488
435.136617629
436.035275783
436.897511993
437.722724931
438.510331367
439.259771432
439.970511889
440.642048559
441.273904032
441.865624684
442.416774243
442.926928678
443.395673382
443.822616853
444.207453375
444.550080491
444.850524897
445.108243714
445.322028906
445.492900063
445.601754588
445.720506622
445.711803642
275.88690373
276.212275686
276.971616454
278.220437812
279.899035631
281.719969503
283.643880533
286.128481149
288.766345738
291.524862101
294.36277438
297.76638326
301.598551783
305.867857256
310.04436606
314.125403926
318.259438192
321.512554715
323.961581741
326.288819165
328.763009897
331.383443675
334.148598155
337.02870597
339.986203415
342.991554409
346.021100488
349.055955822
352.081135383
355.084765153
358.057387704
360.991514808
363.880972803
366.720806622
369.507057542
372.236207425
374.906150439
377.515423365
380.064006731
382.553922175
384.987599026
387.368646462
389.69892485
391.97725779
394.200638352
396.364262379
398.462510408
400.492423354
402.451805897
404.337994427
406.146978006
407.874374857
409.521408058
411.096410423
412.608994811
414.06931635
415.48844985
416.875148834
418.23502082
419.571071751
420.884413622
422.174919638
423.441737485
424.683649595
425.899304378
427.087352356
428.246518226
429.375632497
430.473639097
431.539589429
432.572629164
433.571982253
434.536934142
435.466817192
436.360998594
437.218873068
438.039858993
438.823398677
439.568959865
440.276038075
440.944157435
441.572869968
442.161753335
442.710407755
443.218453332
443.685533024
444.111331043
444.495638663
444.838475863
445.14001311
445.399767139
445.615968883
445.788711332
445.910222324
446.021982167
446.01791304
270.471802846
270.812132459
271.583779486
272.836606934
274.519723712
276.599981358
278.773722102
281.287044391
284.055058306
287.02712464
290.052230146
293.529595257
297.659767047
302.169942951
306.630990216
310.863703188
314.851110145
317.89499339
320.498104121
323.200836671
326.044370541
329.027684166
332.127808935
335.305624898
338.527388985
341.766765243
345.003238425
348.220947789
351.407714185
354.554187911
357.65317487
360.699141112
363.687636476
366.615184324
369.479082559
372.277041737
375.008108016
377.671887711
380.269648776
382.804584669
385.279970485
387.699907425
390.065981939
392.376548342
394.627932608
396.815173511
398.932837804
400.977962525
402.9480336
404.83997242
406.649741292
408.373531378
410.013571631
411.579650473
413.082229195
414.532476356
415.941956194
417.31950158
418.670738298
419.998644146
421.304281926
422.587472116
423.847315193
425.082554268
426.291805993
427.473694127
428.626919963
429.750291777
430.842732353
431.903272523
432.931039684
433.92524253
434.885156856
435.810111584
436.699478414
437.552663439
438.369103096
439.14826175
439.889632282
440.592736098
441.257124221
441.882375898
442.46809798
443.013922186
443.519504618
443.984528538
444.408722837
444.791923506
445.134186276
445.43572918
445.69609373
445.912827934
446.08378818
446.207634568
446.318627319
446.320949132
264.611978858
264.954757429
265.72990199
266.982087178
268.628666562
270.798449415
273.186927362
275.745959135
278.492317459
281.733807586
285.009126477
288.716476924
293.223479503
297.841071729
302.397952306
306.662014369
310.379692355
313.596682873
316.629400603
319.800697885
323.09651009
326.501311607
329.97812036
333.48729006
336.99961037
340.493263811
343.952100241
347.364309225
350.721365634
354.017114664
357.247182771
360.408359197
363.498290615
366.515263837
369.457958349
372.325604588
375.118516619
377.8375271
380.485421636
383.066513912
385.584896479
388.044944082
390.447875729
392.791431379
395.07124943
397.282102468
399.418984317
401.479113782
403.459564962
405.356499296
407.16554232
408.884261585
410.516761132
412.073576726
413.566172773
415.006717371
416.407106637
417.776142863
419.119378672
420.439702281
421.738093373
423.014306574
424.267395349
425.496072094
426.698933926
427.874592353
429.021739428
430.13917568
431.225815687
432.280682445
433.302895641
434.291658534
435.246244098
436.165983253
437.050254192
437.89847515
438.710098688
439.48460929
440.221521611
440.920380507
441.580760405
442.202264752
442.784524514
443.327196609
443.829962363
444.292530616
444.714652621
445.096176706
445.437164498
445.737878681
445.998016765
446.214998303
446.384831523
446.508549652
446.617529228
446.622357517
258.29848756
258.639590571
259.409552121
260.650315589
262.249662875
264.318847833
266.761383277
269.41460477
272.240155652
275.606017317
279.153278426
283.081547464
287.755893924
292.764672993
297.313074248
301.439200689
305.152167793
308.741230289
312.382818555
316.120083604
319.948021524
323.830164566
327.722591494
331.593114157
335.41883219
339.183944948
342.877910496
346.493997057
350.028134831
353.47801447
356.842577215
360.121313483
363.314209043
366.421582751
369.443722831
372.381534628
375.236740213
378.011647926
380.710630154
383.339007788
385.901700973
388.403025374
390.843620145
393.220744554
395.529360908
397.763673639
399.919450472
401.993999277
403.984181564
405.885233707
407.692054317
409.404312662
411.028589195
412.575979271
414.058902705
415.490288932
416.882254345
418.24350606
419.579440699
420.892800044
422.184450951
423.454072614
424.700674949
425.922949798
427.119488722
428.288905303
429.429897152
430.541270173
431.621943573
432.67094312
433.687390916
434.670492275
435.619524049
436.533822813
437.412776
438.255813806
439.062404347
439.832049509
440.564283459
441.25867077
441.914806214
442.532312775
443.110840868
443.650065495
444.149685256
444.609422974
445.029038576
445.408378413
445.747487807
446.046662415
446.30583288
446.522603837
446.691864329
446.815357498
446.922438287
446.929115669
251.533524766
251.873089384
252.634306622
253.863366101
255.428218465
257.453377798
259.914085513
262.427973771
265.393927546
268.782780065
272.513792803
276.700553402
281.265383957
286.145056952
290.92235391
295.283080776
299.403735991
303.544501262
307.848980048
312.234778003
316.652811796
321.051359859
325.391124872
329.647068712
333.803967699
337.853440901
341.791751308
345.618187611
349.333853638
352.940857336
356.441803976
359.839288202
363.135830182
366.333873327
369.435608091
372.443720014
375.361479565
378.192931838
380.944022684
383.620919467
386.229319836
388.773043008
391.251945062
393.662937826
396.000406146
398.258106982
400.432530969
402.520802587
404.519348808
406.422928371
408.22638085
409.93108792
411.546580822
413.084685942
414.558297583
415.981243783
417.365621186
418.719934077
420.049350765
421.356423924
422.641889169
423.905348419
425.145775971
426.361856534
427.552190876
428.715410117
429.850231195
430.95547868
432.030087306
433.073096004
434.083637114
435.060925338
436.00424598
436.912945299
437.786421177
438.624116611
439.425513651
440.190130126
440.917516398
441.607254059
442.258953966
442.872254891
443.446821168
443.982340351
444.478520263
444.935089125
445.351803452
445.728488606
446.065151545
446.362079237
446.619391949
446.835110552
447.00368265
447.126941622
447.232549201
447.240357073
244.320967098
244.661764476
245.414370347
246.629184358
248.156209247
250.137154383
252.526261514
255.034414578
257.796010726
261.042853082
264.827122472
269.133294234
273.940585333
278.689655516
283.482373655
288.197957231
293.018791785
298.007257251
303.098742753
308.207578845
313.261302829
318.208497003
323.018759206
327.676446269
332.175752748
336.517113845
340.704664083
344.744503219
348.643474087
352.408557322
356.046226321
359.562412921
362.962400689
366.250790625
369.431866083
372.510222959
375.490760529
378.379441389
381.183784068
383.910614887
386.566086086
389.153303566
391.671320874
394.11618523
396.482114202
398.763087689
400.955859644
403.057228401
405.062595813
406.966466745
408.765039199
410.461848224
412.068450702
413.597400276
415.062291594
416.477680054
417.855432709
419.203742971
420.527487796
421.828999394
423.108872386
424.366635725
425.601240352
426.811379022
427.995678078
429.152800959
430.281498037
431.380624004
432.449139902
433.486105916
434.490672316
435.462068219
436.399592145
437.302602125
438.170508416
439.002766215
439.798871038
440.558354052
441.280779753
441.965742959