/*--------------------------------*- C++ -*----------------------------------*\
| =========                 |                                                 |
| \\      /  F ield         | OpenFOAM: The Open Source CFD Toolbox           |
|  \\    /   O peration     | Version:  v1906                                 |
|   \\  /    A nd           | Web:      www.OpenFOAM.com                      |
|    \\/     M anipulation  |                                                 |
\*---------------------------------------------------------------------------*/
FoamFile
{
    version     2.0;
    format      ascii;
    class       volScalarField;
    location    "273";
    object      p;
}
// * * * * * * * * * * * * * * * * * * * * * * * * * * * * * * * * * * * * * //

dimensions      [0 2 -2 0 0 0 0];


internalField   nonuniform List<scalar> 
9216
(
273.436761742
273.516772349
273.682330324
273.934853301
274.272920248
274.694954296
275.198988247
275.782726149
276.44355769
277.178625665
277.984833113
278.858915996
279.797442353
280.796887792
281.853624056
282.963995215
284.124294269
285.330839214
286.579937639
287.867962807
289.191307072
290.546458695
291.929945373
293.338412619
294.768558766
296.217215605
297.68127618
299.157778058
300.643824973
302.136672875
303.633646381
305.132227203
306.62996575
308.124572583
309.613826572
311.095667108
312.568099075
314.02928686
315.477456733
316.91099161
318.328331614
319.728069132
321.108848302
322.469459866
323.808740289
325.12566598
326.419252797
327.688649172
328.933036698
330.151721761
331.344037897
332.509435515
333.647386616
334.757472245
335.839290127
336.89253946
337.916931904
338.912273378
339.878378789
340.815150459
341.722496857
342.600407357
343.448875171
344.267968127
345.057755894
345.818376559
346.5499682
347.252731041
347.926863378
348.57261918
349.190248376
349.780049793
350.342315786
350.877380493
351.38556883
351.867240047
352.322741121
352.752445655
353.156711747
353.535916278
353.890417344
354.220584011
354.526763456
354.809306265
355.068538469
355.304782596
355.518334955
355.709483079
355.878489453
356.025608173
356.151081086
356.255168554
356.338208166
356.401193616
356.4416766
356.456369826
273.35678669
273.437158203
273.603057295
273.856577935
274.196076756
274.619898918
275.126035998
275.712150772
276.375601402
277.113490405
277.92269133
278.79990078
279.741661267
280.744412167
281.804505501
282.918253518
284.081935994
285.291843722
286.544277279
287.835586776
289.162162933
290.520474007
291.9070504
293.31851982
294.751586671
296.203066375
297.669860612
299.14899145
300.637573262
302.132847011
303.632149388
305.132947509
306.632806015
308.129421499
309.620587365
311.104229133
312.578367556
314.041153611
315.490830311
316.925767556
318.344422886
319.745376062
321.127289092
322.488940437
323.829184683
325.146986275
326.441379206
327.711500217
328.956548844
330.175820028
331.368664859
332.534522511
333.672881999
334.783313348
335.86543062
336.918922226
337.943515411
338.939005596
339.905222471
340.842058216
341.749435291
342.627333385
343.47575893
344.294770625
345.084450651
345.844928624
346.576354479
347.278920715
347.952836891
348.598350063
349.215720862
349.805242046
350.367216129
350.901972038
351.409844282
351.891187729
352.346358348
352.775726142
353.179657535
353.558526514
353.912698748
354.242541027
354.548407217
354.830646101
355.089589296
355.325557631
355.538851221
355.729754567
355.898528918
356.045415997
356.170631133
356.274359567
356.356728701
356.417770356
356.456401426
356.471072451
273.190452496
273.271971032
273.439398654
273.695216939
274.037751818
274.465302298
274.975800205
275.566838805
276.235706664
276.979431552
277.794817244
278.678488302
279.626924041
280.636499997
281.703515672
282.824230384
283.994883469
285.211723975
286.471023481
287.769100249
289.102325662
290.467144014
291.860073902
293.277724906
294.716795199
296.174086192
297.646497385
299.131039731
300.624828422
302.125095439
303.62918071
305.134544081
306.638755215
308.139504862
309.634593463
311.121942128
312.599580138
314.065655304
315.518420548
316.956243725
318.37759343
319.781048319
321.165282326
322.529073543
323.871289047
325.190893414
326.486933391
327.758546117
329.00494385
330.225421977
331.419344015
332.586149464
333.725339248
334.836483473
335.919207451
336.973199367
337.99819698
338.993995191
339.960433468
340.897403259
341.804836136
342.682710969
343.531042769
344.349889495
345.139341522
345.899527986
346.630606789
347.332770367
348.00623615
348.651251674
349.268085436
349.857031281
350.418399619
350.952521073
351.45973806
351.940407697
352.394893787
352.823569036
353.226807493
353.604986152
353.958477928
354.287652728
354.592871064
354.874484672
355.132830856
355.368232732
355.580994325
355.771400341
355.939711615
356.086163274
356.21095757
356.314253406
356.396138563
356.45658047
356.4951047
356.511523155
272.934726577
273.017529047
273.187347285
273.446759341
273.794030266
274.227382965
274.7446559
275.343336857
276.020603784
276.773370217
277.598328278
278.491993268
279.450743156
280.470858085
281.548552945
282.680009605
283.86140148
285.088918295
286.358783147
287.667270825
289.010718723
290.385540219
291.788230996
293.215378973
294.663667433
296.129882686
297.610915032
299.103764971
300.605542654
302.113473084
303.624894421
305.137262331
306.648147355
308.155238546
309.656339834
311.149372947
312.632372885
314.103490145
315.560985374
317.003230931
318.428704838
319.835991753
321.223776364
322.590843882
323.936073043
325.258436263
326.556992418
327.830886793
329.079343827
330.301666994
331.49723167
332.665485062
333.805939342
334.918171714
336.001817929
337.056572534
338.082182835
339.078449352
340.045220238
340.98239191
341.889903903
342.767739602
343.615921464
344.434511757
345.22360805
345.983343849
346.713884252
347.415426367
348.088195044
348.732442981
349.348446458
349.936505077
350.496937454
351.030080571
351.536285427
352.015916021
352.469344988
352.896952268
353.299120796
353.676234922
354.028676239
354.35682185
354.661040418
354.941690362
355.199116194
355.43364668
355.645591435
355.835238875
356.002852631
356.148668352
356.272888175
356.375673399
356.457132796
356.517311546
356.556093312
356.574282372
272.588532165
272.672979015
272.846077537
273.110429119
273.464205623
273.905518986
274.432075782
275.041217033
275.729965964
276.495078249
277.333090763
278.240369215
279.213151746
280.247589466
281.339781493
282.485806431
283.681748171
284.923718638
286.20787543
287.53043741
288.887696052
290.276025834
291.691891205
293.131853545
294.592575327
296.070824955
297.5634792
299.067526737
300.580069447
302.09832507
303.619627638
305.141429275
306.661299902
308.176928419
309.686121467
311.186803743
312.677015961
314.154914427
315.618768204
317.066957957
318.49797242
319.910406605
321.302957704
322.674422806
324.023694383
325.349757676
326.651685944
327.92863768
329.179851791
330.404644805
331.602406159
332.772595519
333.91473831
335.028423277
336.113298354
337.169068533
338.195492127
339.192378979
340.159587129
341.097021335
342.004630092
342.882404403
343.730375073
344.54861161
345.337219679
346.096340022
346.826145946
347.526842136
348.198662067
348.841866612
349.456741299
350.043594643
350.602755205
351.134569631
351.639399509
352.117619129
352.569612184
352.995769306
353.396484681
353.772153435
354.123168262
354.449916757
354.752778136
355.032120605
355.288298242
355.521648432
355.73248889
355.921115057
356.087797014
356.232776402
356.356262696
356.458429564
356.539411815
356.599307389
356.638111369
356.656745034
272.150091429
272.236624299
272.413946861
272.684667425
273.046828722
273.498391756
274.036886511
274.659459577
275.362930054
276.143846964
276.998544704
277.923195597
278.913857745
279.96651783
281.077127984
282.241637292
283.456017634
284.716284988
286.018516146
287.358862183
288.733558595
290.138933486
291.571413499
293.027528818
294.503916702
295.997324744
297.504613113
299.022756888
300.548847535
302.08009462
303.61382668
305.147492185
306.678659849
308.205019149
309.724379625
311.234670459
312.733939059
314.220349841
315.692181989
317.147827472
318.58578806
320.004672687
321.403193865
322.780164531
324.134494042
325.465184675
326.771327384
328.052098145
329.30675365
330.534627675
331.735126887
332.907727384
334.051970766
335.16746097
336.253860707
337.310888687
338.338316476
339.335966133
340.303707502
341.241456229
342.149171437
343.026854041
343.8745447
344.692322318
345.480302135
346.238634263
346.967501787
347.66711919
348.337730329
348.979606646
349.593044922
350.178365199
350.735908261
351.266033249
351.769114867
352.245540715
352.695708262
353.120021964
353.518890088
353.8927217
354.241923441
354.566896497
354.868033422
355.145715185
355.400308122
355.632161116
355.841602709
356.028938394
356.194447837
356.338382259
356.460961947
356.562374522
356.642775131
356.702290154
356.740945697
356.75965505
271.617133336
271.70625012
271.888823041
272.167460147
272.540035323
273.004312215
273.557591993
274.196771231
274.918408283
275.718790249
276.593996713
277.539958789
278.552511791
279.627440971
280.760519928
281.947542166
283.18434617
284.466835022
285.790991182
287.152887571
288.548695529
289.974690643
291.427256815
292.902889331
294.398197085
295.909904468
297.434852876
298.970002163
300.51243186
302.059342352
303.60805578
305.156016615
306.700792178
308.24007297
309.771672035
311.293524283
312.803685244
314.300329487
315.781748521
317.246348382
318.692646748
320.119269823
321.524948822
322.908516305
324.268902228
325.605129922
326.916311905
328.201645712
329.460409666
330.691958757
331.89572055
333.071191292
334.217932115
335.335565508
336.423771935
337.482286765
338.510897372
339.509440557
340.47780013
341.415904791
342.323726136
343.201276894
344.048609237
344.865813238
345.653015312
346.410376735
347.138092049
347.836387473
348.505519123
349.145771184
349.757453836
350.340901102
350.896468431
351.424530194
351.925476928
352.399712507
352.847651105
353.269714123
353.666326956
354.037915782
354.384904256
354.707710279
355.006742736
355.282398354
355.535058595
355.765086685
355.972824738
356.158591027
356.322677421
356.465347045
356.586832405
356.687334487
356.767023148
356.826038881
356.864415258
356.883041959
270.986842699
271.079100057
271.268056599
271.556312997
271.941526677
272.42120855
272.992368517
273.651587286
274.395096406
275.218857558
276.118636715
277.090071122
278.128727571
279.230151307
280.389905704
281.603603357
282.86692958
284.175659523
285.525670097
286.91294791
288.333594234
289.78382794
291.259987077
292.758529748
294.276034596
295.809201285
297.354851006
298.909927198
300.471496306
302.03674868
303.602999331
305.167688416
306.728381772
308.282771372
309.828674479
311.364033001
312.886912166
314.395498831
315.888099222
317.363136351
318.819146901
320.254777883
321.668782845
323.060017953
324.427437734
325.770090797
327.087115339
328.377734725
329.64125297
330.87705041
332.084579351
333.263360016
334.412976559
335.533073427
336.623351874
337.683566857
338.71352411
339.713077618
340.682127262
341.620616816
342.528532095
343.405899367
344.252783846
345.069288353
345.855551968
346.611748729
347.338086242
348.034804232
348.702172929
349.34049131
349.950085135
350.531304796
351.08452294
351.610131888
352.108540858
352.580173008
353.025462306
353.444850294
353.838782724
354.207706156
354.552064509
354.872295627
355.168827876
355.442076835
355.692442054
355.92030398
356.126021007
356.309926747
356.47232751
356.61350014
356.733690307
356.833111494
356.911945092
356.97034044
357.008332812
357.026791916
270.255797938
270.351822647
270.54843337
270.848210935
271.248538098
271.746604736
272.339053399
273.022069624
273.791479864
274.642846617
275.571555438
276.572891492
277.642104004
278.774458351
279.965276312
281.209965794
282.504041531
283.84313856
285.223020071
286.639581211
288.088850103
289.566987201
291.070283779
292.595160205
294.13816441
295.6959708
297.265379716
298.843317405
300.426836437
302.013116358
303.599464433
305.183316129
306.762235847
308.333917393
309.896183085
311.446983095
312.984394128
314.506617517
316.011976883
317.498915235
318.965991698
320.411877783
321.835353382
323.235302419
324.610708358
325.960649484
327.284294166
328.58089602
329.849789172
331.090383537
332.302160312
333.484667581
334.637516232
335.760376074
336.852972331
337.915082389
338.946532953
339.947197474
340.916993975
341.85588311
342.763866562
343.640985604
344.487319889
345.302986311
346.088137951
346.842962989
347.567683571
348.26255454
348.927862003
349.563921699
350.171077119
350.749697408
351.30017497
351.822922869
352.318371944
352.786967759
353.229167308
353.64543562
354.036242203
354.402057437
354.743348923
355.060577839
355.354195348
355.624639085
355.87232978
356.097668016
356.301031209
356.482770777
356.643209643
356.782639999
356.901321551
356.99948046
357.077308582
357.134962032
357.172478982
357.190713822
269.419895239
269.52040269
269.726112536
270.039567031
270.457800192
270.977595275
271.595133
272.306106807
273.105844152
273.989421746
274.951768409
275.987752705
277.092254024
278.260217257
279.486692509
280.766861863
282.096055647
283.469760579
284.883622059
286.333442514
287.815177411
289.324930178
290.858946962
292.413611909
293.985443317
295.57109092
297.167334255
298.77108206
300.379372399
301.98937337
303.598383671
305.203833793
306.803286745
308.394438416
309.975117014
311.543282376
313.097024521
314.634561689
316.154237717
317.654518963
319.133990647
320.591352854
322.025416082
323.435096582
324.819411381
326.177473246
327.508485467
328.811736715
330.086595856
331.332506968
332.548984433
333.735608354
334.89202015
336.017918572
337.113055982
338.177235113
339.21030614
340.212164235
341.182747438
342.122034961
343.030045745
343.906837342
344.752504959
345.56718066
346.351032603
347.104264277
347.827113637
348.519852087
349.182783258
349.816241516
350.420590212
350.996219604
351.543544485
352.063001502
352.5550462
353.020149791
353.458795717
353.871476017
354.258687556
354.620928174
354.95869278
355.272469475
355.562735704
355.829954548
356.074571117
356.297009175
356.497667933
356.676919157
356.835104511
356.972533302
357.089480569
357.186185568
357.262850809
357.319640135
357.356595829
357.374559664
268.474253512
268.580071386
268.796548592
269.126158789
269.565492513
270.110816841
270.75773175
271.501318613
272.336292055
273.257140696
274.258249106
275.333998049
276.478841979
277.687365118
278.954318536
280.274641704
281.643471877
283.05614476
284.508189267
285.995318845
287.513421194
289.058547832
290.626904459
292.214842802
293.81885429
295.435565644
297.061736311
298.69425743
300.330152008
301.966575845
303.600818322
305.230304299
306.852595229
308.465389356
310.066521638
311.653962959
313.225818706
314.78032657
316.315853773
317.830893587
319.324061406
320.794090252
322.239825964
323.660221995
325.054334055
326.421314507
327.760406782
329.070939689
330.352321896
331.604036444
332.82563557
334.016735693
335.177012831
336.306198298
337.404074922
338.470473624
339.505270574
340.508384725
341.479775911
342.419443289
343.327424245
344.203793544
345.048662791
345.862179974
346.64452913
347.395929928
348.116637163
348.806940041
349.467161196
350.097655407
350.698807937
351.271032547
351.814769078
352.330480734
352.818650959
353.279780068
353.714381552
354.122978222
354.506098142
354.864270495
355.198021376
355.507869618
355.794322673
356.057872624
356.298992369
356.518131998
356.715715453
356.892137432
357.04776066
357.182913417
357.297887467
357.392936532
357.4682747
357.524073894
357.560383259
357.57803299
267.413092712
267.525193741
267.754392349
268.103049639
268.567188165
269.142417007
269.823603611
270.605067198
271.480770541
272.44449273
273.489973939
274.611029202
275.80163139
277.055966129
278.368463165
279.733809178
281.146947089
282.603066283
284.09758749
285.626145154
287.18456947
288.768869557
290.37521877
291.99994277
293.639510556
295.290528514
296.949737114
298.614009879
300.280353929
301.945911616
303.60796184
305.263922861
306.911354114
308.547956393
310.171572144
311.780184817
313.371917291
314.945029577
316.497915658
318.029099745
319.537231803
321.021082673
322.479538644
323.911595808
325.31635405
326.693011001
328.040855807
329.359263025
330.647686492
331.905653479
333.132758974
334.328660385
335.493072521
336.625763131
337.726548823
338.795291651
339.831896148
340.836307047
341.808507463
342.748517682
343.656394334
344.532230019
345.376153162
346.18832808
346.968955093
347.718270589
348.436546936
349.124092129
349.781249118
350.408394726
351.005938164
351.574319061
352.114005071
352.625489017
353.109285654
353.565928032
353.995963576
354.399949888
354.77845037
355.132029723
355.461249392
355.766663044
356.048812105
356.30822148
356.545395431
356.760813746
356.954928138
357.128159022
357.280892552
357.413478087
357.526225948
357.619405467
357.693243539
357.747922217
357.783498347
357.800790522
266.22957807
266.349122351
266.593366348
266.964491855
267.45778868
268.068021309
268.789128832
269.614478892
270.537111599
271.549952317
272.645982815
273.81836875
275.060545395
276.366267307
277.729628947
279.145063939
280.607329817
282.111484181
283.65285674
285.227020618
286.829765139
288.457071612
290.10509298
291.770137811
293.44865876
295.137245275
296.832620085
298.531638663
300.231290853
301.928703647
303.621143689
305.306021098
306.980892543
308.643461218
310.291577807
311.923239822
313.536590028
315.129913812
316.701635772
318.250315405
319.774642228
321.273430204
322.745611817
324.19023168
325.606439996
326.993485771
328.350710067
329.677539188
330.973478083
332.238103847
333.471059603
334.672048646
335.840829136
336.977209209
338.081042778
339.152225877
340.190693791
341.196418766
342.169408506
343.109705189
344.017385159
344.892558964
345.73537185
346.546004351
347.324673046
348.071631153
348.787168981
349.471614011
350.125330581
350.748719087
351.34221462
351.906285104
352.441428822
352.948171485
353.427062738
353.878672309
354.303585714
354.702399718
355.075717534
355.424143917
355.748280175
356.048719229
356.326040772
356.580806604
356.81355621
357.024802612
357.215028572
357.384683105
357.534178425
357.663887147
357.774139934
357.865223662
357.937379469
357.990799997
358.025552283
358.042442666
264.915617787
265.044011638
265.306106715
265.703807568
266.231448404
266.882700942
267.650320495
268.526482255
269.503093213
270.57205414
271.72546038
272.955741091
274.255742727
275.618766405
277.038570556
278.509349692
280.025698859
281.582571099
283.17523336
284.799224357
286.450316618
288.124483934
289.817874857
291.526792508
293.247680615
294.977115429
296.711802658
298.448578389
300.184412575
301.916413795
303.641833555
305.358071741
307.062680828
308.753366034
310.427986848
312.084556511
313.721240205
315.336352206
316.928351912
318.495839091
320.037548253
321.552342506
323.039206794
324.497240878
325.925651949
327.32374722
328.690926359
330.026674105
331.330552894
332.602195849
333.841299958
335.047619802
336.220961654
337.36117833
338.468164583
339.541853408
340.582213024
341.589244807
342.562981942
343.503488939
344.410861741
345.285228479
346.126750575
346.935624133
347.712081371
348.456391953
349.168864051
349.849844969
350.49972127
351.118918246
351.707898792
352.267161539
352.797238384
353.298691341
353.772108852
354.218101542
354.637297576
355.030337633
355.397869644
355.740543363
356.059004883
356.353891207
356.625824926
356.875409156
357.103222711
357.309815676
357.495705289
357.661372295
357.807257628
357.93375959
358.041231341
358.12997869
358.200258486
358.252276211
358.286109358
358.302550962
263.461599147
263.60057462
263.883962376
264.313242374
264.881488575
265.58094523
266.402847734
267.337870869
268.376528926
269.509497294
270.727844176
272.023176591
273.387712225
274.814293756
276.296362691
277.827908419
279.403404858
281.017743875
282.666171339
284.344229308
286.047705976
287.772594124
289.51505818
291.271409903
293.038092434
294.811672132
296.588837135
298.366400931
300.141309143
301.910646783
303.671646109
305.421693925
307.158336157
308.879279284
310.582392176
312.265705513
313.927409832
315.565852146
317.179531502
318.767093433
320.327323684
321.859141133
323.361590296
324.833833336
326.275141935
327.684888944
329.06254013
330.407645894
331.719833274
332.998798096
334.244297591
335.456143369
336.634195085
337.778354681
338.88856157
339.964788594
341.007039085
342.015344806
342.989765029
343.930386412
344.837323869
345.710721976
346.550757039
347.357639301
348.131615352
348.87297027
349.582029486
350.259160049
350.904771245
351.519314465
352.103282207
352.657206338
353.181655456
353.677231608
354.144566204
354.584315437
354.997155088
355.383775006
355.744873227
356.081149965
356.39330151
356.682014214
356.947958642
357.191783993
357.414112875
357.615536481
357.79661023
357.957849831
358.099727881
358.222670787
358.327056201
358.413211049
358.481409434
358.531869889
358.564682833
358.580626667
261.856038565
262.007766697
262.316737574
262.783786414
263.400302373
264.156645931
265.042086442
266.04540299
267.155398084
268.361288917
269.652967934
271.021144406
272.457389214
273.954109289
275.504477509
277.102339496
278.742113409
280.418693163
282.127361093
283.863712543
285.623592988
287.403047207
289.198279959
291.005627795
292.821541702
294.642580034
296.465410191
298.286816838
300.103713717
301.913154688
303.712346795
305.498659581
307.269629224
309.022962456
310.75653798
312.468405941
314.156785489
315.820060901
317.456776282
319.065629299
320.645463865
322.195262216
323.714136294
325.201318878
326.656154362
328.078089583
329.466664552
330.821503429
332.142305564
333.42883696
334.680921974
335.898435674
337.081296692
338.22946103
339.342916651
340.421679301
341.465789356
342.475310035
343.450326701
344.390947469
345.297304719
346.169557589
347.00789499
347.812539049
348.58374856
349.32182225
350.027101553
350.699972664
351.340867788
351.950265347
352.528689275
353.076707212
353.594927828
354.083997173
354.544594279
354.977425994
355.38322127
355.762724928
356.116691116
356.445876553
356.751033713
357.032904125
357.292211864
357.529657432
357.745912016
357.941612306
358.117355776
358.273696587
358.411141926
358.530148955
358.631122156
358.714410985
358.780308282
358.829048029
358.860733424
358.876126686
260.085112874
260.252364248
260.592360433
261.104955911
261.779255221
262.603105455
263.563213896
264.645956101
265.838033238
267.12694113
268.501249845
269.950720358
271.466296627
273.040015312
274.664870368
276.334661666
278.043847127
279.787409615
281.56074328
283.359559852
285.179813122
287.017639385
288.869312087
290.731210137
292.599799869
294.471630452
296.34334106
298.211676368
300.07350613
301.925842619
303.765858866
305.590900971
307.398492194
309.186338007
310.952327541
312.694532693
314.41120518
316.100771689
317.761827746
319.393130305
320.99358947
322.562259293
324.098328109
325.601108381
327.070026489
328.504612389
329.904489468
331.269364456
332.599017663
333.893293401
335.152090901
336.375355661
337.563071597
338.715253995
339.831943671
340.913202275
341.95910915
342.969759539
343.945264466
344.885751883
345.791369331
346.66228744
347.498704446
348.300850899
349.068994651
349.803445331
350.504558356
351.172737901
351.808438824
352.412167393
352.984480679
353.525984866
354.037332244
354.519217328
354.972371835
355.397559018
355.795567144
356.167202545
356.513282179
356.83462604
357.13204946
357.40635559
357.658328143
357.888724597
358.098269932
358.287650985
358.457511454
358.608447517
358.74100414
358.855671805
358.952883872
359.033014626
359.096377158
359.143220787
359.173664119
359.188451424
258.1320194
258.318401165
258.69645245
259.264529556
260.008589572
260.913088954
261.961372896
263.136762198
264.423387922
265.806738951
267.27393793
268.813796193
270.416713021
272.074483871
273.78007101
275.527374049
277.311022891
279.126203007
280.968514599
282.833861902
284.718367114
286.618303637
288.530045459
290.450032075
292.374750192
294.300733467
296.224578268
298.142970789
300.052718155
301.95077561
303.834270999
305.700519742
307.547028102
309.371498831
311.171832256
312.946125019
314.692666068
316.40993071
318.096573145
319.751417986
321.373450567
322.961806503
324.515760517
326.034715059
327.518188703
328.965804764
330.377279969
331.752413478
333.091076003
334.393199329
335.658766061
336.887800041
338.080357351
339.236518496
340.356381659
341.440057667
342.487666462
343.499335612
344.475200496
345.415406503
346.320112686
347.189496936
348.023761999
348.823142115
349.58790965
350.318381309
351.014923517
351.677956534
352.307957237
352.905460238
353.471057584
354.005396841
354.509177952
354.983148731
355.428099367
355.84485588
356.23427285
356.59722544
356.934601008
357.247290431
357.536179392
357.802139865
358.046021958
358.268646375
358.4707975
358.653217336
358.816600131
358.96158788
359.088766414
359.198662285
359.291740113
359.368400283
359.42897754
359.473739067
359.502818334
359.516939702
255.97608841
256.186399129
256.611767084
257.248235322
258.077353163
259.07895363
260.231944194
261.515761752
262.911416109
264.402102228
265.973426072
267.613336132
269.311867193
271.060794849
272.853274345
274.683510104
276.546478564
278.437709667
280.35312173
282.288898914
284.241399418
286.207084714
288.182464336
290.164056604
292.148369441
294.131906273
296.111195183
298.082834146
300.043539216
301.990187414
303.919848455
305.829798295
307.717522369
309.580719419
311.417302335
313.225396297
315.003333439
316.74964497
318.46305236
320.142457409
321.786931197
323.395701896
324.968142078
326.503755626
328.002164795
329.463097459
330.886374785
332.271899113
333.619642136
334.9296332
336.201947951
337.436697365
338.634017612
339.794060923
340.916988024
342.002962227
343.052145745
344.0646981
345.040777064
345.980541676
346.884157594
347.751803892
348.583681422
349.380021497
350.141094948
350.86722024
351.558770732
352.216180104
352.839946045
353.430631957
353.988866615
354.515342266
355.010810838
355.47607905
355.912001955
356.319475661
356.699428916
357.052814086
357.380597518
357.683749619
357.963234887
358.2200022
358.454975594
358.669045832
358.863062815
359.037829005
359.194093793
359.332548785
359.453823982
359.558484541
359.647028271
359.719883936
359.777409283
359.819888818
359.847473716
359.860866217
253.591523421
253.83230502
254.317454371
255.039391635
255.973387045
257.092909437
258.370986768
259.782130262
261.303606248
262.916069659
264.603655274
266.35368373
268.156155023
270.003176101
271.888420956
273.806675094
275.753481454
277.724882212
279.717239182
281.727110562
283.75116276
285.786100634
287.828607977
289.875300417
291.922701667
293.967257501
296.00538496
298.033546752
300.048326316
302.046494312
304.025047109
305.981213891
307.912456571
309.81646921
311.691179154
313.534745387
315.345550736
317.12219123
318.863465441
320.568363494
322.236054212
323.865871064
325.457297388
327.009951497
328.523571968
329.998003673
331.433184259
332.829131158
334.185928636
335.503715004
336.782669753
338.023001159
339.224934406
340.388701085
341.514530145
342.602641203
343.653240121
344.666517652
345.642650759
346.58180711
347.484152001
348.349857739
349.179114454
349.972141892
350.729201117
351.450605402
352.136729576
352.788017116
353.404984922
353.988225348
354.538406033
355.056267404
355.542618521
355.998331185
356.424332754
356.821597639
357.191137804
357.533992341
357.851216435
358.143869904
358.413005702
358.659658742
358.884835399
359.089504036
359.274586637
359.440951776
359.589408665
359.720702462
359.835510381
359.93443881
360.018020971
360.086714914
360.14090257
360.180888367
360.206840128
360.219435558
250.94557184
251.225995041
251.788100385
252.618524003
253.683440814
254.94749968
256.375935189
257.937054917
259.603726259
261.353938691
263.170612739
265.040916454
266.95536634
268.906929604
270.890251171
272.901053383
274.935708128
276.990954715
279.063726699
281.151048414
283.249966165
285.357487577
287.470515816
289.585785207
291.699821908
293.808967137
295.909457042
297.997544608
300.069621302
302.122314175
304.152531659
306.157455706
308.134524936
310.08142825
311.996109745
313.876769402
315.721850969
317.530025871
319.300181113
321.031407817
322.722986595
324.374370789
325.985169404
327.555129732
329.084120757
330.572117793
332.019188126
333.425477137
334.791194567
336.116600371
337.401990341
338.647681657
339.853999083
341.021262322
342.149775359
343.239818241
344.291642043
345.305467184
346.281485629
347.219866592
348.120765998
348.984338519
349.810752152
350.600203394
351.352932944
352.069239629
352.749492725
353.394140878
354.003718007
354.578845785
355.120232952
355.628672486
356.105036239
356.550268419
356.965377021
357.35142428
357.709515679
358.040788003
358.346396625
358.627502158
358.885257088
359.120792772
359.335207353
359.529555099
359.704837168
359.861994114
360.001899802
360.125356701
360.233092359
360.325756604
360.403919589
360.468070705
360.518617046
360.555881793
360.580052461
360.591779462
247.995788213
248.329138768
248.992487002
249.963020651
251.193537556
252.636442378
254.246687801
255.984869188
257.818853206
259.724098099
261.682935245
263.683233367
265.71689686
267.778516186
269.864308135
271.971366385
274.097182702
276.23937601
278.395563207
280.563309586
282.740105113
284.923324651
287.11015061
289.297469033
291.481785961
293.659262051
295.825838397
297.977440416
300.110178272
302.220492246
304.305198166
306.361444739
308.386653446
310.378505794
312.334963411
314.25427811
316.134969142
317.97579599
319.77574608
321.534026154
323.250044963
324.923392804
326.553821476
328.141223815
329.685614559
331.187113992
332.645932932
334.062358616
335.436740308
336.769474012
338.060986046
339.311716247
340.522101344
341.692559793
342.823478565
343.915203239
344.968031549
345.982211599
346.957944433
347.895391782
348.794687976
349.655956096
350.479326622
351.264957831
352.0130559
352.723893465
353.397825179
354.035299085
354.636863713
355.203170419
355.734972237
356.233119566
356.698554013
357.132300356
357.535456976
357.909184735
358.254694501
358.573233422
358.8660702
359.134479512
359.379726235
359.603050101