/*--------------------------------*- C++ -*----------------------------------*\
| =========                 |                                                 |
| \\      /  F ield         | OpenFOAM: The Open Source CFD Toolbox           |
|  \\    /   O peration     | Version:  v1906                                 |
|   \\  /    A nd           | Web:      www.OpenFOAM.com                      |
|    \\/     M anipulation  |                                                 |
\*---------------------------------------------------------------------------*/
FoamFile
{
    version     2.0;
    format      ascii;
    class       surfaceScalarField;
    location    "352";
    object      phi;
}
// * * * * * * * * * * * * * * * * * * * * * * * * * * * * * * * * * * * * * //

dimensions      [0 3 -1 0 0 0 0];
oriented        oriented;


internalField   nonuniform List<scalar> 
18240
(
-0.000352631198107
0.000352626952248
-0.000738747673117
0.000386113770653
-0.00112452521039
0.000385772282806
-0.00150534626665
0.000380818770056
-0.00187913902204
0.000373786789977
-0.00224416549999
0.000365024562559
-0.00259891005551
0.00035473791109
-0.00294201832634
0.000343106633332
-0.00327232773677
0.000330302077848
-0.00358882891071
0.000316499718669
-0.00389070377985
0.000301866833008
-0.00417727579522
0.000286570657654
-0.00444804794191
0.000270763421036
-0.00470264202007
0.000254592742393
-0.00494083809636
0.000238186675549
-0.0051625063561
0.00022166687965
-0.00536765027972
0.000205133888474
-0.00555633430206
0.000188682538411
-0.00572873215503
0.000172387218636
-0.00588505260707
0.000156318813381
-0.00602559341385
0.000140529631964
-0.00615066644782
0.000125071195974
-0.00626065680059
0.000109978686881
-0.00635594791381
9.5289039295e-05
-0.00643698488552
8.10248847271e-05
-0.00650419981929
6.72125926689e-05
-0.00655807811848
5.38658486937e-05
-0.00659908415379
4.10034028626e-05
-0.00662772941075
2.86325178812e-05
-0.00664449872522
1.67663708751e-05
-0.00664991967821
5.40798579563e-06
-0.00664448813105
-5.43481585969e-06
-0.00662873529844
-1.57659529494e-05
-0.00660315736803
-2.55815356005e-05
-0.00656828440883
-3.48861733778e-05
-0.0065246089878
-4.36793688569e-05
-0.00647265248555
-5.19697389135e-05
-0.00641289624991
-5.97605286683e-05
-0.00634584620616
-6.70632460783e-05
-0.00627196653296
-7.38843084823e-05
-0.00619174205162
-8.0237582767e-05
-0.00610561484001
-8.61321823768e-05
-0.00601404401616
-9.15837714828e-05
-0.00591744569147
-9.66036187502e-05
-0.00581624984389
-0.000101208581117
-0.00571084394337
-0.000105411501624
-0.00560162661092
-0.000109229803958
-0.00548895518236
-0.000112677315004
-0.00537319590927
-0.000115771429594
-0.00525467564653
-0.000118526408427
-0.00513372835938
-0.000120959086549
-0.00501065104982
-0.000123083682967
-0.00488574639544
-0.000124916051942
-0.00475928295083
-0.000126470009598
-0.00463153376788
-0.000127760143573
-0.00450274084194
-0.000128799641267
-0.00437314963391
-0.000129601696596
-0.00424297766202
-0.000130178792002
-0.00411244489334
-0.000130542759011
-0.00398174632905
-0.000130705439684
-0.00385107831903
-0.00013067747887
-0.00372061493853
-0.000130470258838
-0.0035905303503
-0.000130093521353
-0.00346097873587
-0.000129558441977
-0.00333211292359
-0.000128874201453
-0.00320406760606
-0.000128052040878
-0.00307697452802
-0.000127100924768
-0.00295094869897
-0.000126032397581
-0.00282610051174
-0.000124855501612
-0.00270252463759
-0.000123582242108
-0.00258030949588
-0.000122221943677
-0.00245952850287
-0.000120787121816
-0.00234024734607
-0.00011928747478
-0.00222251724558
-0.000117735959741
-0.00210638048928
-0.000116142625626
-0.0019918653625
-0.000114520695094
-0.00187899038167
-0.000112880441166
-0.00176776055753
-0.000111235088816
-0.00165817072263
-0.000109594927475
-0.00155020281999
-0.000107972859334
-0.00144382866833
-0.000106378916665
-0.00133900801932
-0.000104825300391
-0.00123569106081
-0.0001033214334
-0.00113381708894
-0.000101878329056
-0.00103331708862
-0.000100504225488
-0.000934113159648
-9.92080222472e-05
-0.000836121977392
-9.7995208447e-05
-0.00073925644716
-9.68694048497e-05
-0.00064343391631
-9.58264076e-05
-0.000548589574683
-9.48480073409e-05
-0.000454714435767
-9.38788551136e-05
-0.000361945974263
-9.27718764138e-05
-0.000270846155077
-9.11031279628e-05
-0.000183398296225
-8.74509756695e-05
-0.000101462453237
-8.19401343227e-05
-0.000101464941633
-0.000389775738407
0.00074239860854
-0.000824941576176
0.000821276037133
-0.00125764361305
0.000818469767782
-0.0016840495005
0.000807220938568
-0.00210223754984
0.000791970030516
-0.00251042790107
0.000773211141944
-0.00290696799568
0.00075127289553
-0.0032903655368
0.000726500304734
-0.00365932158895
0.00069925265606
-0.0040127227591
0.000669896854736
-0.00434965608846
0.000638794283479
-0.00466938570367
0.000606296018916
-0.00497136053542
0.000572731939179
-0.00525518205454
0.000538409743999
-0.00552060942612
0.000503607287851
-0.00576752276668
0.000468575407001
-0.00599592914489
0.000433533056296
-0.00620592468421
0.000398672945305
-0.00639770357888
0.000364158461072
-0.00657152108765
0.000330130856407
-0.00672770647654
0.000296706939111
-0.0068666278033
0.000263986716466
-0.00698870870898
0.0002320511056
-0.00709439510082
0.000200969284749
-0.00718417512284
0.000170796039871
-0.00725854742259
0.000141578411332
-0.00731804337949
0.000113352593129
-0.0073631965202
8.61497388555e-05
-0.00739456606944
5.99925426696e-05
-0.00741270701824
3.49002055903e-05
-0.00741819361614
1.08847870446e-05
-0.0074115915974
-1.20442395799e-05
-0.00739348422887
-3.38833522544e-05
-0.00736444189263
-5.46315479902e-05
-0.00732504491288
-7.42933763423e-05
-0.00727585661462
-9.28755919716e-05
-0.00721744701568
-0.000110389714065
-0.0071503661298
-0.000126849563943
-0.00707516682353
-0.00014227303887
-0.00699237926126
-0.000156680217796
-0.00690253297186
-0.000170094428249
-0.00680613268623
-0.000182540984192
-0.00670367952145
-0.000194047519029
-0.00659564839555
-0.000204643399053
-0.0064825082354
-0.000214359309407
-0.00636470110643
-0.000223227390707
-0.00624266133809
-0.0002312800833
-0.00611679646293
-0.000238551021243
-0.00598750515745
-0.000245073147612
-0.00585516003691
-0.000250880394613
-0.00572012430034
-0.000256005095447
-0.00558273638443
-0.000260480460663
-0.00544332521048
-0.000264337317227
-0.00530219665703
-0.000267607380957
-0.00515964730721
-0.000270319363368
-0.00501595266416
-0.000272503016794
-0.00487137931847
-0.000274184651764
-0.00472617480013
-0.000275391914827
-0.0045805781057
-0.00027614876498
-0.00443481106269
-0.000276480916283
-0.00428908719826
-0.000276410321799
-0.00414360448373
-0.000275961193718
-0.00399855256976
-0.00027515404939
-0.00385410678183
-0.000274012196695
-0.00371043380469
-0.000272555401388
-0.00356768680841
-0.000270806713494
-0.00342600971581
-0.000268785828592
-0.00328553334949
-0.000266516118424
-0.00314637846623
-0.000264017771703
-0.00300865282331
-0.000261314893465
-0.00287245319578
-0.000258428529779
-0.00273786326322
-0.000255383701009
-0.00260495484492
-0.000252202428385
-0.00247378650552
-0.000248910577019
-0.00234440424135
-0.000245531015003
-0.00221684069788
-0.000242090149065
-0.00209111552516
-0.000238611348717
-0.00196723509545
-0.000235121070137
-0.00184519271766
-0.000231642673932
-0.00172496874481
-0.000228202039077
-0.00160653080563
-0.000224821885069
-0.00148983420421
-0.00022152678186
-0.00137482230081
-0.000218338054
-0.00126142713834
-0.000215278067916
-0.00114957009522
-0.00021236570953
-0.0010391627161
-0.000209619714094
-0.000930107710671
-0.000207054429309
-0.00082229975771
-0.000204681457426
-0.000715625804744
-0.000202504402386
-0.000609961462219
-0.000200516277251
-0.000505155039008
-0.000198689077507
-0.000400968483976
-0.000196962077144
-0.000296852289741
-0.000195222899851
-0.000191018499912
-0.000193288128737
-8.16680067813e-05
-0.000191294097903
-0.000183134783804
-0.000396732651424
0.00113912734061
-0.000837539122339
0.00126207839408
-0.00127649433094
0.00125742083313
-0.00170908322128
0.00123980572929
-0.00213317939869
0.00121606184389
-0.00254691640083
0.00118694393023
-0.00294859442838
0.00115294632682
-0.00333669681973
0.00111459828963
-0.00370990786765
0.00107245882746
-0.00406711395011
0.00102709827308
-0.00440740551407
0.000979080639476
-0.00473006449471
0.00092895002986
-0.00503455700112
0.000877218873473
-0.00532051317971
0.000824360612525
-0.00558771592632
0.000770804072461
-0.00583607803179
0.000716931839878
-0.00606563091493
0.000663079578361
-0.00627650242236
0.000609538404132
-0.00646890801059
0.000556557283323
-0.00664313103094
0.00050434744872
-0.00679951735612
0.000453086102041
-0.00693845871065
0.000402921266447
-0.00706039067537
0.000353975521313
-0.00716577880917
0.00030635024846
-0.00725511938505
0.000260128701658
-0.00732892765692
0.000215379162572
-0.00738774046378
0.000172157141122
-0.00743210593734
0.000130507362222
-0.00746258717851
9.04652103167e-05
-0.00747975283584
5.20577060441e-05
-0.00748418132909
1.53044190041e-05
-0.00747645199502
-1.97820097538e-05
-0.00745714940651
-5.31950544752e-05
-0.00742685486438
-8.49347778757e-05
-0.00738615058777
-0.000115006988792
-0.00733561156595
-0.000143423522825
-0.00727580965203
-0.000170201149051
-0.00720730595827
-0.000195362357389
-0.00713065480101
-0.000218933869336
-0.00704639666873
-0.000240947606993
-0.00695506204713
-0.00026143883637
-0.00685716507092
-0.000280447341017
-0.00675320724554
-0.00029801520886
-0.00664367186893
-0.000314188243975
-0.00652902765509
-0.000329013425472
-0.00640972397508
-0.000342540590586
-0.00628619436034
-0.000354819600759
-0.00615885258212
-0.000365902332633
-0.00602809599997
-0.000375839591807
-0.00589430246276
-0.000384683439804
-0.00575783344422
-0.000392483896509
-0.00561903172158
-0.000399291625801
-0.00547822423057
-0.000405154469415
-0.00533572044691
-0.000410120501167
-0.00519181487943
-0.00041423443081
-0.00504678606003
-0.000417541025111
-0.00490089859444
-0.000420081414527
-0.00475440265004
-0.000421896859133
-0.00460753548971
-0.000423024980287
-0.00446052134661
-0.000423503828968
-0.00431357238906
-0.000423368052993
-0.00416688887986
-0.000422653202613
-0.0040206595519
-0.00042139183396
-0.00387506197211
-0.000419617969161
-0.00373026234857
-0.000417363132073
-0.00358641604518
-0.00041466086986
-0.00344366688396
-0.000411542721061
-0.00330214778459
-0.000408042704411
-0.00316197966183
-0.000404193230347
-0.00302327218513
-0.000400029471607
-0.00288612239776
-0.000395585246995
-0.0027506156035
-0.000390897201764
-0.00261682384367
-0.000386000710411
-0.00248480691917
-0.000380933812409
-0.0023546108589
-0.000375733196922
-0.00222626907761
-0.000370437853469
-0.00209980095203
-0.000365085209831
-0.0019752131033
-0.000359714468923
-0.00185249817476
-0.000354362971943
-0.00173163621452
-0.000349069196103
-0.00161259372157
-0.000343869404803
-0.00149532509292
-0.000338800276735
-0.00137977197553
-0.00033389588108
-0.00126586472216
-0.000329189884385
-0.00115352202398
-0.000324712835948
-0.00104265220661
-0.000320493834884
-0.000933152828512
-0.000316558004896
-0.000824910986703
-0.000312927400768
-0.000717800882945
-0.000309618518705
-0.000611678339795
-0.000306642729433
-0.000506365284309
-0.000304005985074
-0.000401614172015
-0.000301716860281
-0.000297029363426
-0.000299811103971
-0.000191949382058
-0.00029837161893
-8.66939808805e-05
-0.000296553109305
-0.000269830478101
-0.000402929950591
0.00154205339379
-0.000849845567327
0.00170899024987
-0.00129489430256
0.00170246544121
-0.00173333388313
0.00167824124917
-0.00216290189116
0.00164562560178
-0.00258164156507
0.00160567934731
-0.00298779531929
0.00155909563727
-0.00337981466117
0.00150661314646
-0.00375637090139
0.00144901035748
-0.00411635622472
0.00138707882693
-0.00445887943162
0.00132159881673
-0.0047832538088
0.00125331930756
-0.00508898295174
0.00118294262775
-0.00537574161356
0.00111111381244
-0.00564335760404
0.00103841429214
-0.0058917910193
0.000965359410658
-0.00612111670584
0.000892399096761
-0.00633150542224
0.000819920882982
-0.00652320939696
0.000748254689917
-0.00669654708631
0.000677678506408
-0.00685189265925
0.000608424709531
-0.00698966458869
0.000540686176263
-0.00711031877157
0.000474622354159
-0.00721434035888
0.000410364441436
-0.00730223965378
0.000348020277688
-0.0073745462548
0.000287678012621
-0.00743180674519
0.000229409567068
-0.00747458025063
0.000173272783012
-0.00750343707976
0.000119313653965
-0.00751895503319
6.75672666032e-05
-0.00752171847727
1.805918593e-05
-0.0075123148212
-2.91943375121e-05
-0.00749133363777
-7.4185176393e-05
-0.00745936350353
-0.000116913832581
-0.00741699116401
-0.000157388495421
-0.00736479845848
-0.00019562536588
-0.00730336135265
-0.000231647618382
-0.00723324718828
-0.000265485843676
-0.00715501378668
-0.000297176795587
-0.00706920705401
-0.00032676381153
-0.0069763602137
-0.000354295327635
-0.00687699184971
-0.000379825291587
-0.00677160532415
-0.000403411474368
-0.00666068731984
-0.00042511591281
-0.00654470747489
-0.000445003062266
-0.00642411745252
-0.000463140317949
-0.00629935079609
-0.000479596061878
-0.0061708225251
-0.000494440310283
-0.00603892918867
-0.000507742706695
-0.00590404895634
-0.000519573340986
-0.0057665418243
-0.000530000740259
-0.00562675014374
-0.000539092896853
-0.00548499891423
-0.000546915303179
-0.00534159666715
-0.0005535322193
-0.00519683576281
-0.000559004790378
-0.00505099352852
-0.00056339256929
-0.00490433246685
-0.000566751740896
-0.00475710153744
-0.000569136895604
-0.00460953618407
-0.000570599366487
-0.00446185965288
-0.000571189223203
-0.00431428276249
-0.000570953704157
-0.00416700516822
-0.000569939376214
-0.00402021482794
-0.000568190624899
-0.00387408915213
-0.000565751903578
-0.00372879415841
-0.00056266623187
-0.00358448548366
-0.000558977449845
-0.00344130726155
-0.000554728675629
-0.00329939300908
-0.000549964482278
-0.00315886429893
-0.000544729277466
-0.00301983156036
-0.000539069337316
-0.00288239264231
-0.000533031093638
-0.00274663358341
-0.0005266629804
-0.00261262717179
-0.000520013638933
-0.00248043373909
-0.000513133557891
-0.00235009981688
-0.000506073230417
-0.00222165899846
-0.000498884587003
-0.00209513077463
-0.000491619153492
-0.00197052148835
-0.000484329289192
-0.00184782340845
-0.000477066400516
-0.00172701578065
-0.000469881998509
-0.00160806416989
-0.000462826017357
-0.00149092158658
-0.000455947700162
-0.00137552809245
-0.000449294057248
-0.00126181193835
-0.000442910574198
-0.00114968934899
-0.000436839824882
-0.00103906547038
-0.000431121990435
-0.000929833983769
-0.000425793661956
-0.000821877173967
-0.000420888283663
-0.000715064124538
-0.000416435563642
-0.000609247812524
-0.000412462959265
-0.000504258991681
-0.000408998549523
-0.000399899458966
-0.000406080032896
-0.000295945489244
-0.000403768708384
-0.000192235143152
-0.00040208535158
-8.95587337429e-05
-0.000399233014723
-0.000359391074417
-0.000410919286361
0.00195296893493
-0.000866313504866
0.00216438036487
-0.00131961555179
0.00215576358555
-0.00176589146932
0.00212451308466
-0.00220274372399
0.00208247373421
-0.00262811030303
0.00203104169368
-0.00304016050354
0.00197114149096
-0.00343730402932
0.00190375220514
-0.00381819800642
0.00182989971391
-0.00418174512102
0.00175062117581
-0.00452708419764
0.00166693294673
-0.00485357435182
0.00157980435069
-0.00516077525
0.0014901382163
-0.00544842464716
0.00139875772171
-0.00571641545295
0.0013063993993
-0.00596477292538
0.00121371099918
-0.00619363361111
0.00112125368225
-0.00640322597122
0.00102950695445
-0.00659385370991
0.000938875921686
-0.00676588125023
0.000849699353643
-0.00691972195071
0.000762258501963
-0.00705582823634
0.00067678537231
-0.00717468399521
0.000593470814251
-0.00727679834386
0.000512471318522
-0.00736270099837
0.00043391526117
-0.00743293841882
0.000357907599088
-0.00748807092793
0.000284534053856
-0.00752867012821
0.000213863810934
-0.00755531681336
0.000145951992297
-0.00756859889586
8.08408649726e-05
-0.00756910953512
1.85611810126e-05
-0.00755744497588
-4.08676624157e-05
-0.00753420284609
-9.74362150477e-05
-0.00749997999463
-0.000151145700091
-0.00745537056946
-0.000202007063623
-0.00740096402208
-0.000250041147401
-0.00733734307671
-0.000295277907049
-0.00726508190334
-0.000337756435841
-0.00718474421783
-0.000377523991249
-0.00709688172269
-0.000414635875221
-0.00700203243774
-0.000449154253303
-0.00690071950035
-0.000481147911435
-0.00679344980056
-0.000510690909581
-0.00668071320206
-0.000537862270463
-0.00656298152431
-0.000562744531766
-0.00644070820905
-0.000585423431019
-0.006314327657
-0.000605986423917
-0.00618425533383
-0.000624522430672
-0.00605088744188
-0.000641120386698
-0.00591460142973
-0.000655869109786
-0.00577575595197
-0.000668855944101
-0.00563469172104
-0.000680166802854
-0.00549173168526
-0.000689884961378
-0.00534718213662
-0.00069809131988
-0.00520133301389
-0.000704863390326
-0.0050544591604
-0.000710275809333
-0.00490682064652
-0.000714399544283
-0.00475866405929
-0.000717302661737
-0.00461022273484
-0.000719049750853
-0.00446171796702
-0.00071970292025
-0.00431335905492
-0.000719321405119
-0.00416534433782
-0.000717962732183
-0.00401786099419
-0.000715682447059
-0.003871085847
-0.000712535361037
-0.00372518489382
-0.000708575317087
-0.00358031387085
-0.000703856420518
-0.0034366175409
-0.000698432760339
-0.00329423004833
-0.0006923595322
-0.00315327403208
-0.000685692647588
-0.00301386083663
-0.000678489680305
-0.00287608954405
-0.000670809324739
-0.00274004712332
-0.000662712129213
-0.00260580748278
-0.000654259798244
-0.00247343163977
-0.0006455157102
-0.00234296688606
-0.000636544088754
-0.002214447045
-0.000627410328949
-0.00208789181997
-0.00061818008341
-0.00196330718271
-0.000608919437209
-0.00184068494718
-0.000599693962409
-0.00172000330486
-0.000590568785552
-0.00160122663465
-0.000581607661181
-0.001484306171
-0.000572872970256
-0.00136918002371
-0.000564424854767
-0.00125577392011
-0.00055632117898
-0.00114400134476
-0.000548616766833
-0.00103376419947
-0.000541363379601
-0.000924952832268
-0.00053460916651
-0.000817446287825
-0.000528398879513
-0.000711111809815
-0.00052277399767
-0.000605804496341
-0.000517774129705
-0.000501367356002
-0.000513439517059
-0.000397635277373
-0.000509815759872
-0.000294452974822
-0.000506954345288
-0.000191753187942
-0.000504788694627
-9.01746176796e-05
-0.000500815295056
-0.000449567422578
-0.000421078081268
0.0023740432653
-0.000887485282676
0.00263078400978
-0.00135145289568
0.00261972724159
-0.00180780586426
0.00258086213702
-0.0022539835974
0.00252864739095
-0.00268779615745
0.00246485010997
-0.00310732412522
0.00239066517888
-0.00351092796892
0.00230735165026
-0.00389725231359
0.002216219498
-0.00426521937679
0.0021185835292
-0.00461401349964
0.00201572217177
-0.00494305892822
0.00190884471222
-0.00525199357603
0.00179906758949
-0.00554064078495
0.00168739947491
-0.00580898123573
0.00157473417483
-0.00605712618035
0.00146185008093
-0.00628529325152
0.00134941466423
-0.00649378514523
0.00123799257025
-0.00668297168381
0.00112805595496
-0.00685327494928
0.00101999592759
-0.00700515754175
0.000914134178046
-0.00713911335351
0.000810734087948
-0.00725566071536
0.000710010861867
-0.00735533722989
0.000612140347817
-0.00743869611205
0.000517266448981
-0.00750630341544
0.000425507048599
-0.00755873601998
0.000336958607351
-0.00759657990034
0.000251699493519
-0.00762042864544
0.000169792355736
-0.0076308819176
9.1285622587e-05
-0.00762854392673
1.62145067833e-05
-0.00761402143049
-5.53989588686e-05
-0.00758792235916
-0.000123544239306
-0.00755085354511
-0.00018822356847
-0.00750341881475
-0.00024945098431
-0.00744621692433
-0.000307252313697
-0.00737983950352
-0.000361664722638
-0.00730486908434
-0.000412736318713
-0.00722187718546
-0.00046052545449
-0.00713142258445
-0.000505100092614
-0.00703404967563
-0.000546536860639
-0.00693028709822
-0.000584920221776
-0.00682064645722
-0.000620341346071
-0.00670562137557
-0.000652897164141
-0.00658568662363
-0.000682689138383
-0.00646129762136
-0.000709822285958
-0.00633288998436
-0.000734403935501
-0.00620087946778
-0.000756542800976
-0.00606566190614
-0.000776347802909
-0.00592761356154
-0.000793927268743
-0.00578709140696
-0.000809387892143
-0.00564443381467
-0.000822834128729
-0.00549996110657
-0.000834367360135
-0.00535397649114
-0.000844085546047
-0.00520676677861
-0.000852082648134
-0.00505860345137
-0.000858448581726
-0.00490974342127
-0.000863268931356
-0.00476043010459
-0.000866625214951
-0.00461089409311
-0.000868594887845
-0.00446135410687
-0.000869251891517
-0.00431201746503
-0.000868666898403
-0.00416308081434
-0.000866908074496
-0.00401473032008
-0.00086404147758
-0.00386714211168
-0.000860131927908
-0.00372048216502
-0.000855243446746
-0.00357490646033
-0.000849440114805
-0.00343056058221
-0.000842786435214
-0.00328757963741
-0.000835348068094
-0.00314608764702
-0.000827192022863
-0.00300619731045
-0.000818387188311
-0.00286800929429
-0.000809004297872
-0.00273161194714
-0.000799116217202
-0.00259708059779
-0.000788797671455
-0.0024644773219
-0.000778125296442
-0.00233385034945
-0.000767177157836
-0.00220523396312
-0.00075603260573
-0.00207864808836
-0.000744771643305
-0.00195409837256
-0.000733474643022
-0.0018315759979
-0.000722221634215
-0.00171105795673
-0.000711091942395
-0.00159250709334
-0.000700163462535
-0.00147587255823
-0.000689512277086
-0.00136109005037
-0.000679211974263
-0.00124808239783
-0.000669333295462
-0.00113675993169
-0.000659943560892
-0.0010270210968
-0.000651106421387
-0.000918752856128
-0.000642881510339
-0.00081183125535
-0.000635324490041
-0.000706121935973
-0.000628487256896
-0.000601481201954
-0.000622418736618
-0.000497758205907
-0.000617166191345
-0.000394800789697
-0.000612776773846
-0.000292469280487
-0.0006092895082
-0.000190687220158
-0.000606574124374
-8.99595558661e-05
-0.000601546473059
-0.000539528885019
-0.000433669947881
0.0028077096768
-0.000913792828082
0.00311090293616
-0.00139101667778
0.00309694741398
-0.00185985147404
0.00304969303006
-0.00231752906904
0.00298632105981
-0.00276170224985
0.00290901922402
-0.0031903458464
0.00281930460166
-0.00360176625934
0.00271876773844
-0.00399460164433
0.00260905041083
-0.00436780875635
0.00249178599031
-0.00472063906504
0.00236854765665
-0.00505260774636
0.00224080836853
-0.00536345870999
0.00210991333949
-0.00565312872002
0.00197706405494
-0.00592171269784
0.00184331252485
-0.0061694320209
0.00170956355158
-0.00639660659087
0.00157658318074
-0.00660363135613
0.00144501105442
-0.00679095708991
0.00131537520759
-0.00695907542512
0.00118810755597
-0.00710850743955
0.00106355929078
-0.00723979551822
0.000942015044615
-0.00735349761865
0.000823705653394
-0.00745018364826
0.000708818856975
-0.00753043309822
0.000597508202391
-0.00759483375909
0.000489899812237
-0.00764398078049
0.000386097567881
-0.00767847608431
0.000286186549162
-0.00769892755506
0.000190235428797
-0.00770594820861
9.82977049149e-05
-0.00770015504907
1.04126414437e-05
-0.00768216724604
-7.33956242682e-05
-0.00765260486237
-0.000153115603174
-0.00761208675987
-0.000228750792119
-0.00756122846123
-0.000300318505906
-0.00750064009859
-0.000367850023259
-0.0074309241491
-0.000431390104016
-0.00735267342851
-0.000490996577787
-0.00726646897141
-0.000546739517943
-0.00717287826843
-0.000598700490206
-0.00707245346048
-0.000646971413226
-0.00696572995392
-0.000691653542475
-0.00685322503205
-0.00073285611391
-0.00673543692263
-0.000770695169379
-0.00661284387528
-0.000805292094469
-0.00648590370617
-0.000836772393591
-0.006355053347
-0.000865264226853
-0.00622070885522
-0.000890897233909
-0.00608326540879
-0.000913801164269
-0.00594309774146
-0.000934104838817
-0.00580056052994
-0.000951934960021
-0.00565598918641
-0.000967415294661
-0.00550970055633
-0.000980665745559
-0.00536199396989
-0.000991801831825
-0.00521315213743
-0.00100093409193
-0.00506344233186
-0.00100816792011
-0.00491311734252
-0.00101360334424
-0.00476241664041
-0.00101733523937
-0.00461156724057
-0.00101945347939
-0.00446078470263
-0.00102004349708
-0.00431027376574
-0.00101918675119
-0.00416022906421
-0.00101696154533
-0.00401083543998
-0.0010134436991
-0.00386226830511
-0.00100870749185
-0.00371469359783
-0.00100282639254
-0.00356826778907
-0.000995873974168
-0.00342313751571
-0.000987924552974
-0.0032794392922
-0.00097905393152
-0.00313729891186
-0.000969339825514
-0.00299683097136
-0.000958862334597
-0.0028581381656
-0.000947704085774
-0.00272131075377
-0.000935950388199
-0.00258642587941
-0.000923689081231
-0.00245354710016
-0.000911010387894
-0.00232272384566
-0.00089800650653
-0.00219399110587
-0.00088477122233
-0.0020673691036
-0.000871399315049
-0.00194286319852
-0.000857986011344
-0.0018204638099
-0.000844626293008
-0.00170014655509
-0.00083141427637
-0.00158187241939
-0.000818442500717
-0.00146558811404
-0.000805801312025
-0.00135122645944
-0.000793578200088
-0.00123870692102
-0.000781857254234
-0.00112793615338
-0.000770718614932
-0.00101880866329
-0.00076023807702
-0.000911207486504
-0.000750486749514
-0.000805005033291
-0.000741530927836
-0.000700064082767
-0.000733432099256
-0.000596239365656
-0.00072624724805
-0.000493380175438
-0.000720029180325
-0.000391334641454
-0.000714825919949
-0.00028995807405
-0.000710669324314
-0.000189149244224
-0.000707386528957
-8.93364135786e-05
-0.000701363070737
-0.000628867025845
-0.000448973712332
0.00325667985248
-0.000945772162838
0.00360769813824
-0.00143907952107
0.00359025104678
-0.00192300202128
0.00353361186294
-0.00239451028607
0.00345782547464
-0.00285106467865
0.00336556969123
-0.00329051708561
0.00325875293377
-0.00371111856532
0.00313936500894
-0.00411151333876
0.0030094407998
-0.0044907157389
0.00287098383818
-0.00484807472438
0.00272590188787
-0.0051832306403
0.00257595934179
-0.00549606885761
0.00242274639317
-0.00578667378792
0.00226766362152
-0.0060552861754
0.00211191931649
-0.0063022652276
0.00195653680247
-0.00652805669716
0.00180236861182
-0.00673316692967
0.00165011504299
-0.00691814283971
0.00150034463681
-0.00708355701047
0.00135351504448
-0.00722999740326
0.0012099927687
-0.00735806061798
0.00107007115057
-0.00746834812946
0.000933985831291
-0.00756146447677
0.000801927686861
-0.0076380169552
0.000674052948816
-0.00769861595096
0.000550490904468
-0.00774387567867
0.000431349190174
-0.00777441469205
0.000316717299491
-0.00779085616873
0.000206668454764
-0.00779382754252
0.000101260484735
-0.00778396018421
5.36516853878e-07
-0.00776188752592
-9.54771744644e-05
-0.00772824348607
-0.000186768690285
-0.00768366101519
-0.000273342420088
-0.00762876954325
-0.000355219273461
-0.00756419266341
-0.000432436291984
-0.0074905458637
-0.000505046413745
-0.00740843418531
-0.000573117842377
-0.00731845010193
-0.000636733290465
-0.00722117145009
-0.000695988889881
-0.00711715966454
-0.000750993030794
-0.00700695813851
-0.000801864941082
-0.00689109092982
-0.00084873325977
-0.00677006162935
-0.000891734428942
-0.00664435258492
-0.000931011142381
-0.00651442429965
-0.00096671068501
-0.00638071517381
-0.000998983382324
-0.00624364141661
-0.00102798100367
-0.00610359727533
-0.00105385532019
-0.00596095541724
-0.0010767566743
-0.00581606758956
-0.00109683274519
-0.00566926540122
-0.00111422738267
-0.00552086132677
-0.00112907967741
-0.00537114978284
-0.00114152315435
-0.00522040835123
-0.00115168523701
-0.00506889900689
-0.00115968687781
-0.00491686940019
-0.00116564247582
-0.00476455406432
-0.00116965997844
-0.00461217557873
-0.00117184125591
-0.00445994558117
-0.00117228264221
-0.00430806564741
-0.00117107569626
-0.00415672796412
-0.00116830807519
-0.00400611580827
-0.0011640645415
-0.00385640380058
-0.00115842800098
-0.00370775794279
-0.00115148056912
-0.00356033545293
-0.00114330457942
-0.00341428440205
-0.0011339835164
-0.00326974321134
-0.00112360281649
-0.00312684000041
-0.00111225051162
-0.00298569188307
-0.00110001769886
-0.00284640418013
-0.00108699880592
-0.00270906967254
-0.00107329168064
-0.00257376783802
-0.00105899746697
-0.00244056420745
-0.00104422033972
-0.00230950975773
-0.00102906704714
-0.00218064047927
-0.00101364637019
-0.0020539770131
-0.000998068430203
-0.00192952448751
-0.000982443977892
-0.00180727243808
-0.000966883578345
-0.0016871949248
-0.00095149683457
-0.00156925073091
-0.000936391553629
-0.0014533837365
-0.000921672993833
-0.00133952336276
-0.000907443097627
-0.00122758515843
-0.00089379983336
-0.00111747144801
-0.000880836564685
-0.00100907209686
-0.000868641549054
-0.000902265362041
-0.00085729750677
-0.0007969188935
-0.000846881330446
-0.000692890969492
-0.000837463900309
-0.000590032110807
-0.000829109930577
-0.000488187156405
-0.000821877741408
-0.000387198438279
-0.000815818185069
-0.000286910592175
-0.000810960840251
-0.000187199863494
-0.00080710058683
-8.84517465259e-05
-0.000800114691232
-0.00071732072013
-0.00046732786623
0.00372400448768
-0.00098410632445
0.00412447289959
-0.00149663069555
0.00410277206738
-0.0019985009493
0.00403547850028
-0.00248636151897
0.00394568240885
-0.00295744099117
0.00383664536581
-0.00340945201268
0.00371076003962
-0.00384059516585
0.00357050407508
-0.00424954262592
0.0034183840102
-0.0046354008024
0.00325683756439
-0.00499765830834
0.00308815475457
-0.0053361262858
0.00291442245614
-0.00565087684196
0.00273749188191
-0.00594218443977
0.00255896591341
-0.006210473193
0.00238020255181
-0.0064562721045
0.00220232995038
-0.00668017866208
0.00202626919214
-0.0068828308728
0.00185276102939
-0.00706488673228
0.00168239406114
-0.00722701037012
0.00151563200335
-0.00736986342429
0.00135283893976
-0.00749410077669
0.00119430138282
-0.00760036925388
0.00104024699362
-0.00768930860477
0.000890859495476
-0.00776155356868
0.000746290187613
-0.00781773661148
0.000606666006613
-0.0078584904218
0.000472094890586
-0.00788445007232
0.000342668638758
-0.00789625426581
0.000218464182801
-0.00789454589708
9.95434637303e-05
-0.00787997116912
-1.40470015337e-05
-0.00785317956878
-0.000122277733903
-0.00781482136617
-0.000225135972545
-0.00776554563751
-0.000322627380789
-0.0077059978845
-0.000414776362412
-0.0076368175425
-0.000501626104852
-0.00755863530399
-0.00058323820989