/*--------------------------------*- C++ -*----------------------------------*\
| =========                 |                                                 |
| \\      /  F ield         | OpenFOAM: The Open Source CFD Toolbox           |
|  \\    /   O peration     | Version:  v1906                                 |
|   \\  /    A nd           | Web:      www.OpenFOAM.com                      |
|    \\/     M anipulation  |                                                 |
\*---------------------------------------------------------------------------*/
FoamFile
{
    version     2.0;
    format      ascii;
    class       volScalarField;
    location    "947";
    object      p;
}
// * * * * * * * * * * * * * * * * * * * * * * * * * * * * * * * * * * * * * //

dimensions      [0 2 -2 0 0 0 0];


internalField   nonuniform List<scalar> 
9216
(
268.419040172
268.504703593
268.678580641
268.941033172
269.290641171
269.725671138
270.244001484
270.843151916
271.52034777
272.272540277
273.096476566
273.98871352
274.945689337
275.963727022
277.039104184
278.168043674
279.346780189
280.571537334
281.838591178
283.144234334
284.484837641
285.856802495
287.256622201
288.680824028
290.126031833
291.588899199
293.066174712
294.554627462
296.051116186
297.552508295
299.055753863
300.557799337
302.055667582
303.546367725
305.02698182
306.494572338
307.946276579
309.379213336
310.790585406
312.177586797
313.537513069
314.867669677
316.165488583
317.428437326
318.654138947
319.840280301
320.984731317
322.085451105
323.140603268
324.148460332
325.107514988
326.016387802
326.873939501
327.679191306
328.431446316
329.130230329
329.775424078
330.36721892
330.906245948
331.393526927
331.830584549
332.219370954
332.56231778
332.862196526
333.122117751
333.345361553
333.535375168
333.695660059
333.82976792
333.941140324
334.033065784
334.108542546
334.170277135
334.220609883
334.261559073
334.294796996
334.321730293
334.343516124
334.361159075
334.375509564
334.38730078
334.397117714
334.405445511
334.412656922
334.419079511
334.424752659
334.429573194
334.433531905
334.436669272
334.439059907
334.440803537
334.44203265
334.442873373
334.443390937
334.443653344
334.44374398
268.333460523
268.419549527
268.594058178
268.857723884
269.208978485
269.646035165
270.166725091
270.768529273
271.448627296
272.20393278
273.031147774
273.926795643
274.887273748
275.908878793
276.987854116
278.120404955
279.302738922
280.531070643
281.801655682
283.110785333
284.454815232
285.830151717
287.23327674
288.660727362
290.109118537
291.575117183
293.055464221
294.546944474
296.046409146
297.550742651
299.056886623
300.561804876
302.062509882
303.556027003
305.039424777
306.509779799
307.964211769
309.399850432
310.813876315
312.203490786
313.565962697
314.898601813
316.198810398
317.464058989
318.691940459
319.880145767
321.026516884
322.129019779
323.185793099
324.195117524
325.155460508
326.065446015
326.923901733
327.729839202
328.482514512
329.181429014
329.826407858
330.417616105
330.955638211
331.44148465
331.876659221
332.263153812
332.603443231
332.900384502
333.157162312
333.377136805
333.563794425
333.720715625
333.851532597
333.959789523
334.048842566
334.121748932
334.181232443
334.229642809
334.268973378
334.300866617
334.326672561
334.347502142
334.364321222
334.377978746
334.389198205
334.398555902
334.406514234
334.413432345
334.419586113
334.425107968
334.429857005
334.433727196
334.436838994
334.439229103
334.440947366
334.442159284
334.443000108
334.443500049
334.443741427
334.44383808
268.15884188
268.24602301
268.422276592
268.688539066
269.043197216
269.484405403
270.00991908
270.617139253
271.303159094
272.064808678
272.898705108
273.801295135
274.76890138
275.797757703
276.884047721
278.023930494
279.213570106
280.449151422
281.726901299
283.043095527
284.39407319
285.776236461
287.186059882
288.620084737
290.074924895
291.547257254
293.033825512
294.531427915
296.036920107
297.547201243
299.059216925
300.569944759
302.07639847
303.575614046
305.064656235
306.540606613
308.000573819
309.441684966
310.861100803
312.256011636
313.623658053
314.96133161
316.266400512
317.536313807
318.768629614
319.96101972
321.111296252
322.217412541
323.277484178
324.289783589
325.252754933
326.165005806
327.025323415
327.8326761
328.586246795
329.285461174
329.930049582
330.520097313
331.056111952
331.53905121
331.970389679
332.352183225
332.687021381
332.977925601
333.228272706
333.441565125
333.621359877
333.771376098
333.895441023
333.997309191
334.080497133
334.148169076
334.203094007
334.247626369
334.283717545
334.312933648
334.33650863
334.355431963
334.370595577
334.382853707
334.392930732
334.401374557
334.40860912
334.414973909
334.420722596
334.425954844
334.430418824
334.434104484
334.437168479
334.439536735
334.441213298
334.442419812
334.443237337
334.443718268
334.443975669
334.444101735
267.893025661
267.981610268
268.16056214
268.430838069
268.79074791
269.238349804
269.771283922
270.386825516
271.081935502
271.8533121
272.697443184
273.6106547
274.589157055
275.629084994
276.726534233
277.877590575
279.078355963
280.324967091
281.613611976
282.940539704
284.302069476
285.69459355
287.114580817
288.558574864
290.023193817
291.50512508
293.00112281
294.508000513
296.02262722
297.541918905
299.062834295
300.582366083
302.097537445
303.605394202
305.103003221
306.587446897
308.055825051
309.505253373
310.932870358
312.335841185
313.711370784
315.056713736
316.369193221
317.646215686
318.885293099
320.084058536
321.240286559
322.351903748
323.417001054
324.433834077
325.400824959
326.316554124
327.179760272
327.989339856
328.744369627
329.444143918
330.088243977
330.676615976
331.209650874
331.688196273
332.113647359
332.488166292
332.814542279
333.096062
333.336487072
333.539520401
333.708733354
333.848040071
333.961621158
334.053599978
334.127762631
334.187430637
334.235436304
334.274131511
334.305402795
334.330688236
334.351016319
334.367132533
334.379798603
334.389937464
334.398314419
334.405413066
334.411583397
334.417147255
334.422329248
334.427108455
334.43122054
334.43472079
334.437634248
334.43992861
334.441643369
334.442845874
334.443648785
334.444147609
334.444431734
334.44456957
267.534700769
267.62514779
267.80779494
268.083571318
268.450673268
268.907020558
269.450091591
270.076985241
270.784478668
271.569086555
272.427118954
273.354735204
274.347993249
275.402892596
276.515411396
277.681536646
278.897288847
280.158740504
281.462030264
282.803372092
284.179061503
285.585478007
287.019085852
288.476431919
289.954142866
291.448920063
292.957534463
294.476819685
296.003665559
297.535010186
299.067832922
300.599146271
302.125989339
303.645420643
305.154513188
306.650349681
308.130021098
309.590626275
311.029275954
312.443098759
313.829252461
315.18493754
316.507415948
317.794031265
319.042232253
320.249594958
321.413844321
322.53286979
323.604735369
324.627679788
325.60010809
326.520575461
327.387767786
328.200489612
328.957670823
329.658409319
330.302061874
330.888361488
331.417550948
331.890275752
332.307697604
332.672183873
332.986821076
333.255269026
333.482098407
333.671232425
333.825954512
333.950421353
334.049445602
334.127775443
334.189600063
334.238432238
334.277165092
334.308132216
334.333136112
334.353434934
334.369723476
334.382255428
334.391550599
334.398820218
334.404991306
334.410378823
334.415172498
334.419722994
334.424203462
334.428438439
334.432168307
334.435443095
334.438274505
334.440538125
334.442245347
334.443476875
334.444313408
334.444845048
334.445161881
334.445316797
267.081929875
267.174762226
267.36217499
267.645046617
268.02141857
268.489023269
269.045122874
269.686581777
270.40993463
271.211455133
272.08722176
273.033178156
274.045186816
275.119075019
276.250672979
277.435844237
278.670509121
279.950661805
281.272382125
282.631842739
284.025312765
285.449158306
286.899840821
288.373913478
289.86801628
291.378869862
292.903268635
294.438072988
295.980201205
297.526620709
299.07433929
300.620396062
302.161852916
303.695786158
305.219279317
306.729417064
308.223281521
309.697950864
311.150501716
312.578015203
313.977588089
315.346348449
316.681476754
317.980230793
319.239974129
320.458204889
321.632583069
322.760951285
323.841346822
324.871998791
325.851311843
326.777831484
327.650202895
328.467127172
329.22734461
329.929670378
330.573122326
331.15711845
331.681785751
332.147433422
332.554518273
332.905937773
333.205139629
333.45613937
333.665491573
333.837203395
333.97328334
334.078214077
334.158027698
334.218556331
334.264529537
334.299628138
334.326750025
334.348189636
334.365664907
334.380247503
334.392127101
334.40051196
334.405374057
334.408885251
334.41246483
334.415911358
334.419021221
334.422395954
334.42606737
334.429722392
334.433176516
334.436349847
334.439104014
334.441308235
334.443065185
334.44437901
334.445273283
334.44588703
334.446253847
334.44643573
266.532231361
266.628033277
266.821385519
267.113095561
267.501001197
267.982589706
268.554842163
269.214320307
269.957248121
270.779592988
271.677141655
272.645568544
273.68049478
274.777537223
275.932347617
277.140642456
278.398224643
279.700998067
281.044976414
282.426287281
283.841172726
285.285987019
286.757192368
288.251353083
289.765128634
291.295265797
292.838590157
294.391996992
295.952441708
297.516929798
299.082506449
300.646245973
302.205241288
303.756593618
305.297402886
306.824759389
308.335737556
309.827392491
311.296760417
312.740863896
314.156722888
315.541372264
316.891886168
318.205408744
319.479189909
320.710623618
321.897284406
323.036957556
324.127655477
325.167615992
326.155273873
327.089207313
327.968056723
328.790433829
329.554847915
330.259707208
330.903505007
331.485142653
332.004945401
332.462752946
332.856816391
333.191791052
333.471274359
333.698898389
333.886952785
334.038574699
334.151582826
334.231195173
334.28611092
334.324100739
334.350486667
334.368913004
334.382114267
334.392315284
334.401211458
334.409850535
334.417817902
334.421954612
334.420687073
334.419113336
334.420071635
334.421668618
334.422666476
334.42478893
334.427668064
334.430830536
334.434113762
334.437233173
334.440008918
334.442341554
334.444223235
334.445646748
334.446639702
334.447341185
334.447760147
334.447965586
265.882514698
265.981941977
266.18254379
266.485030221
266.886976349
267.385553578
267.977383396
268.658643224
269.425166024
270.272537331
271.196184142
272.19145273
273.253673788
274.378214479
275.560518007
276.79613194
278.080726934
279.410107579
280.780217083
282.187137294
283.627085321
285.09640778
286.591573395
288.109164518
289.645867904
291.198464955
292.763821532
294.338877356
295.920634981
297.506148286
299.092510416
300.676841384
302.256275386
303.827947999
305.388983723
306.936484566
308.467520531
309.979123005
311.468282437
312.931951613
314.367056161
315.77051343
317.139260842
318.470293551
319.760710531
321.007765712
322.208919829
323.361884656
324.464652028
325.515494993
326.512933923
327.455654999
328.342380699
329.171694767
329.941858565
330.650695505
331.295823425
331.875063887
332.390186143
332.840842234
333.218095801
333.533268753
333.788270219
333.982041737
334.145631515
334.276663451
334.361664656
334.40808577
334.431132508
334.441806719
334.445188549
334.444071702
334.440947647
334.438084777
334.437442978
334.440591983
334.447106328
334.447962204
334.436725492
334.427390453
334.426886681
334.427609462
334.425431338
334.426389455
334.428700081
334.431490564
334.434845285
334.438051499
334.44105542
334.443670951
334.445761372
334.447357674
334.448496252
334.449247326
334.449728028
334.44995375
265.129007244
265.232806503
265.442143317
265.757596087
266.176402312
266.695329411
267.310542166
268.017734304
268.812251651
269.689209551
270.643597698
271.670369137
272.764511948
273.921103786
275.135350678
276.402612217
277.718415641
279.078461272
280.478621593
281.914935881
283.383601927
284.880965981
286.403511711
287.947848697
289.510700726
291.088894007
292.679345288
294.279049771
295.885068668
297.494516224
299.104545955
300.712336278
302.315075382
303.90994549
305.494106911
307.064682685
308.618744724
310.153302791
311.665297952
313.151602537
314.609028729
316.034348106
317.424323855
318.775756836
320.085544678
321.350751354
322.568680666
323.736944908
324.853514595
325.916735196
326.925292486
327.878109374
328.774155969
329.612154785
330.390190698
331.105271192
331.75348256
332.329532403
332.840834967
333.289748226
333.6418786
333.935241048
334.161858295
334.300605931
334.459625321
334.589068972
334.63960925
334.633099386
334.603511077
334.570257482
334.541613297
334.517940101
334.497668665
334.480661439
334.469059181
334.468323169
334.482834835
334.484078846
334.452294693
334.428902602
334.432283416
334.435213641
334.425954989
334.426448567
334.428932845
334.431339176
334.435280418
334.438765458
334.442289084
334.44534242
334.447768317
334.449577971
334.450855359
334.451653032
334.452195869
334.452433823
264.267161009
264.376194635
264.595978542
264.926911223
265.365797157
265.90888736
266.551768104
267.289526653
268.116905465
269.028445444
270.018610233
271.081887918
272.212869154
273.406302881
274.657132283
275.960514435
277.31182729
278.706667467
280.140841802
281.610355075
283.111395667
284.640320411
286.19363938
287.768001071
289.360178094
290.967053374
292.585606664
294.212901127
295.846069642
297.482300503
299.118822032
300.752886196
302.381750843
304.002660589
305.612826726
307.20940691
308.789485682
310.350057317
311.888013171
313.400136055
314.88310491
316.3335131
317.747903805
319.122824969
320.454904805
321.740945396
322.978028031
324.163618089
325.295652037
326.372585062
327.393374574
328.357372388
329.264084717
330.112738847
330.901576816
331.626642685
332.281418957
332.849785471
333.357219187
333.825968793
334.132277391
334.442030481
334.663381609
334.628439223
334.50639406
334.536525381
334.590829328
334.604348641
334.593855819
334.575234513
334.555578147
334.538489093
334.52595001
334.519271929
334.521249234
334.537702208
334.567852117
334.56473221
334.463485195
334.399351617
334.43326137
334.449515717
334.42019341
334.424046501
334.428712826
334.429724632
334.435491732
334.439188469
334.443673157
334.447517755
334.450408578
334.452449664
334.453792197
334.454633469
334.45519224
334.455438974
263.291532866
263.406813637
263.639048426
263.988390709
264.45108656
265.022725551
265.698160202
266.471718016
267.337396185
268.289037563
269.320478194
270.425662848
271.598728534
272.834058872
274.126313869
275.470440443
276.861668921
278.295500213
279.76768746
281.274215048
282.811276966
284.375255755
285.962702704
287.570319535
289.194941529
290.833521858
292.483116772
294.140871151
295.804003918
297.469792727
299.135557213
300.798640699
302.456389727
304.106131207
305.745147497
307.370650065
308.979752793
310.569446662
312.136578283
313.677835701
315.189745663
316.668687578
318.110929525
319.512691717
320.870240599
322.180013582
323.438767871
324.643739173
325.792787114
326.884498523
327.918219337
328.893979702
329.812268591
330.673535568
331.477213287
332.219059504
332.890298792
333.436226002
333.942478888
334.575478669
334.670780329
334.53483551
334.571845101
334.615751161
334.592672323
334.582483068
334.596899199
334.597750245
334.585930246
334.568931693
334.551582703
334.537027554
334.526530179
334.520444189
334.519061903
334.52248664
334.526137765
334.511026294
334.48709727
334.492350119
334.531297193
334.522996401
334.385342037
334.412417427
334.429268235
334.424564762
334.436277484
334.438917885
334.445398678
334.45054646
334.453935593
334.456098087
334.457433521
334.45823942
334.458741716
334.458980903
262.195630055
262.318365554
262.56543428
262.936652411
263.427542113
264.032841014
264.746467986
265.561797318
266.471906674
267.469793975
268.548552127
269.70149852
270.922261299
272.204827979
273.543563893
274.93320842
276.368856376
277.845930771
279.360151667
280.90750447
282.484209706
284.086695395
285.711572367
287.355612498
289.015729475
290.688961642
292.372456279
294.063454691
295.759277268
297.457307732
299.154975501
300.849735819
302.539046688
304.220342057
305.891001467
307.548316541
309.189455344
310.811426343
312.411044835
313.984905827
315.529369003
317.040562825
318.514416429
319.9467283
321.333279879
322.669997851
323.95316117
325.179635922
326.347107496
327.454270963
328.500943832
329.488085884
330.417704204
331.292548255
332.115321711
332.884834024
333.602639704
334.074445205
334.451455989
334.5448425
334.626151062
334.61739033
334.603023826
334.61083482
334.597560752
334.588401056
334.589483422
334.584540214
334.572261796
334.556491569
334.541275378
334.529217096
334.520655916
334.515577144
334.51343875
334.512959315
334.511223434
334.502175906
334.491007807
334.490503739
334.498410389
334.485196635
334.483263993
334.502504095
334.460220291
334.402903496
334.439728849
334.435883626
334.447840281
334.455120123
334.458779662
334.460711577
334.46180063
334.462442597
334.462802681
334.4629998
260.971709103
261.103363482
261.36814386
261.765400921
262.28970921
262.934701715
263.693103048
264.557088376
265.518600872
266.569619392
267.702363818
268.909436855
270.183907766
271.519348033
272.909830701
274.349905059
275.834556767
277.359161451
278.919437421
280.511401116
282.131327174
283.775713779
285.441253158
287.124806664
288.823383682
290.53412356
292.254279699
293.981204907
295.712336979
297.445183334
299.177303294
300.906287258
302.629731419
304.345206996
306.050223997
307.742189495
309.418361193
311.075797856
312.711309498
314.321411838
315.902291789
317.449793454
318.959436935
320.426484974
321.846072594
323.21341226
324.524075493
325.77433386
326.961516057
328.08431549
329.143014716
330.139642814
331.07819085
331.96519306
332.812380158
333.647119954
334.621179082
334.503148631
334.495075392
334.560304766
334.605531544
334.608013814
334.600354287
334.597191274
334.585026294
334.574593296
334.568223093
334.559274525
334.546522008
334.532069665
334.519323888
334.509983628
334.503662232
334.500203784
334.498915797
334.498505439
334.49718803
334.492724783
334.487072323
334.485866593
334.487508827
334.481935367
334.480230377
334.480529528
334.478170375
334.493324444
334.489419235
334.419957031
334.451726498
334.462734062
334.465522067
334.466448858
334.466821999
334.467108258
334.467267776
334.467414201
259.610512706
259.7528893
260.038912825
260.467283983
261.031324955
261.723223799
262.534168181
263.454819392
264.475720684
265.58762674
266.781741619
268.049867745
269.384477656
270.778725279
272.226414803
273.721943789
275.260234087
276.836660545
278.446983915
280.087291486
281.753946686
283.443547486
285.152892578
286.87895405
288.618855229
290.369852559
292.129320401
293.894737722
295.663675317
297.43378209
299.202768419
300.968385419
302.728398168
304.480551348
306.222526976
307.951893678
309.666047782
311.362147274
313.037041146
314.687198554
316.308645419
317.896919922
319.447063906
320.953672534
322.411029669
323.813355251
325.155180681
326.431837614
327.639993058
328.778107906
329.846733476
330.848618263
331.788606809
332.673697161
333.517428658
334.367054181
334.537204509
334.609087083
334.561387665
334.575771543
334.593528278
334.589853353
334.579368884
334.568474713
334.553720513
334.539707468
334.528063321
334.516207362
334.503177568
334.490862248
334.481552375
334.475302124
334.471807936
334.470863498
334.471768083
334.473444937
334.474760373
334.4748537
334.474735022
334.47658147
334.479325618
334.478923421
334.478355485
334.479648974
334.48071606
334.486793906
334.489655076
334.490271821
334.476761676
334.478586765
334.474873855
334.473104226
334.472230568
334.471969505
334.472006409
334.472139889
258.100921013
258.256279676
258.567949395
259.033716514
259.645227088
260.392761374
261.265515023
262.252230924
263.341725182
264.52328995
265.786962308
267.123669557
268.525272874
269.984536654
271.495050578
273.051127683
274.647696098
276.280196314
277.944490662
279.636787715
281.353581492
283.091603817
284.84778744
286.61923757
288.403209833
290.197093163
291.998396472
293.804737934
295.613835414
297.423496066
299.231602522
301.036093758
302.834938078
304.626095944
306.40747202
308.17685516
309.93184583
311.669771024
313.387588066
315.08178081
316.748255471
318.382248816
319.978269719
321.530106058
323.030940541
324.473629117
325.851187852
327.157491982
328.388105384
329.540964286
330.616764796
331.618940216
332.553570583
333.433535696
334.304993809
334.43710447
334.518709929
334.566521268
334.556452144
334.559242016
334.560685281
334.549603501
334.532742516
334.514825484
334.496014894
334.47858989
334.463764956
334.450639262
334.438567223
334.4294399
334.424334399
334.422030404
334.422425721
334.425300641
334.429981607
334.435585316
334.441314866
334.446718415
334.452185301
334.45835796
334.464536359
334.469095485
334.473137415
334.477586495
334.480812263
334.484825045
334.488061623
334.490740494
334.505226002
334.505090407
334.48400316
334.479142345
334.477210035
334.476592727
334.47686149
334.477115627
256.429484814
256.60070609
256.943605258
257.45466463
258.123258362
258.937120864
259.882847285
260.946740795
262.115489496
263.376652282
264.718949941
266.132385935
267.608235721
269.138947742
270.717995787
272.339714397
273.999139446
275.691867072
277.41393681
279.161739621
280.931948216
282.721465616
284.527387485
286.346974503
288.177631937
290.016894795
291.862417535
293.711967497
295.56342046
297.414755909
299.264048441
301.109452445
302.949176624
304.78144537
306.604446075
308.416260345
310.21477755
311.997589171
313.761863253
315.504200037
317.220473813
318.905672296
320.553756517
322.157581411
323.708943283
325.198848731
326.618114704
327.958377533
329.21344202
330.380330206
331.459754117
332.456356218
333.383378534
334.290089317
334.408582377
334.465309512
334.513572843
334.537076353
334.529566782
334.517770271
334.502370692
334.480489836
334.455577803
334.431041298
334.408092306
334.388137216
334.372007382
334.359405417
334.350056116
334.345394697
334.345178021
334.34789406
334.353457849
334.361593442
334.371646353
334.382845774
334.394521318
334.406251867
334.417997522
334.429771971
334.441064311
334.451127803
334.460306314
334.468794562
334.475940479
334.482343776
334.487369443
334.491131193
334.499291528
334.503635099
334.49596096
334.482396036
334.480794126
334.480444922
334.481714519
334.482397545
254.579790618
254.770615962
255.151947218
255.718383953
256.456174875
257.349620262
258.381895575
259.536192982
260.796587391
262.148608966
263.579534272
265.078445646
266.636124441
268.244844866
269.898125245
271.590478547
273.317188341
275.07412314
276.857592144
278.664239145
280.490967849
282.334890851
284.193294933
286.063616999
287.943427045
289.830416625
291.722392643
293.617276496
295.513107251
297.408045738
299.300374608
301.188489813
303.070879123
304.946083898
306.812643323
308.669018445
310.513493273
312.34404906
314.158207873
315.952842208
317.723950451
319.466403529
321.173681374
322.837641572
324.448406556
325.994521215
327.463617145
328.843842248
330.126222765
331.306225395
332.384798829
333.374070797
334.326363329
334.425694617
334.454541736
334.477557107
334.494652768
334.492144446
334.470096059
334.441537099
334.410401233
334.377233152
334.344373592
334.314246745
334.288159424
334.267074178
334.251478203
334.241146214
334.23655912
334.237847705
334.24320543
334.25192934
334.263882
334.278632699
334.295498088
334.313737723
334.332688904
334.351848182
334.370900297
334.389559044
334.407352831
334.423777489
334.43878107
334.452280375
334.463938983
334.473795622
334.481506875
334.486876216
334.491437721
334.493498387
334.489961634
334.483153432
334.483289136
334.48310671
334.486865753
334.488361088
252.531584374
252.746968895
253.176197726
253.811105775
254.633576824
255.623226574
256.758704025
258.019229709
259.385690699
260.841288283
262.371783369
263.96543157
265.612715722
267.305976675
269.039021823
270.806764124
272.604919911
274.42977492
276.278015386
278.146614084
280.032758142
281.933805533
283.847258925
285.770748823
287.702021566
289.638931517
291.579439166
293.52161738
295.46366529
297.403925751
299.340898904
301.273244637
303.199767986
305.119383551
307.031058772
308.933733745
310.826213495
312.707026036
314.574237731
316.425216601
318.256334485
320.062600402
321.837227359
323.571159533
325.252644645
326.867061654
328.397428894
329.826274259
331.140116657
332.332315782
333.410599443
334.430204381
334.503895861
334.493016568
334.480160894
334.468035424
334.44808594
334.415916463
334.373391691
334.327498695
334.282008349
334.238548166
334.198924252
334.164813056
334.137237363
334.116805761
334.10374949
334.097862354
334.099274482
334.106890923
334.11874522
334.134527961
334.15397023
334.176493885
334.201365409
334.227823012
334.255156039
334.282753526
334.310111229
334.336759999
334.36218768
334.385912079
334.407660314
334.427182955
334.444162961
334.458435609
334.469763648
334.477949679
334.483361375
334.485388852
334.483039696
334.476363537
334.4707982
334.482295798
334.49336025
334.495876726
250.259538376
250.506188955
250.99599906
251.716672214
252.643895685
253.750826498
255.010090032
256.395843601
257.885130606
259.458561302
261.100426001
262.79840242
264.543029235
266.327095485
268.145053206
269.9925157
271.865866583
273.76197961
275.678034514
277.611407734
279.559615495
281.520288836
283.491164059
285.470077443
287.45495926
289.443828253
291.4347924
293.426062905
295.415982843
297.403064667
299.386024829
301.363802683
303.335555949
305.300629669
307.258500515
309.208696538
311.150687306
313.08373395
315.006685405
316.917704289
318.813901312
320.690850117
322.541951991
324.357620862
326.124321
327.823640256
329.431972746
330.922141316
332.273805987
333.484759092
334.611933697
334.658022743
334.593047019
334.531511064
334.478000754
334.423249758
334.364842108
334.302646971
334.238453183
334.176107442
334.118364318
334.066744483
334.022465696
333.986510354
333.959453731
333.941551079
333.932818421
333.932939046
333.941143199
333.955378087
333.974421142
333.998007962
334.025684369
334.056755612
334.090431418
334.125902339
334.16238904
334.19917542
334.235614872
334.271102351
334.305048927
334.33691686
334.366288007
334.392793043
334.4160759
334.435880959
334.451994117
334.46427891
334.472860746
334.477557927
334.478175408
334.47412845
334.465020778
334.468140136
334.504868118
334.506559392
247.731481323
248.018693665
248.586445542
249.416132826
250.474502397
251.725720042
253.134370826
254.668191265
256.299681013
258.006716442
259.77237821
261.58426484
263.433561372
265.314080545
267.221415907
269.152271912
271.103982376
273.074197221
275.060703263
277.061341405
279.073985099
281.096550141
283.12701271
285.163420723
287.203892926
289.246610582
291.289814987
293.33182809
295.371101405
297.406284739
299.436293367
301.460351333
303.477999734
305.489069841
307.493628714
309.491904171
311.484182814
313.470665815
315.451262881
317.425301824
319.391122579
321.345503837
323.282835124
325.193918607
327.064238733
328.871596075
330.583109882
332.153945556
333.562146032
334.863952197
334.892371809
334.762155256
334.640322352
334.534640079
334.433471145
334.335121921
334.240721141
334.151010428
334.067180015
333.991170542
333.924458107
333.867817515
333.821706625
333.78640202
333.76197837
333.748369561
333.745473883
333.752410383
333.76738058
333.788363626
333.81487151
333.84651791
333.882666591
333.922537474
333.965290323
334.010065648
334.056018131
334.102341163
334.148275816
334.193104632
334.236148033
334.276784579
334.314481627
334.348773027
334.379251121
334.405608191
334.427634423
334.445244585
334.458567956
334.467786766
334.473344606
334.475668538
334.474260134
334.478390512
334.550412689
334.525929263
244.905794575
245.246808633
245.91681429
246.88734903
248.112052908
249.542483148
251.132498226
252.841783536
254.637642294
256.495339303
258.397382334
260.332181824
262.292501834
264.274013193
266.274118375
268.29109814
270.323556187
272.370105008
274.42922801
276.499257855
278.578419827
280.664899261
282.756901956
284.852687496
286.950569155
289.048890364
291.146004247
293.240296184
295.330260948
297.414622696
299.492454216
301.563255987
303.626978172
305.683991577
307.735029836
309.781125188
311.82352918
313.8635935
315.902585264
317.941414195
319.980240054
322.017890574
324.050971324
326.072404079
328.068939891
330.016633793
331.871849337
333.564593381
335.140993777
335.185090467
334.991728013
334.8063237
334.642838214
334.486974319
334.33856543
334.200868612
334.075672834
333.963562348
333.864843544
333.779855644
333.708645713
333.650919361
333.606250993
333.574210243
333.554390734
333.546495334
333.55041936
333.564107891
333.58507886
333.612634565
333.646411372
333.685801072
333.730054549
333.778353199
333.829831936
333.883601136
333.938769728
333.99446343
334.049835713
334.104073109
334.156402678
334.206109188
334.252555824
334.295184932
334.333525008
334.367218229
334.396036297
334.419903172
334.438943008
334.453428538
334.463859865
334.471125163
334.476855127
334.482816708
334.464289078
334.513910542
241.727476285
242.141751901
242.948929352
244.10471907
245.543281629
247.198434044
249.009812824
250.927212213
252.912323546
254.938436996
256.988751732
259.053981807
261.129885192
263.215155763
265.3098622
267.41442738
269.529051358
271.653458568
273.786860591
275.928046351
278.075531478
280.227714211
282.38299773
284.539851604
286.696802314
288.852369449
291.004993401
293.15304805
295.29495868
297.429411764
299.555561549
301.673161878
303.782597259
305.884832403
307.981333005
310.07401928
312.165231568
314.257661576
316.354213893
318.457786788
320.570963569
322.695568913
324.831966142
326.977814966
329.125590549
331.257971194
333.342056668
335.332104996
335.462408108
335.238544907
335.007557681
334.794315581
334.583749266
334.379943852
334.190948479
334.021483411
333.873346992
333.746469663
333.639842252
333.552121585
333.481820197
333.427440442
333.387640593
333.361330948
333.347703336
333.346329449
333.356839262
333.376484508
333.402846561
333.436370821
333.476599898
333.522764215
333.574086006
333.629760926
333.688940594
333.750742026
333.814260864
333.87858387
333.942801081
334.006018135
334.067371369
334.126047744