/*--------------------------------*- C++ -*----------------------------------*\
| =========                 |                                                 |
| \\      /  F ield         | OpenFOAM: The Open Source CFD Toolbox           |
|  \\    /   O peration     | Version:  v1906                                 |
|   \\  /    A nd           | Web:      www.OpenFOAM.com                      |
|    \\/     M anipulation  |                                                 |
\*---------------------------------------------------------------------------*/
FoamFile
{
    version     2.0;
    format      ascii;
    class       volVectorField;
    location    "230";
    object      U;
}
// * * * * * * * * * * * * * * * * * * * * * * * * * * * * * * * * * * * * * //

dimensions      [0 1 -1 0 0 0 0];


internalField   nonuniform List<vector> 
9216
(
(0.00179843322511 -0.00180004981473 0)
(0.00149522022932 -0.00471037599481 7.40043275596e-28)
(0.0015205095943 -0.0080078428299 1.09880781867e-31)
(0.00151051830539 -0.0111687728526 0)
(0.00148233156205 -0.0142942333236 0)
(0.00144361538418 -0.0173478804774 0)
(0.00139712863072 -0.0203118912096 0)
(0.00134415802792 -0.0231717818053 0)
(0.00128595339732 -0.0259153846547 0)
(0.00122321080878 -0.0285326289776 0)
(0.00115700090431 -0.03101512062 0)
(0.00108785435919 -0.0333562754232 0)
(0.00101677094558 -0.0355509626367 0)
(0.00094412585684 -0.0375956271574 0)
(0.00087083053327 -0.0394879164625 0)
(0.000797089524009 -0.0412267799751 0)
(0.00072371823594 -0.0428120937528 0)
(0.000650754869411 -0.0442447551497 0)
(0.000578928492225 -0.0455263283312 0)
(0.000508129703943 -0.0466591504217 0)
(0.000439022347422 -0.047646008619 0)
(0.000371375679351 -0.0484902610665 0)
(0.000305810663887 -0.0491955515567 0)
(0.000242000094555 -0.0497659445881 0)
(0.000180542271268 -0.0502056738722 0)
(0.000121035257458 -0.0505192833573 0)
(6.40684394511e-05 -0.050711407956 0)
(9.18114132313e-06 -0.0507869132285 0)
(-4.30389137504e-05 -0.0507507111056 0)
(-9.31031384733e-05 -0.0506078695551 0)
(-0.000140418985234 -0.0503634636883 0)
(-0.00018553665291 -0.0500226919218 0)
(-0.000227859993212 -0.0495907257969 0)
(-0.000267974598014 -0.0490728150432 0)
(-0.000305282043306 -0.0484741603011 0)
(-0.000340398723158 -0.0478000007919 0)
(-0.000372725091231 -0.0470555075973 0)
(-0.000402903132628 -0.0462458508138 0)
(-0.000430334852253 -0.0453761167383 0)
(-0.000455683589831 -0.044451356015 0)
(-0.000478354334591 -0.0434765226518 0)
(-0.000499026249757 -0.0424565007986 0)
(-0.000517109885213 -0.0413960687106 0)
(-0.000533295686985 -0.0402999061906 0)
(-0.000547001119755 -0.0391725807577 0)
(-0.000558922374167 -0.0380185338958 0)
(-0.000568486377118 -0.0368420916786 0)
(-0.000576390747234 -0.0356474321948 0)
(-0.000582073308643 -0.0344386171626 0)
(-0.000586228093461 -0.0332195392819 0)
(-0.000588306392496 -0.0319939762474 0)
(-0.000588994955781 -0.0307655208054 0)
(-0.000587760010738 -0.0295376532033 0)
(-0.000585276817475 -0.0283136533999 0)
(-0.000581028972248 -0.0270966926787 0)
(-0.000575677327968 -0.0258897311419 0)
(-0.000568724155951 -0.0246956243071 0)
(-0.000560812575627 -0.023517005945 0)
(-0.000551465597391 -0.0223564099313 0)
(-0.000541306452431 -0.021216141694 0)
(-0.000529879818957 -0.0200984112666 0)
(-0.000517786506587 -0.0190051937573 0)
(-0.000504594359417 -0.0179383737585 0)
(-0.000490880197298 -0.0168995978977 0)
(-0.000476235427602 -0.0158904270984 0)
(-0.000461210879435 -0.014912181613 0)
(-0.000445422334402 -0.0139661015957 0)
(-0.000429393286129 -0.0130531871047 0)
(-0.000412763654789 -0.0121743644673 0)
(-0.000396027636225 -0.0113303213676 0)
(-0.000378849247468 -0.0105216801497 0)
(-0.000361691579842 -0.00974882989715 0)
(-0.000344241484899 -0.00901210540996 0)
(-0.000326928018372 -0.00831161659649 0)
(-0.000309459047295 -0.00764743507012 0)
(-0.000292225720286 -0.00701942339536 0)
(-0.000274952627485 -0.00642742948006 0)
(-0.00025798625374 -0.00587111847116 0)
(-0.000241060070698 -0.00535017841933 0)
(-0.000224463992812 -0.0048641634292 0)
(-0.000207921949149 -0.00441271561055 0)
(-0.000191637329933 -0.00399544130855 0)
(-0.000175263901973 -0.00361217393557 0)
(-0.000158787480214 -0.00326298655641 0)
(-0.000141478745308 -0.00294859593644 0)
(-0.000121577134366 -0.00267485058034 0)
(-9.5040196175e-05 -0.00240264318114 0)
(-8.40928594786e-05 -0.0022198958283 0)
(-9.38966872215e-05 -0.00207445346802 0)
(-0.000101935692235 -0.00186984017704 0)
(-0.000105822559836 -0.00166418160431 0)
(-0.000111767070275 -0.00143945263929 0)
(-0.000126004365602 -0.0011959253529 0)
(-0.000146614329706 -0.00092821918998 0)
(-0.000177416283256 -0.000596972316639 0)
(-0.000208294978024 -0.00020545894534 0)
(0.004723200637 -0.00151407352506 0)
(0.00491763334671 -0.00495938446285 0)
(0.00492566553982 -0.00846457266165 -7.60958014021e-28)
(0.00486134702463 -0.0118836462175 0)
(0.00476168401709 -0.0152268039663 0)
(0.00463402740821 -0.0184841627463 0)
(0.0044832150886 -0.0216420051005 0)
(0.00431240469627 -0.0246867268045 0)
(0.00412486184719 -0.0276060650183 0)
(0.00392306820298 -0.0303895387696 0)
(0.0037100143572 -0.0330284254649 0)
(0.0034878406958 -0.0355158220773 0)
(0.00325927654228 -0.0378464547539 0)
(0.00302603911476 -0.0400166503728 0)
(0.00279050558339 -0.0420240967828 0)
(0.00255390897715 -0.0438677844572 0)
(0.00231824771579 -0.0455477594429 0)
(0.00208428214234 -0.0470650669768 0)
(0.00185366827522 -0.0484215227014 0)
(0.00162675492372 -0.0496196756753 0)
(0.00140492685645 -0.0506626100576 0)
(0.00118820331481 -0.0515539333508 0)
(0.000977775050594 -0.0522976111215 0)
(0.000773410464934 -0.0528979780742 0)
(0.000576173739785 -0.053359601903 0)
(0.000385647290607 -0.053687310812 0)
(0.000202817481922 -0.0538860805549 0)
(2.71271317143e-05 -0.0539610717055 0)
(-0.000140485107498 -0.0539175276333 0)
(-0.000300687634656 -0.0537608321408 0)
(-0.000452571609716 -0.0534964113954 0)
(-0.000596894991481 -0.0531297739509 0)
(-0.000732773199926 -0.0526664399602 0)
(-0.000861042783954 -0.0521119734476 0)
(-0.000980842035819 -0.051471920437 0)
(-0.00109307680093 -0.0507518350225 0)
(-0.00119690812327 -0.0499572263501 0)
(-0.00129330181173 -0.0490935779591 0)
(-0.00138144285962 -0.0481663045429 0)
(-0.00146234817895 -0.0471807645119 0)
(-0.00153522669187 -0.0461422264703 0)
(-0.00160113614993 -0.0450558749436 0)
(-0.00165930998012 -0.0439267873527 0)
(-0.00171083708861 -0.0427599330134 0)
(-0.00175497500587 -0.0415601601161 0)
(-0.00179283342265 -0.0403321879167 0)
(-0.0018236946188 -0.0390806040486 0)
(-0.00184867999655 -0.037809850044 0)
(-0.00186709667895 -0.0365242280471 0)
(-0.00188006864828 -0.035227879652 0)
(-0.00188692914646 -0.0339248019954 0)
(-0.00188879721074 -0.0326188202205 0)
(-0.00188503296397 -0.0313136117708 0)
(-0.001876743151 -0.0300126726524 0)
(-0.00186331650347 -0.0287193497043 0)
(-0.00184584170086 -0.0274368011986 0)
(-0.0018237371374 -0.0261680358038 0)
(-0.00179806783061 -0.0249158678954 0)
(-0.00176828351175 -0.0236829629118 0)
(-0.00173542128202 -0.0224717880803 0)
(-0.00169896300141 -0.0212846629419 0)
(-0.00165991361165 -0.0201237059844 0)
(-0.00161778815289 -0.018990890109 0)
(-0.00157355610805 -0.0178879859222 0)
(-0.00152676567324 -0.0168166211601 0)
(-0.00147834725566 -0.0157782211283 0)
(-0.00142788209118 -0.0147740721023 0)
(-0.00137625823762 -0.0138052595897 0)
(-0.00132308853201 -0.0128727351595 0)
(-0.00126921445983 -0.0119772529382 0)
(-0.00121427831278 -0.0111194403319 0)
(-0.00115906999024 -0.0102997334488 0)
(-0.00110325680637 -0.00951845180545 0)
(-0.00104756946391 -0.00877573342272 0)
(-0.000991692988761 -0.0080716147011 0)
(-0.000936287391135 -0.00740596674929 0)
(-0.000881041787009 -0.00677858166954 0)
(-0.000826525890998 -0.00618911272844 0)
(-0.000772408195507 -0.00563716982654 0)
(-0.000719133356789 -0.00512226861838 0)
(-0.000666299465387 -0.00464393811804 0)
(-0.000614153022905 -0.00420168401151 0)
(-0.000562097621086 -0.00379509638785 0)
(-0.000509958795729 -0.00342380166755 0)
(-0.000456465039262 -0.00308731139622 0)
(-0.000399910176661 -0.00278690940857 0)
(-0.000334787759117 -0.00249465440922 0)
(-0.000287004002502 -0.00221400685572 0)
(-0.000289595254094 -0.00203342964729 0)
(-0.000306785506834 -0.00184085074834 0)
(-0.000323351189595 -0.00163955563774 0)
(-0.000346713889651 -0.0014046355225 0)
(-0.000380393543753 -0.00114876881719 0)
(-0.000466995286337 -0.000900598768471 0)
(-0.000590275772473 -0.00057996138709 0)
(-0.000579717926153 -0.000168837029936 0)
(0.0080886360236 -0.00157368803559 0)
(0.0084571931618 -0.00507745905279 0)
(0.00837585880198 -0.00856861380482 -7.60028685925e-28)
(0.00823894248002 -0.0120266728127 0)
(0.00805866359424 -0.0154095810527 0)
(0.00783728357159 -0.0187041389616 0)
(0.0075788046372 -0.0218954389884 0)
(0.00728754546227 -0.0249696925024 0)
(0.00696820445237 -0.0279146636182 0)
(0.00662523618822 -0.0307199341721 0)
(0.00626323431076 -0.0333769342781 0)
(0.00588629703276 -0.0358789331513 0)
(0.00549854173421 -0.0382209085422 0)
(0.00510342217534 -0.0403994378514 0)
(0.00470437408227 -0.0424125106844 0)
(0.00430408624995 -0.0442593910859 0)
(0.00390526860156 -0.0459404238657 0)
(0.0035098675542 -0.0474569053533 0)
(0.00311993937379 -0.0488109116362 0)
(0.00273679756543 -0.0500051966387 0)
(0.00236197444454 -0.0510430528353 0)
(0.00199629152232 -0.0519282409273 0)
(0.00164089589955 -0.0526648838499 0)
(0.00129625031385 -0.053257424726 0)
(0.000963235420553 -0.0537105476395 0)
(0.000642060829832 -0.0540291559704 0)
(0.000333427378448 -0.054218313062 0)
(3.73641297507e-05 -0.0542832330336 0)
(-0.000245551611184 -0.0542292363685 0)
(-0.00051542440505 -0.0540617417 0)
(-0.000771771347452 -0.0537862322593 0)
(-0.00101480803751 -0.0534082528652 0)
(-0.00124412893715 -0.0529333751977 0)
(-0.00146004520573 -0.0523671971701 0)
(-0.00166222151526 -0.0517153118271 0)
(-0.00185105551203 -0.0509833058927 0)
(-0.00202627709101 -0.0501767314461 0)
(-0.0021883619088 -0.0493011031218 0)
(-0.00233710027299 -0.0483618738937 0)
(-0.00247303676363 -0.0473644316254 0)
(-0.0025960162043 -0.0463140783262 0)
(-0.00270664193615 -0.045216025754 0)
(-0.00280480694805 -0.0440753794114 0)
(-0.00289116288161 -0.0428971337526 0)
(-0.0029656441976 -0.0416861599382 0)
(-0.00302894042173 -0.0404472001099 0)
(-0.00308102143178 -0.0391848598061 0)
(-0.00312260506769 -0.037903601651 0)
(-0.00315369111286 -0.0366077411838 0)
(-0.00317501699642 -0.035301439341 0)
(-0.00318660801903 -0.0339887024182 0)
(-0.00318921373365 -0.032673373662 0)
(-0.00318288126206 -0.0313591360497 0)
(-0.00316836576892 -0.0300495024741 0)
(-0.00314573350654 -0.0287478219743 0)
(-0.00311573988565 -0.0274572688733 0)
(-0.00307846804347 -0.0261808512289 0)
(-0.00303466898768 -0.0249213985345 0)
(-0.00298444112341 -0.0236815729955 0)
(-0.00292852719052 -0.0224638562208 0)
(-0.00286703928037 -0.0212705622366 0)
(-0.0028007082872 -0.0201038229172 0)
(-0.0027296585432 -0.018965603374 0)
(-0.00265460577865 -0.0178576865912 0)
(-0.00257568466117 -0.0167816903237 0)
(-0.00249359214798 -0.0157390507985 0)
(-0.00240847089288 -0.0147310418477 0)
(-0.00232099500906 -0.0137587581532 0)
(-0.00223131165099 -0.0128231360363 0)
(-0.00214006679274 -0.0119249362263 0)
(-0.0020474071041 -0.0110647671997 0)
(-0.00195394317709 -0.0102430680531 0)
(-0.00185981328163 -0.00946013426583 0)
(-0.00176558161779 -0.00871610104435 0)
(-0.00167136523665 -0.00801097285097 0)
(-0.00157766431349 -0.00734460847791 0)
(-0.00148455260234 -0.00671675515482 0)
(-0.00139243632622 -0.00612703714581 0)
(-0.00130130728686 -0.00557499704249 0)
(-0.00121142607261 -0.00506009112326 0)
(-0.00112263441413 -0.00458173968655 0)
(-0.00103495903604 -0.00413932942318 0)
(-0.000947978640729 -0.00373225903097 0)
(-0.000861357810495 -0.00335992356882 0)
(-0.000774302070395 -0.00302152972504 0)
(-0.000686177374369 -0.00271842046167 0)
(-0.000597590991636 -0.00242234708387 0)
(-0.000531339628283 -0.00215795228714 0)
(-0.00049592118316 -0.00193344049628 0)
(-0.00050628774034 -0.00174119289366 0)
(-0.00054951541862 -0.00154569104463 0)
(-0.000584861215375 -0.00128452965502 0)
(-0.000666263513503 -0.00104247422999 0)
(-0.000778003567232 -0.000746940398579 0)
(-0.000883693350468 -0.000437840910542 0)
(-0.000899950953076 -0.000138009586642 0)
(0.0114076809391 -0.00161585393347 0)
(0.0120056707292 -0.00518009377699 0)
(0.0118874105226 -0.00871284140567 7.59930251135e-28)
(0.0116867542458 -0.0122222696436 0)
(0.0114247030334 -0.0156553261352 0)
(0.0111053779886 -0.0189966052556 0)
(0.0107340589227 -0.0222298880258 0)
(0.0103167685552 -0.0253408348951 0)
(0.00985997620638 -0.0283170243198 0)
(0.00937015641357 -0.0311480611089 0)
(0.00885372578984 -0.0338255636744 0)
(0.00831670997859 -0.0363430928694 0)
(0.00776480744399 -0.0386960101637 0)
(0.00720311476058 -0.0408813174605 0)
(0.00663629434421 -0.0428974637261 0)
(0.00606834031416 -0.0447441633333 0)
(0.00550282853461 -0.0464222050601 0)
(0.00494269943378 -0.0479332895381 0)
(0.00439056442344 -0.0492798688191 0)
(0.00384848259742 -0.0504650203232 0)
(0.00331830132608 -0.0514923259453 0)
(0.00280140956381 -0.0523657846882 0)
(0.00229909748106 -0.0530897281851 0)
(0.0018122775627 -0.053668765156 0)
(0.00134185567152 -0.0541077247589 0)
(0.0008884172881 -0.0544116234562 0)
(0.000452607462089 -0.0545856265631 0)
(3.47846700895e-05 -0.0546350270009 0)
(-0.00036458906262 -0.0545652224984 0)
(-0.000745322326704 -0.0543816904329 0)
(-0.00110709480261 -0.054089976223 0)
(-0.00144985301024 -0.0536956754501 0)
(-0.00177339628677 -0.0532044134793 0)
(-0.00207779236057 -0.0526218343676 0)
(-0.00236294976704 -0.0519535803023 0)
(-0.00262904776248 -0.0512052804262 0)
(-0.00287609588676 -0.0503825314884 0)
(-0.00310437564543 -0.049490887158 0)
(-0.00331398901042 -0.0485358404617 0)
(-0.00350530914215 -0.0475228138425 0)
(-0.0036785198688 -0.0464571438051 0)
(-0.00383407372449 -0.045344072264 0)
(-0.00397222506381 -0.0441887337326 0)
(-0.00409349301652 -0.0429961478578 0)
(-0.00419819061133 -0.0417712090976 0)
(-0.00428689092307 -0.0405186805568 0)
(-0.00435995485183 -0.0392431861042 0)
(-0.00441799793481 -0.0379492051268 0)
(-0.00446141899292 -0.0366410667797 0)
(-0.00449086576413 -0.0353229456008 0)
(-0.00450676682066 -0.0339988577366 0)
(-0.00450979349394 -0.0326726570228 0)
(-0.00450039703383 -0.0313480328473 0)
(-0.00447926504274 -0.0300285066371 0)
(-0.00444686600769 -0.0287174312368 0)
(-0.00440389790068 -0.0274179874944 0)
(-0.00435084177974 -0.0261331848504 0)
(-0.00428840097928 -0.0248658580283 0)
(-0.00421706558722 -0.0236186687816 0)
(-0.00413754017485 -0.0223941024833 0)
(-0.00405032052852 -0.0211944708179 0)
(-0.00395610860219 -0.0200219083486 0)
(-0.00385540297288 -0.0188783762024 0)
(-0.00374889927592 -0.0177656585339 0)
(-0.00363709547286 -0.0166853671032 0)
(-0.00352067667973 -0.0156389377913 0)
(-0.00340013642113 -0.0146276362388 0)
(-0.0032761443281 -0.0136525544355 0)
(-0.00314918423086 -0.0127146174446 0)
(-0.00301990366156 -0.0118145802919 0)
(-0.00288876966636 -0.0109530360744 0)
(-0.00275639847681 -0.0101304133155 0)
(-0.00262322951818 -0.00934698568938 0)
(-0.0024898337053 -0.00860287027592 0)
(-0.00235660582491 -0.00789803951316 0)
(-0.00222404895955 -0.00723232102496 0)
(-0.00209248446694 -0.0066054126151 0)
(-0.00196230942865 -0.0060168850241 0)
(-0.00183372228463 -0.00546620188611 0)
(-0.00170694898583 -0.00495272802183 0)
(-0.00158198151035 -0.00447575784414 0)
(-0.00145877148207 -0.00403453321204 0)
(-0.00133698856705 -0.00362828173625 0)
(-0.00121621411121 -0.00325625566155 0)
(-0.00109582589477 -0.0029176445089 0)
(-0.00097554107172 -0.00261435407493 0)
(-0.000858262862899 -0.00231771706158 0)
(-0.000764776832864 -0.00204779534421 0)
(-0.000737199892476 -0.00185895999175 0)
(-0.000730827335996 -0.00160359101154 0)
(-0.000764533221468 -0.00135906579799 0)
(-0.000868698455919 -0.00116126341994 0)
(-0.000936281726925 -0.000852504068443 0)
(-0.00104641046202 -0.00057739595608 0)
(-0.00114299950528 -0.000334418914319 0)
(-0.00115455305851 -0.000108253353778 0)
(0.0148184120967 -0.00165754861076 0)
(0.0156128383218 -0.00530417963847 0)
(0.015458396447 -0.0089092497851 0)
(0.0151926648428 -0.0124906609063 0)
(0.0148453363388 -0.0159917958195 0)
(0.0144230063327 -0.0193957770352 0)
(0.0139329609512 -0.0226852106204 0)
(0.013383334296 -0.0258450999948 0)
(0.0127827262851 -0.0288627562691 0)
(0.0121397958458 -0.0317278133553 0)
(0.0114630101886 -0.0344321498378 0)
(0.0107603730313 -0.0369697526738 0)
(0.0100393152693 -0.0393365284584 0)
(0.00930653974802 -0.0415300904112 0)
(0.00856803048606 -0.0435495305322 0)
(0.0078289849306 -0.0453951993385 0)
(0.00709390669953 -0.0470684953976 0)
(0.00636658771482 -0.0485716795241 0)
(0.00565024684289 -0.0499077092996 0)
(0.00494752751021 -0.0510801028078 0)
(0.00426065217693 -0.0520928228838 0)
(0.00359141154882 -0.0529501876071 0)
(0.00294131650328 -0.0536567966457 0)
(0.00231156646448 -0.054217477649 0)
(0.00170319063117 -0.0546372419934 0)
(0.00111699205589 -0.0549212541186 0)
(0.000553677437916 -0.0550748046579 0)
(1.37796237505e-05 -0.0551032906309 0)
(-0.000502221720257 -0.055012203511 0)
(-0.000993993738648 -0.0548070998845 0)
(-0.00146123410986 -0.0544936019628 0)
(-0.00190377679896 -0.05407737453 0)
(-0.002321473707 -0.0535641107546 0)
(-0.00271430900737 -0.0529595180509 0)
(-0.00308227751349 -0.0522693012666 0)
(-0.00342550373503 -0.0514991484398 0)
(-0.0037441160303 -0.0506547141661 0)
(-0.00403836888847 -0.0497416058253 0)
(-0.00430851280313 -0.0487653683031 0)
(-0.00455491906873 -0.0477314716279 0)
(-0.00477794611364 -0.0466452974275 0)
(-0.00497806659148 -0.0455121282945 0)
(-0.0051557310503 -0.044337136558 0)
(-0.00531149708156 -0.0431253756472 0)
(-0.00544589131899 -0.0418817708844 0)
(-0.00555954040174 -0.0406111125705 0)
(-0.00565303208079 -0.0393180489104 0)
(-0.0057270475204 -0.0380070807249 0)
(-0.00578222226865 -0.0366825559381 0)
(-0.00581927941851 -0.0353486655043 0)
(-0.00583889100903 -0.0340094394812 0)
(-0.0058418114004 -0.0326687440394 0)
(-0.00582873970122 -0.0313302785793 0)
(-0.00580045279174 -0.0299975734599 0)
(-0.00575766923697 -0.0286739882288 0)
(-0.00570118128588 -0.0273627099884 0)
(-0.00563172077015 -0.0260667522819 0)
(-0.00555008951251 -0.024788953822 0)
(-0.00545702759516 -0.0235319781559 0)
(-0.00535334152326 -0.0222983127589 0)
(-0.00523977527085 -0.0210902691342 0)
(-0.00511713565531 -0.0199099820912 0)
(-0.00498616647682 -0.0187594104992 0)
(-0.00484767048245 -0.0176403368524 0)
(-0.00470238694027 -0.0165543684448 0)
(-0.0045511096708 -0.0155029371707 0)
(-0.00439456832966 -0.014487301423 0)
(-0.00423354187222 -0.0135085462717 0)
(-0.00406874381513 -0.0125675859694 0)
(-0.00390093051304 -0.0116651645208 0)
(-0.00373079052091 -0.0108018591198 0)
(-0.00355904679383 -0.00997808128278 0)
(-0.00338635007025 -0.00919408117449 0)
(-0.00321337380765 -0.00844994938727 0)
(-0.00304071098899 -0.00774562253839 0)
(-0.00286895981896 -0.00708088599476 0)
(-0.0026986224423 -0.00645538096664 0)
(-0.00253017826415 -0.00586860878274 0)
(-0.00236398142843 -0.00531994088142 0)
(-0.00220031679538 -0.00480862707888 0)
(-0.00203929101796 -0.00433381329432 0)
(-0.00188086507522 -0.00389456393876 0)
(-0.00172473495815 -0.00348990736804 0)
(-0.00157034133728 -0.00311894517744 0)
(-0.00141675436561 -0.00278097946589 0)
(-0.00126282729351 -0.00247963652776 0)
(-0.00110993917909 -0.00217217751414 0)
(-0.00104050297044 -0.00197295637133 0)
(-0.000976219017486 -0.00168011535107 0)
(-0.000972102988897 -0.00142925649577 0)
(-0.00100611293581 -0.00117497807385 0)
(-0.00108855942854 -0.000929852427957 0)
(-0.00123961237436 -0.000714064167077 0)
(-0.0012796286736 -0.000452014237084 0)
(-0.00132596522115 -0.000256957143832 0)
(-0.00133085534512 -8.4035628568e-05 0)
(0.0183216510178 -0.00170672040415 0)
(0.0193079395067 -0.00545768613386 0)
(0.0191142616856 -0.00916065730769 0)
(0.0187791832914 -0.0128361852721 0)
(0.0183407642076 -0.0164250396436 0)
(0.0178082586263 -0.0199090170265 0)
(0.0171914291449 -0.0232696011619 0)
(0.0165009389518 -0.0264911158414 0)
(0.0157479037883 -0.0295606139959 0)
(0.0149434416282 -0.0324678330904 0)
(0.0140983177645 -0.035205046743 0)
(0.0132226514753 -0.0377668520978 0)
(0.0123257337336 -0.040149911501 0)
(0.0114158971677 -0.0423526737129 0)
(0.0105004840525 -0.0443750931107 0)
(0.00958583899883 -0.0462183644542 0)
(0.00867737627379 -0.0478846820619 0)
(0.00777964071946 -0.0493770313098 0)
(0.00689642176111 -0.050699012763 0)
(0.00603083576337 -0.051854700245 0)
(0.00518544766971 -0.052848528392 0)
(0.0043623442998 -0.0536852077909 0)
(0.00356324141294 -0.0543696613767 0)
(0.00278953345261 -0.0549069795532 0)
(0.00204237779767 -0.0553023878677 0)
(0.00132271786415 -0.0555612252891 0)
(0.000631345312461 -0.0556889273565 0)
(-3.1098621653e-05 -0.0556910147318 0)
(-0.000664079092693 -0.0555730849162 0)
(-0.00126718115553 -0.0553407920016 0)
(-0.00184007434844 -0.0549998483917 0)
(-0.00238253686184 -0.054556003917 0)
(-0.00289442224581 -0.054015034156 0)
(-0.00337568806598 -0.0533827260873 0)
(-0.00382636244069 -0.0526648622362 0)
(-0.00424657382816 -0.0518672053028 0)
(-0.00463651551601 -0.0509954820153 0)
(-0.00499647548864 -0.0500553681906 0)
(-0.0053267986127 -0.0490524736587 0)
(-0.00562791639812 -0.047992328814 0)
(-0.00590030730778 -0.0468803715161 0)
(-0.00614452692261 -0.0457219358206 0)
(-0.00636116713449 -0.0445222411716 0)
(-0.0065508870288 -0.0432863833226 0)
(-0.00671437154017 -0.0420193257746 0)
(-0.00685236341808 -0.0407258927685 0)
(-0.00696562183088 -0.0394107626938 0)
(-0.00705495536268 -0.0380784627556 0)
(-0.00712118078447 -0.0367333640304 0)
(-0.00716515710943 -0.035379677567 0)
(-0.00718774473936 -0.0340214507765 0)
(-0.00718984029364 -0.0326625645848 0)
(-0.00717233618652 -0.031306730892 0)
(-0.00713615612649 -0.0299574906019 0)
(-0.00708221523971 -0.0286182119245 0)
(-0.00701145589262 -0.0272920889905 0)
(-0.00692480837133 -0.0259821408119 0)
(-0.00682322687379 -0.0246912103781 0)
(-0.0067076508109 -0.0234219641219 0)
(-0.00657904059055 -0.0221768913251 0)
(-0.00643833951604 -0.020958303979 0)
(-0.00628650916944 -0.0197683364901 0)
(-0.00612449192874 -0.0186089459073 0)
(-0.00595324556754 -0.0174819118687 0)
(-0.00577370636974 -0.0163888372032 0)
(-0.00558682271833 -0.0153311481891 0)
(-0.00539351884066 -0.0143100956001 0)
(-0.00519472699364 -0.0133267552995 0)
(-0.00499135177398 -0.012382029743 0)
(-0.00478430058934 -0.0114766490036 0)
(-0.00457444844096 -0.0106111727745 0)
(-0.00436266604519 -0.00978599177038 0)
(-0.00414978470112 -0.00900133016322 0)
(-0.00393662119019 -0.00825724728106 0)
(-0.00372394187369 -0.00755364030932 0)
(-0.00351248262692 -0.00689024603385 0)
(-0.00330291021117 -0.0062666434571 0)
(-0.00309583415644 -0.00568225531084 0)
(-0.00289176144231 -0.0051363506716 0)
(-0.00269109424938 -0.00462804689852 0)
(-0.00249406962987 -0.00415631450957 0)
(-0.00230073075749 -0.003719984678 0)
(-0.00211083224873 -0.00331776448285 0)
(-0.00192375174937 -0.00294827704405 0)
(-0.0017382821737 -0.00261001517495 0)
(-0.00155242747821 -0.00230374879716 0)
(-0.00136442620743 -0.00199619780342 0)
(-0.00127106920266 -0.00175204660545 0)
(-0.00125320787605 -0.00151744158618 0)
(-0.00126961705625 -0.0012819737339 0)
(-0.00126365294911 -0.000992123515138 0)
(-0.00132372283234 -0.000746236793963 0)
(-0.00143011924419 -0.000553035241104 0)
(-0.00147594281675 -0.00036978688524 0)
(-0.00148467969439 -0.00020670192704 0)
(-0.00148474025065 -6.74229708291e-05 0)
(0.0219372681803 -0.00176628453311 0)
(0.0231167710295 -0.00564610669473 0)
(0.0228788736764 -0.00947216686691 7.55274600762e-28)
(0.022467768741 -0.0132651923176 0)
(0.0219299767624 -0.0169627580129 0)
(0.0212776469907 -0.0205451201413 0)
(0.0205234598624 -0.0239925378921 0)
(0.0196810748278 -0.0272886333197 0)
(0.0187645630034 -0.030420261906 0)
(0.0177878593065 -0.0333774079827 0)
(0.0167643143714 -0.0361529488316 0)
(0.0157063526453 -0.0387423457254 0)
(0.0146252504767 -0.0411432919086 0)
(0.0135310117876 -0.0433553492957 0)
(0.0124323395347 -0.0453795979065 0)
(0.0113366686676 -0.0472183162623 0)
(0.0102502570138 -0.0488747027027 0)
(0.00917829896176 -0.0503526428826 0)
(0.00812506439782 -0.0516565228668 0)
(0.00709403172508 -0.0527910852203 0)
(0.0060880256587 -0.0537613223314 0)
(0.005109332919 -0.0545724014659 0)
(0.00415981367289 -0.0552296146723 0)
(0.0032409844606 -0.0557383479834 0)
(0.00235409576907 -0.056104063809 0)
(0.00150018097561 -0.0563322923102 0)
(0.000680103432405 -0.0564286262133 0)
(-0.000105420793491 -0.0563987215268 0)
(-0.000855799649722 -0.0562482924218 0)
(-0.00157055923906 -0.0559831018087 0)
(-0.00224933100089 -0.0556089646406 0)
(-0.00289185609992 -0.0551317296938 0)
(-0.00349797624461 -0.0545572695073 0)
(-0.00406764061599 -0.0538914660649 0)
(-0.00460089658956 -0.0531401951 0)
(-0.00509789595663 -0.0523093098227 0)
(-0.00555888358177 -0.0514046243473 0)
(-0.00598420196519 -0.050431897631 0)
(-0.00637427766096 -0.0493968180828 0)
(-0.00672962454709 -0.0483049893318 0)
(-0.00705082877542 -0.0471619170706 0)
(-0.00733855158274 -0.0459729973229 0)
(-0.00759351364054 -0.044743505919 0)
(-0.00781649816997 -0.0434785893329 0)
(-0.00800833540289 -0.0421832565484 0)
(-0.00816990646252 -0.0408623721028 0)
(-0.00830212828497 -0.039520650033 0)
(-0.00840595846046 -0.0381626487669 0)
(-0.00848238079332 -0.0367927666568 0)
(-0.00853241111193 -0.0354152382885 0)
(-0.00855708346842 -0.0340341313253 0)
(-0.0085574568342 -0.0326533439564 0)
(-0.00853460191545 -0.0312766026688 0)
(-0.00848960861892 -0.0299074605397 0)
(-0.00842357340108 -0.0285492957707 0)
(-0.00833760735113 -0.0272053106325 0)
(-0.00823282401054 -0.0258785304957 0)
(-0.00811034791502 -0.0245718032039 0)
(-0.00797130275781 -0.0232877985148 0)
(-0.00781682019349 -0.0220290078087 0)
(-0.00764802822723 -0.0207977437477 0)
(-0.00746606006905 -0.0195961402249 0)
(-0.0072720426082 -0.0184261523055 0)
(-0.00706710508642 -0.0172895563854 0)
(-0.00685236753895 -0.0161879503754 0)
(-0.0066289490979 -0.0151227541157 0)
(-0.00639795625835 -0.0140952098727 0)
(-0.00616049060032 -0.0131063830864 0)
(-0.00591763677837 -0.0121571631625 0)
(-0.00567046941483 -0.0112482645133 0)
(-0.00542004060873 -0.0103802276394 0)
(-0.0051673856077 -0.0095534203566 0)
(-0.00491350944825 -0.00876803889645 0)
(-0.00465939069124 -0.00802410891388 0)
(-0.00440596631905 -0.00732148611553 0)
(-0.00415413209352 -0.00665985627309 0)
(-0.00390472381972 -0.00603873425016 0)
(-0.00365851139383 -0.00545746158345 0)
(-0.00341617230904 -0.00491520235221 0)
(-0.00317827303175 -0.00441093647955 0)
(-0.00294522521267 -0.00394345084231 0)
(-0.00271723998584 -0.0035113274652 0)
(-0.00249424483746 -0.00311292882122 0)
(-0.00227577904736 -0.00274639114823 0)
(-0.0020608345339 -0.00240952153232 0)
(-0.00184782477774 -0.0021017347063 0)
(-0.00163703763151 -0.00179697662544 0)
(-0.00151936201951 -0.00153517638687 0)
(-0.0014885038856 -0.00129273917972 0)
(-0.00149237903963 -0.00104670265512 0)
(-0.00152763204926 -0.000822058125246 0)
(-0.00153942241231 -0.00059343454708 0)
(-0.00156343623447 -0.000418421002225 0)
(-0.00162388209948 -0.000291913773373 0)
(-0.00161443597387 -0.000163889955708 0)
(-0.00160823836773 -5.31808925615e-05 0)
(0.0256891974628 -0.00183823090268 0)
(0.0270658820739 -0.0058744625631 0)
(0.0267775087992 -0.00985055882048 -7.55160201284e-28)
(0.0262814976087 -0.0137863190836 0)
(0.0256333876315 -0.0176152050273 0)
(0.0248486984723 -0.0213155419558 0)
(0.023943607486 -0.0248661805272 0)
(0.0229353595523 -0.028250020075 0)
(0.0218415212428 -0.0314538370526 0)
(0.0206792903322 -0.0344680893789 0)
(0.0194649428465 -0.0372865611422 0)
(0.0182134333546 -0.0399059237695 0)
(0.0169381492544 -0.042325260129 0)
(0.0156507995564 -0.044545592371 0)
(0.014361416803 -0.0465694438423 0)
(0.0130784406965 -0.0484004544296 0)
(0.0118088598838 -0.0500430590137 0)
(0.0105583838502 -0.0515022309111 0)
(0.00933162943093 -0.0527832866765 0)
(0.00813230278365 -0.0538917453059 0)
(0.00696337101928 -0.0548332331237 0)
(0.00582721224011 -0.0556134252671 0)
(0.00472574549125 -0.056238014856 0)
(0.00366053439653 -0.0567127019762 0)
(0.00263287046697 -0.0570431953456 0)
(0.00164383244787 -0.0572352210622 0)
(0.00069433018531 -0.0572945316889 0)
(-0.000214868443772 -0.0572269224826 0)
(-0.00108312155461 -0.0570382280234 0)
(-0.00190990696886 -0.0567343282819 0)
(-0.00269481734643 -0.0563211504665 0)
(-0.00343756262944 -0.0558046546578 0)
(-0.00413796950528 -0.0551908244469 0)
(-0.0047959844075 -0.0544856524756 0)
(-0.00541167160254 -0.0536951238763 0)
(-0.00598521370735 -0.0528251988348 0)
(-0.0065169065313 -0.051881794784 0)
(-0.00700715655604 -0.0508707692324 0)
(-0.00745647287839 -0.0497979033873 0)
(-0.00786546255171 -0.0486688872354 0)
(-0.00823482086674 -0.0474893059949 0)
(-0.00856532591995 -0.0462646282384 0)
(-0.00885782852334 -0.045000195398 0)
(-0.00911324703173 -0.0437012127822 0)
(-0.00933255769847 -0.0423727417954 0)
(-0.00951679037525 -0.0410196933837 0)
(-0.00966701971851 -0.0396468224037 0)
(-0.00978436194689 -0.0382587229251 0)
(-0.00986996698293 -0.0368598242678 0)
(-0.00992501629446 -0.0354543877304 0)
(-0.00995071593583 -0.0340465038626 0)
(-0.00994829535518 -0.0326400902499 0)
(-0.00991900121937 -0.031238889727 0)
(-0.00986409708543 -0.0298464689528 0)
(-0.00978485791527 -0.0284662173158 0)
(-0.00968257044482 -0.0271013460387 0)
(-0.00955852824962 -0.0257548875812 0)
(-0.00941403267539 -0.0244296950875 0)
(-0.00925038832025 -0.023128442116 0)
(-0.00906890428514 -0.0218536222453 0)
(-0.00887088987836 -0.020607549039 0)
(-0.00865765599996 -0.0193923557794 0)
(-0.00843051086913 -0.01820999556 0)
(-0.00819076130362 -0.0170622411604 0)
(-0.00793970827548 -0.0159506853046 0)
(-0.00767864791172 -0.01487674073 0)
(-0.00740886675409 -0.0138416406643 0)
(-0.00713164228393 -0.012846439125 0)
(-0.00684823775887 -0.0118920116142 0)
(-0.00655990212671 -0.0109790556529 0)
(-0.00626786429107 -0.0101080915553 0)
(-0.00597333214736 -0.00927946297922 0)
(-0.00567748599962 -0.0084933374097 0)
(-0.00538147622758 -0.0077497061211 0)