/*--------------------------------*- C++ -*----------------------------------*\
| =========                 |                                                 |
| \\      /  F ield         | OpenFOAM: The Open Source CFD Toolbox           |
|  \\    /   O peration     | Version:  v1906                                 |
|   \\  /    A nd           | Web:      www.OpenFOAM.com                      |
|    \\/     M anipulation  |                                                 |
\*---------------------------------------------------------------------------*/
FoamFile
{
    version     2.0;
    format      ascii;
    class       volScalarField;
    location    "841";
    object      pa;
}
// * * * * * * * * * * * * * * * * * * * * * * * * * * * * * * * * * * * * * //

dimensions      [0 2 -2 0 0 0 0];


internalField   nonuniform List<scalar> 
9216
(
975.725313779
975.36095659
974.620630661
973.501150557
972.006164816
970.139949675
967.907851615
965.316243877
962.372409672
959.084538358
955.461594979
951.51332375
947.250104645
942.682966261
937.823435264
932.683562912
927.27577344
921.612908061
915.708077498
909.574725886
903.226491002
896.677288734
889.941182678
883.032487784
875.965648907
868.75536048
861.416451973
853.964018909
846.41331181
838.779872832
831.079424216
823.328004104
815.541848074
807.737517298
799.931769486
792.141671455
784.384452897
776.677597473
769.03867613
761.485412501
754.035495196
746.706617044
739.516269858
732.481760691
725.619995499
718.9474771
712.480083207
706.233047258
700.220728988
694.456570623
688.952846611
683.720579568
678.769250124
674.106664392
669.738624472
665.668779204
661.898311692
658.425865962
655.247356486
652.356066552
649.742634099
647.395336549
645.300242718
643.441657652
641.802381818
640.364196738
639.108309376
638.016071153
637.069440354
636.251477539
635.546481906
634.940180843
634.419659491
633.973420604
633.591235038
633.264125131
632.984177099
632.744503745
632.539087837
632.36276276
632.211069605
632.080210386
631.966903347
631.868330115
631.781683115
631.70727953
631.646542895
631.598931626
631.563138682
631.537260836
631.519357455
631.507368411
631.499527715
631.494862693
631.492554102
631.491760594
976.089192555
975.72368626
974.982107594
973.859577089
972.360300399
970.488695345
968.250202083
965.651254302
962.699211231
959.402319961
955.769626237
951.810932827
947.536702315
942.958018125
938.086486036
932.934203385
927.51366513
921.837745843
915.919615021
909.772735053
903.410788816
896.847694929
890.097548628
883.174653526
876.093474708
868.868684316
861.515124078
854.047860566
846.482153131
838.833513695
831.11767507
823.350648809
815.548688584
807.728340392
799.906393664
792.099916157
784.326187687
776.602713575
768.94713607
761.377222611
753.91075362
746.565485684
739.359018811
732.308738957
725.431671438
718.744409365
712.262959482
706.002659543
699.978015404
694.202599849
688.68886633
683.448009287
678.489730799
673.822044457
669.450988936
665.380399442
661.611627725
658.143386349
654.971604673
652.089465576
649.487452222
647.153583269
645.073627379
643.231529725
641.609723232
640.189467114
638.951414309
637.876387677
636.945983811
636.143026947
635.451730859
634.857786155
634.348316091
633.911871533
633.538325861
633.218794103
632.945475583
632.711561515
632.511123764
632.339070838
632.191044872
632.063335777
631.95277558
631.856693748
631.772789707
631.700094158
631.640404464
631.594383049
631.559519737
631.534242592
631.517079585
631.505643566
631.498070589
631.493736235
631.491698875
631.490889638
976.830896401
976.462229123
975.716430204
974.587568558
973.079888136
971.197865187
968.947038225
966.333945656
963.366068439
960.051774237
956.4002429
952.421403781
948.12585556
943.524803595
938.629981023
933.453592334
928.008241678
922.306887859
916.362784585
910.189450555
903.800624602
897.210252548
890.432457996
883.481545347
876.371984766
869.11842873
861.735707935
854.238857256
846.643118151
838.963968963
831.217128721
823.418585627
815.584595795
807.731704106
799.876731108
792.036778163
784.229195788
776.471566624
768.781649503
761.177335933
753.676567808
746.297267656
739.057233224
731.974047283
725.064957421
718.346774842
711.835748578
705.547459644
699.496690838
693.697309287
688.162114943
682.902684169
677.92916118
673.250026086
668.871803718
664.798762563
661.032602276
657.572214971
654.413543305
651.549589586
648.970489532
646.663752211
644.614477608
642.805914074
641.219774198
639.836225328
638.634662051
637.594777126
636.697385189
635.924876485
635.261305885
634.692337437
634.205159907
633.788450057
633.432281155
633.127989926
632.867995504
632.645661363
632.455211951
632.291717523
632.151013191
632.029564818
631.924367903
631.832892786
631.752886977
631.683543643
631.627948513
631.585209989
631.552169829
631.528442691
631.512755741
631.502110168
631.495302975
631.49149277
631.489523645
631.488556098
977.957921396
977.585594175
976.833297272
975.694689761
974.174101927
972.276113183
970.006402212
967.371668621
964.379574165
961.038677187
957.358358833
953.348750254
949.020654068
944.38547103
939.455123846
934.241989966
928.758834072
923.018752707
917.035120498
910.821550765
904.391858644
897.760039585
890.940250061
883.946803286
876.794165718
869.496967092
862.070009014
854.52828495
846.886996161
839.16157647
831.367710432
823.521356654
815.638761125
807.73647331
799.831347703
791.940543646
784.081507114
776.271946748
768.529788784
760.873123828
753.320131821
745.888999447
738.597818718
731.464482534
724.506568069
717.741224306
711.185054734
704.854009048
698.763271223
692.927150966
687.358957928
682.070855897
677.073667646
672.376624785
667.987037094
663.909908489
660.147516386
656.699072778
653.560526739
650.724621284
648.180920745
645.916170737
643.914318631
642.157607435
640.626892169
639.300523358
638.155656171
637.170055069
636.323301204
635.597228089
634.975768379
634.444630276
633.991116495
633.604118172
633.274042472
632.992614585
632.752611614
632.547651858
632.372148839
632.221409939
632.091588163
631.97942379
631.882143038
631.797422865
631.723038114
631.659323878
631.609273807
631.570543887
631.541272503
631.520251667
631.505942926
631.496540929
631.490695736
631.487318634
631.485472523
631.484569138
979.473247488
979.096219427
978.335133161
977.183315123
975.645234137
973.725621956
971.430349201
968.766337172
965.741493841
962.364640393
958.645432631
954.594280258
950.222263943
945.541054178
940.562831446
935.300211833
929.766177158
923.974013666
917.937257777
911.66965257
905.185112703
898.497700873
891.6216126
884.57117181
877.360833231
870.005193671
862.519007743
854.91720999
847.214938817
839.427564132
831.570714479
823.660303867
815.712554607
807.744017674
799.771583866
791.812487283
783.884295342
776.004886178
768.19240839
760.465224906
752.841837633
745.340796719
737.980593898
730.779546596
723.755675121
716.92658176
710.309334589
703.92036328
697.775364983
691.889218614
686.275894694
680.948340064
675.918311909
671.196116478
666.790233918
662.706797115
658.949000879
655.516546101
652.405379722
649.607901851
647.112832591
644.905963608
642.969242309
641.283665619
639.829842566
638.583203969
637.517054113
636.606067388
635.828132339
635.16461222
634.59959287
634.118998663
633.710281311
633.362626958
633.066966242
632.815659625
632.602037082
632.420027861
632.264177984
632.130081121
632.014421283
631.914324935
631.827310003
631.7513667
631.684396564
631.628250853
631.585076535
631.551648096
631.526210857
631.508248684
631.496402101
631.488681084
631.483732569
631.480877953
631.479300271
631.478516746
981.381498623
980.998575209
980.226338788
979.057734429
977.497421725
975.550337862
973.222604453
970.521431206
967.455044795
964.032607131
960.26412897
956.160380746
951.732801989
946.993412056
941.954723378
936.62965994
931.031481927
925.173719078
919.070113211
912.73457194
906.181133263
899.423942196
892.47723815
885.355353311
878.072719915
870.643886103
863.083537907
855.406527005
847.627901827
839.762941726
831.827192469
823.836500529
815.807045301
807.755368191
799.698393535
791.653440363
783.638220732
775.670822537
767.769673171
759.953482879
752.241166071
744.651742155
737.204217797
729.917456528
722.81004201
715.90014506
709.205402731
702.742819612
696.528693568
690.578567973
684.907192107
679.528473274
674.455362012
669.699627177
665.271415635
661.178575901
657.425717135
654.013293728
650.937113241
648.189248584
645.757091009
643.625759723
641.773099613
640.178671833
638.825934708
637.685150344
636.722707491
635.908379259
635.218011683
634.633103574
634.138667928
633.721162336
633.368069522
633.068885948
632.815357374
632.600898954
632.41972028
632.266056206
632.134276922
632.02022833
631.921620274
631.836070256
631.761373824
631.696001041
631.638483925
631.591596495
631.555385913
631.527480661
631.506961007
631.493275874
631.48387242
631.477969244
631.474341415
631.471911999
631.470629178
631.469982818
983.688467214
983.298356278
982.512497501
981.323372694
979.735884621
977.755231852
975.387852661
972.641319051
969.524256999
966.046254808
962.217766855
958.050014136
953.554883875
948.744830358
943.632779179
938.232036976
932.556208786
926.61912487
920.434778759
914.017277765
907.380806833
900.53960587
893.507960197
886.300203062
878.930728822
871.414015055
863.764651926
855.997377202
848.127115594
840.169021112
832.138522232
824.051365706
815.923660141
807.771916641
799.613082094
791.464562527
783.344232486
775.270426201
767.261906822
759.33781034
751.517562501
743.820768663
736.267079739
728.876040293
721.666928948
714.658604083
707.869370459
701.316880962
695.018086881
688.989236316
683.245920325
677.803122763
672.675239997
667.875933387
663.417711387
659.311008069
655.562717925
652.17441376
649.141252025
646.455326246
644.101487135
642.066654858
640.318259802
638.833863308
637.610894013
636.608324739
635.779270847
635.085751377
634.501762752
634.010759928
633.600540199
633.258550403
632.971579785
632.729225348
632.524564384
632.352858203
632.209844151
632.089948316
631.986374435
631.894915828
631.815722054
631.746860422
631.686073197
631.632699175
631.58614743
631.549093149
631.520596451
631.499441481
631.484660484
631.474797404
631.468067114
631.464011013
631.461929045
631.460338391
631.459519799
631.459121251
986.401215847
986.002537039
985.200443751
983.986862343
982.36699424
980.346361108
977.931791099
975.131301352
971.954007345
968.410019422
964.510334275
960.266723255
955.691619752
950.798008244
945.599317123
940.10931796
934.342033327
928.311655764
922.032479717
915.518848401
908.78511635
901.845628207
894.71471287
887.406691902
879.935899911
872.316714954
864.563596497
856.691129405
848.714072377
840.64741008
832.506409069
824.306673245
816.064200846
807.795439967
799.51733732
791.247377444
783.0036068
774.804637447
766.669624594
758.61821318
750.670449772
742.846658765
735.167285285
727.652712338
720.323064811
713.198019876
706.296645242
699.637293499
693.237568634
687.114390598
681.284141564
675.762898086
670.566653899
665.711437237
661.213019006
657.085853536
653.340699093
649.980975352
646.99919283
644.389358598
642.129508789
640.219795722
638.596769192
637.232391417
636.176435661
635.356239002
634.697915762
634.151622504
633.691488556
633.307381252
632.994067487
632.740446201
632.529878905
632.351418255
632.200616766
632.076172122
631.976817236
631.896951055
631.825763244
631.757583612
631.699545604
631.649361928
631.603362574
631.563164878
631.528763656
631.50197514
631.482076599
631.46788232
631.458583185
631.452504767
631.449234321
631.447300195
631.446581349
631.44641006
631.446196568
631.446144194
989.528156566
989.11943087
988.298321759
987.056098221
985.398323474
983.330911588
980.861163707
977.997635806
974.75003489
971.129101014
967.146484206
962.814617973
958.146592262
953.156028161
947.856957134
942.263707202
936.390799163
930.252855417
923.864524379
917.240422434
910.39509516
903.34299793
896.098495337
888.675877184
881.089388484
873.353270055
865.481807066
857.489383131
849.390539011
841.200035182
832.932919853
824.60459745
816.23090179
807.828169627
799.413309361
791.003860882
782.618040012
774.274759926
765.993622065
757.794868554
749.699290213
741.728086125
733.902676295
726.244474392
718.774637677
711.513818013
704.481950346
697.698113275
691.180506946
684.946569722
679.013271156
673.397564503
668.116993789
663.190289983
658.637644431
654.479841732
650.734802014
647.409713337
644.4873419
641.971259479
639.815086562
638.081463378
636.607816723
635.340551844
634.513253434
633.943490488
633.503811885
633.127344304
632.795802686
632.519253174
632.313031107
632.167572545
632.049301051
631.94337139
631.850430074
631.776093235
631.725906726
631.694883514
631.660770685
631.611196435
631.575629425
631.546936453
631.515083399
631.488715964
631.467005315
631.450654553
631.439810388
631.432930672
631.429214528
631.427577092
631.427443438
631.428287358
631.429279259
631.430571971
631.431109885
631.431469013
993.079142178
992.658775244
991.815663909
990.540310357
988.838711235
986.717253098
984.183805244
981.247569753
977.918961319
974.209472036
970.131530819
965.698359716
960.92382969
955.822318646
950.408574133
944.697583915
938.70445749
932.444322398
925.932238652
919.183134656
912.211766467
905.032701298
897.660323857
890.108862932
882.392433784
874.525092007
866.52089451
858.39396519
850.158564123
841.829160997
833.420515472
824.947760152
816.426492253
807.87286927
799.303702554
790.736544412
782.189759916
773.682574023
765.235082994
756.868218973
748.603657072
740.463657231
732.470838208
724.647890375
717.017245064
709.600735151
702.419292191
695.492742288
688.839753646
682.478001146
676.424583075
670.696766981
665.313101802
660.294914742
655.667908261
651.462851
647.712322448
644.433782469
641.575373303
639.18394368
637.109075272
635.669410631
634.341578308
632.846709177
632.386252545
632.23136642
632.113445031
631.999505359
631.893728928
631.806499095
631.736772961
631.666979765
631.589366587
631.513416442
631.450594429
631.414432925
631.424407084
631.474113448
631.501930809
631.455106451
631.446000125
631.445527034
631.422502065
631.410108585
631.401675647
631.395304111
631.394044932
631.394816641
631.397291094
631.400652081
631.403907077
631.407277004
631.41054449
631.413274618
631.414805265
631.415585675
997.065573718
996.631832041
995.763486844
994.45015124
992.698339766
990.515004418
987.908693209
984.889377942
981.468314361
977.657886142
973.471443976
968.923141758
964.027772804
958.800608266
953.257240581
947.413434855
941.284992396
934.88763073
928.236885302
921.348037047
914.236069376
906.915655429
899.401174391
891.706752393
883.846322001
875.833693011
867.682628744
859.406923998
851.020484556
842.537410155
833.972086818
825.339284475
816.654269852
807.932928263
799.191888599
790.448645461
781.721668191
773.030484111
764.395721779
755.839097629
747.383329734
739.051963482
730.869100479
722.859031615
715.045794059
707.452692116
700.101850325
693.013879635
686.207749625
679.700935313
673.50991906
667.651170105
662.142822055
657.007413399
652.276074137
647.994350523
644.226859083
641.02922334
638.216930162
635.989317185
633.552572719
632.87709217
632.143181285
631.993963855
632.020550593
632.045860878
632.026541681
631.981235642
631.922297526
631.858090518
631.793591948
631.728374546
631.662452182
631.600455246
631.550645125
631.527354982
631.543114282
631.5561535
631.446807757
631.25087303
631.286695068
631.351834034
631.32350245
631.327726745
631.335027024
631.336657135
631.346290655
631.354186771
631.362891304
631.371607893
631.379239921
631.385551079
631.390824623
631.395136693
631.397868172
631.399097414
1001.50052875
1001.05151263
1000.15440687
998.797801188
996.988826577
994.735110429
992.046008645
988.932406505
985.406554514
981.481887888
977.172841868
972.494665289
967.463234531
962.094869897
956.406156338
950.41377198
944.134328847
937.584232074
930.779564252
923.736001841
916.468768539
908.992628064
901.321914239
893.470592516
885.452342992
877.280654208
868.968917931
860.530520127
851.978928425
843.327781688
834.590991392
825.78285334
816.918183564
808.012471316
799.082042667
790.144227968
781.217520159
772.321708888
763.477971314
754.708897274
746.038423559
737.491651966
729.094529866
720.873384585
712.854325157
705.062560433
697.521723571
690.253326603
683.276475077
676.607919325
670.262504522
664.254168459
658.597859275
653.313323615
648.433121322
644.018067065
640.198493451
637.156131307
633.99512771
632.550079614
632.36772248
632.395504055
632.324580744
632.271195141
632.264673522
632.254290396
632.225297117
632.180137998
632.12080595
632.051929404
631.977727566
631.899333032
631.818413638
631.738924238
631.667026672
631.611480396
631.57527158
631.532108212
631.459248016
631.412678164
631.439544164
631.406108493
631.193557238
631.225162349
631.269204534
631.272258282
631.298085966
631.311501748
631.326832962
631.341660814
631.353927409
631.363808048
631.371326157
631.377078801
631.381074839
631.382858563
1006.39891515
1005.93252359
1005.0027785
1003.59709308
1001.72333325
999.389932281
996.607206686
993.387123216
989.743105235
985.689822926
981.242981697
976.419110537
971.235351958
965.709253779
959.858564108
953.701032074
947.254220062
940.53533514
933.561089878
926.347602427
918.910344545
911.264141504
903.42322222
895.401310364
887.211741693
878.867589541
870.381783264
861.767211456
853.036812682
844.203664369
835.281087597
826.282769685
817.222924963
808.116484005
798.979305073
789.828398718
780.682151061
771.560527397
762.48523309
753.479801719
744.569574656
735.781530854
727.143926471
718.685714104
710.435740344
702.421771451
694.66947226
687.20152443
680.037103201
673.191749515
666.6775912
660.503915521
654.678290954
649.20950166
644.111660802
639.396864442
635.073910638
632.850251887
632.693205721
632.65040077
632.660735226
632.690651261
632.661064627
632.618472371
632.58044583
632.544913599
632.50455011
632.453255112
632.388082296
632.31157633
632.226501505
632.134198907
632.037677905
631.941301191
631.850798376
631.772381361
631.706497442
631.638325031
631.556995063
631.487880109
631.445974964
631.384859746
631.347578141
631.343106297
631.254215133
631.178289392
631.251614121
631.265480708
631.289914635
631.312564007
631.329707551
631.342911365
631.352902459
631.360175839
631.365337366
631.367691344
1011.77765488
1011.29154509
1010.32485887
1008.86366052
1006.91669274
1004.49335202
1001.60509714
998.265174201
994.488386172
990.290848676
985.689748009
980.703102993
975.349529879
969.648008485
963.61764811
957.277455321
950.646109499
943.741757172
936.581839214
929.182966918
921.560860529
913.730358627
905.705496801
897.499643046
889.125666007
880.596106996
871.923329238
863.119631456
854.197331346
845.168840576
836.046761316
826.84401406
817.574023971
808.250953025
798.889969636
789.507544871
780.121758708
770.752596939
761.422211638
752.155108277
742.97821032
733.920739646
725.01384171
716.289887297
707.781411698
699.519726949
691.5333741
683.846717786
676.479135081
669.444725344
662.752263407
656.405093939
650.401103778
644.729607339
639.333336631
633.871475967
633.211563189
633.022750797
633.054678151
633.084242801
633.094080148
633.085405403
633.047095127
633.000750259
632.95327226
632.906062055
632.854113362
632.791669442
632.715737281
632.628129975
632.530277738
632.423511424
632.311369851
632.198185385
632.088939218
631.988008154
631.895279394
631.802960922
631.705799649
631.615343619
631.539302572
631.461567406
631.396898438
631.344593567
631.304844031
631.296521873
631.266910774
631.207717591
631.251917192
631.286590542
631.308332435
631.324378597
631.336433123
631.345217489
631.351374856
631.354334718
1017.6559048
1017.14743969
1016.13900364
1014.6151119
1012.585558
1010.06089258
1007.05393545
1003.57944644
999.653849024
995.294944865
990.521638899
985.353674709
979.811376262
973.915388872
967.686414233
961.144938725
954.310961975
947.20373985
939.841563184
932.241596413
924.419799422
916.390947789
908.168752928
899.766064172
891.195115953
882.467770602
873.595710834
864.590558156
855.463929528
846.227473257
836.892937299
827.472292008
817.977943537
808.423017217
798.821698546
789.189616494
779.544253228
769.905361524
760.295362387
750.739680099
741.266952991
731.909032945
722.700659434
713.678674199
704.880658422
696.342962521
688.098338692
680.17365426
672.588823019
665.3565963
658.482592035
651.965632081
645.794768833
639.91463718
633.912861403
633.23556893
633.42754786
633.52151784
633.569809569
633.565138754
633.555883991
633.535229774
633.496991149
633.448922368
633.395459143
633.337642174
633.272254516
633.195407347
633.106087191
633.005116384
632.892572482
632.770259664
632.64141054
632.509874479
632.379750232
632.254259886
632.133649043
632.014654815
631.895987154
631.783472874
631.680932314
631.583154505
631.494294193
631.418518945
631.356809821
631.316691088
631.295592593
631.269739118
631.218244283
631.267676973
631.291532362
631.309115744
631.32268835
631.332849226
631.33991549
631.343513713
1024.05532142
1023.52150635
1022.46589938
1020.87123574
1018.74857382
1016.10985401
1012.96952303
1009.3441348
1005.25201443
1000.71292349
995.747750164
990.378222052
984.626630558
978.515551678
972.067549896
965.304860444
958.249056336
950.920719858
943.339148993
935.522136984
927.485863006
919.244923079
910.812509146
902.200713794
893.420902642
884.484070888
875.401100216
866.182871215
856.840255131
847.384065533
837.82506349
828.174060717
818.442163719
808.641122644
798.78375964
788.884455608
778.959682706
769.028571304
759.113488007
749.240581742
739.44022759
729.747257866
720.200811638
710.843566969
701.72007996
692.874015242
684.344457033
676.161887836
668.347071713
660.911522513
653.858952894
647.183912004
640.838760281
634.423065057
633.640213062
633.803892893
634.017376274
634.077842742
634.107281922
634.102023205
634.08643563
634.05854268
634.017176865
633.965450082
633.905464247
633.837281805
633.758565322
633.666947754
633.563424975
633.447848629
633.319355517
633.180012094
633.032562419
632.880324089
632.726733806
632.574521964
632.424665334
632.276630708
632.131137648
631.991730181
631.860864079
631.737960364
631.625650003
631.526947728
631.442422262
631.376159812
631.326600162
631.283681191
631.276560567
631.272637913
631.281536013
631.297724524
631.312021551
631.323477461
631.331696919
631.335974748
1031.00038103
1030.43778109
1029.3288407
1027.65424134
1025.42657519
1022.65946584
1019.36931525
1015.57481032
1011.2965074
1006.55643679
1001.37775853
995.784462228
989.801088445
983.452440884
976.763263687
969.757870428
962.45973072
954.891039934
947.072316987
939.022088137
930.756719924
922.29045413
913.635669382
904.803344227
895.803633913
886.646417384
877.341658981
867.899492652
858.33007628
848.64337622
838.849051668
828.956519331
818.975242194
808.915170052
798.78727752
788.604167233
778.380738978
768.134930904
757.888522818
747.667965865
737.505173053
727.438151349
717.511256159
707.774694478
698.282725893
689.089880658
680.245136364
671.783861188
663.727442039
656.086341382
648.86035793
642.005189008
635.111629884
634.299389747
634.462216564
634.633124193
634.709225177
634.727951317
634.733943656
634.719169053
634.693746764
634.657409639
634.610341299
634.553206508
634.485963477
634.407526231
634.315843486
634.209777842
634.091538543
633.960178735
633.814373147
633.656184694
633.488024463
633.312802574
633.133537552
632.952824176
632.772330755
632.593103679
632.416863987
632.246447686
632.0842147
631.931619663
631.79127986
631.665785157
631.556824496
631.466630439
631.393915142
631.335798472
631.303437588
631.289402494
631.277161293
631.286850688
631.303590024
631.31718116
631.327334914
631.332519061
1038.51876738
1037.9234037
1036.75406067
1034.98904243
1032.64281428
1029.73105442
1026.27253216
1022.28848394
1017.80208593
1012.83798126
1007.42190534
1001.580394
995.340529593
988.72966923
981.775106998
974.503644001
966.941068643
959.111581275
951.037226541
942.737421535
934.22868116
925.524636658
916.636406662
907.573304931
898.343756738
888.956178898
879.419526183
869.74330439
859.937143991
850.010266081
839.971149829
829.827542798
819.58683345
809.2566385
798.845482131
788.363518948
777.823337056
767.240885939
756.636541873
746.036291678
735.472997261
724.98765682
714.630439832
704.460989981
694.547057075
684.959735782
675.764591391
667.002879272
658.695644503
650.848278366
643.417325753
635.973820116
635.135294318
635.352872537
635.51101917
635.522785884
635.505457439
635.480123414
635.453003488
635.418417344
635.379305024
635.333465704
635.27921213
635.214904358
635.138796642
635.048857159
634.943266725
634.822537397
634.688359546
634.539049811
634.374072943
634.195279649
634.004822214
633.805255591
633.599268178
633.3893664
633.177643449
632.965989826
632.756677774
632.552488773
632.35610163
632.170000821
631.997098618
631.840218165
631.701744588
631.583588586
631.48567103
631.407169063
631.350827396
631.313998618
631.28876727
631.277485875
631.296984637
631.314215496
631.327700379
631.334138509
1046.64184544
1046.00905895
1044.77112749
1042.90359068
1040.42321971
1037.34822198
1033.70026347
1029.50365426
1024.78465374
1019.57089354
1013.89098403
1007.77427154
1001.2506616
994.350408136
987.103785601
979.540596582
971.689512431
963.577290069
955.227953353
946.662067601
937.896267617
928.943207065
919.812061216
910.509607024
901.041711934
891.41481746
881.63684018
871.717028417
861.664965127
851.489433428
841.197712122
830.79553398
820.287646956
809.678663569
798.973929548
788.180340821
777.307243283
766.367535347
755.379013829
744.365955204
733.360955689
722.4070703
711.56015909
700.890962134
690.485643638
680.441100982
670.85404759
661.771525092
653.206364689
645.113755426
637.039569065
636.15563099
636.438490485
636.618458464
636.574052233
636.472433989
636.384757872
636.311855763
636.250849721
636.195089012
636.14137145
636.084555628
636.0205051
635.945706124
635.85723184
635.752504272
635.630200856
635.492750016
635.340112377
635.170256019
634.984326194
634.783825323
634.570626
634.34687455
634.114861897
633.876862446
633.635050287
633.391634931
633.149132678
632.910419638
632.678508912
632.456511487
632.247770665
632.055586204
631.882940192
631.732180381
631.604388387
631.49989234
631.419332802
631.36035874
631.317862498
631.290498964
631.285373104
631.313968555
631.334361381
631.342272903
1055.40524196
1054.72952174
1053.41342147
1051.42927111
1048.79669211
1045.53703175
1041.67555201
1037.24031947
1032.26123987
1026.76933096
1020.79633598
1014.37460779
1007.53710264
1000.31730962
992.748977718
984.865563485
976.699388483
968.280561247
959.635780706
950.787202094
941.751607775
932.540168968
923.159070562
913.611139488
903.898302683
894.024200354
883.995822769
873.823040226
863.516422244
853.084973627
842.534817843
831.869168195
821.089326868
810.196046864
799.190658347
788.075877916
776.856697533
765.541617583
754.144269652
742.685376476
731.195155103
719.716473746
708.309082296
697.054906035
686.063736276
675.472458666
665.44633774
656.026155848
647.158032885
638.354708218
637.383646904
637.716330265
637.921805254
637.837366898
637.648549183
637.465927855
637.319366273
637.205294953
637.115580464
637.039992434
636.970523803
636.899505725
636.820925236
636.730100033
636.623525543
636.498671409
636.355074921
636.196246603
636.02149456
635.829174781
635.621173368
635.398922847
635.16397217
634.917944924
634.662567464
634.399647379
634.131090033
633.859006063
633.585857937
633.314501342
633.04811146
632.790152228
632.544361245
632.314558676
632.104388509
631.916975214
631.754536925
631.618471772
631.509459502
631.42611397
631.365320158
631.324129034
631.301909874
631.311115312
631.350682326
631.358952648
1064.84956015
1064.12433447
1062.71871009
1060.60137377
1057.79544502
1054.32618989
1050.22342813
1045.51991722
1040.24991534
1034.44822339
1028.14986302
1021.39023377
1014.20544161
1006.63250077
998.709191688
990.47345867
981.962330366
973.21042963
964.248219439
955.100221523
945.783555969
936.307265194
926.672952903
916.877163057
906.915467135
896.787245984
886.498969231
876.063048198
865.493116599
854.79964839
843.987676783
833.057013867
822.004252618
810.825177299
799.516233391
788.075022138
776.500935344
764.796454525
752.969063498
741.03347371
729.014315511
716.950073524
704.899330199
692.950668012
681.239071022
669.958502397
659.442055286
649.636358337
639.978932927
638.84623572
639.185845016
639.404368824
639.28106449
639.011817733
638.727107789
638.48320037
638.292846342
638.147370321
638.033417482
637.937529652
637.84874065
637.757857882
637.657897063
637.543719089
637.411741065
637.260000254
637.089455444
636.903983759
636.70296591
636.486018764
636.255349083
636.012282199
635.757873702
635.493029747
635.218684172
634.935910344
634.646021511
634.350681626
634.052007279
633.752608661
633.4555724
633.164439852
632.883162485
632.615960586
632.367098829
632.140575191
631.939790524
631.76738473
631.625026697
631.512842923
631.429723354
631.373976924
631.34313226
631.339868502
631.394607629
631.388215263
1075.02124907
1074.23868738
1072.7298305
1070.45966583
1067.45541203
1063.74721306
1059.37084664
1054.36512772
1048.76959259
1042.62317332
1035.96406975
1028.83045865
1021.26143932
1013.29772
1004.98172189
996.356946447
987.466592597
978.351506756
969.04763095
959.583227387
949.976334224
940.233156006
930.348355851
920.308302093
910.097819495
899.70920011
889.14940363
878.437488772
867.59419913
856.63366888
845.55973567
834.367049848
823.045305188
811.583860798
799.973614798
788.206322188
776.274472893
764.172652762
751.899934907
739.462184973
726.874309293
714.163906278
701.378187386
688.597408441
675.967530652
663.726566151
652.639893922
641.966938116
640.559641775
640.829450893
641.041017822
640.877224151
640.532431115
640.149525271
639.800580432
639.516086873
639.29572576
639.124769431
638.986471134
638.865872242
638.750979947
638.632287201
638.502706985
638.357142519
638.192181624
638.006756786
637.804202628
637.586917719
637.355049004
637.111390065
636.857938021
636.595713995
636.325046374
636.045884632
635.758119402
635.461828042
635.157453834
634.845935113
634.528789422
634.208147657
633.88675159