/*--------------------------------*- C++ -*----------------------------------*\
| =========                 |                                                 |
| \\      /  F ield         | OpenFOAM: The Open Source CFD Toolbox           |
|  \\    /   O peration     | Version:  v1906                                 |
|   \\  /    A nd           | Web:      www.OpenFOAM.com                      |
|    \\/     M anipulation  |                                                 |
\*---------------------------------------------------------------------------*/
FoamFile
{
    version     2.0;
    format      ascii;
    class       volScalarField;
    location    "193";
    object      p;
}
// * * * * * * * * * * * * * * * * * * * * * * * * * * * * * * * * * * * * * //

dimensions      [0 2 -2 0 0 0 0];


internalField   nonuniform List<scalar> 
9216
(
274.55094347
274.634380686
274.812416539
275.078506472
275.432328003
275.872156173
276.39572242
277.000387309
277.683114667
278.440644921
279.269413347
280.165753444
281.125766338
282.145561559
283.221070194
284.348327218
285.523221453
286.74182448
288.000072925
289.294149229
290.620093549
291.974241516
293.352764936
294.752170331
296.168768597
297.599236926
299.040019212
300.487951839
301.93959758
303.391934246
304.841626712
306.285775609
307.721133187
309.144907343
310.553929735
311.945508493
313.316558027
314.664492388
315.986328411
317.279609268
318.541493468
319.769696778
320.961580887
322.115099477
323.227900171
324.298259502
325.324211567
326.304454929
327.237519265
328.122627048
328.958906587
329.746191276
330.484282814
331.173673881
331.8148618
332.408986654
332.957193897
333.461189795
333.922652114
334.343713458
334.72641969
335.073157176
335.386159066
335.667892998
335.920614384
336.146727947
336.34838503
336.527826425
336.687018239
336.827978605
336.95244609
337.062190224
337.158707474
337.243515215
337.31787207
337.38305471
337.440100309
337.490065632
337.533790056
337.572137165
337.605778247
337.635420115
337.661677439
337.684644999
337.703846858
337.719593763
337.732480707
337.74277098
337.750584125
337.756296997
337.760284714
337.762996575
337.76481331
337.76592605
337.766495216
337.766705343
274.467475604
274.551378258
274.727777413
274.994621026
275.350028474
275.791977145
276.318079698
276.925605435
277.611478161
278.372366554
279.204682867
280.104689806
281.06847984
282.092092352
283.17146639
284.302567519
285.481310408
286.703696964
287.965707325
289.263452024
290.593031449
291.950705051
293.332720114
294.735500679
296.155446969
297.589145975
299.033143147
300.484175761
301.938918838
303.394241721
304.84693062
306.293967643
307.732233227
309.158806899
310.570653083
311.964941733
313.338722124
314.689260992
316.013709365
317.30945496
318.573787424
319.804260848
320.99836281
322.153881697
323.26858449
324.340582609
325.368022613
326.349443014
327.283480492
328.169208983
329.005861586
329.79314193
330.530958941
331.219700645
331.859977529
332.452852424
332.999590027
333.501843656
333.961412488
334.380392953
334.760948246
335.105436096
335.416196311
335.695667192
335.946195875
336.170152427
336.369764284
336.547231637
336.704583353
336.843792883
336.966651304
337.074881491
337.170024679
337.253551241
337.326758515
337.390876999
337.446977797
337.496073124
337.539031876
337.576673248
337.609688057
337.638719871
337.664287895
337.686769076
337.705801407
337.721268908
337.733795713
337.743710016
337.751353351
337.756970519
337.760809456
337.763407656
337.765180411
337.766220653
337.766725995
337.766942606
274.288381301
274.375805735
274.554111851
274.823702461
275.182742591
275.629160923
276.16048343
276.77387324
277.466161104
278.233908746
279.073444179
279.980930696
280.952392946
281.983784029
283.070996402
284.209924702
285.396459385
286.626545752
287.896160533
289.201369022
290.538285944
291.90313314
293.29218656
294.701836724
296.128523562
297.568801535
299.019263993
300.476614188
301.937580623
303.398994952
304.857699887
306.310634341
307.754735693
309.187032822
310.604544705
312.004381469
313.383641642
314.739521449
316.069213279
317.370022867
318.639271347
319.874419647
321.072976187
322.232626812
323.351149487
324.426547433
325.456971384
326.440852337
327.376830504
328.26388269
329.101254846
329.888576551
330.625790901
331.313246888
331.951619211
332.54197167
333.085662999
333.584381899
334.040041633
334.454794458
334.830922423
335.170841966
335.4770007
335.751883167
335.997922357
336.217514234
336.412947524
336.586428488
336.740026738
336.875707151
336.995286924
337.100470922
337.19281637
337.273769781
337.344637472
337.406622887
337.460801565
337.508157649
337.549561936
337.585805949
337.617580924
337.645503657
337.670099365
337.691740547
337.709959415
337.724699891
337.736360735
337.745584759
337.752910424
337.758251619
337.761794993
337.764256442
337.765875767
337.766803164
337.767302714
337.767565275
274.018254974
274.10778045
274.289119873
274.563092029
274.92783421
275.381193077
275.920572335
276.542990842
277.24513256
278.023406942
278.874001114
279.792939198
280.776126663
281.819401838
282.918567347
284.069431394
285.267825119
286.509634253
287.790803541
289.107360945
290.455411351
291.831155881
293.230877184
294.650956213
296.087851115
297.538113313
298.998361559
300.465298677
301.935682095
303.406342291
304.874150903
306.33604164
307.788977327
309.229974305
310.656069724
312.064350389
313.451922037
314.815943685
316.153600636
317.462145225
318.738875151
319.981181067
321.186531296
322.35252597
323.476888517
324.557525326
325.592523587
326.580214545
327.519176161
328.408296438
329.246776877
330.034188779
330.770469131
331.45595877
332.09137996
332.677846862
333.216819495
333.710086347
334.15969929
334.567937585
334.937233744
335.270131052
335.569212578
335.837065581
336.076225156
336.289154303
336.478206482
336.645621654
336.793504082
336.923828561
337.038426759
337.138998075
337.227100838
337.304165975
337.37149199
337.430260571
337.481534277
337.526272925
337.56533285
337.599482886
337.629403964
337.655703032
337.678948209
337.699205069
337.716040004
337.72956952
337.740191692
337.748665111
337.755227893
337.760034581
337.763364793
337.765600624
337.767027757
337.767874556
337.768353179
337.768601301
273.65441765
273.746191338
273.931650524
274.211659051
274.584252252
275.047138054
275.59754605
276.232298691
276.947875193
277.740478803
278.60609929
279.540574582
280.539642955
281.598992694
282.714299756
283.881263496
285.095629669
286.353213584
287.649910739
288.981710269
290.344696253
291.73505454
293.149067575
294.583117139
296.033674891
297.497302905
298.970641506
300.45040887
301.933387261
303.416422701
304.89641052
306.370295783
307.835059281
309.28771986
310.725322033
312.144941387
313.543675407
314.918653476
316.267032658
317.586013685
318.872843204
320.124836804
321.339388635
322.514001735
323.646305127
324.734091091
325.775339256
326.768259853
327.711323673
328.603309101
329.44333412
330.230900064
330.965915199
331.648720272
332.280087967
332.86121609
333.393694359
333.879465221
334.320764404
334.720063072
335.079994682
335.403292077
335.692716912
335.951008011
336.180829881
336.384743102
336.565177089
336.724421114
336.864614835
336.987750079
337.095668619
337.190066936
337.272496848
337.34437289
337.406975847
337.461462545
337.508871486
337.550133901
337.586080624
337.617453507
337.64491264
337.66904975
337.690427064
337.708787741
337.723826823
337.735799676
337.745171233
337.752640764
337.758497224
337.762731853
337.765584222
337.767494141
337.768760641
337.769510631
337.76993511
337.770160466
273.194605005
273.289072431
273.47979638
273.767590199
274.150320298
274.625491332
275.190094143
275.840689704
276.573486628
277.384418715
278.269218363
279.223483802
280.242738239
281.32248044
282.458225912
283.645539919
284.880061862
286.157523467
287.473759964
288.82471755
290.206455412
291.615146278
293.047072648
294.498623333
295.966286245
297.446642827
298.936358861
300.432177957
301.9309113
303.429431019
304.924659499
306.413563184
307.893142453
309.360426953
310.812467096
312.246332281
313.659105702
315.04788728
316.40979371
317.741967964
319.041586398
320.305876213
321.532130688
322.717735133
323.860190427
324.957147272
326.006437827
327.006118209
327.954508315
328.850242173
329.692313868
330.480129109
331.21354448
331.892899652
332.519025782
333.093235749
333.617289036
334.093338784
334.523865099
334.911599957
335.259444577
335.570387087
335.847423408
336.093491397
336.311418322
336.503886773
336.673414228
336.822346972
336.952860284
337.06696394
337.166506215
337.2531788
337.32852081
337.393925638
337.450647823
337.499812542
337.542424344
337.579378002
337.61146845
337.639402487
337.663810417
337.685279801
337.704193622
337.720125307
337.733044866
337.743259617
337.751389525
337.757855598
337.762756094
337.766113767
337.768516075
337.770082226
337.771079986
337.771782312
337.772164006
337.772369635
272.636031024
272.733787279
272.931048502
273.228538708
273.623894439
274.114345546
274.696568184
275.366784227
276.120854465
276.954370682
277.862740512
278.841264001
279.885198278
280.989811816
282.150426135
283.362448258
284.621392562
285.922896081
287.262726024
288.636783557
290.04110235
291.471845547
292.925299359
294.397866426
295.886056936
297.386480233
298.895834803
300.410899043
301.928520736
303.445607549
304.959116342
306.466043617
307.9634155
309.448279153
310.917694416
312.368727615
313.798446763
315.203919894
316.582216193
317.930411201
319.245596134
320.524891827
321.765467594
322.964564594
324.119524288
325.227821094
326.287100281
327.295220809
328.250304602
329.150792784
329.995507521
330.783717875
331.515199726
332.190281726
332.809864269
333.375409075
333.888897153
334.352758712
334.769792559
335.143074285
335.475854184
335.771454559
336.033170783
336.264192353
336.467543532
336.646049859
336.802323906
336.938769054
337.057591696
337.160814971
337.250289017
337.327696055
337.394556024
337.452233891
337.501948993
337.544785632
337.58170408
337.613552241
337.641077552
337.664939568
337.685723457
337.703991356
337.719908631
337.733065938
337.743687477
337.752084055
337.758783838
337.763940398
337.767696192
337.770333498
337.772244269
337.773481961
337.774177832
337.774733006
337.775042858
337.775207547
271.975277826
272.077029912
272.282262314
272.591581863
273.002324404
273.511362378
274.114966208
274.808925266
275.588661805
276.449340562
277.385968963
278.393483443
279.466821729
280.600979182
281.79105168
283.032264922
284.31999371
285.649771688
287.017294996
288.418420186
289.84915914
291.30567099
292.784252916
294.281329605
295.793442442
297.317238203
298.849457695
300.386924279
301.926532168
303.465234982
305.000033609
306.527964624
308.046088319
309.551477841
311.041208237
312.512347861
313.961950568
315.387051961
316.784667615
318.151797223
319.485431821
320.782568256
322.040227191
323.255478643
324.425470518
325.54746442
326.618874159
327.637313389
328.600648759
329.507067699
330.35515539
331.14398617
331.873210397
332.543127896
333.154717575
333.709631898
334.210139606
334.659028753
335.059509165
335.415100567
335.72950639
336.006478674
336.249692531
336.462646475
336.648597167
336.810527001
336.951141837
337.07289103
337.177998641
337.268491439
337.346214716
337.412835828
337.469847834
337.518578199
337.560200487
337.595747242
337.626122693
337.652116089
337.674414395
337.693615498
337.710240747
337.724779725
337.737277405
337.747465674
337.755577022
337.761981237
337.767009112
337.770813973
337.773516134
337.775477723
337.776717556
337.777584609
337.778068147
337.778331711
337.778553207
337.778657426
271.208189108
271.314756511
271.529600956
271.853170419
272.282415579
272.813749073
273.442924057
274.165184156
274.975403955
275.868222274
276.838159493
277.879717124
278.987456084
280.156056425
281.380357818
282.655385928
283.976365027
285.338722266
286.738083775
288.17026712
289.631269685
291.117256277
292.624545047
294.149593923
295.688986454
297.239418454
298.797684401
300.360664355
301.925310599
303.488634517
305.047692859
306.599573816
308.141383181
309.670230269
311.183214617
312.677413345
314.149870868
315.597590757
317.017532156
318.406610093
319.76170259
321.079662767
322.357339077
323.591599907
324.779365923
325.917644702
327.003573066
328.034462821
329.00785999
329.921618683
330.774000516
331.563797952
332.29046869
332.954251954
333.556211905
334.098247829
334.583004637
335.013728202
335.394151592
335.728366088
336.020661061
336.275342645
336.496562938
336.68819569
336.853761773
336.996404894
337.118905916
337.223731492
337.313096224
337.389014048
337.453319809
337.507661528
337.553496985
337.592104683
337.624600023
337.65195074
337.67499228
337.69444201
337.710913662
337.724930595
337.73694132
337.747354463
337.756154203
337.763130781
337.768560671
337.772840969
337.776081661
337.778448409
337.780100296
337.781240587
337.781950085
337.782312436
337.782521193
337.782510319
337.782623227
337.782658248
270.329754391
270.442095263
270.668452567
271.00906329
271.460381565
272.018231267
272.677708421
273.433370699
274.279413729
275.209832886
276.218563243
277.299591928
278.447044206
279.655242678
280.918745143
282.23236293
283.591166209
284.990478078
286.425862929
287.893109819
289.388214735
290.907361412
292.44690316
294.00334473
295.573325683
297.153604136
298.74104162
300.332588105
301.925267301
303.516162001
305.102398515
306.681130786
308.249523746
309.804736552
311.343905149
312.864126277
314.362442036
315.835828417
317.281186521
318.695340882
320.075042821
321.416983395
322.717812378
323.974166613
325.182702139
326.340132611
327.443268221
328.489061139
329.474658967
330.397485043
331.255355649
332.046652352
332.770532505
333.427123765
334.017577663
334.544119216
335.009899383
335.418742686
335.775036598
336.083606122
336.349506029
336.57776046
336.773123341
336.939915245
337.08194866
337.202514991
337.304425966
337.390107679
337.461715044
337.521227067
337.570469255
337.611073043
337.644451599
337.671819159
337.69421754
337.71253479
337.72752284
337.739813433
337.749932596
337.758315182
337.765320727
337.771256104
337.776071212
337.779712233
337.78248125
337.784568232
337.785951675
337.786783808
337.787257829
337.787502377
337.787675833
337.787655743
337.787461532
337.787223166
337.787168958
337.787141608
269.333970263
269.453214901
269.693323525
270.05424292
270.531787332
271.121023988
271.81621358
272.611053165
273.498898352
274.472962871
275.526483167
276.652846831
277.845682479
279.098917916
280.406808769
281.763947212
283.1652535
284.605958926
286.081581426
287.58789999
289.120927419
290.676885257
292.252179418
293.843378717
295.447194554
297.06046293
298.680127216
300.303222153
301.926857783
303.548203624
305.164471563
306.77289769
308.370723246
309.955173929
311.523438735
313.072648311
314.599854865
316.102014064
317.575971958
319.01845745
320.426084021
321.795359949
323.122710286
324.404506022
325.637102848
326.816878196
327.940271579
329.003815938
330.004180948
330.938237805
331.803188326
332.596807393
333.317764291
333.966018164
334.542771832
335.050715093
335.493717704
335.876307347
336.203669576
336.48157145
336.71608319
336.913181376
337.078376565
337.216515589
337.331715714
337.427375827
337.506254462
337.57062672
337.622500523
337.663791285
337.696343368
337.721794071
337.7414978
337.756580214
337.767990836
337.776520138
337.782820978
337.787424304
337.790753948
337.793140834
337.794836388
337.796034514
337.796724431
337.796974905
337.796992343
337.796753873
337.796257569
337.795646179
337.795009614
337.794375522
337.793814971
337.793340962
337.792864541
337.792381491
337.792107243
337.792020884
268.213659947
268.341165854
268.597699144
268.982810907
269.491481528
270.11780153
270.854966306
271.695591128
272.631994849
273.656444443
274.761350646
275.939409467
277.18369532
278.487709874
279.845398368
281.251139805
282.699722275
284.186307729
285.706394138
287.255776287
288.83050981
290.426877479
292.04136014
293.670610363
295.311430044
296.960749941
298.61561172
300.273150783
301.930579796
303.585171968
305.234242728
306.87512976
308.505170886
310.121679859
311.721919648
313.303075364
314.862226372
316.396321738
317.902158591
319.37636964
320.815418734
322.215611398
323.57311664
324.884004765
326.144290266
327.349978434
328.497099115
329.581723686
330.599970323
331.548018218
332.422233324
333.219446833
333.937535322
334.576222623
335.136642831
335.622212497
336.037919592
336.389075325
336.68176748
336.922979413
337.120182134
337.280645485
337.410840558
337.516206526
337.601155489
337.669123349
337.722660872
337.763698035
337.793931097
337.815182188
337.829418273
337.83835275
337.843247909
337.845092368
337.844720961
337.842807405
337.839887899
337.836378565
337.83258593
337.828723725
337.824923949
337.82130921
337.817815305
337.814621489
337.811789576
337.809186301
337.806887449
337.804880437
337.803157562
337.801636237
337.800363379
337.799295772
337.798486121
337.797816276
337.797304906
337.797126768
266.960243873
267.097663355
267.373867681
267.787857081
268.333517975
269.003670122
269.790143137
270.684189982
271.676849185
272.759247231
273.922825641
275.15949604
276.46172663
277.822576541
279.235687377
280.695249894
282.195952885
283.732927489
285.301689291
286.898085815
288.518248152
290.158550368
291.815573845
293.486078179
295.166975744
296.855310665
298.548239845
300.243016187
301.936971985
303.627502361
305.312046344
306.988065254
308.653018092
310.304332686
311.939373661
313.555407258
315.149565385
316.7188103
318.259903975
319.769385133
321.243559258
322.678504858
324.070100771
325.414071322
326.706048078
327.941627943
329.116413855
330.226006395
331.265932363
332.231569446
333.118110362
333.920951364
334.636480456
335.264370213
335.805150099
336.263567286
336.646637287
336.960237011
337.211311488
337.408455541
337.561167181
337.678574047
337.768339689
337.836507404
337.887746621
337.925416436
337.951625235
337.967591547
337.97438095
337.973693883
337.967922054
337.959049913
337.948130959
337.935900444
337.923069656
337.910175089
337.897617873
337.88568766
337.874556394
337.864303492
337.8549085
337.846419736
337.838816899
337.832258327
337.826600597
337.821809486
337.817743409
337.814313486
337.811423199
337.808995693
337.807023504
337.805432593
337.804198804
337.803308582
337.802580706
337.802311298
265.563433074
265.712814817
266.012692941
266.461299349
267.051066786
267.773147688
268.617610256
269.573985154
270.631731882
271.780607756
273.010930655
274.313737111
275.680854403
277.104903048
278.579254338
280.097958313
281.655660893
283.247517912
284.869116308
286.516403216
288.185627122
289.873288084
291.576098298
293.290949186
295.014885521
296.745083397
298.478832393
300.213519353
301.946613479
303.675650621
305.398214952
307.111916523
308.814364032
310.503131793
312.175720557
313.829513933
315.461730555
317.069376741
318.649200733
320.197657381
321.710885483
323.184711069
324.614675621
325.996101558
327.32417857
328.594061573
329.800935369
330.939981768
332.006224458
332.994166687
333.897514443
334.709278275
335.422866955
336.039010895
336.555649556
336.980456159
337.324743072
337.593690461
337.794618146
337.938376518
338.037646877
338.104405928
338.147691611
338.173982247
338.188114848
338.193304093
338.190848438
338.180584106
338.162277188
338.137436771
338.109723507
338.081898421
338.05439041
338.027389709
338.001558038
337.977280585
337.954797902
337.934272712
337.91572269
337.899084321
337.884183865
337.870950977
337.859335467
337.849541827
337.841241559
337.834308598
337.828548476
337.823674625
337.819626045
337.816298153
337.813614276
337.81149368
337.809872031
337.808708019
337.80782167
337.807450242
264.01082764
264.174751893
264.503323667
264.993685855
265.636317352
266.420161084
267.332997331
268.3621735
269.495201622
270.720208175
272.026224631
273.403338782
274.842728659
276.336617198
277.878172722
279.461387269
281.080946861
282.732111816
284.410609625
286.112547386
287.834339738
289.572653649
291.32436432
293.086522057
294.856325534
296.631101552
298.408288302
300.185422159
301.960125222
303.730092674
305.493076298
307.246862333
308.989242598
310.717976552
312.430745139
314.125095936
315.798382284
317.447698099
319.069813607
320.661118687
322.217583641
323.734749239
325.207759633
326.631447671
328.000473325
329.309495213
330.553309323
331.726863837
332.824940878
333.841463531
334.768317743
335.594784777
336.306868618
336.911689697
337.397208511
337.778853055
338.078324193
338.294945829
338.435058369
338.513050419
338.547221507
338.554301443
338.544544992
338.524013654
338.497785515
338.46900877
338.437821134
338.401308075
338.356491553
338.304327834
338.252026972
338.204504211
338.160138415
338.117798897
338.078563549
338.042664885
338.010102971
337.980960132
337.955055999
337.932182183
337.911979435
337.894371494
337.879082938
337.866136518
337.855362772
337.846373373
337.838928519
337.832705309
337.827566165
337.823388117
337.82000739
337.817356634
337.815331943
337.81388586
337.812901167
337.812419965
262.287368346
262.469147723
262.832815325
263.373954329
264.080379397
264.938074418
265.931828072
267.046210565
268.266340115
269.578416767
270.970032056
272.430282488
273.949739349
275.520320035
277.135110581
278.788170013
280.474345062
282.18910519
283.928407922
285.688591173
287.466292961
289.258390512
291.061956746
292.874226986
294.692575144
296.514495027
298.337587547
300.159550955
301.978173932
303.791327583
305.596953556
307.393043866
309.177611173
310.948646745
312.704065863
314.441641294
316.158925041
317.853162023
319.521198526
321.159396951
322.763565196
324.328925367
325.850137335
327.321411493
328.736718865
330.090096749
331.375982016
332.589384144
333.725578686
334.77883004
335.739674886
336.59189258
337.300416307
337.900286968
338.341253668
338.663105159
338.913642451
339.069993582
339.134843623
339.129742606
339.082966919
339.021111559
338.952359028
338.880004853
338.809966032
338.747194142
338.689705154
338.629639043
338.557360494
338.471928378
338.390373022
338.323780529
338.263614095
338.205260767
338.152303979
338.104770592
338.062084802
338.024484684
337.991443262
337.962653334
337.937522218
337.915822769
337.897331486
337.881609346
337.868505543
337.857691596
337.848681546
337.841201318
337.835055832
337.830051639
337.826017198
337.822864182
337.820455652
337.818749369
337.817646998
337.81707622
260.374593975
260.578560981
260.985639195
261.589141039
262.373193931
263.319775872
264.409736222
265.624109064
266.945081834
268.356615487
269.844736744
271.397574712
273.00521173
274.659433259
276.353431871
278.081518554
279.838862552
281.621279062
283.42506215
285.246863422
287.083604628
288.932418984
290.790609821
292.655622802
294.525025066
296.39649128
298.267794455
300.136802764
302.001479765
303.859885366
305.710171262
307.550565655
309.37934444
311.194785089
312.995104312
314.778377417
316.542441264
318.284780362
320.002401301
321.691703401
323.348361561
324.967247637
326.542425831
328.067274057
329.534782968
330.938074121
332.271107241
333.529361116
334.709897917
335.809891743
336.821343899
337.723734422
338.411757097
339.034889842
339.401498099
339.65584956
339.910600364
340.017240438
339.98469137
339.858232575
339.688508366
339.517866603
339.371218414
339.245077736
339.13338711
339.039153633
338.96127486
338.883018649
338.77781811
338.639702618
338.51668734
338.436125159
338.364390058
338.28776816
338.220638801
338.162004052
338.109130144
338.063501921
338.023676895
337.989506653
337.960037327
337.934783979
337.913407054
337.895359156
337.880290888
337.867867436
337.857505611
337.848872963
337.841795956
337.836074976
337.831450032
337.827831468
337.825105193
337.823149645
337.821913229
337.821282571
258.249598152
258.48154154
258.943038374
259.624037247
260.503480538
261.557862871
262.762819075
264.094880139
265.532681093
267.057636318
268.654160825
270.309547705
272.013632638
273.758353321
275.537295514
277.345277111
279.178004236
281.031803478
282.903430277
284.789937228
286.688591656
288.59682394
290.512197679
292.432389057
294.355173429
296.278414806
298.200062438
300.118154296
302.030829449
303.936341856
305.833069026
307.719505139
309.594235218
311.455886322
313.303056646
315.134221513
316.947615017
318.741085538
320.511925036
322.256681987
323.970969606
325.649305434
327.285027387
328.870376313
330.396853474
331.856016414
333.240771881
334.547191803
335.775906803
336.931866992
338.019361128
339.042027078
339.65769494
340.536019469
340.686379745
340.24557435
339.990160731
339.945408246
339.909615127
339.823572801
339.702721651
339.572854361
339.454044221
339.356169983
339.278646091
339.217671439
339.162941768
339.089691675
338.96467266
338.770918954
338.598133872
338.53612524
338.467866227
338.363263197
338.280662298
338.213169056
338.14926953
338.096636179
338.05040981
338.011690879
337.978536619
337.950541191
337.926898223
337.906983726
337.89033123
337.876568793
337.865042273
337.855446734
337.847594827
337.841238675
337.836137024
337.83213027
337.829120966
337.826975509
337.825612704
337.824934901
255.883559413
256.151393133
256.682184852
257.460800672
258.458767165
259.644998511
260.988198148
262.459188846
264.032361343
265.686344896
267.404039116
269.172219251
270.980895853
272.82260528
274.691734298
276.583952534
278.495769258
280.424218567
282.366649724
284.320603426
286.28374486
288.253834811
290.228717229
292.20631391
294.184617529
296.16168553
298.135639127
300.104675598
302.067096448
304.021343403
305.966026829
307.899933783
309.822007564
311.731295873
313.626872817
315.507732077
317.372649581
319.220005099
321.047561143
322.85219908
324.629622343
326.374061044
328.078025776
329.732233609
331.325911612
332.847758126
334.288049578
335.642436449
336.916175125
338.131621952
339.35252172
340.834214804
340.570508969
340.453721305
340.515117229
340.384271637
340.177920817
340.037980533
339.928665496
339.807149853
339.673222826
339.53986283
339.420566612
339.320386421
339.23500871
339.159697898
339.086947329
339.008479577
338.925226685
338.854100316
338.808678111
338.755564777
338.621529752
338.419020862
338.319373392
338.257842053
338.179411469
338.122804838
338.070012333
338.028167498
337.992273237
337.962568771
337.937378005
337.916178709
337.898389901
337.883592935
337.871154906
337.860776521
337.852333373
337.845473122
337.839976637
337.835677294
337.832436018
337.830137048
337.828670371
337.827965993
253.23959529
253.554425205
254.175076315
255.078550342
256.225593383
257.574548259
259.084904614
260.720310114
262.450219238
264.250402204
266.10260848
267.993700248
269.914556099
271.858970333
273.822697237
275.80269872
277.79660804
279.802378657
281.818084223
283.841822851
285.871691707
287.905795115
289.942265364
291.979275536
294.015041643
296.04781372
298.075872729
300.097548192
302.111271291
304.11564488
306.109505866
308.091955525
310.062346189
312.020225314
313.965249574
315.897070447
317.815183202
319.71872033
321.6061757
323.475052647
325.321433261
327.139479927
328.920912933
330.654583625
332.326369898
333.919955643
335.419294489
336.8142282
338.106508216
339.320575168
340.551571141
340.719069286
340.757793474
340.597204071
340.495355693
340.338866352
340.145559386
339.985898942
339.852292335
339.720828608
339.588411351
339.463778571
339.353982806
339.258863784
339.175557614
339.100124585
339.027190925
338.951986667
338.874893537
338.803675441
338.744212688
338.688943367
338.63212732
338.579226915
338.501506483
338.341481603
338.184999694
338.139427943
338.079718081
338.038311797
338.000664552
337.970722754
337.944598198
337.922757161
337.904297942
337.888731748
337.87560787
337.864763344
337.855906722
337.848682384
337.842910979
337.838404651
337.834995839
337.832584497
337.831054664
337.830329173
250.269573659
250.647465542
251.387106326
252.453024872
253.790041028
255.341684734
257.05524761
258.88552114
260.796457955
262.76125123
264.761308801
266.784637336
268.824054077
270.875557999
272.937018614
275.007233936
277.085317061
279.170351185
281.261235227
283.356658458
285.455144629
287.555125967
289.6550094
291.753218406
293.848197359
295.938390043
298.022216754
300.098090114
302.164504599
304.220166692
306.264111156
308.295766893
310.314949406
312.32179175
314.316648611
316.29998309
318.272218703
320.233516503
322.183454832
324.120588668
326.04186326
327.941879505
329.811957559
331.639063512
333.404818317
335.085265935
336.652248701
338.085346181
339.386492408
340.61821119
340.716007198
340.752910551
340.705988846
340.556574737
340.405263795
340.227674458
340.035842474
339.863810024
339.713854539
339.576072839
339.447936133
339.333673363
339.234639533
339.148096918
339.072139333
339.003658529
338.938670764
338.87392351
338.808836998
338.746075835
338.687919543
338.630709916
338.571028774
338.512759367
338.459911325
338.411722539
338.348624661
338.22348051
338.070982649
338.039265592
338.002716136
337.975241272
337.948402021
337.926601563
337.907732436
337.891803785
337.878366786
337.867254888
337.858146981
337.850751154
337.844847068
337.840247544
337.836766376
337.834288005
337.83272853
337.83199493
246.909187194
247.374224947
248.275265185
249.556484603
251.138883166
252.945242285
254.906917546
256.968093139
259.087057424
261.235352685
263.395588279
265.558639291
267.720863511
269.881763017
272.042273756
274.203652436
276.366853275
278.532253983
280.699616914
282.868184732
285.036842213
287.204284845
289.369156364
291.530122699
293.685874154
295.835064325
297.976231123
300.107786788
302.228169224
304.336077026
306.430682083
308.511746104
310.579611107
312.635090364
314.679351829
316.713825174
318.740087892
320.759656088
322.773637387
324.782221418
326.783976566
328.774860625
330.746804767
332.685771949
334.569131275
336.362106474
338.015886329
339.502726526
340.870843303
340.902130584
340.823629954
340.745822127
340.620832884
340.441516768
340.249133951
340.047534342
339.847131727
339.665396376
339.506949388
339.368481981
339.248292277
339.146287555
339.059564608
338.984645368
338.919863222
338.862623076
338.809797236
338.758941591
338.709153009
338.660897804
338.614175397
338.566248427
338.514273387
338.459818867
338.405848503
338.35179228
338.301785889
338.259047471
338.211382661
338.119666024