/*--------------------------------*- C++ -*----------------------------------*\
| =========                 |                                                 |
| \\      /  F ield         | OpenFOAM: The Open Source CFD Toolbox           |
|  \\    /   O peration     | Version:  v1906                                 |
|   \\  /    A nd           | Web:      www.OpenFOAM.com                      |
|    \\/     M anipulation  |                                                 |
\*---------------------------------------------------------------------------*/
FoamFile
{
    version     2.0;
    format      ascii;
    class       volVectorField;
    location    "62";
    object      U;
}
// * * * * * * * * * * * * * * * * * * * * * * * * * * * * * * * * * * * * * //

dimensions      [0 1 -1 0 0 0 0];


internalField   nonuniform List<vector> 
9216
(
(0.00302810292368 -0.00304937773765 0)
(0.00319084798712 -0.00984093404319 1.30894454164e-27)
(0.0031881982854 -0.0167519146003 2.07133360351e-31)
(0.00315335187729 -0.023672912082 0)
(0.00310521114634 -0.0305027927596 0)
(0.00303947507842 -0.0372011221774 0)
(0.002967153369 -0.0437572981497 0)
(0.0028853383178 -0.0501465454525 0)
(0.00279952250916 -0.056353183759 0)
(0.00270408440367 -0.0623592066068 0)
(0.00260819845227 -0.0681556180503 0)
(0.0025007297873 -0.0737284741382 0)
(0.00238624001229 -0.0790682736685 0)
(0.00225595557653 -0.0841346378527 0)
(0.00213770162788 -0.0889469705866 0)
(0.00202202667235 -0.0935040364808 0)
(0.00191206895911 -0.0978124269193 0)
(0.00178759002235 -0.10186107297 0)
(0.00166109231654 -0.105640066373 0)
(0.00152907084412 -0.109144645771 0)
(0.00140355371363 -0.1123743513 0)
(0.00127394495011 -0.115332201651 0)
(0.00115788083232 -0.118021814442 0)
(0.00103297067686 -0.120448608671 0)
(0.000916177765463 -0.122611060326 0)
(0.000791656127517 -0.124487969979 0)
(0.000663676649079 -0.12613262486 0)
(0.000522993753715 -0.127466319249 0)
(0.000405104872014 -0.12852739133 0)
(0.000281701855175 -0.129332290082 0)
(0.000192775008006 -0.129837317208 0)
(5.84498498412e-05 -0.130212755997 0)
(-0.000109191918984 -0.130180438278 0)
(-0.000262386888545 -0.129797886416 0)
(-0.00037541976052 -0.129172264807 0)
(-0.000499438295177 -0.128276194819 0)
(-0.000617907928392 -0.127083518963 0)
(-0.000754419020731 -0.125630701096 0)
(-0.000883414544298 -0.123869232736 0)
(-0.00101649292009 -0.121835393789 0)
(-0.00111702493617 -0.11951586862 0)
(-0.00123557102946 -0.116995668129 0)
(-0.0013480196994 -0.114172612016 0)
(-0.00145983487794 -0.11112869705 0)
(-0.00155400438846 -0.107859198428 0)
(-0.00163996932226 -0.104393275846 0)
(-0.00170037892194 -0.10076083346 0)
(-0.00176664429051 -0.0969822978329 0)
(-0.00180620893626 -0.0930853967561 0)
(-0.00184451608497 -0.0891010085766 0)
(-0.00186205188415 -0.0850537824926 0)
(-0.00187210180291 -0.0809721976677 0)
(-0.00185860888729 -0.0768955129746 0)
(-0.00184255261368 -0.0728472037302 0)
(-0.00180535640762 -0.0688565176282 0)
(-0.00176583527908 -0.0649465511017 0)
(-0.00171387037981 -0.0611487077131 0)
(-0.00165773157218 -0.0574499216241 0)
(-0.0015787765236 -0.0539109297399 0)
(-0.00149935734845 -0.0505308269159 0)
(-0.00141628979733 -0.047325153819 0)
(-0.00133672684513 -0.044293481484 0)
(-0.00125128279356 -0.0414415664668 0)
(-0.00116703084933 -0.0387661884823 0)
(-0.00109173251982 -0.0362651384941 0)
(-0.0010278099085 -0.0339296650883 0)
(-0.000954705940493 -0.031739729424 0)
(-0.000883386373762 -0.0297055732179 0)
(-0.000809052372882 -0.027845246758 0)
(-0.000744889692768 -0.0261300685434 0)
(-0.000689366453701 -0.0245513501821 0)
(-0.000641873882962 -0.0230835027777 0)
(-0.000595133475131 -0.0217214060263 0)
(-0.000557997543681 -0.0204502475759 0)
(-0.000527876018058 -0.0192535434358 0)
(-0.000501633301913 -0.0181164031926 0)
(-0.000476644772107 -0.0170357925878 0)
(-0.000453010140898 -0.0160083063603 0)
(-0.000430564094159 -0.0150312287531 0)
(-0.000414853985067 -0.0140969214487 0)
(-0.000397187365941 -0.0131951284541 0)
(-0.000383071808496 -0.0123259150528 0)
(-0.000371456667438 -0.0114816279488 0)
(-0.000357770702759 -0.0106624427623 0)
(-0.000343619872543 -0.00986803235409 0)
(-0.0003298517006 -0.00912890438164 0)
(-0.000285016977861 -0.00840558154017 0)
(-0.000186215591282 -0.00768082816566 0)
(-0.00017284904889 -0.00735581158598 0)
(-0.000250865149872 -0.00688514996194 0)
(-0.000338349569667 -0.0064145649341 0)
(-0.000392437176076 -0.00562229488798 0)
(-0.000463629706003 -0.00470578112507 0)
(-0.0005869931483 -0.00366123755955 0)
(-0.000651984595477 -0.00216623014931 0)
(-0.000649700614522 -0.000655960671535 0)
(0.009805079766 -0.00324280682115 0)
(0.010852298583 -0.0109824574486 0)
(0.0108433444214 -0.018717492741 -1.37435029462e-27)
(0.0107218497588 -0.0264743444826 0)
(0.0105529497244 -0.0341116180106 0)
(0.0103390006541 -0.0416093480901 0)
(0.0100961247142 -0.048949929567 0)
(0.00981799061782 -0.0561014075481 0)
(0.00951774316476 -0.0630378561349 0)
(0.0091885348183 -0.0697460524899 0)
(0.00884716763825 -0.0762055099856 0)
(0.00848086012967 -0.0824047319366 0)
(0.00809714458261 -0.0883399675355 0)
(0.00769357988293 -0.0939894804492 0)
(0.00729607663706 -0.0994203447752 0)
(0.00688006248276 -0.104497943791 0)
(0.00646695284772 -0.1093070939 0)
(0.0060429886054 -0.113744864807 0)
(0.00563886415185 -0.11796025887 0)
(0.00521852491608 -0.121866593588 0)
(0.00480731717343 -0.125496924443 0)
(0.00438042765987 -0.128840685019 0)
(0.00396357685076 -0.131874115204 0)
(0.00353377040393 -0.134585888297 0)
(0.00311978911856 -0.136999455279 0)
(0.00269052591112 -0.139104170123 0)
(0.00227201949063 -0.140891021115 0)
(0.00184537278338 -0.14246445312 0)
(0.00143297517964 -0.143703514607 0)
(0.00101790258177 -0.144641734233 0)
(0.000641912061075 -0.145309787294 0)
(0.000193379194129 -0.145563963452 0)
(-0.000307193596709 -0.145599085487 0)
(-0.000809084876292 -0.145274430927 0)
(-0.00123677683798 -0.144631327428 0)
(-0.0016704153834 -0.143644347602 0)
(-0.00210054779477 -0.142325744753 0)
(-0.00255119429762 -0.14068137117 0)
(-0.00297487853553 -0.138714910136 0)
(-0.00340687826638 -0.136484765257 0)
(-0.00380269550737 -0.133936466059 0)
(-0.00421804140672 -0.131050451707 0)
(-0.0046042660538 -0.127886764286 0)
(-0.00496746300832 -0.124466410898 0)
(-0.00527356641654 -0.120796022596 0)
(-0.0055601898853 -0.116976857965 0)
(-0.00581125552404 -0.112897507343 0)
(-0.00603691258043 -0.108655723824 0)
(-0.00617735679577 -0.104272116934 0)
(-0.00629771439419 -0.0997902629402 0)
(-0.00636898804071 -0.0952357084893 0)
(-0.00638689564821 -0.0906404190365 0)
(-0.00634418023693 -0.08604861287 0)
(-0.00628164437082 -0.0814905732732 0)
(-0.00616114148581 -0.0769965660895 0)
(-0.00601385543881 -0.0726026317898 0)
(-0.00582731229156 -0.0683356044792 0)
(-0.00561973788371 -0.0642207828373 0)
(-0.00537707822421 -0.0602898001908 0)
(-0.00512269851431 -0.0564951463446 0)
(-0.00484954730615 -0.0528969764084 0)
(-0.00457591597479 -0.0494915701416 0)
(-0.0042938232428 -0.046284959586 0)
(-0.00402312108974 -0.0432843706647 0)
(-0.00375064729959 -0.0404153264939 0)
(-0.00350040165833 -0.0378238641832 0)
(-0.00324374537382 -0.0353821038786 0)
(-0.00299449594051 -0.0331398981727 0)
(-0.00275255179262 -0.031080628468 0)
(-0.00252830696034 -0.0291613840484 0)
(-0.0023367876311 -0.0274111810645 0)
(-0.00217524309042 -0.025784063313 0)
(-0.00201608782366 -0.0242720538073 0)
(-0.00189359012047 -0.0228596020896 0)
(-0.00179904534289 -0.0215286046893 0)
(-0.00171038492414 -0.0202582433413 0)
(-0.00162582373429 -0.0190456951495 0)
(-0.00154984721751 -0.0178980020494 0)
(-0.00146503563431 -0.0167786439986 0)
(-0.00140916568087 -0.0157335417406 0)
(-0.00137151240566 -0.0147317189556 0)
(-0.00132522932711 -0.01370733522 0)
(-0.00128523967603 -0.0127580135821 0)
(-0.00123231290935 -0.011798374695 0)
(-0.00117445890897 -0.0108982955571 0)
(-0.00113002519065 -0.0100234916117 0)
(-0.00101045147852 -0.0091671752406 0)
(-0.000752883538825 -0.00836029725422 0)
(-0.000608777808282 -0.00750423061278 0)
(-0.000777702027267 -0.00712389063063 0)
(-0.00103904032494 -0.00662566087851 0)
(-0.00123431566436 -0.00589589184687 0)
(-0.00148630622807 -0.00492678822769 0)
(-0.0019899439056 -0.00393868759587 0)
(-0.00253940578146 -0.00260744473806 0)
(-0.00218970973395 -0.000692602398178 0)
(0.0167836998434 -0.00328957152325 0)
(0.0185994381898 -0.0111453744045 0)
(0.0185605164617 -0.0189745482956 -1.37200003667e-27)
(0.0183462953396 -0.0268402947741 0)
(0.0180512733952 -0.0345789932389 0)
(0.0176867365072 -0.0421740801769 0)
(0.0172638350246 -0.0495943014899 0)
(0.0167879054849 -0.0568309795679 0)
(0.0162628423344 -0.0638431782175 0)
(0.0156972318601 -0.0706217032419 0)
(0.0151011438626 -0.0771603246249 0)
(0.0144684769644 -0.0834182571187 0)
(0.0138134805379 -0.089402105244 0)
(0.013144905132 -0.0951007142591 0)
(0.0124622419969 -0.100510245425 0)
(0.0117556482855 -0.105656915057 0)
(0.0110375813026 -0.110495405653 0)
(0.0103282177268 -0.115078229925 0)
(0.00963239955402 -0.119323757467 0)
(0.0089252004665 -0.12326543833 0)
(0.00822038360428 -0.126898548212 0)
(0.00749453938579 -0.130223684957 0)
(0.00676563311258 -0.133247022591 0)
(0.00603544679178 -0.135969156134 0)
(0.00532269328789 -0.138403687522 0)
(0.00462736158518 -0.140530203437 0)
(0.00394752146656 -0.142465003851 0)
(0.00324300522651 -0.144078133684 0)
(0.00252738627659 -0.145341662047 0)
(0.00179881228193 -0.146363169431 0)
(0.00107253791952 -0.146970236908 0)
(0.000319427356521 -0.147313755717 0)
(-0.00046954910667 -0.147301568371 0)
(-0.00127035969997 -0.146974588733 0)
(-0.00204372192176 -0.146406685362 0)
(-0.00282606558765 -0.145414325816 0)
(-0.00360592118802 -0.144090631782 0)
(-0.00437281927441 -0.142419974113 0)
(-0.0050927078086 -0.140417313721 0)
(-0.00581823401457 -0.138097551452 0)
(-0.00653482192104 -0.13546698745 0)
(-0.00725596352199 -0.132533851321 0)
(-0.00791095231805 -0.129319720181 0)
(-0.00847285250429 -0.125830173265 0)
(-0.00899991720354 -0.122182052102 0)
(-0.00948374508126 -0.118237210626 0)
(-0.00990062239761 -0.114096604078 0)
(-0.0102697343105 -0.109871983516 0)
(-0.0105535872149 -0.105495286482 0)
(-0.0107596321783 -0.100936298388 0)
(-0.0108871280097 -0.0963636190207 0)
(-0.0109475959705 -0.0917636714951 0)
(-0.010922188235 -0.0870706907551 0)
(-0.0108136232421 -0.0824105799613 0)
(-0.0106072065023 -0.0778013869521 0)
(-0.0103379201846 -0.0733011911763 0)
(-0.0100094752996 -0.0689330562049 0)
(-0.00963527738505 -0.0647124080473 0)
(-0.00922538612954 -0.0606605952871 0)
(-0.00878909484549 -0.0567984889902 0)
(-0.00832406627237 -0.0531399154404 0)
(-0.00784596168607 -0.0496886435687 0)
(-0.0073618248685 -0.046453128858 0)
(-0.00689242903138 -0.0434266688673 0)
(-0.00641952420207 -0.0406122384256 0)
(-0.00595819567132 -0.0380271761335 0)
(-0.00550964898414 -0.0356375310358 0)
(-0.0050840106412 -0.0334295473336 0)
(-0.00468810069098 -0.0313978285887 0)
(-0.00433130200362 -0.029527834875 0)
(-0.00400336663226 -0.0277230994027 0)
(-0.00371718549809 -0.0260968091638 0)
(-0.00346902779056 -0.0245861037326 0)
(-0.00325029407947 -0.0230953627717 0)
(-0.00306707784179 -0.0217680522917 0)
(-0.00290989806949 -0.0205109334815 0)
(-0.00277152011812 -0.0193134817084 0)
(-0.00265515439163 -0.0181666815809 0)
(-0.00255249561992 -0.0170869418437 0)
(-0.00243428255857 -0.0159048046518 0)
(-0.00234761851999 -0.0149080290453 0)
(-0.00225326189079 -0.0138855767077 0)
(-0.00217550317423 -0.0129439079356 0)
(-0.00208846809854 -0.012031093472 0)
(-0.00201587471986 -0.0111441932338 0)
(-0.00194843442641 -0.0102154882607 0)
(-0.00177800676375 -0.00936620021877 0)
(-0.00156137871224 -0.00855071463209 0)
(-0.0013198621804 -0.00745175490118 0)
(-0.00127112725896 -0.00654209864987 0)
(-0.00163106158403 -0.00631405482694 0)
(-0.00217166609597 -0.00577225795193 0)
(-0.00251212091076 -0.00446955720135 0)
(-0.00308877490254 -0.00330680013047 0)
(-0.00379162469315 -0.00215865964241 0)
(-0.00360336595413 -0.000649246373136 0)
(0.0239103231943 -0.00333193439376 0)
(0.0265294067608 -0.0112906421954 0)
(0.0264710150512 -0.0192129841968 1.37158841921e-27)
(0.0261559858519 -0.0271680570467 0)
(0.0257285303583 -0.0349947149783 0)
(0.0252043987137 -0.0426699909616 0)
(0.0245988939921 -0.0501752985815 0)
(0.0239088370962 -0.0574649783393 0)
(0.0231589784507 -0.0645457002844 0)
(0.0223459331836 -0.0713731187385 0)
(0.0214815040373 -0.0779410149789 0)
(0.0205713090113 -0.0842342958031 0)
(0.0196352358346 -0.0902457245128 0)
(0.0186870072441 -0.0959876593408 0)
(0.0177227475155 -0.101450953221 0)
(0.0167249520818 -0.10659358942 0)
(0.0157174747441 -0.111443028426 0)
(0.0147038863275 -0.115991362438 0)
(0.0136910414589 -0.120236852572 0)
(0.0126739189772 -0.124179515897 0)
(0.0116620358596 -0.127823144906 0)
(0.01064741473 -0.131159366333 0)
(0.00962031844378 -0.134242509094 0)
(0.00860047362136 -0.136970997071 0)
(0.00761792868062 -0.139474262602 0)
(0.00666514712552 -0.141690522384 0)
(0.00569215906386 -0.143591528369 0)
(0.00466873424293 -0.14520390635 0)
(0.00364490022463 -0.146479903146 0)
(0.00260164747072 -0.147441125167 0)
(0.00154017705824 -0.148150331917 0)
(0.000452469084138 -0.148449995357 0)
(-0.000666449372282 -0.148444202352 0)
(-0.001768094294 -0.148111163145 0)
(-0.00286513587985 -0.14744900531 0)
(-0.00399158520157 -0.146462539591 0)
(-0.00509952804777 -0.145126034048 0)
(-0.00621306073823 -0.143537297656 0)
(-0.00728124425955 -0.141522299379 0)
(-0.00833175512668 -0.139193304236 0)
(-0.00933365117303 -0.136568053971 0)
(-0.0102771483741 -0.133608253057 0)
(-0.0111981815082 -0.130570051528 0)
(-0.0120344295776 -0.127136546567 0)
(-0.012815409706 -0.123354416712 0)
(-0.0135467797801 -0.119453166863 0)
(-0.0141697627402 -0.115197126033 0)
(-0.0146765768382 -0.110762579465 0)
(-0.0150851660829 -0.106168752716 0)
(-0.0153852715315 -0.101470401015 0)
(-0.0155495223975 -0.0966935833681 0)
(-0.0156252657833 -0.0918941975574 0)
(-0.015588857472 -0.0870934131323 0)
(-0.0154628395193 -0.0824218984639 0)
(-0.0151873573537 -0.077714948426 0)
(-0.0147876677598 -0.0731320804435 0)
(-0.0143165147585 -0.0686922869546 0)
(-0.0137818042713 -0.0644081371335 0)
(-0.0131913745809 -0.0602992519526 0)
(-0.0125466411654 -0.0563924409446 0)
(-0.011873752874 -0.0527013497952 0)
(-0.0111760048458 -0.0492285053796 0)
(-0.0104746187927 -0.0459851723255 0)
(-0.00979403075607 -0.0429528826817 0)
(-0.00907961280751 -0.0401306208261 0)
(-0.00837395875689 -0.0375928728606 0)
(-0.00771562246648 -0.0352635012856 0)
(-0.00711879720707 -0.033110613947 0)
(-0.00656164310319 -0.0311370610097 0)
(-0.00608365139728 -0.0293175390022 0)
(-0.00566506414482 -0.0276080002848 0)
(-0.00527416468985 -0.0260055599231 0)
(-0.00491732026176 -0.0244674305013 0)
(-0.00460952709897 -0.0230886094748 0)
(-0.0043352827261 -0.0217762892373 0)
(-0.00410851152719 -0.020526103639 0)
(-0.00391120859829 -0.0193402427685 0)
(-0.00373902542385 -0.0182220867265 0)
(-0.00360830292868 -0.0171708480415 0)
(-0.003469994039 -0.0161750723067 0)
(-0.00332954335605 -0.0152226139647 0)
(-0.00323242438347 -0.0143033694575 0)
(-0.00311581727067 -0.0133063194131 0)
(-0.00301457458537 -0.0124411484633 0)
(-0.00288095098553 -0.0113899214203 0)
(-0.00278983354804 -0.0105044925712 0)
(-0.00268085289681 -0.00970361120613 0)
(-0.00242712930419 -0.0084238589275 0)
(-0.0022593793054 -0.00752737983453 0)
(-0.00202331875741 -0.00642716296726 0)
(-0.00224158706579 -0.00573199133666 0)
(-0.00292036363285 -0.00496844647287 0)
(-0.00378667945674 -0.00421867206537 0)
(-0.00421490789629 -0.00283187334464 0)
(-0.00495891454744 -0.00179733479122 0)
(-0.00494806016263 -0.000599646167901 0)
(0.0311431313127 -0.00338820484384 0)
(0.0345583098958 -0.0114776161241 0)
(0.0344770507836 -0.01952531036 0)
(0.0340596250356 -0.0276031861507 0)
(0.0334945403587 -0.0355450369091 0)
(0.0328036181877 -0.0433285953085 0)
(0.0319973728114 -0.0509196356359 0)
(0.0310999534226 -0.0583161647391 0)
(0.0301022908749 -0.0654558181267 0)
(0.029029207869 -0.0723463275376 0)
(0.0278928927666 -0.0789664604165 0)
(0.0267058176433 -0.0853003355917 0)
(0.0254958974206 -0.0913629275557 0)
(0.0242635321549 -0.0971441173952 0)
(0.0229853952753 -0.102598708944 0)
(0.0216823358744 -0.107755435768 0)
(0.0203712979359 -0.112609539842 0)
(0.0190550030992 -0.117157838205 0)
(0.017744705119 -0.121410008551 0)
(0.016439170529 -0.125356800233 0)
(0.0151344216049 -0.129049475512 0)
(0.0138218555534 -0.132397742784 0)
(0.0124963538119 -0.135435514679 0)
(0.0112079539784 -0.138227434701 0)
(0.00997477353334 -0.140731889896 0)
(0.00871752006318 -0.143010382921 0)
(0.00742037648816 -0.144871321656 0)
(0.00609763725664 -0.146534882311 0)
(0.00474630155433 -0.14781230137 0)
(0.00338989547345 -0.148787038086 0)
(0.00199489585934 -0.149424287096 0)
(0.000582522912425 -0.149750363907 0)
(-0.000828932482154 -0.149751738036 0)
(-0.00226234649239 -0.149530391681 0)
(-0.00371248898673 -0.1488739373 0)
(-0.00517830846709 -0.147886343415 0)
(-0.00660314912853 -0.146551585113 0)
(-0.00803197330944 -0.144850370925 0)
(-0.0094270494827 -0.142951142796 0)
(-0.0107556673897 -0.140585637602 0)
(-0.0120720012583 -0.138174435731 0)
(-0.0132856073635 -0.135148359199 0)
(-0.0144981580079 -0.131977420444 0)
(-0.0156816100773 -0.128348393701 0)
(-0.016736141609 -0.124462845909 0)
(-0.0176711964345 -0.120324486058 0)
(-0.0185105916234 -0.115950158436 0)
(-0.0192257084684 -0.111511901941 0)
(-0.0197975717496 -0.106784562179 0)
(-0.020194365443 -0.101953107725 0)
(-0.0204111186609 -0.0970244145298 0)
(-0.0204872166953 -0.0920691453765 0)
(-0.0203904603316 -0.0871302144706 0)
(-0.0201773030571 -0.0822247421314 0)
(-0.0198436424523 -0.0774957229823 0)
(-0.0193208091903 -0.072789925786 0)
(-0.0186999934255 -0.0682661423631 0)
(-0.0179965072257 -0.0639044671384 0)
(-0.0172067585725 -0.0597270775655 0)
(-0.016332284898 -0.0557644800417 0)
(-0.015433738136 -0.0520422231079 0)
(-0.0145146954561 -0.0485497951302 0)
(-0.0135967691243 -0.0453207442277 0)
(-0.0126259949562 -0.0423077045677 0)
(-0.0115733410428 -0.0395833204941 0)
(-0.0106249959353 -0.0372455812219 0)
(-0.0098071953 -0.0350095782848 0)
(-0.00906548835596 -0.0329520462096 0)
(-0.00834981679902 -0.0310370562566 0)
(-0.00775269331129 -0.02924843373 0)
(-0.00724577752434 -0.0275551014967 0)
(-0.00674881891694 -0.0259489202276 0)
(-0.00628201858408 -0.0244634237276 0)
(-0.00589506575864 -0.0230784530561 0)
(-0.00557422884731 -0.0217605753572 0)
(-0.0052805843085 -0.0204523774047 0)
(-0.00500408953253 -0.0192322943087 0)
(-0.00477068969004 -0.0180953558744 0)
(-0.00458097341687 -0.0170144165607 0)
(-0.00438813597295 -0.0159853449143 0)
(-0.00420909695514 -0.0149922887054 0)
(-0.00406536978906 -0.014008334901 0)
(-0.00393893868429 -0.0131574000581 0)
(-0.00382398399351 -0.0123154922483 0)
(-0.0037212317395 -0.0114971934691 0)
(-0.0036120229098 -0.0106515367069 0)
(-0.00362185904407 -0.00984987424773 0)
(-0.00352381352408 -0.00886554913911 0)
(-0.00329539984869 -0.00770813866718 0)
(-0.00322197464909 -0.0068037194448 0)
(-0.00312132391889 -0.00525409099367 0)
(-0.00364474691372 -0.00431388610694 0)
(-0.00449306959729 -0.00355639600838 0)
(-0.00548567104648 -0.00268202235618 0)
(-0.00574517101022 -0.00147293625577 0)
(-0.00592669402289 -0.000511813697572 0)
(0.0385053312594 -0.00345892673588 0)
(0.0427360291079 -0.0117174852352 0)
(0.0426277535262 -0.0199278908802 0)
(0.0420992142507 -0.0281638910772 0)
(0.0413853649301 -0.0362529069124 0)
(0.0405155656714 -0.0441714379693 0)
(0.0395123391585 -0.0518987024674 0)
(0.038367089288 -0.0593782972014 0)
(0.0371217185749 -0.0666214902305 0)
(0.0357771410727 -0.0735861615673 0)
(0.034356153895 -0.0802685739436 0)
(0.032888747158 -0.0866521405631 0)
(0.0313998882294 -0.0927850281157 0)
(0.0298457533992 -0.098564387847 0)
(0.0282578583343 -0.104043636252 0)
(0.0266508102422 -0.109214463366 0)
(0.0250340485041 -0.114077635368 0)
(0.0234215971356 -0.118630495212 0)
(0.0218230786596 -0.122925254271 0)
(0.0202166580451 -0.126874458609 0)
(0.0186028442353 -0.130526616892 0)
(0.0169797758276 -0.133876213494 0)
(0.0153872846895 -0.136901554917 0)
(0.0138553775145 -0.139757410826 0)
(0.0123419428706 -0.14231404432 0)
(0.0107715643412 -0.144490192806 0)
(0.00916649998064 -0.146466280498 0)
(0.00752357576071 -0.148049440511 0)
(0.00585265992271 -0.149348576268 0)
(0.00416773528043 -0.150342731884 0)
(0.00247222913539 -0.151002427276 0)
(0.000764814932883 -0.151445626605 0)
(-0.000968185320392 -0.15146518601 0)
(-0.00273571080873 -0.151169347937 0)
(-0.00454513148737 -0.150535011113 0)
(-0.00634413088581 -0.149540895602 0)
(-0.00810361260374 -0.148320165407 0)
(-0.00981262227901 -0.146600606849 0)
(-0.0115094866274 -0.144829413524 0)
(-0.0131543182828 -0.142423511641 0)
(-0.0148180837768 -0.139862607409 0)
(-0.0164417019195 -0.136779160055 0)
(-0.0179807535387 -0.133399233541 0)
(-0.0194366888615 -0.12966617444 0)
(-0.0207956165089 -0.125797752066 0)
(-0.0220029110333 -0.121510292502 0)
(-0.0230249442838 -0.116997195395 0)
(-0.0238751639893 -0.112276140239 0)
(-0.0245839370544 -0.107383385367 0)
(-0.025124856564 -0.102496620915 0)
(-0.0254342689819 -0.0973862025852 0)
(-0.0255180285018 -0.0922562103245 0)
(-0.0253708252181 -0.0871353124338 0)
(-0.0250583252927 -0.0820524252632 0)
(-0.0246053791604 -0.0771762844135 0)
(-0.023961948642 -0.0723330199626 0)
(-0.0231562144626 -0.067703346172 0)
(-0.0222369116601 -0.0632359835034 0)
(-0.0212590235749 -0.0590721288394 0)
(-0.0201370456941 -0.055046682501 0)
(-0.0190651571516 -0.0514166534698 0)
(-0.0177922189542 -0.0479713968157 0)
(-0.0163732976428 -0.0447064115374 0)
(-0.0151779259822 -0.042249783624 0)
(-0.0138910388064 -0.0397270140115 0)
(-0.0127591691343 -0.0374717914531 0)
(-0.0117796081852 -0.0352727677559 0)
(-0.0109073061619 -0.0333713930439 0)
(-0.0100667153942 -0.0315310016367 0)
(-0.00938331670917 -0.0298078544609 0)
(-0.00882112462936 -0.0281939418717 0)
(-0.00826483392752 -0.0266819750187 0)
(-0.00771233844261 -0.0251253144826 0)
(-0.00720630323171 -0.023610509593 0)
(-0.00684162952005 -0.0222853555354 0)
(-0.00654805483888 -0.0209858612501 0)
(-0.00622783820914 -0.0196916480406 0)
(-0.00587625812956 -0.0183600395563 0)
(-0.00561731579459 -0.0171853640751 0)
(-0.00539252976098 -0.0161050091617 0)
(-0.00514415858487 -0.0149871632301 0)
(-0.00496230056755 -0.0140218776126 0)
(-0.00476734075882 -0.0130635765856 0)
(-0.00457442743693 -0.0120890327517 0)
(-0.00442746677542 -0.0111890564358 0)
(-0.00436931914876 -0.01036654688 0)
(-0.00433107743402 -0.00943268321887 0)
(-0.00431375035743 -0.00862134017919 0)
(-0.00435759130438 -0.00781371612321 0)
(-0.00461262390814 -0.00698372168501 0)
(-0.00463867532488 -0.00554309864566 0)
(-0.00461284815053 -0.00403985678964 0)
(-0.00517428563262 -0.00306501794189 0)
(-0.00647301890947 -0.00252151178152 0)
(-0.00672890176131 -0.00142083422192 0)
(-0.00678321418368 -0.000442099117712 0)
(0.0460467563602 -0.003548567899 0)
(0.0511008160145 -0.0120169632171 0)
(0.050959453011 -0.0204292813883 1.36071649419e-27)
(0.0503101858174 -0.0288614420399 0)
(0.0494369916012 -0.0371323083096 0)
(0.0483810352519 -0.0452269248279 0)
(0.0471419376929 -0.053094332829 0)
(0.0457477318836 -0.0607046956032 0)
(0.0442356092735 -0.068059553774 0)
(0.0426006936978 -0.0751143944478 0)
(0.0408872047272 -0.0818656227516 0)
(0.0391433727149 -0.0883540305044 0)
(0.0373200429101 -0.0944808809874 0)
(0.0354480734743 -0.100294843017 0)
(0.0335495119552 -0.105795799233 0)
(0.0316301281961 -0.110981581931 0)
(0.029711619223 -0.115849164819 0)
(0.0278127377583 -0.120448045298 0)
(0.0258946227549 -0.124697868804 0)
(0.0239727832888 -0.128647577162 0)
(0.0220570890438 -0.132297155691 0)
(0.0201483488691 -0.135632369387 0)
(0.0183326622981 -0.138720308936 0)
(0.0165559602145 -0.141627467488 0)
(0.0146970640223 -0.144165162339 0)
(0.0128117070745 -0.146361759102 0)
(0.0108910926767 -0.148271746138 0)
(0.0089301039633 -0.149869409567 0)
(0.00697233015911 -0.15118914233 0)
(0.00500999770616 -0.152197010231 0)
(0.00301812958057 -0.152989625392 0)
(0.000968973848375 -0.153357866526 0)
(-0.00112887503631 -0.153410074355 0)
(-0.00322475572867 -0.153138373655 0)
(-0.00533109239196 -0.152518432966 0)
(-0.00743251940078 -0.151648254079 0)
(-0.00951268103185 -0.150420174814 0)
(-0.0115451076498 -0.148834852594 0)
(-0.0136104809071 -0.146928226501 0)
(-0.0156956051411 -0.144505771463 0)
(-0.0177137176527 -0.14174434041 0)
(-0.0196649557555 -0.138586454713 0)
(-0.0215640224009 -0.135247444871 0)
(-0.023335935422 -0.131394651472 0)
(-0.0249527483787 -0.127261447113 0)
(-0.0264039420855 -0.122809037031 0)
(-0.0277092436107 -0.118260172204 0)
(-0.0287823377456 -0.113329248279 0)
(-0.0296212103898 -0.10823142819 0)
(-0.030223846267 -0.103000114719 0)
(-0.0305855612562 -0.0976556444478 0)
(-0.0307085014818 -0.0924225772186 0)
(-0.0305278896059 -0.0870762214385 0)
(-0.0300855956145 -0.0817955776527 0)
(-0.0295024669438 -0.0767460005703 0)
(-0.0286773127443 -0.0717348221862 0)
(-0.0277067105499 -0.0670726004384 0)
(-0.0265754900463 -0.0624785057514 0)
(-0.0254112604984 -0.0582402946309 0)
(-0.0238873113947 -0.0542118334203 0)
(-0.0221380398113 -0.0504097272929 0)
(-0.020688752564 -0.0477747668084 0)
(-0.0189972846232 -0.0448680947579 0)
(-0.0175011933801 -0.0424182932226 0)
(-0.016116476344 -0.0400223294679 0)
(-0.014722603736 -0.0376632656023 0)
(-0.0136370064097 -0.0357181085582 0)
(-0.0126686169457 -0.0339248402495 0)
(-0.0116918503468 -0.0320823434201 0)
(-0.0109206039282 -0.0304361954511 0)
(-0.0102587702847 -0.0288768519446 0)
(-0.0096490742824 -0.027428683338 0)
(-0.00913148825374 -0.0259794299546 0)
(-0.00865338885823 -0.024623191885 0)
(-0.00814529760296 -0.0230609143787 0)
(-0.0077894513733 -0.0217424257116 0)
(-0.00746092633401 -0.0204236879633 0)
(-0.00715839218777 -0.0191877619764 0)
(-0.00681368731975 -0.0178278077771 0)
(-0.00651466978542 -0.0166607661424 0)
(-0.0062104009702 -0.0154468703291 0)
(-0.0059492270303 -0.0143298539178 0)
(-0.00576478042681 -0.0133152322692 0)
(-0.0055509877234 -0.0122290566946 0)
(-0.00535004210107 -0.0111978583627 0)
(-0.00518594906277 -0.0101189226581 0)
(-0.00509218489468 -0.00916174312438 0)
(-0.00502088602354 -0.00817501378697 0)
(-0.00521461670244 -0.00737147280599 0)
(-0.00549172560998 -0.00637697755067 0)
(-0.00597819931894 -0.00551442826021 0)
(-0.00603401711423 -0.00418893034874 0)
(-0.00587839222929 -0.00271232088793 0)
(-0.00701034421619 -0.00216696327842 0)
(-0.00773852885686 -0.00143032344284 0)
(-0.00766039859742 -0.000420949419478 0)
(0.0537977002015 -0.00365659159562 0)
(0.0596948207464 -0.0123795541142 0)
(0.0595128252207 -0.021037982901 -1.35992414232e-27)
(0.0587292083005 -0.0297060627696 0)
(0.0576806897373 -0.0381990966092 0)
(0.0564117051707 -0.0464942680574 0)
(0.054924128423 -0.0545365408911 0)
(0.0532580640409 -0.0623012281178 0)
(0.0514581881431 -0.0697866918445 0)
(0.0495188251693 -0.0769422819192 0)
(0.0475090779653 -0.0838016741088 0)
(0.0454232293876 -0.0903222109237 0)
(0.0432644226701 -0.0964915404571 0)
(0.0410697460574 -0.102340180046 0)
(0.0388556426053 -0.107866798899 0)
(0.0366272456253 -0.113062966686 0)
(0.0344125220462 -0.117975843355 0)
(0.0321820127228 -0.122528816143 0)
(0.0299492211483 -0.126775335152 0)
(0.027724185743 -0.130717844552 0)
(0.0255061317115 -0.134358567354 0)
(0.0233624669112 -0.137663180273 0)
(0.0213293319326 -0.14093790712 0)
(0.0192161592528 -0.143660372928 0)
(0.017046397557 -0.146232125741 0)
(0.0148360773393 -0.148434797129 0)
(0.0126125728437 -0.15036700376 0)
(0.0103849031124 -0.151990584543 0)
(0.00815408939103 -0.153430248262 0)
(0.00588438881459 -0.15446857964 0)
(0.00355819876536 -0.155205216557 0)
(0.00116776224304 -0.155614424371 0)
(-0.00123039014926 -0.155691233291 0)
(-0.00364716263278 -0.155556461759 0)
(-0.00606574845459 -0.154949710759 0)
(-0.00847021472589 -0.154104145272 0)
(-0.0108826165627 -0.152873330846 0)
(-0.0133156386531 -0.15131135324 0)
(-0.0158110179024 -0.149254682427 0)
(-0.0182801538315 -0.146805088758 0)
(-0.0206858258059 -0.144114190368 0)
(-0.0229953436246 -0.140873532394 0)
(-0.0252366694568 -0.137294581241 0)
(-0.0273504978875 -0.133311321067 0)
(-0.0293084307032 -0.129141546115 0)
(-0.0310381770935 -0.124491012584 0)
(-0.0325767692383 -0.119587838892 0)
(-0.0338733793598 -0.114438141931 0)
(-0.0348488344926 -0.109062831834 0)
(-0.0356102128669 -0.103707766417 0)
(-0.0359838082055 -0.098073489385 0)
(-0.0361065490439 -0.0925878196874 0)
(-0.0358809313402 -0.0869649969487 0)
(-0.035383604937 -0.0815765844905 0)
(-0.0345859508792 -0.0761542177244 0)
(-0.033604932613 -0.0710781744394 0)
(-0.0323721431519 -0.0661323023109 0)
(-0.0310307183225 -0.0614475532193 0)
(-0.0292257658775 -0.0570497455537 0)
(-0.0272226729555 -0.0533253948194 0)
(-0.0252237369839 -0.0501907783069 0)
(-0.0231974839446 -0.0471357909867 0)
(-0.0213225698607 -0.0443571949367 0)
(-0.0196239754861 -0.0418522758192 0)
(-0.0180903414759 -0.0396175712617 0)
(-0.0166754500812 -0.0377369801856 0)
(-0.0153147859637 -0.0356568005206 0)
(-0.0142344429915 -0.0340776188125 0)
(-0.0131711297532 -0.03235382041 0)
(-0.0122773117124 -0.0307745348061 0)
(-0.0116221010702 -0.0295243713039 0)
(-0.0109098749412 -0.027973480853 0)
(-0.0103653507834 -0.0266219730772 0)
(-0.00991266462021 -0.0252945244981 0)
(-0.00947647993301 -0.0239575717826 0)
(-0.00907576903864 -0.0225981247057 0)
(-0.00874745348547 -0.0212805694488 0)
(-0.00834082087497 -0.0197543807789 0)
(-0.007999040117 -0.0184685723606 0)
(-0.00769711436504 -0.0172062606555 0)
(-0.00732364339062 -0.0158373166417 0)
(-0.00703832943626 -0.0146475012547 0)
(-0.00675945641784 -0.0134355722207 0)
(-0.00654997579576 -0.012339474288 0)
(-0.00635763948137 -0.0113115105941 0)
(-0.00619997576296 -0.0102412300919 0)
(-0.00621539002358 -0.00933730106116 0)
(-0.00604424717528 -0.00804221064597 0)
(-0.00602601608282 -0.00686893090936 0)
(-0.00631038453336 -0.00589750417778 0)
(-0.00674715201398 -0.00500623337839 0)
(-0.00734153179126 -0.00421967005322 0)
(-0.00728232606331 -0.00284881976136 0)
(-0.00723939178807 -0.00177011951787 0)