/*--------------------------------*- C++ -*----------------------------------*\
| =========                 |                                                 |
| \\      /  F ield         | OpenFOAM: The Open Source CFD Toolbox           |
|  \\    /   O peration     | Version:  v1906                                 |
|   \\  /    A nd           | Web:      www.OpenFOAM.com                      |
|    \\/     M anipulation  |                                                 |
\*---------------------------------------------------------------------------*/
FoamFile
{
    version     2.0;
    format      ascii;
    class       volVectorField;
    location    "253";
    object      U;
}
// * * * * * * * * * * * * * * * * * * * * * * * * * * * * * * * * * * * * * //

dimensions      [0 1 -1 0 0 0 0];


internalField   nonuniform List<vector> 
9216
(
(0.00271711613635 -0.00271969367798 0)
(0.00286486845783 -0.00877672077108 1.17410303274e-27)
(0.00285681485068 -0.014928314167 1.84594888881e-31)
(0.00281968359179 -0.0210806821198 0)
(0.00276806698111 -0.0271305825961 0)
(0.00270353435234 -0.033053796148 0)
(0.00262764970135 -0.0388246269662 0)
(0.00254189720202 -0.0444201390602 0)
(0.00244742277976 -0.0498202865729 0)
(0.00234566863725 -0.0550077087032 0)
(0.00223771401329 -0.0599678835223 0)
(0.00212496238299 -0.0646888774937 0)
(0.00200835573392 -0.0691614051113 0)
(0.00188917689752 -0.0733784933237 0)
(0.00176816530011 -0.0773354590445 0)
(0.00164643588914 -0.08102953047 0)
(0.00152450134213 -0.0844597902955 0)
(0.00140330100351 -0.0876267997078 0)
(0.0012831318623 -0.0905325439211 0)
(0.00116477809812 -0.0931800876127 0)
(0.00104835145015 -0.0955735456061 0)
(0.000934513609381 -0.0977177846109 0)
(0.000823228695753 -0.099618424846 0)
(0.000715070737459 -0.101281587854 0)
(0.000609890561788 -0.102713927588 0)
(0.000508203241929 -0.103922419397 0)
(0.000409774129291 -0.104914411207 0)
(0.000315080813454 -0.105697443442 0)
(0.000223822424562 -0.106279312946 0)
(0.000136453355343 -0.106667918434 0)
(5.26239806892e-05 -0.106871321671 0)
(-2.7230659863e-05 -0.106897639003 0)
(-0.00010353206369 -0.106755071298 0)
(-0.000175866801615 -0.106451697387 0)
(-0.000244670244552 -0.105995684072 0)
(-0.000309533138231 -0.105395101837 0)
(-0.000370936313442 -0.104657985409 0)
(-0.000428486692139 -0.103792236069 0)
(-0.000482698025195 -0.102805657844 0)
(-0.000533189849282 -0.101705880152 0)
(-0.000580502613247 -0.100500382885 0)
(-0.000624267502114 -0.0991964413055 0)
(-0.000665044276487 -0.0978011367865 0)
(-0.000702473837887 -0.0963213243037 0)
(-0.000737128087949 -0.0947636300129 0)
(-0.000768656333242 -0.0931344441594 0)
(-0.000797634367796 -0.0914399031937 0)
(-0.000823717889685 -0.0896859068661 0)
(-0.000847479306078 -0.0878780865561 0)
(-0.000868579739362 -0.0860218472919 0)
(-0.000887580792103 -0.0841223205915 0)
(-0.000904147879285 -0.0821844282181 0)
(-0.000918826158221 -0.0802128216605 0)
(-0.000931285623423 -0.0782119664053 0)
(-0.000942050003271 -0.0761860669324 0)
(-0.000950794395278 -0.0741391669134 0)
(-0.000958018369169 -0.0720750621427 0)
(-0.000963404182946 -0.0699974142761 0)
(-0.000967425512865 -0.06790965108 0)
(-0.000969774117195 -0.065815088798 0)
(-0.000970898160346 -0.0637168223571 0)
(-0.000970502421941 -0.061617854027 0)
(-0.00096901058638 -0.0595209735173 0)
(-0.000966143804262 -0.0574288889622 0)
(-0.000962303620123 -0.0553440998034 0)
(-0.000957231293521 -0.0532690289191 0)
(-0.000951308355812 -0.051205888784 0)
(-0.000944299022162 -0.0491568125173 0)
(-0.000936567172174 -0.0471237163247 0)
(-0.000927902400228 -0.0451084298013 0)
(-0.000918652259859 -0.0431125553906 0)
(-0.000908632778868 -0.0411375973877 0)
(-0.000898175993747 -0.0391848210563 0)
(-0.000887124634441 -0.0372553817698 0)
(-0.000875794673914 -0.0353501841954 0)
(-0.000864054511507 -0.0334700120889 0)
(-0.000852202799428 -0.0316153892804 0)
(-0.000840131931569 -0.0297867120085 0)
(-0.000828120772988 -0.0279841114433 0)
(-0.000816083094859 -0.0262075895382 0)
(-0.000804274790373 -0.0244568840603 0)
(-0.000792627649094 -0.0227316099293 0)
(-0.000781369766484 -0.0210311270828 0)
(-0.000770445258438 -0.0193546896002 0)
(-0.000760045436181 -0.0177013209512 0)
(-0.000750112367706 -0.0160699791582 0)
(-0.000740772444971 -0.0144594563487 0)
(-0.000731907155319 -0.0128685959568 0)
(-0.000723444374843 -0.0112963076864 0)
(-0.000714881173267 -0.00974203983174 0)
(-0.000705142264623 -0.00820648266285 0)
(-0.000691258831874 -0.00669402846918 0)
(-0.000662032842764 -0.00522802295567 0)
(-0.000597597075301 -0.00370441911636 0)
(-0.000703996999162 -0.00245983960965 0)
(-0.00118405370283 -0.001182556441 0)
(0.00879629663133 -0.0028951272448 0)
(0.00972648562005 -0.00979701567944 0)
(0.00970448079406 -0.0166863541114 -1.23294136199e-27)
(0.00957549504541 -0.0235815392474 0)
(0.00939687666043 -0.0303525444693 0)
(0.00917615281166 -0.0369777175837 0)
(0.00891754170219 -0.0434297569225 0)
(0.00862546480225 -0.0496835017982 0)
(0.0083039986972 -0.0557166673427 0)
(0.00795771580311 -0.061509992085 0)
(0.00759062832 -0.0670473463231 0)
(0.00720715044465 -0.0723155945089 0)
(0.00681088329861 -0.0773045331683 0)
(0.00640577248387 -0.0820066270117 0)
(0.00599477203478 -0.0864168533185 0)
(0.00558119814385 -0.0905323843179 0)
(0.00516727572441 -0.0943524009027 0)
(0.0047556718806 -0.0978777753884 0)
(0.0043479205806 -0.101110898544 0)
(0.00394611453078 -0.104055396516 0)
(0.00355120193147 -0.106715994898 0)
(0.00316481813257 -0.109098284057 0)
(0.00278745239168 -0.111208626648 0)
(0.00242040386223 -0.113053971351 0)
(0.00206381912054 -0.114641799348 0)
(0.00171876223334 -0.11597997836 0)
(0.00138512837793 -0.117076737916 0)
(0.00106382002613 -0.117940552803 0)
(0.000754543515358 -0.118580136183 0)
(0.000458086699827 -0.119004341328 0)
(0.000174009548646 -0.119222166007 0)
(-9.69922533606e-05 -0.119242642433 0)
(-0.000355510415929 -0.119074873095 0)
(-0.000600933179018 -0.118728032236 0)
(-0.000833942035912 -0.118211231138 0)
(-0.00105398846225 -0.117533512682 0)
(-0.00126186467702 -0.11670384498 0)
(-0.00145709045907 -0.115731066718 0)
(-0.00164054999406 -0.114623884705 0)
(-0.00181182216561 -0.113390827215 0)
(-0.00197186736363 -0.112040238343 0)
(-0.00212031465625 -0.110580243181 0)
(-0.00225818210732 -0.109018739327 0)
(-0.00238513789919 -0.107363375327 0)
(-0.00250223798683 -0.10562153985 0)
(-0.00260917833312 -0.103800354345 0)
(-0.00270703163575 -0.101906659501 0)
(-0.00279550977462 -0.0999470220876 0)
(-0.00287568226381 -0.0979277189071 0)
(-0.00294726680492 -0.0958547573229 0)
(-0.00301131115978 -0.0937338559999 0)
(-0.00306753030692 -0.091570477659 0)
(-0.00311693542955 -0.0893698065381 0)
(-0.00315923380262 -0.0871367916074 0)
(-0.00319538878775 -0.0848761198331 0)
(-0.00322509802176 -0.0825922673325 0)
(-0.00324927109021 -0.0802894682206 0)
(-0.00326759843087 -0.0779717712659 0)
(-0.00328093428239 -0.0756430034157 0)
(-0.00328896746841 -0.0733068292016 0)
(-0.00329250024848 -0.070966708922 0)
(-0.00329122881992 -0.0686259586497 0)
(-0.00328590984864 -0.06628770266 0)
(-0.0032762572313 -0.0639549320938 0)
(-0.00326299089195 -0.0616304522758 0)
(-0.00324585350152 -0.0593169390842 0)
(-0.00322553710532 -0.0570168815981 0)
(-0.00320182270132 -0.0547326356475 0)
(-0.00317538251304 -0.0524663632074 0)
(-0.00314604335875 -0.0502200835795 0)
(-0.00311446292004 -0.0479956106256 0)
(-0.00308051773604 -0.0457946022624 0)
(-0.00304485329276 -0.0436184972452 0)
(-0.00300739641173 -0.0414685642885 0)
(-0.00296877891444 -0.0393458394975 0)
(-0.00292897469167 -0.0372511762932 0)
(-0.00288859728412 -0.0351851848332 0)
(-0.00284766160067 -0.03314828419 0)
(-0.00280675502663 -0.0311406443327 0)
(-0.00276592461238 -0.0291622416237 0)
(-0.00272572103658 -0.0272128041406 0)
(-0.00268621188935 -0.0252918717454 0)
(-0.00264789633593 -0.0233987452754 0)
(-0.00261084466529 -0.0215325524544 0)
(-0.00257547879987 -0.019692202919 0)
(-0.00254183274198 -0.0178764624 0)
(-0.00251018220422 -0.0160839156674 0)
(-0.00248039388041 -0.0143130473858 0)
(-0.00245232775121 -0.0125621996489 0)
(-0.00242509475996 -0.0108295878628 0)
(-0.00239681612134 -0.00911299977664 0)
(-0.00236271889293 -0.00740884353189 0)
(-0.00231128628672 -0.00571003941945 0)
(-0.00220679323128 -0.00396390689699 0)
(-0.00216531458212 -0.00215827675275 0)
(-0.002458443092 -0.000700118994821 0)
(0.0150582455082 -0.00294096593801 0)
(0.0166735227099 -0.00995772607569 0)
(0.0166134910128 -0.0169372060211 -1.23089550455e-27)
(0.0163832275052 -0.0239329573631 0)
(0.0160724395403 -0.030800860791 0)
(0.0156909800381 -0.0375177652287 0)
(0.0152452789819 -0.0440553179228 0)
(0.0147423608217 -0.0503878212622 0)
(0.0141894547403 -0.0564926545759 0)
(0.0135941209158 -0.0623504354179 0)
(0.0129636360446 -0.0679450524714 0)
(0.0123052452443 -0.0732635558299 0)
(0.0116255504605 -0.0782960161666 0)
(0.0109309054932 -0.0830352809886 0)
(0.0102268172776 -0.0874767411303 0)
(0.00951847706037 -0.0916180347331 0)
(0.00881016390906 -0.0954587923 0)
(0.00810588878581 -0.0990003477829 0)
(0.00740877961692 -0.102245508335 0)
(0.00672181063264 -0.105198306251 0)
(0.00604714874486 -0.107863816303 0)
(0.0053869446956 -0.110247961055 0)
(0.00474262662385 -0.112357379147 0)
(0.0041157367086 -0.114199280875 0)
(0.0035071649971 -0.115781360494 0)
(0.00291802260184 -0.117111691841 0)
(0.00234881526845 -0.11819867194 0)
(0.00180034942467 -0.119050943692 0)
(0.00127284908782 -0.119677359113 0)
(0.000766894133305 -0.120086918375 0)
(0.000282485272738 -0.12028874356 0)
(-0.00017998025429 -0.120292027984 0)
(-0.000620683305704 -0.120106008321 0)
(-0.00103938357648 -0.119739927734 0)
(-0.00143643837006 -0.119203004903 0)
(-0.00181175680825 -0.118504396144 0)
(-0.00216584693033 -0.117653171565 0)
(-0.00249875075383 -0.11665827747 0)
(-0.00281111363938 -0.115528515718 0)
(-0.00310309514878 -0.114272511298 0)
(-0.0033754568741 -0.112898693655 0)
(-0.00362845559588 -0.111415271555 0)
(-0.00386294327461 -0.109830216617 0)
(-0.00407924983025 -0.108151246189 0)
(-0.00427828878283 -0.106385810438 0)
(-0.00446043726066 -0.104541084188 0)
(-0.0046266402635 -0.102623957045 0)
(-0.00477729610589 -0.100641033829 0)
(-0.00491335241355 -0.0985986282726 0)
(-0.00503520486082 -0.096502771875 0)
(-0.00514377787771 -0.0943592099263 0)
(-0.00523944452772 -0.0921734173406 0)
(-0.00532308547501 -0.0899505968519 0)
(-0.00539503694204 -0.0876957006693 0)
(-0.00545612174484 -0.0854134290227 0)
(-0.00550663173031 -0.0831082554553 0)
(-0.00554732553967 -0.0807844250707 0)
(-0.00557845059519 -0.078445981762 0)
(-0.00560070269122 -0.0760967641863 0)
(-0.00561429173018 -0.0737404326465 0)
(-0.00561985916014 -0.0713804622162 0)
(-0.00561759021953 -0.0690201678645 0)
(-0.00560808572681 -0.0666626933255 0)
(-0.00559152277868 -0.064311033002 0)
(-0.00556847831627 -0.0619680167962 0)
(-0.00553913909197 -0.0596363284929 0)
(-0.00550407494883 -0.0573184862825 0)
(-0.00546349846842 -0.0550168575211 0)
(-0.00541798677669 -0.0527336361988 0)
(-0.00536779068935 -0.050470855011 0)
(-0.00531350430133 -0.0482303604987 0)
(-0.00525542350383 -0.0460138233836 0)
(-0.00519416328941 -0.0438227131711 0)
(-0.00513006534927 -0.0416583082854 0)
(-0.0050637632047 -0.0395216711404 0)
(-0.00499563892052 -0.0374136592909 0)
(-0.00492633645075 -0.0353349025346 0)
(-0.00485626754326 -0.0332858164394 0)
(-0.00478607343907 -0.0312665820779 0)
(-0.00471618036519 -0.0292771627554 0)
(-0.00464720946896 -0.0273172872383 0)
(-0.00457958205082 -0.0253864703642 0)
(-0.00451387660115 -0.0234839997001 0)
(-0.00445048305457 -0.0216089598915 0)
(-0.00438990358658 -0.0197602221906 0)
(-0.00433245117161 -0.0179364697468 0)
(-0.00427848372717 -0.0161361817747 0)
(-0.00422813018812 -0.0143576392717 0)
(-0.00418142900312 -0.0125988539682 0)
(-0.00413804130285 -0.0108574338607 0)
(-0.00409727248607 -0.00913017929216 0)
(-0.00405787745951 -0.00741208526891 0)
(-0.00401867912533 -0.00569441730412 0)
(-0.0039796082389 -0.00395301970925 0)
(-0.00396837955879 -0.00218711896593 0)
(-0.00369808047338 -0.000591266874603 0)
(0.0214679975551 -0.00298619620314 0)
(0.0237890962847 -0.0101077665647 0)
(0.0237003501126 -0.0171824959185 1.230322527e-27)
(0.0233667774033 -0.02427421742 0)
(0.0229174533026 -0.0312327353961 0)
(0.0223668734698 -0.0380334115898 0)
(0.0217244609479 -0.0446467098116 0)
(0.02100033796 -0.0510462337616 0)
(0.0202051331978 -0.0572090072393 0)
(0.0193497354288 -0.0631156010423 0)
(0.0184448310177 -0.0687501004864 0)
(0.0175007726684 -0.0740999646947 0)
(0.0165272141656 -0.0791558191316 0)
(0.0155331248754 -0.0839111789313 0)
(0.0145265245671 -0.0883621541939 0)
(0.0135146288689 -0.0925071300714 0)
(0.0125036590137 -0.0963464643307 0)
(0.0114990832872 -0.0998821886175 0)
(0.010505464939 -0.103117746972 0)
(0.00952676067876 -0.106057751818 0)
(0.00856617266293 -0.108707783145 0)
(0.00762647291679 -0.111074207386 0)
(0.00670983568439 -0.113164036604 0)
(0.00581816769741 -0.11498480304 0)
(0.00495290830367 -0.116544466444 0)
(0.00411535651544 -0.117851329692 0)
(0.00330643590459 -0.11891397882 0)
(0.00252701679507 -0.119741224613 0)
(0.00177764884617 -0.120342061277 0)
(0.00105888157633 -0.120725621728 0)
(0.000370970417889 -0.120901143664 0)
(-0.000285797305988 -0.120877939494 0)
(-0.000911414985028 -0.120665349128 0)
(-0.00150582711938 -0.120272709973 0)
(-0.00206925957426 -0.119709335681 0)
(-0.00260187508408 -0.118984475297 0)
(-0.00310410997057 -0.118107284943 0)
(-0.00357632425882 -0.117086794867 0)
(-0.00401914425778 -0.115931882916 0)
(-0.00443310373268 -0.114651245842 0)
(-0.00481899078641 -0.113253376206 0)
(-0.00517748212601 -0.11174653917 0)
(-0.00550949237955 -0.110138753973 0)
(-0.00581580455966 -0.108437777442 0)
(-0.00609742027217 -0.106651090839 0)
(-0.00635518928237 -0.104785890546 0)
(-0.00659015877595 -0.10284908047 0)
(-0.00680320557222 -0.100847270042 0)
(-0.00699538282884 -0.098786772011 0)
(-0.00716755787749 -0.0966736071398 0)
(-0.00732075451456 -0.0945135066656 0)
(-0.00745579976314 -0.0923119227968 0)
(-0.00757366019813 -0.0900740348518 0)
(-0.00767510013105 -0.0878047640589 0)
(-0.00776101024465 -0.0855087818924 0)
(-0.00783207973046 -0.0831905275051 0)
(-0.00788911578092 -0.0808542167 0)
(-0.00793273116692 -0.078503859991 0)
(-0.00796365290752 -0.0761432704202 0)
(-0.00798242655452 -0.0737760804094 0)
(-0.00798971253494 -0.0714057469512 0)
(-0.00798600731531 -0.0690355655863 0)
(-0.00797192570503 -0.0666686717337 0)
(-0.00794793889569 -0.0643080507589 0)
(-0.00791464127458 -0.0619565349574 0)
(-0.00787250456192 -0.0596168092758 0)
(-0.0078221277172 -0.0572914039839 0)
(-0.00776400658125 -0.0549826963997 0)
(-0.00769876595044 -0.052692900077 0)
(-0.00762694385228 -0.0504240634346 0)
(-0.00754920512793 -0.0481780566131 0)
(-0.0074661399854 -0.0459565683718 0)
(-0.00737845898628 -0.0437610921686 0)
(-0.00728680552581 -0.041592922825 0)
(-0.00719193234539 -0.0394531432582 0)
(-0.00709452813915 -0.0373426223785 0)
(-0.00699537604051 -0.0352620038635 0)
(-0.00689519454134 -0.0332117064957 0)
(-0.00679477835014 -0.0311919158758 0)
(-0.00669485412131 -0.0292025880145 0)
(-0.00659620398943 -0.0272434445242 0)
(-0.00649953625865 -0.0253139797161 0)
(-0.00640559132988 -0.0234134589317 0)
(-0.0063150270321 -0.0215409282209 0)
(-0.00622850566399 -0.0196952138061 0)
(-0.0061465922217 -0.0178749297458 0)
(-0.00606982007484 -0.0160784686393 0)
(-0.0059986013966 -0.0143039872858 0)
(-0.00593327849764 -0.0125493521139 0)
(-0.00587407889616 -0.0108120399829 0)
(-0.00582126511173 -0.00908893530252 0)
(-0.00577545912694 -0.00737602336346 0)
(-0.00573872094326 -0.00566823454332 0)
(-0.00571563942595 -0.00395749566435 0)
(-0.00569925652339 -0.00227113746758 0)
(-0.00520356177983 -0.00064962018147 0)
(0.0279842731728 -0.0030455791559 0)
(0.0310130230388 -0.0103050135168 0)
(0.0308929469638 -0.0175118966116 0)
(0.0304507317732 -0.0247325993206 0)
(0.0298555799524 -0.0318120796497 0)
(0.029127107845 -0.0387239861833 0)
(0.0282781914643 -0.0454373504733 0)
(0.027322522153 -0.0519248636703 0)
(0.0262744699624 -0.0581631078255 0)
(0.025148624028 -0.0641326347338 0)
(0.0239593022448 -0.0698178633129 0)
(0.0227202250909 -0.0752068718553 0)
(0.0214441901498 -0.080291110918 0)
(0.0201429307498 -0.0850650598023 0)
(0.0188269553187 -0.0895258615894 0)
(0.0175055653492 -0.0936729524978 0)
(0.0161868176494 -0.0975077104348 0)
(0.0148776491909 -0.101033128218 0)
(0.013583906913 -0.104253525788 0)
(0.0123105253226 -0.107174298377 0)
(0.0110615756508 -0.10980170746 0)
(0.00984045487369 -0.112142706008 0)
(0.00864992172634 -0.114204800515 0)
(0.00749227251599 -0.115995939088 0)
(0.00636934770197 -0.117524426608 0)
(0.0052826845204 -0.118798855859 0)
(0.00423349039035 -0.119828055675 0)
(0.00322277275311 -0.120621046181 0)
(0.00225128375116 -0.121187003438 0)
(0.00131963344544 -0.121535225167 0)
(0.000428213600227 -0.121675098061 0)
(-0.000422697216203 -0.121616080026 0)
(-0.00123302065389 -0.121367640731 0)
(-0.0020027771555 -0.120939249806 0)
(-0.00273218185196 -0.120340346184 0)
(-0.00342153832827 -0.119580299733 0)
(-0.00407133485614 -0.118668381008 0)
(-0.00468213521995 -0.117613729371 0)
(-0.00525467482826 -0.116425323493 0)
(-0.0057897469658 -0.115111953102 0)
(-0.00628829785432 -0.113682193535 0)
(-0.00675130922567 -0.112144382871 0)
(-0.00717989231739 -0.110506601836 0)
(-0.0075751683246 -0.108776657367 0)
(-0.00793836154195 -0.106962069007 0)
(-0.00827067941642 -0.10507005958 0)
(-0.00857340517494 -0.103107548183 0)
(-0.00884777929426 -0.101081147826 0)
(-0.00909509187029 -0.0989971650005 0)
(-0.00931656717921 -0.0968616038618 0)
(-0.0095134560474 -0.0946801714444 0)
(-0.00968692511894 -0.0924582872675 0)
(-0.00983814937552 -0.0902010932218 0)
(-0.00996820743815 -0.0879134672708 0)
(-0.0100781743087 -0.0856000362199 0)
(-0.0101690237816 -0.0832651916039 0)
(-0.0102417212192 -0.0809131036427 0)
(-0.0102971336093 -0.0785477373912 0)
(-0.0103361218838 -0.0761728656803 0)
(-0.0103594586656 -0.0737920834246 0)
(-0.0103679192164 -0.0714088178749 0)
(-0.0103622062603 -0.0690263394674 0)
(-0.0103430383129 -0.0666477678035 0)
(-0.0103110805665 -0.0642760778389 0)
(-0.0102670291175 -0.0619141010317 0)
(-0.0102115465755 -0.0595645266075 0)
(-0.0101453407357 -0.0572298977895 0)
(-0.0100691036507 -0.0549126085322 0)
(-0.00998358353517 -0.0526148958076 0)
(-0.00988952623765 -0.0503388330041 0)
(-0.00978773959261 -0.0480863195139 0)
(-0.0096790367102 -0.0458590723059 0)
(-0.00956429247692 -0.0436586146095 0)
(-0.00944438848586 -0.0414862674257 0)
(-0.0093202618364 -0.0393431388605 0)
(-0.00919285199021 -0.0372301171182 0)
(-0.00906314234876 -0.0351478620379 0)
(-0.00893210955033 -0.0330968008742 0)
(-0.00880075845789 -0.0310771229501 0)
(-0.00867007459052 -0.0290887789609 0)
(-0.00854105314396 -0.0271314792538 0)
(-0.00841465512895 -0.0252046967506 0)
(-0.00829183086197 -0.0233076683256 0)
(-0.00817348028423 -0.0214394002023 0)
(-0.00806047136737 -0.0195986704477 0)
(-0.00795360561332 -0.0177840328486 0)
(-0.00785363395686 -0.0159938133477 0)
(-0.00776123479273 -0.0142261013983 0)
(-0.00767704559621 -0.0124787236614 0)
(-0.00760169603514 -0.010749208339 0)
(-0.00753594766365 -0.00903475562196 0)
(-0.00748095650212 -0.0073322527849 0)
(-0.00743873084535 -0.0056385923082 0)
(-0.00741093133068 -0.00394996137664 0)
(-0.00736626932484 -0.00229512145747 0)
(-0.00663689181696 -0.000670695823105 0)
(0.0346448957966 -0.00312082810649 0)
(0.0383922080204 -0.0105575244086 0)
(0.038236182489 -0.0179359725355 0)
(0.0376773016558 -0.0253229114127 0)
(0.0369259414559 -0.0325576007691 0)
(0.0360073480125 -0.0396115971843 0)
(0.034938401389 -0.0464521918601 0)
(0.0337369341398 -0.0530509773964 0)
(0.0324215588368 -0.0593840500089 0)
(0.0310110298142 -0.065432030643 0)
(0.0295236466125 -0.0711798728459 0)
(0.0279767956068 -0.0766165558405 0)
(0.0263865900267 -0.0817346920363 0)
(0.024767659119 -0.0865300856371 0)
(0.0231330176223 -0.0910012784847 0)
(0.0214940593787 -0.0951491073651 0)
(0.0198605909804 -0.0989762945623 0)
(0.0182409532915 -0.102487081682 0)
(0.0166421409587 -0.105686915295 0)
(0.0150699782072 -0.108582183678 0)
(0.0135292600227 -0.111180004468 0)
(0.0120239294178 -0.113488056772 0)
(0.0105571996743 -0.115514453471 0)
(0.00913170370088 -0.117267645284 0)
(0.00774957846733 -0.118756351198 0)
(0.00641257635934 -0.119989507339 0)
(0.00512210922048 -0.120976229721 0)
(0.00387932455129 -0.121725784615 0)
(0.00268511647674 -0.122247563785 0)
(0.00154017663584 -0.122551060584 0)
(0.000444983284631 -0.122645841915 0)
(-0.000600163343094 -0.122541543459 0)
(-0.00159515609281 -0.122247793519 0)
(-0.00254005593823 -0.121774227918 0)
(-0.00343511376865 -0.121130442598 0)
(-0.00428073789107 -0.120325959873 0)
(-0.00507751721258 -0.119370196248 0)
(-0.00582618434838 -0.118272429279 0)
(-0.00652763597407 -0.117041766498 0)
(-0.00718289161717 -0.115687115629 0)
(-0.00779311094868 -0.114217157862 0)
(-0.00835954888441 -0.112640323524 0)
(-0.00888357054616 -0.110964771488 0)
(-0.00936660412723 -0.109198371779 0)
(-0.00981015465558 -0.107348692071 0)
(-0.0102157561254 -0.105422987805 0)
(-0.0105849851319 -0.103428196073 0)
(-0.0109194139173 -0.101370933284 0)
(-0.0112206249546 -0.0992574961312 0)
(-0.0114901663035 -0.097093866207 0)
(-0.0117295680476 -0.0948857172488 0)
(-0.0119403013943 -0.0926384257074 0)
(-0.0121237978425 -0.0903570830004 0)
(-0.0122814131133 -0.0880465104519 0)
(-0.01241444966 -0.0857112748225 0)
(-0.0125241263436 -0.0833557056913 0)
(-0.012611604621 -0.0809839121572 0)
(-0.0126779642286 -0.0785998003618 0)
(-0.0127242327931 -0.076207089076 0)
(-0.0127513672768 -0.0738093251021 0)
(-0.0127602862013 -0.0714098956196 0)
(-0.0127518557875 -0.069012039468 0)
(-0.0127269233436 -0.0666188546118 0)
(-0.0126863066124 -0.064233304039 0)
(-0.0126308265548 -0.0618582175295 0)
(-0.0125612980221 -0.0594962917635 0)
(-0.0124785600725 -0.0571500865172 0)
(-0.0123834662765 -0.0548220195584 0)
(-0.012276911043 -0.0525143582909 0)
(-0.0121598181612 -0.0502292107782 0)
(-0.0120331621003 -0.04796851447 0)
(-0.0118979540851 -0.0457340251965 0)
(-0.011755258017 -0.0435273049366 0)
(-0.0116061739129 -0.0413497107373 0)
(-0.0114518486436 -0.0392023834153 0)
(-0.0112934571881 -0.0370862381886 0)
(-0.0111322088595 -0.0350019559318 0)
(-0.0109693271124 -0.0329499768879 0)
(-0.0108060521621 -0.03093049555 0)
(-0.0106436203311 -0.0289434582535 0)
(-0.0104832640876 -0.0269885621032 0)
(-0.0103261918956 -0.0250652565164 0)
(-0.0101735867232 -0.0231727457574 0)
(-0.0100265875854 -0.0213099935082 0)
(-0.00988628805767 -0.0194757275367 0)
(-0.00975372192064 -0.0176684448353 0)
(-0.00962986595596 -0.0158864148742 0)
(-0.00951563800362 -0.0141276809676 0)
(-0.00941191992997 -0.0123900608111 0)
(-0.00931959528675 -0.0106711557555 0)
(-0.00923963494971 -0.00896838367932 0)
(-0.00917322227387 -0.00727910099975 0)
(-0.00912178092369 -0.00560091734511 0)
(-0.00908459605662 -0.0039305634216 0)
(-0.00901676475661 -0.00229470190376 0)
(-0.00809693499346 -0.000674372063415 0)
(0.0414868402985 -0.00321404006843 0)
(0.0459685423126 -0.0108710170425 0)
(0.0457701195736 -0.0184630552422 1.22072313926e-27)
(0.0450837071517 -0.0260562816678 0)
(0.0441623292828 -0.0334828252484 0)
(0.0430375363215 -0.0407116067157 0)
(0.0417309268416 -0.0477078108619 0)
(0.0402652012739 -0.0544417570099 0)
(0.0386638819804 -0.0608890691652 0)
(0.0369504750641 -0.0670306101203 0)
(0.0351477251926 -0.0728521666319 0)
(0.0332770373563 -0.078344003301 0)
(0.0313580618848 -0.0835003277905 0)
(0.0294084493977 -0.0883187178853 0)
(0.0274437408699 -0.0927995520438 0)
(0.0254773834685 -0.0969454746232 0)
(0.0235208264799 -0.100760916485 0)
(0.0215836880582 -0.104251682392 0)
(0.0196739489364 -0.107424608906 0)
(0.0177981724911 -0.110287290928 0)
(0.0159617139918 -0.112847871137 0)
(0.0141689288254 -0.115114884219 0)
(0.0124233489519 -0.117097146772 0)
(0.0107278462676 -0.118803683228 0)
(0.00908475644907 -0.120243678993 0)
(0.00749598860966 -0.121426451992 0)
(0.00596309655185 -0.122361435951 0)
(0.00448734161986 -0.123058168724 0)
(0.00306972321462 -0.123526282224 0)
(0.0017110095462 -0.123775489785 0)
(0.000411743279286 -0.123815565147 0)
(-0.000827749320346 -0.123656352081 0)
(-0.00200734716132 -0.123307664061 0)
(-0.00312714363287 -0.12277933737 0)
(-0.00418744290974 -0.122081157047 0)
(-0.00518875103757 -0.121222830935 0)
(-0.00613177811319 -0.120213953908 0)
(-0.0070174217808 -0.119063973104 0)
(-0.0078467644439 -0.117782154122 0)
(-0.00862105150121 -0.116377549694 0)
(-0.00934168375616 -0.114858970561 0)
(-0.0100101914784 -0.11323496026 0)
(-0.0106282234059 -0.111513772808 0)
(-0.0111975183115 -0.109703355056 0)
(-0.0117198922589 -0.107811332361 0)
(-0.0121972094503 -0.105844999121 0)
(-0.0126313693947 -0.103811312694 0)
(-0.013024278701 -0.101716891971 0)
(-0.0133778396486 -0.0995680192743 0)
(-0.0136939244508 -0.0973706463717 0)
(-0.0139743666332 -0.095130403458 0)
(-0.0142209391786 -0.092852611468 0)
(-0.0144353499709 -0.0905422968172 0)
(-0.0146192250637 -0.0882042084228 0)
(-0.0147741092499 -0.0858428362407 0)
(-0.0149014553685 -0.0834624308075 0)
(-0.0150026305923 -0.0810670232282 0)
(-0.0150789120957 -0.0786604447245 0)
(-0.015131498984 -0.0762463453624 0)
(-0.0151615138559 -0.0738282109477 0)
(-0.01517001943 -0.0714093779983 0)
(-0.0151580246653 -0.0689930457363 0)
(-0.0151265043528 -0.0665822852868 0)
(-0.0150764077668 -0.0641800452575 0)
(-0.0150086789451 -0.0617891542199 0)
(-0.014924265498 -0.059412319493 0)
(-0.0148241372248 -0.0570521230276 0)
(-0.0147092928606 -0.0547110141246 0)
(-0.0145807750228 -0.0523912999786 0)
(-0.0144396732263 -0.0500951340363 0)
(-0.0142871338719 -0.0478245031301 0)
(-0.0141243586569 -0.0455812136584 0)
(-0.0139526091449 -0.0433668776457 0)
(-0.0137732005095 -0.0411828990599 0)
(-0.0135875009855 -0.0390304609716 0)
(-0.0133969215731 -0.0369105140274 0)
(-0.0132029112264 -0.0348237665434 0)
(-0.0130069435929 -0.0327706766739 0)
(-0.0128105091463 -0.0307514466114 0)
(-0.0126151002916 -0.0287660193035 0)
(-0.0124222018059 -0.0268140772394 0)
(-0.0122332757337 -0.0248950438392 0)
(-0.0120497516259 -0.0230080865292 0)
(-0.0118730128973 -0.0211521221372 0)
(-0.0117043888613 -0.0193258234964 0)
(-0.0115451452635 -0.0175276275982 0)
(-0.0113964820764 -0.0157557444449 0)
(-0.0112595343315 -0.0140081685737 0)
(-0.0111353846848 -0.0122826923798 0)
(-0.0110250862131 -0.0105769335846 0)
(-0.0109296988097 -0.00888840093587 0)
(-0.0108503146937 -0.00721458656922 0)
(-0.0107878949447 -0.00555314298425 0)
(-0.0107402953705 -0.00390047416553 0)
(-0.0106527292019 -0.00228144147763 0)
(-0.00955581668582 -0.000671864096121 0)
(0.0485511445616 -0.00332733961316 0)
(0.0537871350824 -0.0112521305551 0)
(0.053537943181 -0.0191036540921 -1.220072037e-27)
(0.0527099070416 -0.026946761827 0)
(0.0516006846361 -0.0346046781517 0)
(0.0502490775674 -0.0420430453425 0)
(0.0486823611608 -0.0492245231877 0)
(0.046929052769 -0.0561180151814 0)
(0.0450184507123 -0.0626987685056 0)
(0.0429795521761 -0.0689481793872 0)
(0.0408401249638 -0.0748533023678 0)
(0.0386260073069 -0.0804062110063 0)
(0.036360637665 -0.0856032720667 0)
(0.0340648014637 -0.0904443990888 0)
(0.0317565584293 -0.0949323373376 0)
(0.0294513169866 -0.0990720152634 0)
(0.0271620102149 -0.102869984136 0)
(0.0248993420362 -0.106333954097 0)
(0.0226720654558 -0.109472426474 0)
(0.0204872738573 -0.112294414999 0)
(0.0183506792059 -0.114809245284 0)
(0.0162668710501 -0.117026419745 0)
(0.0142395402016 -0.118955534745 0)
(0.0122716706021 -0.120606237283 0)
(0.0103656898701 -0.121988209129 0)
(0.00852358850554 -0.123111168282 0)
(0.00674700218766 -0.123984878521 0)
(0.00503727098795 -0.124619160518 0)
(0.00339547175716 -0.125023899141 0)
(0.00182243860072 -0.125209044046 0)
(0.000318768861536 -0.125184596943 0)
(-0.00111518639945 -0.124960638112 0)
(-0.00247929710213 -0.124547190638 0)
(-0.00377368732579 -0.123954326081 0)
(-0.00499872188047 -0.123192052056 0)
(-0.00615500667355 -0.122270296762 0)
(-0.00724338516223 -0.121198868302 0)
(-0.00826492716533 -0.11998741654 0)
(-0.00922091823196 -0.118645396767 0)
(-0.0101128413318 -0.117182035108 0)
(-0.0109423601294 -0.115606297628 0)
(-0.0117112951852 -0.11392686259 0)
(-0.0124216032091 -0.112152097373 0)
(-0.0130753500211 -0.110290039331 0)
(-0.0136746879939 -0.10834838157 0)
(-0.0142218279609 -0.106334462976 0)
(-0.0147190168199 -0.104255263053 0)
(-0.0151685103894 -0.102117400979 0)
(-0.0155725529422 -0.0999271390567 0)
(-0.0159333527798 -0.097690390122 0)
(-0.0162530653008 -0.0954127286852 0)
(-0.0165337729986 -0.0930994055545 0)
(-0.0167774736141 -0.0907553652195 0)
(-0.0169860660838 -0.0883852659125 0)
(-0.0171613451029 -0.0859935011798 0)
(-0.0173049942357 -0.0835842229792 0)
(-0.0174185877377 -0.0811613647453 0)
(-0.0175035913042 -0.0787286645501 0)
(-0.0175613711182 -0.0762896865895 0)
(-0.017593201739 -0.0738478412774 0)
(-0.0176002812707 -0.0714064021523 0)
(-0.0175837447278 -0.0689685201224 0)
(-0.017544683139 -0.0665372334684 0)
(-0.0174841598407 -0.0641154744199 0)
(-0.0174032306399 -0.0617060710961 0)
(-0.017302960008 -0.0593117459347 0)
(-0.017184439298 -0.0569351098353 0)
(-0.0170488000226 -0.0545786533835 0)
(-0.0168972276382 -0.052244734761 0)
(-0.0167309697989 -0.0499355658125 0)
(-0.0165513441453 -0.0476531961712 0)
(-0.0163597404933 -0.0453994968262 0)
(-0.0161576221561 -0.0431761432345 0)
(-0.0159465220565 -0.040984599112 0)
(-0.0157280380465 -0.038826101101 0)
(-0.0155038238019 -0.0367016451382 0)
(-0.0152755793057 -0.0346119747466 0)
(-0.0150450379075 -0.0325575716871 0)
(-0.0148139535564 -0.030538649211 0)
(-0.014584085708 -0.0285551479562 0)
(-0.0143571850926 -0.0266067346679 0)
(-0.0141349782381 -0.0246928035367 0)
(-0.0139191536492 -0.0228124801981 0)
(-0.013711347867 -0.0209646280973 0)
(-0.0135131342056 -0.0191478573324 0)
(-0.0133260127738 -0.0173605355547 0)
(-0.0131514046894 -0.0156008015227 0)
(-0.01299064947 -0.0138665812339 0)
(-0.0128450084444 -0.0121556104622 0)
(-0.01271567072 -0.0104654683762 0)
(-0.0126037590143 -0.00879362233283 0)
(-0.0125103123373 -0.00713750949471 0)