/*--------------------------------*- C++ -*----------------------------------*\
| =========                 |                                                 |
| \\      /  F ield         | OpenFOAM: The Open Source CFD Toolbox           |
|  \\    /   O peration     | Version:  v1906                                 |
|   \\  /    A nd           | Web:      www.OpenFOAM.com                      |
|    \\/     M anipulation  |                                                 |
\*---------------------------------------------------------------------------*/
FoamFile
{
    version     2.0;
    format      ascii;
    class       volScalarField;
    location    "760";
    object      p;
}
// * * * * * * * * * * * * * * * * * * * * * * * * * * * * * * * * * * * * * //

dimensions      [0 2 -2 0 0 0 0];


internalField   nonuniform List<scalar> 
9216
(
273.486981536
273.566754631
273.731820611
273.983585596
274.320628381
274.741363534
275.243821714
275.825694804
276.484368932
277.216971099
278.02039937
278.891370339
279.826445753
280.822078426
281.874632656
282.980426533
284.135744714
285.336876379
286.5801202
287.861818233
289.178353742
290.526181932
291.901821703
293.301884276
294.723060005
296.16214586
297.616028292
299.081710278
300.556290981
302.036992831
303.521138605
305.006178238
306.489663635
307.969276806
309.44280219
310.908154268
312.363348437
313.806528993
315.235938353
316.649945105
318.047011871
319.42572337
320.784753219
322.122891924
323.439012913
324.732100419
326.001215042
327.245521475
328.464253893
329.656743476
330.822383929
331.960658728
333.071107034
334.153350599
335.207060324
336.231982716
337.227907282
338.194692441
339.132233927
340.040489996
340.919450967
341.769163586
342.589701799
343.381190096
344.143775595
344.877650204
345.583024074
346.260146431
346.909280437
347.530722575
348.124778968
348.69178322
349.232074243
349.746012493
350.233959372
350.696291822
351.133383364
351.545617057
351.933368238
352.29701586
352.63692701
352.953466656
353.246984012
353.51782074
353.766299243
353.992729374
354.197398765
354.380578198
354.542514213
354.683433715
354.803540149
354.903020356
354.982052373
355.040846281
355.080083555
355.096799113
273.407248404
273.487383701
273.652793736
273.905560509
274.244039256
274.666568861
275.171136316
275.755395081
276.416696576
277.152131027
277.958563134
278.832674291
279.770996147
280.769950095
281.825875449
282.935063936
284.093781051
285.298294849
286.544890402
287.829893296
289.149677952
290.500686821
291.879433712
293.282519833
294.706633267
296.148562894
297.605194971
299.073525697
300.550655595
302.033801197
303.520287609
305.007559907
306.493174246
307.974808092
309.450250302
310.917411429
312.37431235
313.819094019
315.250005107
316.665411344
318.063782252
319.443700109
320.803845946
322.143008163
323.460067974
324.754007755
326.02389612
327.268896061
328.488249861
329.681287075
330.847409475
331.986098925
333.096902507
334.179440331
335.233390985
336.258499279
337.254562126
338.221436201
339.159024329
340.067283005
340.946209329
341.795848316
342.616280396
343.407628421
344.170045722
344.903722729
345.608875562
346.285752179
346.934621493
347.55577897
348.149536274
348.716226262
349.256193172
349.769796989
350.257404199
350.719391531
351.156137319
351.568024635
351.955433311
352.318742502
352.658323421
352.974541379
353.267749293
353.538289252
353.786486862
354.012652394
354.217076029
354.40002865
354.561758019
354.702489188
354.822421236
354.921725698
355.000538926
355.058937811
355.096828135
355.113517981
273.241414598
273.322698125
273.489640967
273.744712505
274.086236382
274.512506264
275.021448326
275.610647718
276.277384912
277.018676839
277.831316755
278.711915711
279.656940169
280.662749615
281.725628538
282.841817896
284.007540121
285.219023918
286.472522433
287.764332016
289.090804536
290.448361309
291.833500856
293.242809279
294.672964699
296.120745195
297.583030882
299.056810214
300.539180376
302.027352436
303.518650436
305.010515729
306.500505017
307.986293735
309.465673166
310.936553256
312.396958758
313.845031338
315.279024897
316.697307051
318.098353722
319.480750071
320.843184472
322.18444899
323.503432888
324.799122756
326.070595706
327.317019269
328.537644426
329.731805387
330.898912601
332.038452518
333.149980699
334.233121636
335.287562066
336.313050894
337.309392778
338.276448178
339.214127241
340.122389961
341.001240374
341.850726778
342.67093622
343.461994718
344.224061988
344.957331609
345.662025943
346.338396174
346.986717376
347.607288384
348.200426984
348.76646957
349.305766461
349.818681337
350.305586694
350.766863071
351.202894672
351.614068423
352.000769808
352.363381788
352.702280908
353.01783614
353.310405304
353.580333893
353.827951862
354.053572471
354.257489494
354.439976083
354.601282335
354.741634002
354.86122989
354.960239254
355.038796476
355.096988642
355.134772927
355.152706466
272.986451891
273.069022371
273.238362628
273.497038527
273.843312598
274.275402692
274.791141266
275.388008404
276.06317347
276.813539632
277.635787863
278.526420464
279.481801759
280.498196385
281.571803264
282.698786475
283.875301416
285.097518064
286.361639823
287.663920198
289.00067567
290.368297289
291.763259142
293.182126352
294.621560512
296.078325302
297.549289902
299.031433039
300.521845021
302.017730689
303.516410406
305.015322074
306.512021271
308.004182563
309.489598672
310.96618096
312.431957836
313.88507448
315.323790467
316.746478798
318.151622823
319.537814662
320.903751542
322.248233717
323.570160364
324.868527125
326.142421702
327.39102117
328.613587409
329.809464321
330.978073236
332.118910149
333.231541216
334.315600102
335.370783665
336.396849473
337.393611725
338.360938985
339.298750352
340.207013395
341.085740578
341.934987353
342.754848788
343.545457774
344.306981798
345.039621186
345.743605963
346.41919407
347.066668256
347.686334217
348.278517484
348.84356146
349.381824287
349.893676778
350.379499278
350.839679511
351.274609461
351.684683176
352.070293719
352.43183097
352.769678708
353.084212461
353.375796776
353.644783178
353.891507667
354.116288831
354.319425598
354.501195494
354.6618526
354.801625812
354.920716703
355.019297294
355.09750737
355.155450155
355.193115888
355.211286213
272.641279298
272.725498593
272.898128252
273.161757863
273.514556588
273.954631465
274.479682937
275.087044468
275.77373052
276.536486519
277.371837914
278.276137485
279.245609339
280.276389085
281.364559361
282.506180927
283.697319024
284.934065717
286.212558167
287.528993794
288.879642312
290.260855675
291.669075796
293.100841025
294.552791121
296.021671598
297.504336998
298.997753935
300.499003273
302.005282266
303.513905917
305.022308222
306.528042842
308.028783847
309.522325343
311.006581287
312.479584469
313.939485521
315.384551129
316.813162299
318.223811858
319.61510208
320.985741595
322.334542489
323.660416764
324.962373059
326.239512807
327.491026731
328.716190849
329.914362885
331.084978264
332.227546573
333.341647657
334.426928231
335.483098179
336.509927383
337.507242278
338.474922934
339.41289988
340.321151439
341.199700798
342.048613551
342.867994963
343.657987657
344.418769004
345.150548874
345.853567071
346.528091083
347.174413498
347.792849692
348.383735185
348.947423245
349.484282164
349.994692771
350.479045654
350.937738599
351.371173789
351.779755222
352.163885936
352.523965458
352.860387112
353.173535559
353.463784251
353.73149312
353.977006218
354.200649604
354.402729206
354.5835289
354.743308589
354.882302413
355.00071695
355.098729686
355.176487633
355.234105847
355.271589766
355.289765922
272.204114205
272.290425068
272.467290351
272.737306696
273.098514204
273.548869017
274.085894997
274.706731228
275.408187986
276.186804042
277.038902203
277.960641771
278.948066524
279.997147444
281.103819761
282.264014403
283.473684055
284.728824424
286.025491209
287.359813536
288.728004394
290.126368776
291.55130995
292.99933442
294.467055811
295.951198104
297.448598255
298.956208496
300.471098222
301.990455675
303.511589237
305.031928356
306.549024312
308.060550837
309.564303724
311.058200463
312.540279315
314.008698089
315.461732401
316.897773681
318.3153267
319.713006893
321.089537276
322.443745224
323.774558921
325.081003761
326.362198491
327.617351389
328.845756273
330.046788611
331.21990154
332.364622051
333.480547144
334.567340204
335.624727384
336.652494251
337.65048246
338.618586695
339.556751651
340.464969265
341.343275975
342.191750186
343.010509738
343.799709543
344.559539162
345.290220516
345.992005501
346.665173675
347.310029834
347.926901618
348.516136993
349.078101749
349.61317687
350.121755925
350.604242345
351.061046731
351.492584084
351.899271084
352.281523327
352.639752635
352.974364368
353.285754832
353.574308726
353.840396708
354.084373038
354.30657335
354.507312523
354.686882692
354.845551363
354.983559681
355.101120847
355.198418817
355.275607582
355.33281015
355.370038587
355.388122435
271.67267949
271.761581059
271.943710512
272.221664748
272.593314954
273.056420034
273.60827507
274.245769183
274.965451892
275.763600008
276.636281402
277.579413999
278.588818514
279.660264181
280.789507268
281.972322657
283.204529066
284.482008708
285.800722249
287.156719954
288.546149839
289.96526358
291.410420783
292.878092166
294.364861981
295.867430035
297.382613417
298.907348091
300.438690345
301.973818125
303.510032139
305.044756659
306.57554029
308.100056533
309.616103323
311.121602602
312.614599372
314.093260328
315.555872059
317.000838862
318.426680164
319.832027617
321.215621872
322.576309107
323.913037325
325.224852485
326.510894502
327.770393163
329.002664001
330.207104172
331.383188363
332.53046478
333.648551229
334.737131341
335.795950929
336.824814532
337.823582114
338.792165961
339.730527734
340.638675702
341.516662109
342.364580685
343.182564244
343.970782371
344.729439146
345.4587709
346.159043958
346.830552353
347.473615501
348.088575804
348.675796192
349.235657586
349.768556286
350.274901302
350.755111608
351.209613373
351.638837145
352.04321503
352.423177875
352.779152477
353.111558822
353.420807405
353.707296604
353.971410166
354.213514779
354.433957784
354.633065002
354.811138702
354.968455724
355.105265759
355.221789838
355.318219247
355.394714662
355.451404836
355.488306129
355.506241726
271.044152679
271.136202612
271.324731881
271.612330233
271.996652562
272.475205113
273.044991815
273.702586005
274.444210418
275.265816427
276.163158164
277.131859499
278.167472314
279.265525458
280.421564477
281.631182779
282.890045244
284.193905432
285.538617645
286.920144981
288.334564448
289.778070033
291.246974446
292.737710135
294.246829957
295.771007811
297.307039345
298.851842832
300.402460157
301.956057882
303.509928068
305.061489277
306.608287254
308.147995342
309.678414153
311.197471055
312.703219161
314.193835871
315.667620935
317.122994107
318.558492372
319.972766829
321.364579228
322.73279826
324.076395597
325.394441776
326.686101939
327.950631517
329.187371862
330.395745916
331.575253909
332.725469185
333.84603412
334.936656234
335.997104448
337.027205576
338.026840992
338.995943534
339.934494591
340.842521405
341.720094518
342.567325394
343.38436413
344.171397272
344.92864566
345.656362306
346.354830236
347.024360302
347.665288918
348.277975722
348.86280113
349.420163809
349.950478041
350.45417101
350.931680005
351.38344957
351.809928611
352.211567478
352.588815053
352.942115852
353.271907179
353.578616327
353.862657875
354.124431069
354.364317327
354.582677867
354.779851475
354.956152432
355.111868596
355.247259694
355.362555814
355.457956178
355.53362836
355.589706688
355.626211255
355.643957241
270.315103628
270.410929886
270.607131614
270.906279401
271.305753481
271.80273928
272.393873525
273.075334525
273.842939999
274.692242128
275.618614531
276.617328776
277.683618851
278.812733281
279.999975455
281.240733422
282.530500713
283.864889924
285.239640701
286.650623679
288.093841645
289.565429036
291.061650587
292.578899763
294.113697392
295.662690759
297.222653234
298.790484444
300.363210867
301.937986721
303.512094621
305.082946817
306.648085957
308.205185394
309.752048985
311.286610542
312.806932779
314.311205729
315.797744675
317.264987589
318.711492148
320.135932339
321.537094741
322.913874498
324.265271074
325.590383821
326.888407437
328.15862734
329.400415043
330.613223543
331.796582811
332.950095374
334.073432089
335.166328075
336.228578892
337.26003694
338.260608113
339.230248702
340.168962542
341.076798385
341.953847473
342.800241281
343.616149395
344.401777468
345.157365242
345.883184557
346.579537341
347.246753523
347.885188866
348.495222673
349.077255384
349.631706034
350.159009601
350.65961423
351.133978372
351.582567833
352.005852785
352.404304729
352.77839347
353.128584093
353.455334
353.759089992
354.040285455
354.299337634
354.536645044
354.752585009
354.947511356
355.121752277
355.275608372
355.409350871
355.523220077
355.617424206
355.692138245
355.747502088
355.783540667
355.801060794
269.481418874
269.581737725
269.787059067
270.099915279
270.517338151
271.0361067
271.652396098
272.361892777
273.159915601
274.041531021
275.001655829
276.035144779
277.136861646
278.301733962
279.524792783
280.801199565
282.126262541
283.495445007
284.904367752
286.348807543
287.824693292
289.32810112
290.855249284
292.4024936
293.966323785
295.543360902
297.130355923
298.724189295
300.321871286
301.920542862
303.51747635
305.110077028
306.695884181
308.272571296
309.837946047
311.389949779
312.926656389
314.446270637
315.947125889
317.427681339
318.886518733
320.322338683
321.7339566
323.120298333
324.480395553
325.813380977
327.118483457
328.395023035
329.642405966
330.860119831
332.04772872
333.204868595
334.331242823
335.426617965
336.490819801
337.523729669
338.525281075
339.495456625
340.434285225
341.341839574
342.218233872
343.063621744
343.878194301
344.662178309
345.415834391
346.139455245
346.833363779
347.497911184
348.133474849
348.740456157
349.319278099
349.870382738
350.394228509
350.891287382
351.362041901
351.806982129
352.22660252
352.621398756
352.991864569
353.338488583
353.661751197
353.962121539
354.240054516
354.495987966
354.730339955
354.943506218
355.13585776
355.307738642
355.459463944
355.591317949
355.703552531
355.79638576
355.870000891
355.924544407
355.960046564
355.977305375
268.538206466
268.643846652
268.859957649
269.189004143
269.627574605
270.171932292
270.817671999
271.55986843
272.393227873
273.312228798
274.311243714
275.384639338
276.526854115
277.732454307
278.996171197
280.312922723
281.677823035
283.086183291
284.533506578
286.015479391
287.527961504
289.066975685
290.628698222
292.209450929
293.805694988
295.414026727
297.031175233
298.654001516
300.27949886
301.904793963
303.527147861
305.143958007
306.752759944
308.351227305
309.93717215
311.508544479
313.063431082
314.600053707
316.116766597
317.612053427
319.08452371
320.532908735
321.956057112
323.352929989
324.722596027
326.064226194
327.377088456
328.660542415
329.914033977
331.137090086
332.329313604
333.490378364
334.620024471
335.718053869
336.784326243
337.818755237
338.821305054
339.791987399
340.730858783
341.638018133
342.513604708
343.35779622
344.170807156
344.952887185
345.704319629
346.425419888
347.116533809
347.778035906
348.410327422
349.01383419
349.589004295
350.136305513
350.656222572
351.149254215
351.615910133
352.056707757
352.472168984
352.862816843
353.229172146
353.571750161
353.891057327
354.187588046
354.46182158
354.714219068
354.945220685
355.155242969
355.34467632
355.513882688
355.663193469
355.792907585
355.903289788
355.994569349
356.066938695
356.120551338
356.155444292
356.172406052
267.479674579
267.591609497
267.820466033
268.168596896
268.632023104
269.206350409
269.886441645
270.666609865
271.540809894
272.502810897
273.546340988
274.665200948
275.853347171
277.104946664
278.414408505
279.776396818
281.185830244
282.637872347
284.127916663
285.651569234
287.204630806
288.783080146
290.383059519
292.000862905
293.632927226
295.275826555
296.926269033
298.581096004
300.237282778
301.8919404
303.542317234
305.185801765
306.819925141
308.442361004
310.050926299
311.643580862
313.218426208
314.773703549
316.307791063
317.819200501
319.306573198
320.768675574
322.204394204
323.612730559
324.99279548
326.343803494
327.665067019
328.955990553
330.216064893
331.444861472
332.642026844
333.807277417
334.940394442
336.041219362
337.109649515
338.145634273
339.149171579
340.120304955
341.059120891
341.965746663
342.840348452
343.683129772
344.494330074
345.274223492
346.023117608
346.741352189
347.42929779
348.087354203
348.715948653
349.315533772
349.88658528
350.429599415
350.945090111
351.433585959
351.895626977
352.33176124
352.742541409
353.128521196
353.490251816
353.828278456
354.143136792
354.435349603
354.705423484
354.953845706
355.181081229
355.387569895
355.573723805
355.73992491
355.8865228
356.013832732
356.122133863
356.211667699
356.282636936
356.335203411
356.369411312
356.386038705
266.298975623
266.418366169
266.662293485
267.032932173
267.525570977
268.134971859
268.855070075
269.679227827
270.600477872
271.611735995
272.705972009
273.876337086
275.116249529
276.419444481
277.779994728
279.192310133
280.651122611
282.151462487
283.688630745
285.258170503
286.855839955
288.477588305
290.119535557
291.77795667
293.449270191
295.13003116
296.816927798
298.506781188
300.196547071
301.883318722
303.564329774
305.236958223
306.898729712
308.547317514
310.180543884
311.796379707
313.392943227
314.96849784
316.521449054
318.050340678
319.553850364
321.030784576
322.480073113
323.900763269
325.292013754
326.653088423
327.983349958
329.282253509
330.549340431
331.78423213
332.986624128
334.156280383
335.293027956
336.396752056
337.467391559
338.504934992
339.509417066
340.480915701
341.419549596
342.325476237
343.198890341
344.040022615
344.849138765
345.626538624
346.372555329
347.087554404
347.771932694
348.426117052
349.050562739
349.645751484
350.212189213
350.750403436
351.260940329
351.744361542
352.201240781
352.632160226
353.037706821
353.418468504
353.775030412
354.107971118
354.417858926
354.705248261
354.970676192
355.214659106
355.437689552
355.640233293
355.822726545
355.985573458
356.129143812
356.25377093
356.359749828
356.447335774
356.516742782
356.56814148
356.601584704
356.617838982
264.988004374
265.116257127
265.378062004
265.775317274
266.30235705
266.952851546
267.719553373
268.594633331
269.569991893
270.63752082
271.78930367
273.017754925
274.315703463
275.676430072
277.093670292
278.561593471
280.074767475
281.628116433
283.216876854
284.836555684
286.482892497
288.151827073
289.839473022
291.542097738
293.256108634
294.97804524
296.704576398
298.432501388
300.158753685
301.880405197
303.594672049
305.298919749
306.990666419
308.667584376
310.327501507
311.968401038
313.588420136
315.185847432
316.759119555
318.306816834
319.827658244
321.320495765
322.784308236
324.21819486
325.621368444
326.99314851
328.332954319
329.640297949
330.914777431
332.156070083
333.363926046
334.538162165
335.678656231
336.785341715
337.858203013
338.897271303
339.902621008
340.87436692
341.81266192
342.717695298
343.589691554
344.428909616
345.235642319
346.010216065
346.752990462
347.464357884
348.14474278
348.794600685
349.414416819
350.004704289
350.566001826
351.098871124
351.603893777
352.081667894
352.532804447
352.957923407
353.357649764
353.732609457
354.083425306
354.410712965
354.71507696
354.997106837
355.257373461
355.49642548
355.714785992
355.912949424
356.091378639
356.250502286
356.390712383
356.512362171
356.615764203
356.701188639
356.768862008
356.818965135
356.851559829
356.86739988
263.537134025
263.675981305
263.95910553
264.38798202
264.955685711
265.654460873
266.475541755
267.40960021
268.447145244
269.578844022
270.7957533
272.08946519
273.452179109
274.876716253
276.356493788
277.885474246
279.458102563
281.069239815
282.714099543
284.388190116
286.087264818
287.807280376
289.544364125
291.294789809
293.054961816
294.821407271
296.590774841
298.359838605
300.125505044
301.8848198
303.634977072
305.373326493
307.097376423
308.804797206
310.493422583
312.161249513
313.806436566
315.427301044
317.022315004
318.590100311
320.12942291
321.639186409
323.118425177
324.566297054
325.982075843
327.365143663
328.714983297
330.031170569
331.313366869
332.561311843
333.774816382
334.953755933
336.098064292
337.207727912
338.282780864
339.323300489
340.329403828
341.301244805
342.239012206
343.142928328
344.013248276
344.850259729
345.654283052
346.425671569
347.164811851
347.872123814
348.548060534
349.19310761
349.807782049
350.392630568
350.948227373
351.475171379
351.97408297
352.445600354
352.890375602
353.309070455
353.702351991
354.070888216
354.415343658
354.736375007
355.034626853
355.310727563
355.565285319
355.798884366
356.012081466
356.205402604
356.37933994
356.534349025
356.670846291
356.78920678
356.889762147
356.97279911
357.038557829
357.087229775
357.118887271
357.134270011
261.934866893
262.086479242
262.39521288
262.861899841
263.477932038
264.233671981
265.118390061
266.12086452
267.22989427
268.434689466
269.725131554
271.091914682
272.526590542
274.02154316
275.56991924
277.165535512
278.802779012
280.476510737
282.181978602
283.914742219
285.670610092
287.445588809
289.235843747
291.037670962
292.84748004
294.661787292
296.477217823
298.29051403
300.098547632
301.898330816
303.68702938
305.461972432
307.220655739
308.960746285
310.680083833
312.376680664
314.048719606
315.694550606
317.312686054
318.901795085
320.460696982
321.988353882
323.483862936
324.946448128
326.375451866
327.770326529
329.130626006
330.455997355
331.746172591
333.000960711
334.22023999
335.403950697
336.55208828
337.664697214
338.741865563
339.783720418
340.790424231
341.762172127
342.699190132
343.601734308
344.47009062
345.304575431
346.105536387
346.873353506
347.608440229
348.311244249
348.982247898
349.621967991
350.230954988
350.809791461
351.359089834
351.879489473
352.371653174
352.836263186
353.274016848
353.685621986
354.071792152
354.433241814
354.770681556
355.084813353
355.376325977
355.64589056
355.894156361
356.121746751
356.329255457
356.517243064
356.686233815
356.83671268
356.96912273
357.083862808
357.181285482
357.261695217
357.325347075
357.372444659
357.403071087
357.417950531
260.167365811
260.334513058
260.674296472
261.186569671
261.860442137
262.683765849
263.643252162
264.725278659
265.916545351
267.204542618
268.57783023
270.026153694
271.540436594
273.112690783
274.735881721
276.403777842
278.110803402
279.851905908
281.622442821
283.418087998
285.234756167
287.068543251
288.915680937
290.772504977
292.635437346
294.500982064
296.365732848
298.226389098
300.079775527
301.922860001
303.752771519
305.566812652
307.362462913
309.137384301
310.889422848
312.616608086
314.317150507
315.989437331
317.632026979
319.243642408
320.823163519
322.369618773
323.882176279
325.360134525
326.802912989
328.210042732
329.581157102
330.915982569
332.214329752
333.476084658
334.701200238
335.889688335
337.041612204
338.157079731
339.236237545
340.279266123
341.286376043
342.257805388
343.193818347
344.09470489
344.96078141
345.792392105
346.589910873
347.353743406
348.084329251
348.782143497
349.447697931
350.081541414
350.684259408
351.25647257
351.798834448
352.312028332
352.796763395
353.253770246
353.683796078
354.087599532
354.465945435
354.819599495
355.14932306
355.455867977
355.739971623
356.002352128
356.243703827
356.46469298
356.665953762
356.848084574
357.011644654
357.15715102
357.285075736
357.395843469
357.489829363
357.567357405
357.628698715
357.674069457
357.703565176
357.717892925
258.217815224
258.404102626
258.781962467
259.349752521
260.09343807
260.997484313
262.045244719
263.220046191
264.506021983
265.888657837
267.355066972
268.894044783
270.495968462
272.152606104
273.8568884
275.60268032
277.384575007
279.197719797
281.03767576
282.900307118
284.781694987
286.678070306
288.585762894
290.501166222
292.420719325
294.340907106
296.258276944
298.169466551
300.071234501
301.960489133
303.834312344
305.6899723
307.524928235
309.336835507
311.123546916
312.883111742
314.613772298
316.313958597
317.982281701
319.617525976
321.218640267
322.784728254
324.315038215
325.808952528
327.265977111
328.685731012
330.067936184
331.412407486
332.71904287
333.987813794
335.21875588
336.411960012
337.567563977
338.685744953
339.76671298
340.810705681
341.817984331
342.788831416
343.723549625
344.622462256
345.48591479
346.314277447
347.107948323
347.867356817
348.592966911
349.285280007
349.944836973
350.572219216
351.16804859
351.732986135
352.267729633
352.773010134
353.249587584
353.698245782
354.119786866
354.515025539
354.884783173
355.229881951
355.551139102
355.849361311
356.125339326
356.379842809
356.613615455
356.827370404
357.021785984
357.197501785
357.355115108
357.495177755
357.618193181
357.72461401
357.814839878
357.889215518
357.948029428
357.991511885
358.019771112
358.03349537
256.065534084
256.275757566
256.700949862
257.337158876
258.165946287
259.167159191
260.319719215
261.603075016
262.998243409
264.488419328
266.059200505
267.698518625
269.396383906
271.144540956
272.936109306
274.765254578
276.62691266
278.516572162
280.43010973
282.3636675
284.313560877
286.276207039
288.248069064
290.225616181
292.205304756
294.183585137
296.156932186
298.121891811
300.075128228
302.013469582
303.933937554
305.833757587
307.710364811
309.561406534
311.384743307
313.178447501
314.940798496
316.670275694
318.365550553
320.025477616
321.649084295
323.235559642
324.784242583
326.294609893
327.76626435
329.198923194
330.592407001
331.946628814
333.261583514
334.537337292
335.774017339
336.971801854
338.130910656
339.251596668
340.334138612
341.378835144
342.386000709
343.355963193
344.289063451
345.185656563
346.04611465
346.870830868
347.6602242
348.414744523
349.134877511
349.821148859
350.474127501
351.09442747
351.682708285
352.239673769
352.766069389
353.262678267
353.730316121
354.169825401
354.582068937
354.96792334
355.328272377
355.664000443
355.975986236
356.265096652
356.532180954
356.778065211
357.003547053
357.209390762
357.396322728
357.5650273
357.716143037
357.85025937
357.967913664
358.069588633
358.155710136
358.226645494
358.282701757
358.324123697
358.351033931
358.36410006
253.684717769
253.925414868
254.410396184
255.132090416
256.06578594
257.184972894
258.462701541
259.873502995
261.394657342
263.00682394
264.694130738
266.443880082
268.246043585
270.092692011
271.977457919
273.895082532
275.841063516
277.811398057
279.80240375
281.810595169
283.83259482
285.865062107
287.904632429
289.94786906
291.991239451
294.031130639
296.063901151
298.085957276
300.093828931
302.084235584
304.054123325
306.000669333
307.921281839
309.813599181
311.675491231
313.50505807
315.300622917
317.060722535
318.784097773
320.469683544
322.116596955
323.72412416
325.291706653
326.81892745
328.305497688
329.751243982
331.156096385
332.520076799
333.84328752
335.125899778
336.368142247
337.57028978
338.732652657
339.855566817
340.93938545
341.984472391
342.991197571
343.959934802
344.891061873
345.784962932
346.642032822
347.462682977
348.247348285
348.996494331
349.710624316
350.390285106
351.036071852
351.648630859
352.228660464
352.776909903
353.294176253
353.781299713
354.239157558
354.668657185
355.070728661
355.446317102
355.796375164
356.121855775
356.423705186
356.702856337
356.960222552
357.196691546
357.413119787
357.610327234
357.789092489
357.950148403
358.094178143
358.221811712
358.333622919
358.430126797
358.511777392
358.578965833
358.632019043
358.671197874
358.696639545
358.70898903
251.04260981
251.322945293
251.884878076
252.715057708
253.779684619
255.043438786
256.471588598
258.032473069
259.698983236
261.449119203
263.265796351
265.136161689
267.050697404
269.002326875
270.985645563
272.996324207
275.030683465
277.085413485
279.157401234
281.24362659
283.341092101
285.446759997
287.557484009
289.669942769
291.780600016
293.885730343
295.981504268
298.064113492
300.129893759
302.175421227
304.197553495
306.193419252
308.160400312
310.096125436
311.998475662
313.865585354
315.695830698
317.48781536
319.240359822
320.952491153
322.62342918
324.252570753
325.839473667
327.3838405
328.885503437
330.344410526
331.760612974
333.134253008
334.465551818
335.754797093
337.002330207
338.208533302
339.373816814
340.498607997
341.583341073
342.628449529
343.634361027
344.601495196
345.530264472
346.421077818
347.274347051
348.090495139
348.869965809
349.613233546
350.320813172
350.993268164
351.631217087
352.235337634
352.806368082
353.345106072
353.85240494
354.329167904
354.776340661
355.194902932
355.585859571
355.950231674
356.289048034
356.603337054
356.894119164
357.162399653
357.409161884
357.635360855
357.841917121
358.029711156
358.19957817
358.352303455
358.488618253
358.609196171
358.714650095
358.805529551
358.882318505
358.945433741
358.995223181
359.031964058
359.055809954
359.067381021
248.096767627
248.430018609
249.093172976
250.063437184
251.293644064
252.736242514
254.346235178
256.084265821
257.918239217
259.823633296
261.782775988
263.783509975
265.81769589
267.879868945
269.966185126
272.073676618
274.199776424
276.342049532
278.498064333
280.665342262
282.841331726
285.023364681
287.20857485
289.393789494
291.575443829
293.749619426
295.912181601
298.058987068
300.186091464
302.289887928
304.367141781
306.41494902
308.430671293
310.411925166
312.35660327
314.26288425
316.129210443
317.954263549
319.736954588
321.476416409
323.171986995
324.823189878
326.429715112
327.991399941
329.508211397
330.980231792
332.40764571
333.790727877
335.129830818
336.425371453
337.677816641
338.887668178
340.055447982
341.181684361
342.266900163
343.311603573
344.316282141
345.281400536
346.207402172
347.094714663
347.943758639
348.754959225
349.528759157
350.265632445
350.966097347
351.630727647
352.260161314
352.85510601
353.416341108
353.944716263
354.441146747
354.90660609
355.342116718
355.74873947
356.127562793
356.47969228
356.806240925
357.108320206
357.387031897
357.643460429