/*--------------------------------*- C++ -*----------------------------------*\
| =========                 |                                                 |
| \\      /  F ield         | OpenFOAM: The Open Source CFD Toolbox           |
|  \\    /   O peration     | Version:  v1906                                 |
|   \\  /    A nd           | Web:      www.OpenFOAM.com                      |
|    \\/     M anipulation  |                                                 |
\*---------------------------------------------------------------------------*/
FoamFile
{
    version     2.0;
    format      ascii;
    class       surfaceScalarField;
    location    "760";
    object      phi;
}
// * * * * * * * * * * * * * * * * * * * * * * * * * * * * * * * * * * * * * //

dimensions      [0 3 -1 0 0 0 0];
oriented        oriented;


internalField   nonuniform List<scalar> 
18240
(
-0.000352223023553
0.000352249971166
-0.000737889072276
0.000385697334424
-0.00112320859744
0.000385347351827
-0.00150356288697
0.00038038648011
-0.00187688020002
0.000373344355946
-0.00224141743609
0.000364570321973
-0.00259565963735
0.000354268428239
-0.00293824593778
0.000342620355705
-0.00326801572874
0.00032979516736
-0.00358395155047
0.000315970904298
-0.00388523899756
0.000301311894225
-0.00417119158397
0.000285988736291
-0.00444131807431
0.000270149938521
-0.004695228228
0.000253947388178
-0.00493271044266
0.000237504551838
-0.00515362051174
0.000220948380145
-0.00535797322015
0.000204373846123
-0.00554581606217
0.000187882192525
-0.00571733744112
0.000171541187643
-0.00587272644749
0.000155429332238
-0.00601229922064
0.000139591164155
-0.00613634510343
0.000124087091441
-0.00624527157434
0.000108943317368
-0.00633943659508
9.42069969232e-05
-0.00641931188163
7.98905191852e-05
-0.00648530110537
6.60318287512e-05
-0.00653792068297
5.26330907427e-05
-0.0065776036165
3.97260137325e-05
-0.00660489690837
2.73050506878e-05
-0.00662025124801
1.53977252061e-05
-0.00662423440793
3.99309251643e-06
-0.00661730507637
-6.88581817618e-06
-0.00660003870283
-1.72582595396e-05
-0.00657289226236
-2.71029890883e-05
-0.0065364447204
-3.64412783077e-05
-0.00649114699488
-4.52545246068e-05
-0.00643757348918
-5.35690384152e-05
-0.0063761618973
-6.13688323217e-05
-0.00630747505909
-6.86841552665e-05
-0.00623193173105
-7.55011928691e-05
-0.00615007718909
-8.18535451461e-05
-0.00606230660472
-8.77292537061e-05
-0.0059691426392
-9.31646028155e-05
-0.00587095319447
-9.81490857619e-05
-0.00576823433929
-0.000102720991061
-0.00566132424358
-0.00010687086857
-0.0055506895265
-0.000110638265779
-0.00543663721868
-0.000114014355863
-0.00531960275545
-0.000117039260643
-0.0051998617883
-0.000119704423463
-0.00507781784913
-0.000122049873459
-0.00495371582103
-0.000124067006382
-0.00482792748269
-0.000125795226557
-0.00470066837971
-0.000127225704405
-0.00457227932267
-0.00012839676989
-0.00444294835239
-0.000129299275201
-0.00431298649599
-0.000129970202546
-0.00418255641673
-0.00013040015448
-0.0040519406637
-0.000130624595364
-0.00392127852428
-0.000130634031245
-0.00379082527654
-0.000130462398017
-0.00366069863794
-0.000130100380512
-0.00353112752527
-0.000129580436961
-0.00340220940269
-0.000128893729924
-0.00327414735383
-0.000128071374361
-0.00314701948935
-0.000127105342312
-0.00302100317749
-0.000126025519164
-0.00289615756094
-0.000124824955549
-0.00277263408804
-0.000123532415286
-0.00265047302649
-0.000122142244824
-0.00252979949623
-0.000120682109888
-0.00241063473914
-0.000119147755694
-0.00229307711596
-0.000117565721402
-0.00217712872077
-0.000115933172004
-0.00206286085587
-0.000114275399849
-0.00195025645374
-0.000112590906069
-0.00183935974946
-0.000110903572764
-0.00173013482304
-0.000109213094906
-0.00162259921902
-0.000107541723481
-0.00151669883054
-0.000105890144929
-0.00141242535797
-0.000104278743237
-0.0013097076571
-0.000102708966776
-0.00120851294693
-0.000101199062526
-0.0011087547068
-9.97509595361e-05
-0.00101037768295
-9.83804347793e-05
-0.000913282409459
-9.70894523501e-05
-0.00081739431687
-9.58906279337e-05
-0.000722605355225
-9.4784660476e-05
-0.000628828870217
-9.37782619339e-05
-0.00053596168383
-9.2864349066e-05
-0.000443935207944
-9.20274302895e-05
-0.000352723893546
-9.12097191991e-05
-0.000262467508674
-9.02561450108e-05
-0.000173851297741
-8.86161149047e-05
-8.97343697506e-05
-8.41175685366e-05
-8.97343762033e-05
-0.000389328756972
0.000741607956062
-0.000823992047663
0.000820392468517
-0.00125618469011
0.000817570983842
-0.0016820729182
0.000806306894427
-0.00209973307682
0.000791035336068
-0.00250738123442
0.000772250934161
-0.00290336329592
0.000750281155641
-0.00328618233668
0.000725472158104
-0.00365453842199
0.000698181755358
-0.00400731285319
0.000668778420708
-0.00434359236818
0.000637621732081
-0.00466263504973
0.000605064823779
-0.00496389043827
0.000571435419393
-0.0052469531821
0.000537043833183
-0.00551158420626
0.000502165383998
-0.0057576560078
0.000467054132077
-0.00598517880438
0.000431926078636
-0.00619424029293
0.000396977811319
-0.00638503942951
0.000362369303907
-0.00655782224566
0.000328246371607
-0.00671292458604
0.000294721914305
-0.00685070449669
0.000261901212724
-0.00697159419016
0.000229860750258
-0.00707602881453
0.000198675703235
-0.00716450722917
0.000168395879634
-0.00723751662804
0.000139075053188
-0.00729560136824
0.000110743882542
-0.00733928290118
8.34409858464e-05
-0.00736913577418
5.71829644658e-05
-0.00738570233268
3.19972017593e-05
-0.00738957437019
7.88907248314e-06
-0.0073813048816
-1.51230404361e-05
-0.00736149762221
-3.70427750112e-05
-0.00733070946188
-5.78596661854e-05
-0.00728954330763
-7.75859520691e-05
-0.00723854900906
-9.62182420491e-05
-0.00717832159818
-0.000113776303822
-0.00710939757755
-0.000130263286383
-0.00703235710246
-0.00014570585432
-0.00694771686388
-0.000160112977237
-0.00685603577595
-0.000173517266109
-0.00675780518007
-0.00018593259611
-0.00665355741816
-0.000197396409934
-0.00654375408865
-0.000207926434284
-0.00642889684695
-0.000217563697564
-0.00630941443321
-0.000226328634634
-0.00618577497875
-0.000234264577866
-0.00605837252926
-0.000241393534483
-0.00592764012453
-0.000247759893017
-0.00579393651037
-0.000253386175582
-0.00565765921565
-0.000258316712434
-0.00551913213342
-0.000262573650367
-0.00537871783488
-0.000266200336511
-0.0052367066574
-0.000269217871168
-0.00509342747613
-0.000271667954268
-0.00494913891467
-0.000273570241349
-0.00480413784162
-0.000274964399399
-0.00465865327351
-0.000275868520538
-0.00451295187568
-0.00027632014635
-0.00436723510565
-0.000276335957013
-0.00422174107859
-0.000275951522126
-0.00407664545852
-0.00027518247127
-0.00393215909208
-0.00027406274555
-0.00378843313658
-0.00027260741902
-0.00364565197217
-0.000270849235512
-0.003503943016
-0.000268803239433
-0.00336346448204
-0.000266501408123
-0.00322432030422
-0.000263959221601
-0.00308664242184
-0.000261208224798
-0.00295051118265
-0.000258264659162
-0.0028160318833
-0.000255159821701
-0.002683260979
-0.000251910859187
-0.00255227669787
-0.00024854882113
-0.00242311131781
-0.000245091710505
-0.0022958157043
-0.000241570156849
-0.00217039786
-0.000238002796939
-0.00204688129935
-0.000234419519305
-0.0019252500123
-0.000230839237924
-0.00180550059934
-0.000227290676155
-0.00168759374521
-0.000223792576634
-0.00157150008236
-0.000220372006627
-0.00145715822746
-0.000217047033431
-0.00134451434326
-0.000213842531506
-0.00123348676541
-0.000210775326358
-0.0011239992756
-0.000207867470311
-0.00101595231305
-0.0002051337975
-0.000909249967712
-0.000202592544671
-0.000803777618529
-0.00020025505347
-0.000699422287077
-0.000198133291803
-0.000596054679761
-0.000196230742308
-0.000493536132795
-0.000194545462562
-0.000391683331787
-0.000193061490947
-0.000290193249966
-0.000191746166104
-0.00018828568821
-0.000190523728883
-8.38648900718e-05
-0.000188538601645
-0.000173599685827
-0.000396286392472
0.00113792382985
-0.000836593457878
0.00126073111615
-0.00127504159882
0.00125605060915
-0.00170711512597
0.00123841221951
-0.00213068541078
0.00121463711088
-0.00254388256212
0.00118547999171
-0.00294500442747
0.00115143452931
-0.00333253066224
0.00111303043755
-0.00370514333562
0.00107082597264
-0.00406172486453
0.00102539214022
-0.00440136370018
0.000977292132134
-0.00472333756605
0.000927071011665
-0.00502711093212
0.000875240344678
-0.00531230954788
0.0008222748656
-0.00557871517537
0.000768602507077
-0.00582623609822
0.000714607509175
-0.00605490325833
0.000660624606195
-0.00626483997105
0.000606946937668
-0.00645626201788
0.000553822493413
-0.00662944827237
0.000501464905541
-0.00678474586828
0.000450050334079
-0.00692254219281
0.00039972957327
-0.00704327514562
0.000350624086438
-0.00714740616586
0.000302838399644
-0.00723543501434
0.000256454562643
-0.00730787313533
0.000211544365603
-0.00736526212248
0.000168162024891
-0.00740814668824
0.000126356135078
-0.00743709604229
8.6160687386e-05
-0.00745267590361
4.76069130112e-05
-0.00745547224955
1.07128755224e-05
-0.00744606205342
-2.4504237993e-05
-0.00742503894036
-5.8039438758e-05
-0.00739298254878
-8.98880267877e-05
-0.00735048566302
-0.000120057504795
-0.00729812234147
-0.00014855459881
-0.00723647655466
-0.000175397943846
-0.00716610929703
-0.000200604736918
-0.00708758851719
-0.000224203755519
-0.00700145539864
-0.000246221519503
-0.00690825548818
-0.000266695607375
-0.00680850440051
-0.000285660402618
-0.00670271997171
-0.000303160631546
-0.00659138764597
-0.000319236818275
-0.00647499350569
-0.000333939003976
-0.00635398956387
-0.000347312009297
-0.00622882743346
-0.000359409270265
-0.00609992374425
-0.000370278046049
-0.00596769424602
-0.000379973331495
-0.00583251952855
-0.000388543111292
-0.00569477927299
-0.000396042280372
-0.00555481844955
-0.000402518074773
-0.00541298147336
-0.00040802395345
-0.00526957901391
-0.000412605293779
-0.00512492174717
-0.000416313158185
-0.00497928791097
-0.000419190364524
-0.004832956401
-0.000421285077266
-0.0046861751744
-0.000422637314086
-0.00453919339675
-0.00042329226952
-0.00439223080976
-0.000423287332232
-0.00424550871291
-0.000422665060753
-0.00409922039606
-0.000421460736567
-0.00395356072725
-0.000419714885364
-0.00380869777889
-0.00041746140472
-0.00366480088416
-0.000414739542218
-0.00352201358027
-0.000411582599964
-0.00338047999799
-0.000408029271546
-0.0032403192714
-0.000404112949325
-0.00310165020827
-0.000399872352246
-0.00296456730111
-0.000395341442003
-0.00282916362102
-0.000390559279618
-0.00269550857188
-0.000385560585576
-0.00256366900754
-0.000380384795853
-0.00243368883883
-0.000375067287817
-0.00230560835366
-0.000369647614001
-0.002179445776
-0.000364161437268
-0.00205521480114
-0.000358647942694
-0.00193290816617
-0.000353142508797
-0.00181251338574
-0.000347683297848
-0.00169399838097
-0.000342304699328
-0.00157732542048
-0.00033704310595
-0.0014624388215
-0.00033193114465
-0.00134927707735
-0.000327002636087
-0.00123776263039
-0.000322287622915
-0.00112781216278
-0.00031781649702
-0.00101932837358
-0.000313615795763
-0.000912208290242
-0.000309711446275
-0.000806336737741
-0.000306125264814
-0.000701591921596
-0.000302877247951
-0.000597838789095
-0.00029998292323
-0.000494928125032
-0.000297455593472
-0.000392681594696
-0.000295307162548
-0.000290871020136
-0.00029355581579
-0.000189205614094
-0.000292189632788
-8.78592869061e-05
-0.000289885771736
-0.000261459010722
-0.000402490014545
0.00154044334189
-0.000848914405907
0.00170718698369
-0.00129346389594
0.00170063167616
-0.00173139618268
0.00167637617816
-0.00216044626865
0.00164371882596
-0.0025786543677
0.00160371984026
-0.00298426013588
0.0015570720011
-0.00337571182675
0.00150451398588
-0.00375167796803
0.00144682390772
-0.00411104732808
0.0013847934731
-0.00445292596118
0.00131920264657
-0.00477662365274
0.00125080077587
-0.00508164139713
0.00118029002462
-0.00536765046076
0.00110831606298
-0.00563447632705
0.00103546031614
-0.00588207573413
0.000962239051504
-0.00611052160991
0.000889102355288
-0.00631998159199
0.000816438976043
-0.00651070652282
0.000744579143022
-0.00668301208113
0.000673802344933
-0.00683727169849
0.000604341405709
-0.00697390150957
0.000536390979587
-0.00709335742917
0.000470111086068
-0.00719612280677
0.000405634968263
-0.00728270882012
0.000343071154229
-0.00735364389342
0.00028251010088
-0.0074094764349
0.000224024524614
-0.00745076511704
0.000167674826066
-0.00747808311525
0.00011350789525
-0.00749200859221
6.1561621349e-05
-0.00749312993097
1.18625618179e-05
-0.00748203575451
-3.55700783266e-05
-0.00745932081937
-8.07270093554e-05
-0.00742557595972
-0.000123605558751
-0.00738139438154
-0.00016421279658
-0.00732736121838
-0.000202561539036
-0.00726406019903
-0.000238673849392
-0.00719206305136
-0.000272576852198
-0.00711193666556
-0.000304306268389
-0.00702423242697
-0.000333901986092
-0.00692949388407
-0.000361411584571
-0.0068282461319
-0.000386885700651
-0.00672100399345
-0.000410381550667
-0.00660826156555
-0.000431958150276
-0.00649050088676
-0.000451679845894
-0.00636818172194
-0.000469611464075
-0.00624175066602
-0.000485821881367
-0.00611163122591
-0.000500379172696
-0.00597823327726
-0.000513354233665
-0.00584194346906
-0.000524816001229
-0.00570313493266
-0.000534835150277
-0.0055621580207
-0.000543479446476
-0.00541935014476
-0.00055081752145
-0.0052750268319
-0.000556914416353
-0.00512949155647
-0.000561835440976
-0.00498302709077
-0.000565641947911
-0.00483590518743
-0.000568395257669
-0.00468837818578
-0.00057015269062
-0.00454068840616
-0.000570971532374
-0.00439305998494
-0.000570905323748
-0.00424570785867
-0.000570007812418
-0.00409882980809
-0.000568329485612
-0.003952614938
-0.00056592144639
-0.00380723594216
-0.000562832153302
-0.0036628570221
-0.000559111144733
-0.00351962640592
-0.000554805948239
-0.00337768368476
-0.00054996558622
-0.00323715265034
-0.000544637618407
-0.0030981480619
-0.000538871370233
-0.00296076887768
-0.000532715089064
-0.00282510448343
-0.000526218862211
-0.00269122840346
-0.000519431882167
-0.00255920403394
-0.000512405039437
-0.00242907890697
-0.00050518831141
-0.0023008899664
-0.00049783303731
-0.00217465844757
-0.000490389454738
-0.00205039472811
-0.000482908673763
-0.00192809386247
-0.000475440391653
-0.00180774002307
-0.00046803458968
-0.00168930271295
-0.000460739453668
-0.00157274080511
-0.000453602814707
-0.00145799943417
-0.000446670297488
-0.00134501362204
-0.000439986520009
-0.00123370582702
-0.000433593481687
-0.00112398911547
-0.000427531529953
-0.0010157652864
-0.000421837993815
-0.000908927439417
-0.000416547931438
-0.000803358397496
-0.000411693053005
-0.000698932243374
-0.000407302436037
-0.000595512275251
-0.000403402098394
-0.000492950233724
-0.000400016656031
-0.000391084255882
-0.000397172181917
-0.00028974286804
-0.000394897159951
-0.000188796924177
-0.000393135548769
-8.87274427494e-05
-0.000389955517088
-0.000350186965742
-0.000410488572441
0.00195096139308
-0.000865402113711
0.00216213196236
-0.00131821581097
0.00215347693786
-0.00176399536551
0.0021221873615
-0.00220034079836
0.00208009589776
-0.00262518711857
0.00202859787121
-0.00303670077055
0.00196861738621
-0.00343328830117
0.00190113334432
-0.00381360384102
0.00182717129882
-0.00417654677355
0.00174776836061
-0.00452125287661
0.00166394071358
-0.00484707790552
0.0015766578704
-0.00515357854629
0.00148682271641
-0.00544048926089
0.00139525891403
-0.00570770017933
0.00130270331925
-0.00595523346539
0.0012098044818
-0.00618322321842
0.00111712415672
-0.00639189512978
0.00102514295671
-0.00658155090928
0.000934266840355
-0.00675255264614
0.00084483597584
-0.00690531226581
0.00075713270933
-0.00704028040045
0.000671390720112
-0.007157940168
0.000587802182676
-0.00725879953011
0.000506525525819
-0.00734338819224
0.000427690669801
-0.00741225219488
0.000351404761911
-0.00746595270276
0.000277755279417
-0.00750506172416
0.00020681384162
-0.00753016183769
0.000138637527456
-0.00754184228268
7.32712707186e-05
-0.0075406990648
1.07480069316e-05
-0.00752733072879
-4.89101211112e-05
-0.00750233882531
-0.000105691219811
-0.00746632364524
-0.000159593470108
-0.00741988447385
-0.000210625353708
-0.00736361536748
-0.00025880449841
-0.00729810544015
-0.000304158327038
-0.00722393468528
-0.000346722666108
-0.00714167448532
-0.000386542264712
-0.00705188358664
-0.000423669219718
-0.00695510892372
-0.000458163347357
-0.00685188184598
-0.000490090444574
-0.00674271930749
-0.000519522544359
-0.00662812041723
-0.000546536077654
-0.006508568028
-0.000571212072821
-0.00638452564431
-0.000593634280948
-0.00625643939417
-0.000613889373222
-0.00612473530312
-0.000632065102662
-0.00598982162184
-0.000648250558373
-0.00585208644447
-0.000662534419285
-0.00571190032397
-0.000675005308654
-0.00556961419461
-0.000685750199899
-0.00542556220304
-0.000694854915997
-0.00528005986998
-0.000702402726343
-0.00513340702973
-0.000708475016047
-0.00498588615495
-0.000713150109224
-0.00483776530421
-0.000716504122353
-0.00468929652095
-0.00071861001685
-0.00454071867258
-0.000719538618937
-0.0043922558461
-0.000719357886453
-0.00424411999277
-0.00071813405773
-0.00409650925773
-0.00071593108055
-0.00394961035816
-0.000712811822095
-0.00380359682138
-0.000708837598202
-0.0036586310765
-0.000704069370056
-0.00351486260741
-0.000698567296502
-0.00337242976332
-0.000692391839752
-0.00323145787216
-0.000685603281358
-0.00309206081972
-0.000678262680851
-0.00295433918738
-0.000670431309411
-0.00281838165606
-0.000662171426515
-0.00268426324632
-0.000653545620169
-0.00255204661773
-0.000644617398248
-0.00242178047958
-0.00063545044278
-0.00229350083746
-0.000626109031652
-0.00216722963252
-0.000616657238737
-0.00204297597953
-0.000607159217831
-0.00192073506868
-0.000597678383067
-0.00180048941256
-0.000588277588255
-0.00168220802923
-0.000579018326889
-0.00156584770529
-0.000569960838441
-0.00145135245598
-0.000561163356822
-0.00133865478796
-0.000552682167608
-0.00122767541279
-0.00054457093162
-0.00111832446765
-0.000536880714302
-0.00101050141484
-0.000529659412084
-0.000904096109689
-0.000522951798098
-0.000798988775103
-0.00051679914619
-0.00069505070545
-0.000511239434004
-0.000592144253908
-0.000506307569125
-0.000490123836756
-0.000502036441644
-0.000388837348836
-0.000498457759816
-0.000288135121323
-0.000495598190486
-0.000187917079613
-0.000493354110919
-8.86426962364e-05
-0.000489230834479
-0.000438829628569
-0.000420658888701
0.00237164972215
-0.000886598827285
0.00262810325803
-0.00135009145741
0.00261700111181
-0.0018059618268
0.0025780893115
-0.00225164666567
0.00252581236703
-0.00268495323474
0.00246193611843
-0.00310395913003
0.00238765502839
-0.00350702172826
0.00230422775375
-0.00389278247679
0.00221296393729
-0.00426016031388
0.0021151781543
-0.0046083362853
0.00201214871775
-0.00493673129098
0.00190508496365
-0.00524497996525
0.00179510353638
-0.00553290238249
0.00168321350975
-0.00580047611275
0.00157030925687
-0.00604780936727
0.00145716994224
-0.00627511697967
0.00134446396087
-0.00648269896164
0.00123275708724
-0.00667092277183
0.00112252273395
-0.00684020827791
0.00101415347115
-0.00699101626003
0.000907972554368
-0.00712383896625
0.000804245140441
-0.00723919355147
0.00070318829129
-0.00733761664236
0.000604979931099
-0.00741966101921
0.000509766100136
-0.00748589252123
0.000417667048768
-0.00753688842823
0.000328781641792
-0.00757323535388
0.000243190892795
-0.00759552820936
0.000160960108852
-0.00760436822697
8.21406254741e-05
-0.00760036201485
6.77066646149e-06
-0.00758411895769
-6.51247539951e-05
-0.00755625038191
-0.000133531903193
-0.00751736690345
-0.000198449553422
-0.00746807702606
-0.000259888421491
-0.0074089845003
-0.000317870756689
-0.00734068691143
-0.00037243028344
-0.00726377307046
-0.000423611452942
-0.00717882177592
-0.000471469179174
-0.00708639939223
-0.000516067833132
-0.00698705890808
-0.000557480769114
-0.00688133781455
-0.000595789107631
-0.00676975754358
-0.000631081115586
-0.00665282171523
-0.000663450855134
-0.00653101599119
-0.000692997494086
-0.00640480671766
-0.000719823908376
-0.00627464119595
-0.000744036003572
-0.00614094671685
-0.000765741349936
-0.00600413121663
-0.000785048582934
-0.00586458266983
-0.000802066144324
-0.0057226700783
-0.000816901826103
-0.00557874316801
-0.000829661679926
-0.00543313363231
-0.00084044975587
-0.00528615505357
-0.000849367235458
-0.00513810430429
-0.000856512408075
-0.00498926159772
-0.000861980063369
-0.0048398919319
-0.000865861722013
-0.00469024516242
-0.000868245297455
-0.00454055737519
-0.000869215570146
-0.00439105088146
-0.000868854091311
-0.00424193541869
-0.000867239848363
-0.00409340798998
-0.000864449349978
-0.00394565382649
-0.000860557401945
-0.00379884603424
-0.000855637284584
-0.00365314629449
-0.000849761537834
-0.00350870432426
-0.000843002135798
-0.00336565833764
-0.000835431185396
-0.00322413436961
-0.000827121013832
-0.00308424655701
-0.00081814470516
-0.0029460964011
-0.000808576046923
-0.00280977294743
-0.000798489865971
-0.00267535207328
-0.000787961815676
-0.00254289664731
-0.000777068507664
-0.00241245591869
-0.00076588715526
-0.00228406572379
-0.000754495528784
-0.00215774803567
-0.000742971492725
-0.00203351126406
-0.000731392828077
-0.00191134999881
-0.000719836710134
-0.00179124542591
-0.000708379446626
-0.00167316527665
-0.000697095941045
-0.00155706436433
-0.000686059389844
-0.0014428847299
-0.000675340769023
-0.00133055628591
-0.000665008526414
-0.00121999713107
-0.000655128122238
-0.00111111426691
-0.000645761749666
-0.00100380403393
-0.000636967964942
-0.000897952844741
-0.000628801486413
-0.000793437684324
-0.000621312982228
-0.00069012691692
-0.000614549108189
-0.000587881062082
-0.000608552552263
-0.000486553922243
-0.000603362399416
-0.00038599587351
-0.000599014708081
-0.000286060754884
-0.000595533277219
-0.000186640643713
-0.000592774022574
-8.81538084181e-05
-0.000587717770786
-0.000526983945725
-0.000433264726385
0.00280494384007
-0.000912935929262
0.0031078058079
-0.00138970103451
0.00309379769031
-0.00185806960887
0.00304648943312
-0.00231527112955
0.00298304547254
-0.00275895549433
0.00290565214243
-0.00318709458985
0.00281582584641
-0.00359799163908
0.00271515662083
-0.0039902815489
0.00260528573754
-0.00436291765071
0.00248784624909
-0.00471514798758
0.00236441111319
-0.00504648420122
0.00223645333098
-0.00535666676279
0.0021053182981
-0.00564562896731
0.00197220798721
-0.00591346246106
0.00183817503819
-0.00616038538676
0.00170412519338
-0.00638671468764
0.00157082556078
-0.00659284245244
0.001438917142
-0.00677921693617
0.00130892943048
-0.00694632740025
0.00118129608345
-0.00709469294714
0.00105637011624
-0.00722485417892
0.000934438259221
-0.00733736771702
0.000815733521201
-0.0074328023711
0.000700446081791
-0.00751173703045
0.000588731997881
-0.00757475916934
0.000480720160309
-0.00762246416296
0.000376517284999
-0.00765545448937
0.000276211534004
-0.00767433917049
0.000179874719324
-0.00767973270212
8.75636814502e-05
-0.00767225427384
-6.7868526888e-07
-0.007652525771
-8.48246527244e-05
-0.0076211703413
-0.000164859234637
-0.00757881066498
-0.000240781664101
-0.0075260667781
-0.000312605298339
-0.00746355386143
-0.000380357246941
-0.00739188021955
-0.000444078095932
-0.00731164507963
-0.000503821392048
-0.00722343669261
-0.000559652998307
-0.00712783036562
-0.000611650256522
-0.00702538685691
-0.000659901033968
-0.00691665077263
-0.000704502641247
-0.00680214935249
-0.000745560665593
-0.00668239130049
-0.000783187749495
-0.00655786600768
-0.000817502321484
-0.00642904283719
-0.000848627338576
-0.00629637078399
-0.000876689014613
-0.00616027819927
-0.000901815621061
-0.00602117286131
-0.000924136302829
-0.00587944209722
-0.000943780016307
-0.00573545320982
-0.000960874509074
-0.00558955393155
-0.000975545468687
-0.00544207313233
-0.00098791573774
-0.00529332151441
-0.000998104734578
-0.00514359249635
-0.00100622795944
-0.0049931630346
-0.00101239673308
-0.0048422945633
-0.00101671802679
-0.00469123381333
-0.00101929452725
-0.00454021367778
-0.00102022478099
-0.00438945390485
-0.00101960355143
-0.00423916177948
-0.0010175222216
-0.00408953259284
-0.00101406935908
-0.00394075006522
-0.00100933127627
-0.00379298654307
-0.00100339268682
-0.00364640314567
-0.000996337300762
-0.00350114969567
-0.000988248442922
-0.00335736462343
-0.000979209561915
-0.00321517468907
-0.000969304700901
-0.00307469472504
-0.000958618830542
-0.00293602723994
-0.000947238099847
-0.0027992620979
-0.000935249947411
-0.00266447610574
-0.000922743111427
-0.0025317327287
-0.000909807522478
-0.00240108174978
-0.000896534094286
-0.00227255909846
-0.000883014436398
-0.00214618664731
-0.000869340478487
-0.00202197220381
-0.000855604061471
-0.00189990947898
-0.000841896456977
-0.00177997826163
-0.000828307897074
-0.00166214456975
-0.000814927048916
-0.00154636100597
-0.000801840535365
-0.00143256708132
-0.000789132413487
-0.00132068973328
-0.00077688372668
-0.0012106437975
-0.00076517202737
-0.00110233265696
-0.00075407099488
-0.000995648829848
-0.000743650039252
-0.000890474712318
-0.00073397402518
-0.000786683314347
-0.000725103016282
-0.000684139081268
-0.000717092117511
-0.000582698985769
-0.000709991494394
-0.00048221425003
-0.000703846408571
-0.000382531913488
-0.000698695999044
-0.000283500316561
-0.000694563373152
-0.000185000464943
-0.000691274309652
-8.74181443023e-05
-0.000685300959608
-0.000614401920334
-0.000448584407542
0.00325355757059
-0.000944949613247
0.0036042022031
-0.00143781671903
0.00358669622049
-0.00192129213906
0.00352999631493
-0.00239234389149
0.00345412876778
-0.00284842963537
0.0033617694895
-0.00328739820605
0.00325482612166
-0.00370749747771
0.00313528767995
-0.00410736824596
0.00300518841022
-0.00448602131776
0.00286653131184
-0.00484280197161
0.0027212238752
-0.00517734687185
0.00257103041356
-0.00548953765758
0.00241754136715
-0.00577945511965
0.00226215778156
-0.00604733642901
0.0021060887506
-0.00629353742476
0.00195035860378
-0.00651850061637
0.00179582119421
-0.00672272937749
0.00164317830998
-0.0069067678347
0.00149300026816
-0.00707118610256
0.00134574664186
-0.007216569908
0.00120178612312
-0.00734351397725
0.00106141437991
-0.00745261819817
0.000924869636459
-0.00754448592539
0.000792345488875
-0.00761972361115
0.000664001133952
-0.00767894124149
0.000539968961181
-0.00772275302815
0.000420359939986
-0.00775177800705
0.000305267036008
-0.00776664030723
0.000194767168017
-0.00776796891507
8.89220279815e-05
-0.00775639668406
-1.22216235235e-05
-0.00773255966897
-0.000108632848511
-0.00769709518759
-0.000200295410874
-0.00765063978522
-0.000287209288378
-0.00759382722005
-0.000369390656127
-0.00752728610479
-0.000446871728555
-0.00745163766999
-0.00051970051773
-0.00736749341793
-0.000587940243662
-0.00727545305102
-0.00065166862643
-0.0071761023713
-0.000710976841987
-0.00707001156413
-0.000765968442079
-0.00695773349403
-0.000816757980302
-0.00683980245184
-0.000863469696036
-0.00671673292119
-0.000906235952877
-0.00658901882852
-0.000945195822828
-0.00645713279774
-0.000980493470759
-0.00632152589784
-0.0010122767595
-0.00618262736653
-0.00104069569185
-0.00604084481834
-0.00106590113483
-0.00589656439273
-0.0010880434145
-0.00575015136464
-0.00110727124665
-0.00560195064959
-0.00112373057051
-0.00545228773092
-0.00113756376645
-0.00530146942532
-0.00114890880943
-0.00514978501137
-0.00115789884487
-0.00499750712885
-0.00116466172326
-0.0048448929644
-0.00116931997465
-0.00469218513615
-0.00117199074653
-0.00453961278323
-0.00117278616799
-0.00438739229068
-0.00117181365342
-0.00423572814488
-0.00116917658303
-0.00408481338558
-0.00116497487339
-0.00393483013698
-0.00115930584501
-0.00378594973201
-0.00115226491357
-0.00363833289434
-0.00114394648232
-0.0034921295495
-0.00113444459422
-0.00334747870283
-0.00112385369256
-0.00320450801482
-0.00111226909667
-0.00306333347291
-0.00109978751344
-0.00292405884733
-0.00108650725182
-0.00278677527988
-0.00107252843032
-0.00265156074529
-0.00105795290929
-0.00251847967498
-0.00104288420149
-0.00238758252983
-0.00102742715784
-0.00225890554899
-0.00101168763657
-0.00213247050539
-0.000995772011474
-0.00200828463321
-0.000979786677726
-0.00188634059945
-0.000963837462074
-0.00176661662941
-0.00094802904411
-0.00164907669752
-0.000932464339322
-0.00153367084625
-0.00091724390205
-0.00142033557799
-0.00090246533654
-0.00130899434865
-0.000888222732246
-0.0011995581302
-0.000874606143134
-0.00109192605054
-0.000861701093878
-0.00098598609808
-0.000849588159349
-0.000881615887297
-0.00083834257294
-0.000778683488349
-0.000828033922177
-0.000677048420834
-0.000818725925653
-0.000576562755651
-0.000810476134959
-0.000477072102463
-0.000803335634902
-0.000378418135561
-0.000797348664439
-0.000280442162826
-0.000792539273742
-0.000183011451347
-0.000788704570557
-8.64899655228e-05
-0.000781822277365
-0.000700892341943
-0.000466956678418
0.00372054346998
-0.000983322140286
0.0041205988476
-0.00149542748809
0.00409883285303
-0.00199687225282
0.00403147247156
-0.00248429871216
0.00394158667102
-0.00295493263842
0.00383243496255
-0.0034064837005
0.00370640882024
-0.0038371491453
0.00356598488873
-0.00424559762279
0.00341366875571
-0.00463093175837
0.00325189745355
-0.00499263629693
0.00308296051906
-0.00533051837374
0.0029089447269
-0.00564464615025
0.00273170145954
-0.00593529012956
0.00255283418444
-0.00620287065521
0.00237370174596
-0.00644791304303
0.00219543353127
-0.00667101137178
0.00201895206487
-0.00687280038587
0.00184499988583
-0.00705393515024
0.00167416754327
-0.00721507705397
0.00150692101637
-0.00735688536678
0.00134362679595
-0.00748001283654
0.0011845741021
-0.00758510457002
0.00102999344659
-0.00767279888209
0.000880071697405
-0.00774372953653
0.000734963441765
-0.00779852836281
0.000594799185005
-0.00783782791118
0.000459690574369
-0.00786226350414
0.000329733384329
-0.007872474625
0.000205008666152
-0.00786910536679
8.5582740753e-05
-0.00785280375893
-2.84937059102e-05
-0.00782422158069
-0.000137185981857
-0.00778401201275
-0.000240476440676
-0.00773282769197
-0.000338365615066
-0.00767131836436
-0.000430872547825
-0.00760012838368
-0.000518034872132
-0.00751989413654
-0.000599908529508