/*--------------------------------*- C++ -*----------------------------------*\
| =========                 |                                                 |
| \\      /  F ield         | OpenFOAM: The Open Source CFD Toolbox           |
|  \\    /   O peration     | Version:  v1906                                 |
|   \\  /    A nd           | Web:      www.OpenFOAM.com                      |
|    \\/     M anipulation  |                                                 |
\*---------------------------------------------------------------------------*/
FoamFile
{
    version     2.0;
    format      ascii;
    class       volScalarField;
    location    "527";
    object      pa;
}
// * * * * * * * * * * * * * * * * * * * * * * * * * * * * * * * * * * * * * //

dimensions      [0 2 -2 0 0 0 0];


internalField   nonuniform List<scalar> 
9216
(
916.161873713
915.856028952
915.223305893
914.258207196
912.966137865
911.353162857
909.42681979
907.196024405
904.670901427
901.862692941
898.783580096
895.446595426
891.865432833
888.054370468
884.028077838
879.801557699
875.389957652
870.808536882
866.07248686
861.196925606
856.1967293
851.08655409
845.880678365
840.593050107
835.23713826
829.826002676
824.372152689
818.887636399
813.38390468
807.871916825
802.362008398
796.864012443
791.387130543
785.940061554
780.530876769
775.167160923
769.855888146
764.60356952
759.416131072
754.299066845
749.257318398
744.295431714
739.417438024
734.627012958
729.927358525
725.321363115
720.811484545
716.399909559
712.088437793
707.878639601
703.771740883
699.768778105
695.870483911
692.077438421
688.3899557
684.808230507
681.332225734
677.961814053
674.696666635
671.536389239
668.480412623
665.528122864
662.678754046
659.931512671
657.285473259
654.73969686
652.293130308
649.944718819
647.693309602
645.537758566
643.476839012
641.509342356
639.633992513
637.849540516
636.154685167
634.548161271
633.028666997
631.594945421
630.24571897
628.979763833
627.795851765
626.692816903
625.669505139
624.724832811
623.857743732
623.06725917
622.352442413
621.712439068
621.146448088
620.653749488
620.233675377
619.885610915
619.608926365
619.402796679
619.263913229
619.207900031
916.466704437
916.15913071
915.524761915
914.555305734
913.257032033
911.636286601
909.700780273
907.459566664
904.92291787
902.102212813
899.009786099
895.658808107
892.063125537
888.237146198
884.195682674
879.953851268
875.526926513
870.930260266
866.179151516
861.288788359
856.274134594
851.149894579
845.930415846
840.629674923
835.261193886
829.83804432
824.372775342
818.87743279
813.363496495
807.841912215
802.323036667
796.816678789
791.332051205
785.877822532
780.462072376
775.092349275
769.775630766
764.518387297
759.326545271
754.205555148
749.160356927
744.195451248
739.314866693
734.522232786
729.820748549
725.213256395
720.702211436
716.289755321
711.977685819
707.767529744
703.660512398
699.657628784
695.759612562
691.967004893
688.280122649
684.699124373
681.223977624
677.854521711
674.590434213
671.431290317
668.376528706
665.425507504
662.577469882
659.83159672
657.186972383
654.642634322
652.197539525
649.850611296
647.600706895
645.446661731
643.387258676
641.421269822
639.547427894
637.764465656
636.071089734
634.466017667
632.947954354
631.515626646
630.167762558
628.903123199
627.720484804
626.618667748
625.596521389
624.652949865
623.78689966
622.997381861
622.28346231
621.644279924
621.079039291
620.58702517
620.167599269
619.820218422
619.544460258
619.340144813
619.207758264
619.151842752
917.100844683
916.788540128
916.148411482
915.170253537
913.860436585
912.225441086
910.273174019
908.012906554
905.455150884
902.611532117
899.494643467
896.11790846
892.495430671
888.641859249
884.572245298
880.301920623
875.84636872
871.221122827
866.441655847
861.52330028
856.481158197
851.330042771
846.084406998
840.758304599
835.365334828
829.918619702
824.430761976
818.913835749
813.379355083
807.838275622
802.300971988
796.77724813
791.276322308
785.806845313
780.376890733
774.993979358
769.665074381
764.396610708
759.194493823
754.064132765
749.01044177
744.037875913
739.150434732
734.351699612
729.644838665
725.032645031
720.51754236
716.101623229
711.786654593
707.574115606
703.465202475
699.460865006
695.56181036
691.768537779
688.081340875
684.500340101
681.025483329
677.656575837
674.393279126
671.235138339
668.18157942
665.23193409
662.385435618
659.641241577
656.998428606
654.456013284
652.012946323
649.668131918
647.420421805
645.268633434
643.21154431
641.247909248
639.376455312
637.595898357
635.904938799
634.3022775
632.786612508
631.356654276
630.01112339
628.748765024
627.56834761
626.468676355
625.448592761
624.506986992
623.642798109
622.855025096
622.142727712
621.505036108
620.941152548
620.450360431
620.032029316
619.685629331
619.410751701
619.207168178
619.075117242
619.013071227
918.075734067
917.757983798
917.108854624
916.117103164
914.789294969
913.13214117
911.153843375
908.864009122
906.273519323
903.394386009
900.23960174
896.822989014
893.159046804
889.262804509
885.149678085
880.835338813
876.335587142
871.666242336
866.843038145
861.881535586
856.797041038
851.604541289
846.318642026
840.953522242
835.522889723
830.039951208
824.517381417
818.967305753
813.401280148
807.830283957
802.264708685
796.714359394
791.188451264
785.695617144
780.243910231
774.84081838
769.493271257
764.207659104
758.989843716
753.845180644
748.778532997
743.794296135
738.896413461
734.08840276
729.373373229
724.75405269
720.232805149
715.811658152
711.492320189
707.2762075
703.164460696
699.157970365
695.257392352
691.463171626
687.775555771
684.19461672
680.72026217
677.352254965
674.090222341
670.933672929
667.882003931
664.934515898
662.0904181
659.348841385
656.708842121
654.169413541
651.729488701
649.387950728
647.143635256
644.995339969
642.94182691
640.981831657
639.114065799
637.337225977
635.649996731
634.051059507
632.539095975
631.112797008
629.770866452
628.512029996
627.335039306
626.238680644
625.221779219
624.283207369
623.421888997
622.636807159
621.927008501
621.291610272
620.729804977
620.24086748
619.824161321
619.479147816
619.205396979
619.002606328
618.870855731
618.807556427
919.395404543
919.070650659
918.409218998
917.398851849
916.046413737
914.358952405
912.345078787
910.014866414
907.379704514
904.45214005
901.245714713
897.774800923
894.054438856
890.10017978
885.927936153
881.553842903
876.994128826
872.265001772
867.382545151
862.362628756
857.220830256
851.972369925
846.632054077
841.214229742
835.732745624
830.200922237
824.63152623
819.036752387
813.428208378
807.816906313
802.213256135
796.627065399
791.067540585
785.543291847
780.062340828
774.632132693
769.259547822
763.950918142
758.712042573
753.548206628
748.464200606
743.464341558
738.552493412
733.732090496
729.006158846
724.377340567
719.847915607
715.419826231
711.094698563
706.873866475
702.75839223
698.749089121
694.846540595
691.051121092
687.363013164
683.782226086
680.308610656
676.941875359
673.681598752
670.527243169
667.478164788
664.533625085
661.692798887
658.954783922
656.318607275
653.783233506
651.347570004
649.010474147
646.770758039
644.627195169
642.578524954
640.623459258
638.760687052
636.988881046
635.306702667
633.712808911
632.205857716
630.784515043
629.447460597
628.193395058
627.021046022
625.929175223
624.916584539
623.982123014
623.124692753
622.343255598
621.636838794
621.004541262
620.44553912
619.959091661
619.544547014
619.201347876
618.929035363
618.727253423
618.596013878
618.53254392
921.066502525
920.732888603
920.055699699
919.021450867
917.637416027
915.911096817
913.851644346
911.469742818
908.777444285
905.78799152
902.51563776
898.975466382
895.183214322
891.155103149
886.907679995
882.457671016
877.821848147
873.016910713
868.059381362
862.96551687
857.751232179
852.432037474
847.02298589
841.538631427
835.992994473
830.399534826
824.771129955
819.12005901
813.457990735
807.795976299
802.144445393
796.513206972
790.91145323
785.347764304
779.830119204
774.365908254
768.961947088
763.624493379
758.359264418
753.171456934
748.065767288
743.046413511
738.117157335
733.281327705
728.541843932
723.901239982
719.361688049
714.925022905
710.592765186
706.366145074
702.246124586
698.233419895
694.328521949
690.531716828
686.843104151
683.262615014
679.790027839
676.424983656
673.166999293
670.015480002
666.969730123
664.028963309
661.192310997
658.458830655
655.827512558
653.297286586
650.86702786
648.535562648
646.301673405
644.164104299
642.121566111
640.172741786
638.31629153
636.550858648
634.875075042
633.287567446
631.786963381
630.371897786
629.041019361
627.79299748
626.626528775
625.54034415
624.533215407
623.603962155
622.751458268
621.974638496
621.272504595
620.644131484
620.088672891
619.605366904
619.193540886
618.852615009
618.582104569
618.381622237
618.251151137
618.187946082
923.097465912
922.752934351
922.056294222
920.992551651
919.569507216
917.795245966
915.679607463
913.234049794
910.471460892
907.4059575
904.052682751
900.427605777
896.547327788
892.42889848
888.089645382
883.54701841
878.818450757
873.921237045
868.872428531
863.688745037
858.386502198
852.981552669
847.489239132
841.924357308
836.30112686
830.633168786
824.933487916
819.214459938
813.487822348
807.764669319
802.05545035
796.369972666
790.717407313
785.10629516
779.544560517
774.039524832
768.597922724
763.225919952
757.929132796
752.71264888
747.581048989
742.538429952
737.588428162
732.734243854
727.978665672
723.324095677
718.772574284
714.325805288
709.985180445
705.751803762
701.626514955
697.609912248
693.702373985
689.904079248
686.215027022
682.63505413
679.163851552
675.800979426
672.545880408
669.397891763
666.356255937
663.420130037
660.588594022
657.860658085
655.235269038
652.711316214
650.287636702
647.963020403
645.736214741
643.605929453
641.570841285
639.629598963
637.780828245
636.023137352
634.35512257
632.775374255
631.282483022
629.875046296
628.551674994
627.311000467
626.151681497
625.072411414
624.071925161
623.149006344
622.302494117
621.53128993
620.834363995
620.21076148
619.659608328
619.180116476
618.771588485
618.433421012
618.165106155
617.966234808
617.836776756
617.774067886
925.49868057
925.140973516
924.420882585
923.321587462
921.851547484
920.019579372
917.836381661
915.314373102
912.467473975
909.310875028
905.860807573
902.134318516
898.14905546
893.923065651
889.474611625
884.822005541
879.983463434
874.976979928
869.820223169
864.530449102
859.124433359
853.618418613
848.028074653
842.36846857
836.654042366
830.89859616
825.115275411
819.316561694
813.514266596
807.719529027
801.942816622
796.193929503
790.482008756
784.815545074
779.202394206
773.649792938
768.164377092
762.752201333
757.418760243
752.169010696
747.007395121
741.937865752
736.963909461
732.088573293
727.314490307
722.643905783
718.078703407
713.620431463
709.270328602
705.02934922
700.89818799
696.877303585
692.966941158
689.167153627
685.477821421
681.898670747
678.429290142
675.069145449
671.81759305
668.67389159
665.63721212
662.706646936
659.881217125
657.159879131
654.541530393
652.025014378
649.609125072
647.292611234
645.074180454
642.952503285
640.926217458
638.993932394
637.154233962
635.405689674
633.74685419
632.176275283
630.692500114
629.294081907
627.979586846
626.747601278
625.596739005
624.525648738
623.533021499
622.61759804
621.778176053
621.013617252
620.322854112
619.704896313
619.158836638
618.683856403
618.279230094
617.94432845
617.678621298
617.481682502
617.353468619
617.291412463
928.28265999
927.90928586
927.161364336
926.019897046
924.494157769
922.593869248
920.33078878
917.718512729
914.772219523
911.508401232
907.944599909
904.099153213
899.990954601
895.639232046
891.063347885
886.282621751
881.316177572
876.182815091
870.900905397
865.488309172
859.962315391
854.339597378
848.636182633
842.867432591
837.048028991
831.191964158
825.312533783
819.422331565
813.533246117
807.656460511
801.802456345
795.981019271
790.201249757
784.471574745
778.799765645
773.192956705
767.657665447
762.199814463
756.824754504
751.53728848
746.341696431
741.24176118
736.240794721
731.34166509
726.546823697
721.858332866
717.277893499
712.806872586
708.446330426
704.197047246
700.059549065
696.03413249
692.120888278
688.319723402
684.630381514
681.052461601
677.585434813
674.228659385
670.981393711
667.842807594
664.811991838
661.887966299
659.0696866
656.356049716
653.745898652
651.238026443
648.831179698
646.524061903
644.315336668
642.20363109
640.187539375
638.265626818
636.436434232
634.698482857
633.050279789
631.490323904
630.01711227
628.629146964
627.324942288
626.103032246
624.961978258
623.900376971
622.916868136
622.010142397
621.178948973
620.422103088
619.738493109
619.12708726
618.586939884
618.117196941
617.717100943
617.385994975
617.123325173
616.928646617
616.801902114
616.740630051
931.464254594
931.072437467
930.291834341
929.100879638
927.509849029
925.529581132
923.17312994
920.45552483
917.393464868
914.005004083
910.309247142
906.326060169
902.075802213
897.579080898
892.856534657
887.928643088
882.815566372
877.537014015
872.112142284
866.559478662
860.896870306
855.141452407
849.309631321
843.417077318
837.478722112
831.508757902
825.520636093
819.527065814
813.540013126
807.570702484
801.629622916
795.726536002
789.870488025
784.069826238
778.332219359
772.664679008
767.073582713
761.564698181
756.143208387
750.813737529
745.580377632
740.446715903
735.415862617
730.490479615
725.672809144
720.964703035
716.367651915
711.88281438
707.511045761
703.252926358
699.108788746
695.07874398
691.162706342
687.360416459
683.671462514
680.09529947
676.631266122
673.278600027
670.036450266
666.903888188
663.879916227
660.963475039
658.153449127
655.448671267
652.847925962
650.349952221
647.953445915
645.657061971
643.459416603
641.359089808
639.354628244
637.444548648
635.627341828
633.901477331
632.265408742
630.717579647
629.256430167
627.88040406
626.587956237
625.377560684
624.247718599
623.196966738
622.223885762
621.327108584
620.505328512
619.757307193
619.081882167
618.477974027
617.944592962
617.48084478
617.08593617
616.759178556
616.499992238
616.307912977
616.182864233
616.122498771
935.06090623
934.647518331
933.828799909
932.580182948
930.913175956
928.839990288
926.375264245
923.535764457
920.340018472
916.807943323
912.960492712
908.819327702
904.406515689
899.744260603
894.854665836
889.759531125
884.480184108
879.037346926
873.451037283
867.740502013
861.924179416
856.019684728
850.043811742
844.012542978
837.941061807
831.8437618
825.734251698
819.625356715
813.529118909
807.456799268
801.418885464
795.425102543
789.484426131
783.605104717
777.794683175
772.06002763
766.407351656
760.842243063
755.369691312
749.994115327
744.71939195
739.548884901
734.485474407
729.531587291
724.689227603
719.960007484
715.345178252
710.845661352
706.462079041
702.194784396
698.043890442
694.009297946
690.090721668
686.287714661
682.599690469
679.025942931
675.565663571
672.217956442
668.981850552
665.8563099
662.840241377
659.932500723
657.131896842
654.437194779
651.847117695
649.360348149
646.97552903
644.691264408
642.506120579
640.418627509
638.427280883
636.530544839
634.726855522
633.014625458
631.392248773
629.858107201
628.410576856
627.048035625
625.768871154
624.571489237
623.454322566
622.415839621
621.454553692
620.569031788
619.757903429
619.019869122
618.353708487
617.758287864
617.232567417
616.775607388
616.386573828
616.064743576
615.809507634
615.62037793
615.497257151
615.437921456
939.092961914
938.654438156
937.79144746
936.475931079
934.720919149
932.540315461
929.95069476
926.970926888
923.621731516
919.925237781
915.904575009
911.583498123
906.986051268
902.136270667
897.057927118
891.77430855
886.308043463
880.680966024
874.914022738
869.027218887
863.039600178
856.969262218
850.833377754
844.648230803
838.429247669
832.191018555
825.947307905
819.711056403
813.494379638
807.308569023
801.164099705
795.070644574
789.037088425
783.071558357
777.181450684
771.373460213
765.653609865
760.02728039
754.499239942
749.073673904
743.754214991
738.543973977
733.445570952
728.461167261
723.592497896
718.840904372
714.207367763
709.692541818
705.296785731
701.020196364
696.862639408
692.823779201
688.90310668
685.099965203
681.413573837
677.843047945
674.387416875
671.045638754
667.816612392
664.6991865
661.692166383
658.794318481
656.004373037
653.321025319
650.742935773
648.268729518
645.896995538
643.626285953
641.455115633
639.381962453
637.405268332
635.52344126
633.734858317
632.037869796
630.430804337
628.911975084
627.479686717
626.132243318
624.86795685
623.685156227
622.582196698
621.557469524
620.609411675
619.736515533
618.937338343
618.210511409
617.554748802
616.968855608
616.451735436
616.002397383
615.619962155
615.303666776
615.052869622
614.867057398
614.746106074
614.687924941
943.584063392
943.116290293
942.201968986
940.808998254
938.952298366
936.647869279
933.914658474
930.774082862
927.249485583
923.365613387
919.148143061
914.62325803
909.817275074
904.75631937
899.466045905
893.97140698
888.296466859
882.46426557
876.496733206
870.414653715
864.237673261
857.984343229
851.672183729
845.317750928
838.936693286
832.543786997
826.152949549
819.777237476
813.428838535
807.119067991
800.858375655
794.656361692
788.521795841
782.462656472
776.486162544
770.598808095
764.80639596
759.114070259
753.526348195
748.047151487
742.67983816
737.427234787
732.291669546
727.275005912
722.378677104
717.603720985
712.950815424
708.420313728
704.012279958
699.726523631
695.562633429
691.520009329
687.597892727
683.795394002
680.111517206
676.545181508
673.095239289
669.760490772
666.539695326
663.431579569
660.434842628
657.548158866
654.770178556
652.099526939
649.534802176
647.074572655
644.717374128
642.461707073
640.306034649
638.248781534
636.288333863
634.423040403
632.651215071
630.971140763
629.381074507
627.879253804
626.46390409
625.133247121
623.885510182
622.718935884
621.631792432
620.622384127
619.689061999
618.830234319
618.044376943
617.330043234
616.685873557
616.110604117
615.603075201
615.162238435
614.787163447
614.477043781
614.231200856
614.049090873
613.930562134
613.873666272
948.561633135
948.059804529
947.085961034
945.60333629
943.629218893
941.182222855
938.28421484
934.959700427
931.235158901
927.138424346
922.698142274
917.943296585
912.902800961
907.605147441
902.078107123
896.3484815
890.441906618
884.38271455
878.19385659
871.896889566
865.512020525
859.058197169
852.553223202
846.013873255
839.455983139
832.894500713
826.343496916
819.8161503
813.324723522
806.880551462
800.494041923
794.174695757
787.93113857
781.771166413
775.701786783
769.729259605
763.85913514
758.096289224
752.444956588
746.90876365
741.490761462
736.193459506
731.018860351
725.968495327
721.043460973
716.244456302
711.571820574
707.025571493
702.605443348
698.310924757
694.141295325
690.095660684
686.17298516
682.372121553
678.691837448
675.130837756
671.687783204
668.361304786
665.150014221
662.052510721
659.067384381
656.193216724
653.428578873
650.772027993
648.222102539
645.77731695
643.436156293
641.197071385
639.05847478
637.018737991
635.076190147
633.22911829
631.47576931
629.814353587
628.24305018
626.760013531
625.363381427
624.051284153
622.821854501
621.673238568
620.603606998
619.611166568
618.694171827
617.850936674
617.079845622
616.379364684
615.748051644
615.184565703
614.687676251
614.256270948
613.889362825
613.586095818
613.345750495
613.167751043
613.051911928
612.996436532
954.057486789
953.51591009
952.472913932
950.886364182
948.776551766
946.165379183
943.078323566
939.543642852
935.591560447
931.25353814
926.561661979
921.54812482
916.244788649
910.682811433
904.892328367
898.9021851
892.739727332
886.430656111
879.998959189
873.466924839
866.855235625
860.183126105
853.468574361
846.728486806
839.978836457
833.234729524
826.51040247
819.819175933
813.173400569
806.584427562
800.062603006
793.617295482
787.256946986
780.989129565
774.820598947
768.757343112
762.804624602
756.967017445
751.248441156
745.652193801
740.180985804
734.836974897
729.621802535
724.536631454
719.582184408
714.758783797
710.066392244
705.504653766
701.072935322
696.770368058
692.595887651
688.548272801
684.626181122
680.828181558
677.152782755
673.598456843
670.163658443
666.846838773
663.646455076
660.560975629
657.58888086
654.728661126
651.978811856
649.337826735
646.804189721
644.376366536
642.052796363
639.831884281
637.711994975
635.691448076
633.768515415
631.941420333
630.208339092
628.567404343
627.016710529
625.554321048
624.17827697
622.886607063
621.677338917
620.548510852
619.498184433
618.52445726
617.625475895
616.799448579
616.044657683
615.359471576
614.74235589
614.191883933
613.706746328
613.285759448
612.927873105
612.632177385
612.397907091
612.224448603
612.111581829
612.057670303
960.108612634
959.520445625
958.396813337
956.689429425
954.422445268
951.621944386
948.317896704
944.543126546
940.332317725
935.721172412
930.745735661
925.441848509
919.844695715
913.988420101
907.905786872
901.627894568
895.18394153
888.601065734
881.904278829
875.116511016
868.258769808
861.350394418
854.409361453
847.452576761
840.496084207
833.55514664
826.644205227
819.776771091
812.965314242
806.221202389
799.554693907
792.97497885
786.490261684
780.107837758
773.834162843
767.67491078
761.635019083
755.718725775
749.929601788
744.270583105
738.744004531
733.351635831
728.094719799
722.97401201
717.989821794
713.142054521
708.43025504
703.853652329
699.411204873
695.101646243
690.923529825
686.875271699
682.955190443
679.161542901
675.492555008
671.946447146
668.521453645
665.215836476
662.027893264
658.955960123
655.998409877
653.153646437
650.42009617
647.796197147
645.280387167
642.871091438
640.566710699
638.36561051
636.266112277
634.266486467
632.364948279
630.559655949
628.848711647
627.230164929
625.702018476
624.262235973
622.908751754
621.639482025
620.452337255
619.345235551
618.316116595
617.362955975
616.483779511
615.676677436
614.939818079
614.271460985
613.669969178
613.133820569
612.661618221
612.252099723
611.904145335
611.616784356
611.389201485
611.220743684
611.111149717
611.058951675
966.758178999
966.115060778
964.896884109
963.04834936
960.598658676
957.579276848
954.025800542
949.976615889
945.471698811
940.551669719
935.257084076
929.627887982
923.702977687
917.519817399
911.11408995
904.519377136
897.766886483
890.885256182
883.900477322
876.835968204
869.712817395
862.550177666
855.365747582
848.176233527
840.997669035
833.845504217
826.734480518
819.678400449
812.689915437
805.780415327
798.960027137
792.237692684
785.621304103
779.117811553
772.733313596
766.473123808
760.341817214
754.343262644
748.480650073
742.756519481
737.172794148
731.730817877
726.431395266
721.274833751
716.260987093
711.389300173
706.658855588
702.06842199
697.616504079
693.301393305
689.121218168
685.073992498
681.157660278
677.370135512
673.709336163
670.17321132
666.75976132
663.467050741
660.293214648
657.236458596
654.295053255
651.467324533
648.751640305
646.146394814
643.649991865
641.260827871
638.977275723
636.79767034
634.72029658
632.743380028
630.865080953
629.083491581
627.396636595
625.802476721
624.298915076
622.883805996
621.554965946
620.310186173
619.147246748
618.063931612
617.058044333
616.127424139
615.269962031
614.483616512
613.766428852
613.116537478
612.532191488
612.011762981
611.553758334
611.156827951
610.819775026
610.541563297
610.321321909
610.158352119
610.052350885
610.002026006
974.056857324
973.348380953
972.018514715
970.004037534
967.340896608
964.06757826
960.226768875
955.863620995
951.024343692
945.755193913
940.101792638
934.108640486
927.818733154
921.273207103
914.510979939
907.568384305
900.478824708
893.27251116
885.976337641
878.613972837
871.206207246
863.771549403
856.32698424
848.888717871
841.472682281
834.094619729
826.769777488
819.512444832
812.335566068
805.25055661
798.267330136
791.394471111
784.639450357
778.008783579
771.508145059
765.142440683
758.915848902
752.831840862
746.893196093
741.10202548
735.45980375
729.967408875
724.625165302
719.432889004
714.38993328
709.495236031
704.747369262
700.144591568
695.684903367
691.36610406
687.185849255
683.141706055
679.231204148
675.451880958
671.801319339
668.277176998
664.877207179
661.59927073
658.441339952
655.401495046
652.477914164
649.668858268
646.972652108
644.387662691
641.912276583
639.544877359
637.283824375
635.127433891
633.073963369
631.12159952
629.268450428
627.512541829
625.851817387
624.284142699
622.807312557
621.419061099
620.117074308
618.899004512
617.762486353
616.705153954
615.724658717
614.818687522
613.984980774
613.221350111
612.525695303
611.896020252
611.330447732
610.827232909
610.384775318
610.001629621
609.676514812
609.408321373
609.196118161
609.039159003
608.937092017
608.888807816
982.06459659
981.277533435
979.814413218
977.603209015
974.689098384
971.119864589
966.947166915
962.224350651
957.004873049
951.341331938
945.284918018
938.885086497
932.189296123
925.242717541
918.087864933
910.764155101
903.307442909
895.74961878
888.118381252
880.437305844
872.726309409
865.002536449
857.281561453
849.578621977
841.90946004
834.290372149
826.737527779
819.266064584
811.889401014
804.61895587
797.464274416
790.43339737
783.533214219
776.769691672
770.148005244
763.672609792
757.347264051
751.175023421
745.158233565
739.298544207
733.596942899
728.053799007
722.668912147
717.441560919
712.37055085
707.454263191
702.690706996
698.077575712
693.612308751
689.292156628
685.114247279
681.075650321
677.173436347
673.404728648
669.766745661
666.256832975
662.872484608
659.611353637
656.471252954
653.450147098
650.546136583
647.75743616
645.08234872
642.519236463
640.066491035
637.722504196
635.485640478
633.354213075
631.326463937
629.400548764
627.5745272
625.846358267
624.213900698
622.674917755
621.227085857
619.868006494
618.595220773
617.406226145
616.298494786
615.269493188
614.316702527
613.437639258
612.629875617
611.891059433
611.2189331
610.611351198
610.066296765
609.581895879
609.156430738
608.788350771
608.476282418
608.219037666
608.015619189
607.865226709
607.767458846
607.721394726
990.853055294
989.97019122
988.346060568
985.899133702
982.687592066
978.771710345
974.214513039
969.079153869
963.427337216
957.318587841
950.810027822
943.956352087
936.80978797
929.419911751
921.833267877
914.092806048
906.23721158
898.300258577
890.310362143
882.290537665
874.258967963
866.230293837
858.217534817
850.234196106
842.295771017
834.41969902
826.623887511
818.924971981
811.337112766
803.871634135
796.5374006
789.341579559
782.290249284
775.388690016
768.641504312
762.052668121
755.625521527
749.362706778
743.266121549
737.336922485
731.575567276
725.981869298
720.55505488
715.293817161
710.196364615
705.260469595
700.483521497
695.862587398
691.394481018
687.075838387
682.903196084
678.873067527
674.982012821
671.226698951
667.603947961
664.110772049
660.744395188
657.502261751
654.382033077
651.381573436
648.498927082
645.732288335
643.079966714
640.540349166
638.111861463
635.792930647
633.581950352
631.477250468
629.477072392
627.579550609
625.782700965
624.084415503
622.48246335
620.974496893
619.558062389
618.23061421
616.989531943
615.832139865
614.755728135
613.757575375
612.834971935
611.985243498
611.205774271
610.494029459
609.847576396
609.264104184
608.741441455
608.277572273
607.870649944
607.519009094
607.22117578
606.975875212
606.782038909
606.638810718
606.545732422
606.502077326
1000.50901805
999.50737253
997.685547993
994.952349343
991.384938249
987.060587723
982.056618379
976.447662792
970.304465848
963.69376666
956.678694196
949.3192585
941.672658436
933.793260373
925.732191119
917.536578487
909.248549326
900.904166085
892.532560616
884.155600566
875.788470279
867.441484717
859.123167666
850.843964771
842.619146934
834.468564941
826.413436829
818.473031078
810.662622222
802.993119506
795.472058304
788.105162272
780.89738808
773.853189899
766.976541739
760.270946432
753.739375438
747.384097451
741.206560176
735.207389753
729.386462
723.742978436
718.275538798
712.982201319
707.860528061
702.907628661
698.120212125
693.494650487
689.027056997
684.713375863
680.549476997
676.53124842
672.654680093
668.915934713
665.311402942
661.837741841
658.491896534
655.271105803
652.172893139
649.19504508
646.335579143
643.592703671
640.964772173
638.450234585
636.047587994
633.755329126
631.571910806
629.495704245
627.52496863
625.657828998
623.892262659
622.226093959
620.65699639
619.182501024
617.800009852
616.506813103
615.300109494
614.177028963
613.134657221
612.170061755
611.280318665
610.462539651
609.713898589
609.03165688
608.413187287
607.855995619
607.357740279
606.916249321
606.529535331
606.195807706
605.913483155
605.681194629
605.497796394
605.362369634
605.274398709
605.233355277
1011.13930846
1009.98739405
1007.91791314
1004.83111751
1000.8331297
996.024505216
990.500142936
984.34753032
977.646687862
970.471269588
962.889992586
954.967920995
946.767272517
938.347615315
929.765402578
921.072907934
912.316709256
903.53595211
894.760738498
886.011145301
877.297550092
868.623008296
859.98814491
851.397862957
842.867430513
834.421825609
826.088586906
817.891566979
809.847561127
801.966214706
794.252402263
786.709415738
779.340744345
772.149946357
765.140360125
758.315079118
751.676850441
745.227674325
738.968555831
732.899531562
727.019822842
721.32794898
715.821823264
710.498821531
705.355813667
700.389193943
695.594926776
690.968611617
686.505572765
682.200969426
678.049913724
674.047585443
670.189334124
666.47076324
662.887793607
659.436705353
656.114158817
652.917195779
649.843223052
646.88998106
644.055500205
641.338048049
638.736070321
636.248128782
633.872838922
631.608810333
629.454592471
627.408628085
625.469216261
623.634486193
621.90238213
620.270658786
618.736885901
617.298460041
615.952621839
614.696477182
613.527021316
612.441165331
611.435764574
610.507648701
609.653652612