/*--------------------------------*- C++ -*----------------------------------*\
| =========                 |                                                 |
| \\      /  F ield         | OpenFOAM: The Open Source CFD Toolbox           |
|  \\    /   O peration     | Version:  v1906                                 |
|   \\  /    A nd           | Web:      www.OpenFOAM.com                      |
|    \\/     M anipulation  |                                                 |
\*---------------------------------------------------------------------------*/
FoamFile
{
    version     2.0;
    format      ascii;
    class       volScalarField;
    location    "853";
    object      pa;
}
// * * * * * * * * * * * * * * * * * * * * * * * * * * * * * * * * * * * * * //

dimensions      [0 2 -2 0 0 0 0];


internalField   nonuniform List<scalar> 
9216
(
914.849698151
914.544300393
913.912511632
912.948843726
911.658708034
910.048164716
908.124761785
905.897408065
903.376240607
900.572491691
897.498355905
894.166852231
890.591688341
886.787124369
882.767843256
878.548824771
874.145229174
869.572287497
864.845202849
859.979059972
854.988745653
849.888877954
844.693744954
839.417252211
834.07287771
828.673635185
823.232042653
817.760099088
812.269264053
806.77044545
801.273987854
795.78967133
790.326707108
784.893740196
779.49885242
774.149574372
768.852891784
763.615261827
758.442623283
753.340416925
748.313598289
743.36666109
738.503651717
733.728194783
729.043508591
724.452431976
719.957440053
715.560671581
711.263944379
707.068782479
702.976430661
698.987880751
695.103884802
691.324979996
687.651500127
684.083598675
680.621258402
677.26431234
674.012451444
670.865243413
667.822138511
664.882486289
662.04553983
659.310470567
656.676371308
654.142269436
651.707129125
649.369863251
647.129335202
644.984369835
642.93375524
640.976253025
639.110600326
637.335519631
635.649721224
634.051912674
632.54080181
631.115105908
629.773555191
628.514901678
627.337923117
626.241431394
625.224276741
624.285355545
623.423614603
622.638058099
621.927751551
621.291827479
620.729488149
620.240008176
619.822731952
619.477063981
619.202435926
618.998189166
618.862261531
618.803409608
915.154104767
914.846978648
914.213540611
913.245514765
911.949172686
910.330859507
908.398291515
906.160521269
903.627826948
900.811584942
897.724135659
894.378644574
890.788963075
886.969490937
882.935043662
878.700725866
874.281812811
869.693640765
864.951507077
860.070580363
855.065820466
849.951908609
844.743186276
839.45360362
834.096674937
828.685442725
823.232447027
817.749702477
812.248679013
806.740289689
801.234880965
795.742228158
790.271533694
784.831432226
779.429993626
774.074732603
768.772617697
763.530086054
758.353056038
753.246945648
748.21668795
743.266752205
738.401161248
733.623514468
728.937006356
724.344450535
719.848298771
715.450665308
711.153345691
706.957840721
702.865374485
698.876917337
694.993202612
691.214748118
687.541871158
683.974708143
680.513227669
677.157248045
673.906448338
670.760383764
667.718494792
664.7801205
661.944505968
659.210813846
656.578130363
654.045475441
651.611807708
649.27603352
647.037011384
644.893560239
642.844463636
640.888477594
639.024334811
637.250752316
635.566435903
633.970087706
632.460410947
631.036117465
629.695932772
628.438603495
627.262902646
626.167636874
625.151651792
624.213838868
623.353140625
622.568556961
621.859149978
621.224049501
620.66245734
620.173652071
619.756993781
619.411932817
619.138030238
618.935035801
618.803259637
618.744506777
915.787361804
915.475506923
914.8363063
913.859575645
912.55168563
910.919118306
908.969784301
906.712956565
904.159151054
901.31999377
898.208080805
894.836834726
891.220360214
887.373302808
883.310712259
879.047913563
874.600385989
869.983652506
865.213178768
860.304283548
855.272058747
850.131300579
844.896449236
839.58153864
834.200153038
828.765392321
823.289842532
817.785553886
812.264022574
806.736179183
801.212379829
795.702402759
790.215447566
784.76013925
779.344533051
773.976124299
768.66185848
763.408145713
758.220874672
753.105430553
748.066711878
743.109151016
738.236733004
733.453017772
728.76116021
724.163933321
719.663748805
715.262680423
710.962484418
706.76462242
702.670281078
698.680393895
694.795659534
691.016562075
687.343387568
683.776242334
680.315067499
676.959655136
673.709660671
670.564616844
667.523944066
664.586962332
661.752899764
659.020902754
656.390043032
653.859326406
651.427698757
649.094053772
646.857238281
644.716059365
642.669289392
640.715672823
638.853931238
637.082770074
635.400883824
633.806962834
632.299698764
630.877791481
629.539954763
628.284923233
627.111458215
626.018354592
625.004446659
624.068614735
623.209790842
622.426964889
621.719190011
621.085588254
620.525355651
620.037767909
619.622186746
619.278069097
619.004982372
618.802643776
618.671206414
618.608669624
916.760898271
916.443597392
915.79539249
914.805062984
913.479174879
911.824441979
909.849069493
907.562668133
904.976122388
902.101446763
898.951636281
895.540514152
891.882579714
887.992860447
883.886769858
879.579974098
875.088267929
870.427462015
865.61328106
860.661274035
855.586735056
850.404635666
845.129566411
839.775688262
834.356691461
828.885762481
823.375556648
817.838177446
812.285160151
806.727461137
801.175450557
795.638909958
790.127032954
784.648428922
779.211129823
773.822600478
768.489749961
763.218946245
758.016031462
752.886339909
747.834716162
742.86553552
737.98272411
733.189780953
728.489799291
723.885489522
719.379201022
714.972945242
710.66841733
706.467018711
702.369877866
698.377871765
694.491645241
690.711630739
687.038065835
683.471010921
680.010364565
676.655878933
673.407172881
670.263745099
667.224985023
664.290183868
661.458543611
658.729186227
656.101161122
653.573452968
651.144988031
648.814641047
646.58124087
644.443576813
642.400404008
640.450449541
638.592417831
636.824996811
635.146863497
633.556690359
632.053151164
630.634927547
629.300715113
628.049230144
626.87921585
625.789449082
624.77874657
623.845971464
622.990039387
622.209924634
621.504665896
620.873372067
620.315227729
619.829498929
619.415539288
619.072796957
618.800822828
618.599284477
618.468233475
618.405009174
918.078749509
917.754443775
917.093930841
916.084977794
914.734449959
913.049398711
911.038439235
908.711649361
906.080422597
903.157309545
899.955854937
896.490432971
892.776084517
888.828359813
884.663168883
880.2966422
875.745002575
871.024449735
866.151057462
861.140683815
856.008893384
850.770891401
845.441468041
840.034952455
834.565174676
829.045435082
823.488479728
817.906481629
812.311026574
806.713103901
801.123100986
795.550802134
790.005391076
784.495454868
779.028992794
773.613427452
768.255617573
762.961873364
757.737973089
752.589181635
747.520269841
742.535535397
737.638824084
732.833552225
728.122729089
723.508980156
718.994569985
714.581425575
710.271158994
706.065090145
701.964268482
697.969494535
694.081340091
690.300167921
686.626149945
683.059284742
679.599413383
676.246234512
672.999317729
669.858116247
666.821977933
663.890155728
661.06181665
658.336050335
655.711876415
653.188251653
650.764076178
648.438199707
646.209427118
644.076524213
642.038223057
640.09322765
638.240219349
636.477862705
634.804811162
633.219713193
631.721218345
630.307983687
628.97868016
627.731999253
626.566659544
625.481413442
624.47505373
623.546420201
622.694406002
621.917963966
621.216112611
620.58794206
620.032619666
619.549395587
619.137608196
618.796688982
618.526166555
618.32567164
618.195209085
618.132019959
919.747564979
919.414396906
918.738119206
917.705273487
916.323135371
914.599211111
912.542657191
910.16416339
907.475787226
904.490776394
901.22338822
897.688708947
893.902476972
889.880913608
885.640563963
881.198150172
876.570438235
871.774119469
866.825706634
861.741444626
856.537234801
851.228571963
845.830492427
840.357531849
834.823691154
829.242409475
823.626542849
817.988348127
812.339471334
806.690940379
801.053161598
795.435920266
789.848385102
784.299112834
778.796059493
773.346592621
767.957505674
762.635034492
757.384875273
752.212204104
747.121697533
742.117554297
737.203517709
732.382898852
727.658600063
723.033138888
718.508671981
714.087019105
709.769686725
705.55789135
701.452582107
697.454462723
693.564012425
689.781505955
686.107032255
682.540512064
679.081714043
675.730269719
672.485686944
669.347362191
666.314591477
663.386580266
660.562452186
657.841256963
655.221977428
652.703536011
650.284800592
647.96459011
645.741679812
643.614806484
641.582673557
639.643956374
637.797307492
636.041362255
634.374744493
632.796072531
631.303965337
629.897048967
628.57396311
627.333367849
626.173950457
625.094432292
624.093575634
623.170190501
622.323141297
621.55135333
620.85381907
620.229604192
619.677853288
619.197795278
618.788748348
618.450123853
618.181428873
617.982269798
617.852629657
617.789789614
921.775786889
921.431697974
920.735958671
919.673604399
918.252438324
916.480551486
914.367790281
911.925619988
909.166935612
906.105860386
902.75754296
899.137956618
895.263705081
891.151838655
886.819683434
882.284685728
877.564272935
872.675731675
867.636103079
862.462094769
857.170008257
851.775680266
846.294435908
840.741051856
835.129727437
829.474062204
823.787038632
818.081009321
812.367688145
806.658145284
800.962806043
795.291453307
789.653233907
784.056664785
778.509646658
773.019477794
767.59287014
762.235967343
756.954364213
751.753127566
746.636818107
741.609513304
736.674830965
731.835953481
727.095652441
722.456313581
717.919961759
713.488285913
709.162663668
704.944185547
700.833678454
696.831728385
692.938702061
689.154767464
685.479913014
681.913965421
678.456606027
675.107385718
671.865738305
668.73099253
665.702382657
662.779057867
659.960090466
657.244483174
654.631175527
652.119049679
649.706935651
647.393616284
645.177831956
643.058285272
641.033645762
639.102554759
637.263630454
635.515473247
633.856671359
632.285806781
630.801461484
629.402223941
628.086695848
626.853499073
625.701282705
624.628730208
623.634566559
622.717565343
621.87655572
621.110429202
620.418146187
619.798742184
619.251333666
618.775123474
618.369405619
618.03356894
617.767099631
617.569585599
617.440995794
617.378689746
924.17380698
923.816537815
923.09733414
921.999407563
920.531221537
918.701600407
916.521251501
914.002602807
911.159583729
908.007393485
904.562270693
900.841267993
896.862036795
892.642625971
888.201297336
883.556359881
878.726024009
873.72827627
868.580774395
863.30076166
857.904998947
852.409712237
846.830552898
841.182568022
835.480178292
829.737161335
823.966639228
818.181069411
812.392238851
806.611261485
800.848579844
795.113968832
789.416544548
783.764773042
778.166485854
772.628896017
767.158616209
761.761678561
756.443555846
751.209183844
746.062984695
741.008891107
736.050371271
731.190454335
726.431756297
721.77650615
717.2265721
712.783487675
708.448477533
704.222482738
700.106185325
696.100031927
692.204256269
688.418900376
684.743834319
681.178774411
677.723299765
674.376867194
671.138824455
668.008421906
664.984822646
662.06711129
659.254301512
656.545342546
653.939124806
651.434484856
649.030209873
646.725041829
644.51768152
642.406792622
640.391005874
638.468923508
636.639123992
634.900167144
633.25059963
631.688960876
630.21378935
628.823629202
627.517037208
626.292589958
625.148891225
624.084579438
623.098335184
622.18888866
621.355027001
620.595601402
619.909533968
619.295824212
618.753555131
618.281898756
617.88012109
617.54758595
617.283757881
617.088207467
616.960889846
616.899257176
926.95414645
926.581203834
925.834151492
924.694026811
923.170109294
921.272131558
919.01186214
916.402909254
913.46046305
910.201026516
906.642151242
902.802182527
898.700019198
894.354892039
889.78616348
885.013150447
880.054971372
874.930417782
869.65784994
864.255115261
858.739487169
853.127621379
847.435525898
841.678541047
835.871326016
830.027849431
824.161382317
818.284493036
812.409044355
806.546193262
800.706395127
794.899409414
789.134310665
783.4195004
777.762725059
772.171094537
766.651102623
761.208648939
755.849062008
750.577123365
745.397092491
740.312732544
735.327336704
730.443755089
725.664422033
720.991383651
716.426325438
711.97059979
707.62525315
703.391052628
699.268511793
695.257915453
691.359343153
687.572691231
683.897693209
680.333938441
676.88088889
673.537894029
670.304203868
667.178980195
664.161306119
661.250194101
658.444592626
655.743391759
653.145427779
650.649487135
648.254309937
645.958593208
643.760994071
641.660133055
639.654597646
637.742946214
635.923712371
634.195409838
632.556537812
631.005586867
629.541045323
628.161406073
626.865173783
625.650872411
624.517052943
623.462301282
622.485246179
621.584567127
620.759002118
620.007355192
619.328503673
618.721405024
618.185103237
617.718734678
617.32153329
616.992834776
616.732080035
616.53882115
616.412996832
616.352161655
930.131665876
929.740271269
928.960513968
927.770867913
926.181617004
924.203612476
921.849922759
919.135592374
916.077335359
912.693219712
909.002362347
905.024639327
900.780416908
896.290306882
891.574948672
886.654819627
881.550074512
876.280414344
870.864984029
865.322296984
859.670183854
853.925761058
848.105414214
842.224791089
836.298799437
830.341606257
824.366636839
818.386573488
812.413355046
806.458178524
800.531505484
794.643070135
788.801891844
783.016291482
777.293912014
771.641739952
766.06612851
760.572821873
755.166980389
749.853206512
744.635571479
739.517642629
734.502511344
729.592821488
724.790798278
720.098277397
715.516734213
711.047312876
706.690855084
702.447928232
698.318852706
694.303728016
690.402457516
686.614771463
682.940248204
679.378333341
675.92835677
672.589547561
669.361046708
666.241917827
663.231155962
660.327694674
657.530411657
654.838133106
652.249637148
649.763656564
647.3788811
645.093959589
642.907502138
640.818082534
638.824241064
636.924487844
635.11730676
633.401160043
631.774493532
630.235742563
628.783338493
627.415715758
626.13131941
624.928613037
623.80608697
622.762266663
621.795721149
620.905071463
620.088998927
619.346253193
618.675659958
618.076128264
617.54665729
617.086342564
616.694381548
616.370078241
616.112847024
615.922219001
615.79811327
615.738196339
933.723820195
933.310842863
932.492939621
931.245587182
929.580305115
927.5093211
925.04729189
922.211003442
919.019002346
915.491223349
911.6486357
907.512913129
903.10613237
898.450503043
893.568130469
888.48081256
883.20987149
877.776020499
872.199265174
866.498837299
860.693157432
854.799820682
848.835598565
842.816449499
836.75753117
830.673210239
824.577067563
818.481899858
812.399720299
806.34176093
800.318480463
794.339575312
788.413992998
782.549954631
776.754978386
771.035904524
765.398921592
759.849593339
754.392886106
749.033196737
743.774380991
738.619782567
733.572262676
728.634230169
723.807672094
719.094184577
714.49500382
710.011037054
705.642893129
701.390912512
697.255196317
693.235634089
689.331929965
685.543626958
681.870129081
678.31072114
674.864586064
671.530819743
668.308443399
665.196413625
662.193630242
659.298942243
656.511152071
653.829018569
651.25125891
648.776549841
646.403528549
644.130793457
641.956905187
639.880387937
637.899731432
636.013393581
634.219803936
632.517367988
630.904472305
629.379490481
627.94078985
626.586738862
625.315715044
624.126113431
623.016355321
621.98489728
621.030240216
620.150938435
619.34560855
618.612938122
617.95169394
617.360729844
616.838993998
616.385535564
615.999510698
615.680187565
615.426950605
615.239307075
615.117152945
615.058276405
937.750973494
937.312843884
936.450628876
935.136319688
933.382961702
931.204479662
928.617471986
925.640833127
922.295306869
918.603044683
914.587195395
910.271529822
905.680103869
900.836961106
895.765875204
890.49013257
885.032356029
879.414370182
873.657108434
867.780559736
861.803750597
855.744754825
849.620721119
843.447907455
837.241712485
831.016697431
824.786596847
818.564320901
812.361954446
806.190758153
800.061176597
793.982852542
787.964641445
782.01464185
776.140222407
770.34805116
764.644125304
759.033800882
753.521822466
748.112352944
742.8090037
737.614865286
732.532538719
727.564167352
722.71146928
717.975770131
713.358036098
708.858906953
704.478728803
700.217586208
696.075333319
692.051623592
688.145937721
684.357609374
680.685848456
677.129761638
673.688370025
670.360623908
667.145414663
664.041583926
661.047930292
658.163213815
655.386158667
652.715454325
650.14975569
647.687682531
645.327818624
643.068710947
640.908869223
638.84676607
636.880837961
635.009487119
633.23108446
631.543973585
629.946475845
628.436896389
627.013531152
625.674674656
624.418628496
623.243710392
622.148263648
621.130666869
620.189343799
619.322773126
618.529498122
617.808135988
617.157386796
616.576041918
616.062991862
615.617233446
615.237876267
614.924148176
614.675399831
614.491111322
614.371152179
614.313442038
942.236789443
941.76938875
940.855791615
939.463953862
937.60881603
935.306405243
932.575699299
929.438146433
925.91712024
922.037395432
917.824673057
913.305156167
908.50517602
903.450866875
898.167887445
892.681188629
887.014828502
881.191836572
875.234128491
869.162470315
862.996487197
856.754706799
850.454623053
844.112763884
837.744747732
831.365319454
824.988364228
818.626905801
812.293098979
805.998226316
799.752705166
793.566103995
787.447161776
781.403827121
775.443290211
769.572017427
763.795785059
758.119711902
752.548291022
747.085421283
741.734439068
736.498150593
731.378864875
726.378427461
721.49825477
716.739369003
712.10243339
707.587787603
703.195482959
698.925317083
694.776867508
690.749523767
686.842517415
683.054949564
679.385815491
675.834026066
672.398425791
669.077807425
665.870923248
662.776493175
659.793209984
656.91974205
654.154733985
651.49680569
648.944550264
646.496531271
644.15127981
641.907291811
639.763025891
637.716902096
635.767301712
633.912568326
632.151010207
630.480904016
628.900499827
627.408027376
626.001703417
624.679740067
623.440353961
622.281776073
621.202262003
620.200102588
619.273634618
618.421251542
617.641413958
616.932659782
616.293613946
615.722997528
615.219636222
614.782468078
614.410550466
614.10306598
613.859327368
613.678784196
613.561276004
613.504863391
947.208719028
946.70723339
945.734047533
944.252459534
942.279785471
939.834674494
936.939032242
933.617404149
929.896307843
925.803612269
921.367992827
916.61845734
911.583936923
906.29293442
900.773225312
895.051609448
889.153715789
883.103864469
876.924990623
870.638631196
864.264970125
857.822929079
851.330283191
844.803776233
838.259211311
831.711502108
825.174684502
818.661901531
812.185380433
805.756421043
799.385396723
793.081774829
786.854148739
780.710283373
774.657156344
768.700998901
762.847333965
757.101011328
751.46624108
745.946626343
740.545196291
735.26443987
730.106340491
725.072411601
720.163733145
715.380988705
710.724503262
706.194281253
701.79004468
697.511270716
693.357228319
689.327013147
685.419580176
681.633773387
677.968352045
674.422013168
670.99341001
667.681166469
664.483887558
661.400166144
658.428586365
655.567724151
652.816145412
650.172402445
647.635029178
645.202535803
642.873403371
640.646078826
638.518970898
636.490447192
634.55883273
632.722410068
630.979421111
629.32807056
627.766530986
626.292949362
624.905454947
623.602168315
622.381211352
621.240718013
620.178845628
619.193786553
618.283779962
617.447123577
616.682185179
615.987413708
615.361349839
614.802635901
614.310025052
613.88238963
613.518728661
613.218174258
612.979996801
612.80361161
612.688824851
612.633847215
952.698614618
952.157341852
951.1149165
949.529278754
947.420756167
944.811297106
941.726428867
938.194460108
934.245662439
929.911540857
925.224217942
920.215915296
914.918515452
909.363188744
903.580075001
897.598017473
891.444353256
885.144769494
878.723235491
872.202017259
865.601771721
858.941704837
852.239763331
845.512819834
838.776811463
832.046807
825.33700451
818.660686011
812.030163822
805.45675152
798.950758507
792.521518046
786.177438252
779.926058698
773.774103983
767.727532424
761.791578317
755.970788974
750.269058673
744.689661816
739.235286656
733.908070302
728.70963503
723.641125854
718.703249141
713.896312224
709.220263831
704.674735216
700.259081552
695.97242312
691.813685496
687.781637986
683.874929386
680.092120355
676.431711689
672.892168088
669.471937103
666.169463256
662.983197448
659.91160199
656.953151725
654.106331836
651.369632977
648.741544484
646.220546348
643.805100693
641.493643393
639.284576435
637.176261508
635.16701521
633.255106135
631.438754008
629.716130904
628.085364524
626.544543406
625.091723914
623.724938805
622.442207146
621.241545349
620.120979077
619.078555767
618.112357538
617.220514231
616.40121637
615.652727824
614.973398002
614.36167341
613.816108469
613.33537545
612.918273523
612.563736814
612.270841257
612.038810168
611.867020916
611.755242527
611.701844374
958.743512366
958.155596647
957.032422249
955.325788085
953.059895171
950.260887013
946.958798382
943.186518209
938.978790745
934.371371475
929.400349678
924.101600458
918.510332209
912.660701278
906.585477106
900.315754245
893.88072011
887.307495974
880.621072151
873.844353637
866.998319483
860.102277388
853.174169598
846.230864806
839.288367352
832.361898708
825.465857753
818.613713227
811.817893526
805.089725783
798.439429359
791.876157012
785.408077709
779.042452856
772.785705909
766.643479939
760.620683355
754.721526687
748.949555103
743.307680479
737.79821525
732.42290844
727.182983754
722.079179211
717.111788098
712.280701109
707.585449734
703.025250746
698.5990515
694.30557534
690.143366238
686.110831518
682.206281582
678.427965555
674.774102069
671.242904536
667.832600662
664.541446099
661.3677325
658.309790363
655.365987296
652.534722429
649.814417812
647.203507681
644.70042648
642.303596514
640.011416015
637.822248337
635.734412862
633.746178045
631.85575691
630.06130512
628.360921669
626.752652061
625.234493847
623.804404247
622.460309637
621.200116581
620.021724155
618.923037237
617.901980508
616.956512839
616.084641817
615.284438122
614.554049542
613.891714405
613.295774259
612.764685665
612.297031006
611.891528229
611.547039512
611.262578654
611.037316881
610.870589479
610.762124737
610.710458701
965.386642723
964.743705465
963.525838318
961.677841693
959.228984673
956.210811243
952.65900214
948.612025824
944.10993386
939.193412023
933.903068808
928.27889001
922.359798312
916.183271864
909.784996262
903.198546574
896.455115835
889.583321754
882.609130314
875.555931196
868.444781314
861.294798924
854.123644981
846.94798508
839.783808915
832.646520557
825.55081432
818.510445913
811.538021236
804.644886401
797.841126892
791.135645348
784.53629671
778.049995825
771.682807655
765.440013964
759.326159696
753.345085467
747.499954863
741.793283406
736.226971757
730.802342975
725.520182662
720.380781
715.38397608
710.529198663
705.815518581
701.241693014
696.806216269
692.507370377
688.343275194
684.311936578
680.411291031
676.639245509
672.993711233
669.472630843
666.073998469
662.795872759
659.636383129
656.593729847
653.666178689
650.852051154
648.149711228
645.557549845
643.073968086
640.697360219
638.426097513
636.258513696
634.192892724
632.227459389
630.360373049
628.589724643
626.913536912
625.329767678
623.836315912
622.431030265
621.111719734
619.876166117
618.722137893
617.647405219
616.649755666
615.727010383
614.87704035
614.097782425
613.387254905
612.743572373
612.164959632
611.649764594
611.196470004
610.80370396
610.470249194
610.195050905
609.977222971
609.816054527
609.711229048
609.661456569
972.67875878
971.970367939
970.640615867
968.626399213
965.963756893
962.691280327
958.851765377
954.490469569
949.653696294
944.38778211
938.738410801
932.750128345
926.465958954
919.927052167
913.172325321
906.238099818
899.157760525
891.961491722
884.676157571
877.325394092
869.929956877
862.508316985
855.077418651
847.653423239
840.252213944
832.88948108
825.580418818
818.339264086
811.178911183
804.110728345
797.144585327
790.289025559
783.551481191
776.938431224
770.455515168
764.10760594
757.898850974
751.832692355
745.911882671
740.138507927
734.514020095
729.03927639
723.714582497
718.539737463
713.514079463
708.636532888
703.905657775
699.31970207
694.876656738
690.574312683
686.410317824
682.382232162
678.487578752
674.723888681
671.088738706
667.579780596
664.194761823
660.931537636
657.788074984
654.762449028
651.8528333
649.057484653
646.374724345
643.802916573
641.340445827
638.985694343
636.737020835
634.592741522
632.551114271
630.610326434
628.76848671
627.023621106
625.373672882
623.816506167
622.349912879
620.971622488
619.679314227
618.470631287
617.343196629
616.294629996
615.322565745
614.424671092
613.598664413
612.842333211
612.153551475
611.53029612
610.970662334
610.472877651
610.035314681
609.656502406
609.335136085
609.070085638
608.86040201
608.705323664
608.604485401
608.556777859
980.679916951
979.892809744
978.429543369
976.218233397
973.304183553
969.735317907
965.563438792
960.842025247
955.624651607
949.964011736
943.911369613
937.516230998
930.82608385
923.88610908
916.738815183
909.423600832
901.976293734
894.428751513
886.808636825
879.139488043
871.44118397
863.730829375
856.023955499
848.335751292
840.681903966
833.078650571
825.542099494
818.087329158
810.727702634
803.474588149
796.3374849
789.324391179
782.4421565
775.696709711
769.093190313
762.636019089
756.328922652
750.174926511
744.176348719
738.3348138
732.651286391
727.126115237
721.759081445
716.549447192
711.496003478
706.597118867
701.850791336
697.254704744
692.806290125
688.502790656
684.341327675
680.318964769
676.432766827
672.679851648
669.057432236
665.562848793
662.193589952
658.94730349
655.821797138
652.815030566
649.925099824
647.150215776
644.48867813
641.938846736
639.499111801
637.167864594
634.943470078
632.824242707
630.80842635
628.894179046
627.079562884
625.362539061
623.740967802
622.212612713
620.775148956
619.426174703
618.163225281
616.983789539
615.885327969
614.865292139
613.921145001
613.050381609
612.2505498
611.519270421
610.854256727
610.253332645
609.71444967
609.23570225
608.815341541
608.451787538
608.143639578
607.889685107
607.688906392
607.540486848
607.444008224
607.398547632
989.461919218
988.578831949
986.954205488
984.506685432
981.294629563
977.378502622
972.821516578
967.686995178
962.036787006
955.930531239
949.425433801
942.576244044
935.435216967
928.051933312
920.472923165
912.741107699
904.895134449
896.968734984
888.990280927
880.982745508
872.964271184
864.949458323
856.951282358
848.983196506
841.060632043
833.200958467
825.422011171
817.740357224
810.170095438
802.722496361
795.406377331
788.228862623
781.195989794
774.313000139
767.584459082
761.014307194
754.605851265
748.361702606
742.283730656
736.37306649
730.63014488
725.054758737
719.646116318
714.402894886
709.323289195
704.405059821
699.645586228
695.041927121
690.590889209
686.289102521
682.133098399
678.119385454
674.244519215
670.505162086
666.898131433
663.42043459
660.069290513
656.842138461
653.736634707
650.75063866
647.882190135
645.129479633
642.490813685
639.964577263
637.5491953
635.243095221
633.044672255
630.95225902
628.964100584
627.078335772
625.29298508
623.605945048
622.014988639
620.51777085
619.111838755
617.794645158
616.563565199
615.415915338
614.348974237
613.360005059
612.446278714
611.605097474
610.833818477
610.129876558
609.490806006
608.914260875
608.398033601
607.940071771
607.538492973
607.191597706
606.89788045
606.656038871
606.464980559
606.323829076
606.232109093
606.189089311
999.111743372
998.10962412
996.286826903
993.552380371
989.983695103
985.65830292
980.653770398
975.044944987
968.902747161
962.29404993
955.282075612
947.926890098
940.285714841
932.412910741
924.359576827
916.172797336
907.894646205
899.561130122
891.201327527
882.837058636
874.483466796
866.150829219
857.847628361
849.584256386
841.375912712
833.242362714
825.2047361
817.282220491
809.490021876
801.838993981
794.336625879
786.988598999
779.799829054
772.774730436
765.917238744
759.230820016
752.718410823
746.382247736
740.223749457
734.243516343
728.441401327
722.816585834
717.367652014
712.092642975
706.989107928
702.054145897
697.284457248
692.676407185
688.226103538
683.929486204
679.782421449
675.780793999
671.920590513
668.197970186
664.609319779
661.151292035
657.820827326
654.615159404
651.531806592
648.568550399
645.723403696
642.994570887
640.380402503
637.879346745
635.48990039
633.210561421
631.039785507
628.975948229
627.017314474
625.162015985
623.408037369
621.753210294
620.195214999
618.731587999
617.359734739
616.076946157
614.880418303
613.767274451
612.734589207
611.779414193
610.898804726
610.089846903
609.349684388
608.675544308
608.064761706
607.514802161
607.023282277
606.587987933
606.206890199
605.878159034
605.600174801
605.371537686
605.191074569
605.057844702
604.971311149
604.930938567
1009.73647821
1008.58373057
1006.51261721
1003.42368436
999.423411261
994.612708429
989.08679686
982.933432734
976.232846394
969.058844516
961.48024424
953.562162851
945.366830571
936.953794292
928.379459815
919.696035587
910.95002538
902.180500511
893.417496511
884.681037129
875.981461478
867.321796343
858.702635736
850.128832206
841.615569559
833.187715045
824.872693603
816.694259012
808.669130928
800.806900658
793.112401619
785.588886958
778.239805301
771.068674043
764.078791768
757.273213214
750.654648465
744.225063922
737.985434938
731.93577221
726.075274504
720.402441497
714.91516961
709.610820333
704.486251787
699.537848896
694.761569056
690.153006677
685.707482657
681.420153903
677.286130892
673.300591884
669.458884674
665.756610424
662.189686922
658.754390465
655.447376827
652.265682629
649.206709205
646.268191483
643.448154744
640.744862186
638.156756332
635.682397239
633.320400492
631.069377776
628.927882713
626.894364259
624.967129528
623.144317227
621.423882069
619.803589557
618.281019755
616.853578236
615.518512423
614.272931862
613.113831494
612.038117356
611.042634423
610.124196185
609.279615417