/*--------------------------------*- C++ -*----------------------------------*\
| =========                 |                                                 |
| \\      /  F ield         | OpenFOAM: The Open Source CFD Toolbox           |
|  \\    /   O peration     | Version:  v1906                                 |
|   \\  /    A nd           | Web:      www.OpenFOAM.com                      |
|    \\/     M anipulation  |                                                 |
\*---------------------------------------------------------------------------*/
FoamFile
{
    version     2.0;
    format      ascii;
    class       volVectorField;
    location    "78";
    object      U;
}
// * * * * * * * * * * * * * * * * * * * * * * * * * * * * * * * * * * * * * //

dimensions      [0 1 -1 0 0 0 0];


internalField   nonuniform List<vector> 
9216
(
(0.00218294901661 -0.00219236764751 0)
(0.00157818689455 -0.00512586653917 7.45567554459e-28)
(0.00163894501926 -0.00879377088618 1.23555199522e-31)
(0.00164285078782 -0.0122260375851 0)
(0.00162051423482 -0.0156491578206 0)
(0.00158458228231 -0.019007822672 0)
(0.00154104760711 -0.0222825560428 0)
(0.00148995001412 -0.0254582902766 0)
(0.00143488437148 -0.0285225690903 0)
(0.00137427275623 -0.0314659329741 0)
(0.00131167701237 -0.0342798444891 0)
(0.00124404986303 -0.036959535498 0)
(0.00117587275863 -0.0394939937857 0)
(0.00110488748633 -0.0418876253416 0)
(0.00103468789842 -0.0441302934981 0)
(0.000961634118238 -0.0462268433568 0)
(0.000890449495381 -0.0481708346642 0)
(0.00081793221683 -0.04996584523 0)
(0.000748477545161 -0.0516128728795 0)
(0.000677528469225 -0.0531128586681 0)
(0.000609876460513 -0.0544644175951 0)
(0.000538398356294 -0.055676409558 0)
(0.000470034453289 -0.0567378329 0)
(0.000400733534305 -0.0576579219227 0)
(0.00033656630212 -0.0584386563855 0)
(0.000270498329344 -0.0590809354461 0)
(0.000208177964329 -0.0595918905344 0)
(0.000142094691315 -0.0599657915959 0)
(8.00433183091e-05 -0.0602060482568 0)
(1.47965977036e-05 -0.0603165651225 0)
(-4.40789476048e-05 -0.0602894093068 0)
(-0.000108720506958 -0.0601457813108 0)
(-0.000171468750258 -0.0598609325914 0)
(-0.000233739222497 -0.059444656027 0)
(-0.000289720030639 -0.0589144906006 0)
(-0.000349051929106 -0.0582538237974 0)
(-0.000402706636196 -0.0574793452046 0)
(-0.000459358956673 -0.0565866828226 0)
(-0.000510125018025 -0.0555810124087 0)
(-0.000563196684527 -0.0544662861753 0)
(-0.000608808223078 -0.0532460726918 0)
(-0.000656596765827 -0.0519277260711 0)
(-0.000699085957403 -0.0505162985399 0)
(-0.000742625785293 -0.0490137146268 0)
(-0.000776152852432 -0.0474286163597 0)
(-0.000809330569716 -0.0457763161119 0)
(-0.000834297969952 -0.0440608802212 0)
(-0.000858508988464 -0.0422934252228 0)
(-0.000873635563448 -0.0404843511272 0)
(-0.000887124922524 -0.0386452049282 0)
(-0.000890751158059 -0.0367876172041 0)
(-0.000892380943997 -0.0349245632458 0)
(-0.000884753666412 -0.0330676622674 0)
(-0.00087486680454 -0.0312282482688 0)
(-0.000855485026159 -0.0294192718337 0)
(-0.000835166077885 -0.0276505303473 0)
(-0.000807710919607 -0.0259321574287 0)
(-0.000780613426955 -0.0242699316376 0)
(-0.000746729550028 -0.022671464384 0)
(-0.000712911112709 -0.021143123278 0)
(-0.000673925844295 -0.0196900667647 0)
(-0.000636942832119 -0.0183162428614 0)
(-0.000596182620184 -0.0170234517056 0)
(-0.00055882175854 -0.015811752808 0)
(-0.000519899894811 -0.0146800603723 0)
(-0.000484956486512 -0.0136253510517 0)
(-0.000447676779878 -0.0126464691876 0)
(-0.000413813647993 -0.011738848929 0)
(-0.000379558968442 -0.0109042784033 0)
(-0.000351548323047 -0.0101338832214 0)
(-0.000323435036106 -0.00942243621968 0)
(-0.000299673296084 -0.00876644692954 0)
(-0.000274741579264 -0.00816127862045 0)
(-0.000253509821598 -0.007603230262 0)
(-0.0002321070679 -0.00708854158554 0)
(-0.000213868740952 -0.0066139830076 0)
(-0.000193863516055 -0.00617744546003 0)
(-0.000177225977489 -0.00577587325255 0)
(-0.000161429239474 -0.00540644694895 0)
(-0.000147561952937 -0.00505369766471 0)
(-0.00013710536198 -0.00472497184674 0)
(-0.000128947667118 -0.00445951597547 0)
(-0.000111200999124 -0.0041845359887 0)
(-0.000105345199408 -0.0039649595913 0)
(-0.000111589797745 -0.00375633699049 0)
(-0.000109910724254 -0.00350083655542 0)
(-9.17546290012e-05 -0.00325903786676 0)
(-7.38086535179e-05 -0.00308652923321 0)
(-9.17116498711e-05 -0.00294714471958 0)
(-0.000127261407023 -0.00270184510554 0)
(-0.000135780392535 -0.00242998023933 0)
(-0.000145141328879 -0.00210870593699 0)
(-0.000180366776325 -0.00173465666932 0)
(-0.000204870940017 -0.00130047832487 0)
(-0.000218335595076 -0.000765911193007 0)
(-0.000227530880461 -0.000226434118833 0)
(0.00512103323071 -0.00160301874624 0)
(0.00528862869997 -0.00534754395812 0)
(0.00534610274113 -0.00923679798216 -7.66574927329e-28)
(0.00529895976842 -0.0129860361861 0)
(0.0052102368244 -0.0166556680984 0)
(0.00509000774862 -0.0202410116424 0)
(0.00494722161023 -0.023730009111 0)
(0.0047832199898 -0.0271112608856 0)
(0.00460426297367 -0.0303710942486 0)
(0.00440978167969 -0.03350057601 0)
(0.0042064626826 -0.0364907191907 0)
(0.00399158553858 -0.0393348906661 0)
(0.00377246957216 -0.0420299546123 0)
(0.00354500560527 -0.0445703193136 0)
(0.00331773924906 -0.0469510807078 0)
(0.00308641275179 -0.0491754859497 0)
(0.0028567232565 -0.0512396598217 0)
(0.00262588611248 -0.0531456578607 0)
(0.00240015551502 -0.0548913978154 0)
(0.00217238422014 -0.0564827767941 0)
(0.0019513048498 -0.0579093220399 0)
(0.00172778540444 -0.0591891850953 0)
(0.00150874423523 -0.0603156130469 0)
(0.00128947774299 -0.0612933510394 0)
(0.00107889026549 -0.0621208556959 0)
(0.000866965996582 -0.0628005934145 0)
(0.000663049107424 -0.0633350274646 0)
(0.000455931537761 -0.0637278545476 0)
(0.000256843446376 -0.0639791750142 0)
(5.26090827291e-05 -0.0640966655119 0)
(-0.000143555563937 -0.0640731770518 0)
(-0.000346962282226 -0.0639077757865 0)
(-0.000544806625497 -0.0636097800344 0)
(-0.000739714003468 -0.0631797137776 0)
(-0.000924618348847 -0.0626173044091 0)
(-0.00111252681993 -0.0619238200944 0)
(-0.00128905636289 -0.0611007052133 0)
(-0.00146800423261 -0.0601575115521 0)
(-0.00163563989291 -0.0590874127367 0)
(-0.00180362229734 -0.0579051515916 0)
(-0.00195735023904 -0.0566050437709 0)
(-0.00210908267677 -0.0551979196499 0)
(-0.00224587638402 -0.0536883684506 0)
(-0.00237975049124 -0.0520929607617 0)
(-0.00249325561434 -0.0504067159483 0)
(-0.00259770845809 -0.0486446463317 0)
(-0.00268207419167 -0.0468153054813 0)
(-0.00275652263386 -0.0449294442896 0)
(-0.00280909628717 -0.042998717677 0)
(-0.00284793809789 -0.0410350956068 0)
(-0.00286205997913 -0.0390528251547 0)
(-0.00286352807808 -0.0370652973646 0)
(-0.00284110909274 -0.0350841049626 0)
(-0.00280599624069 -0.0331253431449 0)
(-0.00274868548553 -0.0311975774102 0)
(-0.00268066832589 -0.0293110809505 0)
(-0.00259430453629 -0.0274804301187 0)
(-0.00250163574679 -0.025711298983 0)
(-0.00239553175369 -0.0240169475387 0)
(-0.0022859724768 -0.0223946532373 0)
(-0.00216454363002 -0.0208520239904 0)
(-0.00204331672806 -0.0193934346978 0)
(-0.00191593892295 -0.0180222846535 0)
(-0.00179315767232 -0.0167358148998 0)
(-0.001668891753 -0.0155362557038 0)
(-0.00155295427044 -0.0144214640678 0)
(-0.00143737485611 -0.0133877589723 0)
(-0.00132993298329 -0.01242740221 0)
(-0.00122445083487 -0.0115386571693 0)
(-0.0011293814848 -0.0107165009807 0)
(-0.00103586093929 -0.0099619125372 0)
(-0.000954773332993 -0.00927043412601 0)
(-0.000875745968655 -0.00863500674424 0)
(-0.000807358963778 -0.00805013678103 0)
(-0.000744199750966 -0.0075090763372 0)
(-0.000686421758829 -0.00700766499305 0)
(-0.000630528812136 -0.00654343817721 0)
(-0.000583059982122 -0.00610603420572 0)
(-0.000535022027154 -0.00568903432602 0)
(-0.000494907768168 -0.00529951279785 0)
(-0.000460137477459 -0.00489397836369 0)
(-0.000427410372278 -0.00456023922239 0)
(-0.000377033507337 -0.00423106339979 0)
(-0.000346527189596 -0.00394251748871 0)
(-0.000343979727111 -0.00368535355797 0)
(-0.000338852419232 -0.0034488968597 0)
(-0.00026892179944 -0.00317780659822 0)
(-0.000216368483706 -0.00304357211441 0)
(-0.000257748075575 -0.0028399946532 0)
(-0.000349402990612 -0.00269121257624 0)
(-0.000403378634944 -0.00250041183241 0)
(-0.000464560578802 -0.00215581528596 0)
(-0.000551460083808 -0.00177401889026 0)
(-0.000712218680977 -0.00142401262597 0)
(-0.000863088418498 -0.000888486643712 0)
(-0.000732509546418 -0.000221171712969 0)
(0.00884275027312 -0.00169626103188 0)
(0.00919900813385 -0.00551020317503 0)
(0.00912091976474 -0.00933706129524 -7.6557515603e-28)
(0.00899071717313 -0.0131224928281 0)
(0.0088203283794 -0.0168329424574 0)
(0.00860890984983 -0.0204560005515 0)
(0.00836181751247 -0.0239790016949 0)
(0.00808209942227 -0.0273889359108 0)
(0.00777583165625 -0.0306745909531 0)
(0.00744629258417 -0.0338258731584 0)
(0.00709930289198 -0.0368358750808 0)
(0.00673654316202 -0.0396952377526 0)
(0.00636352436267 -0.0424007373587 0)
(0.00598132197278 -0.0449470465496 0)
(0.00559643219293 -0.0473440838164 0)
(0.00520583871035 -0.0495694955502 0)
(0.00481682567395 -0.0516392409874 0)
(0.00442831286127 -0.0535469159594 0)
(0.00404370021965 -0.0552942854988 0)
(0.00366001855955 -0.0568833559995 0)
(0.00328262391821 -0.0583152063706 0)
(0.00290922700728 -0.0595916373313 0)
(0.00254078113189 -0.0607130194964 0)
(0.00217471960779 -0.0616907257404 0)
(0.00181658073698 -0.0625139060912 0)
(0.00146221536255 -0.063198495462 0)
(0.00111462549621 -0.063736908315 0)
(0.00076781147987 -0.064133770482 0)
(0.000427850004878 -0.0643836887353 0)
(8.92422642865e-05 -0.0644923357855 0)
(-0.000246892977168 -0.0644676374908 0)
(-0.000583459572513 -0.0642991945649 0)
(-0.000913757737455 -0.0640052002701 0)
(-0.00124013816361 -0.0635693541337 0)
(-0.0015585701989 -0.0630018361364 0)
(-0.00187430062904 -0.0623013012882 0)
(-0.00217842316727 -0.0614704145297 0)
(-0.00247719415975 -0.0605129366974 0)
(-0.00276555257388 -0.0594331770522 0)
(-0.00304755066201 -0.0582345397157 0)
(-0.00331367130752 -0.056922174647 0)
(-0.0035652331877 -0.0554994431167 0)
(-0.0037978468513 -0.0539828946161 0)
(-0.00401578851839 -0.0523622533595 0)
(-0.00421354470449 -0.0506671407885 0)
(-0.00438869146821 -0.0488818491092 0)
(-0.00453746747622 -0.0470384189265 0)
(-0.00466069103254 -0.0451271575473 0)
(-0.00475331839963 -0.0431764057008 0)
(-0.00481934761145 -0.0411928507463 0)
(-0.00484908266606 -0.0391806085948 0)
(-0.00484792957181 -0.0371625587888 0)
(-0.00481309373868 -0.0351505394278 0)
(-0.00474915195946 -0.0331584994655 0)
(-0.00465514100185 -0.0312001915509 0)
(-0.00453593803573 -0.0292874446403 0)
(-0.00439003446952 -0.0274307513683 0)
(-0.00422560317904 -0.0256407246316 0)
(-0.00404493879181 -0.023925120797 0)
(-0.00385578147646 -0.0222913223254 0)
(-0.00365297518887 -0.0207400854699 0)
(-0.00344409534796 -0.0192760657275 0)
(-0.00322984005517 -0.0179024568926 0)
(-0.00301787690816 -0.0166196213499 0)
(-0.00280857003355 -0.0154261699653 0)
(-0.00260838510811 -0.0143185669739 0)
(-0.0024154355569 -0.0132937795992 0)
(-0.00223333634537 -0.0123470490114 0)
(-0.0020602326124 -0.0114751863817 0)
(-0.0018988359373 -0.0106727541872 0)
(-0.00174591912727 -0.00993483593136 0)
(-0.00160453148227 -0.0092422611415 0)
(-0.00147484542174 -0.0086199729593 0)
(-0.00135521388959 -0.00802543785466 0)
(-0.00124793351249 -0.00749505086597 0)
(-0.00114986799361 -0.00700602413111 0)
(-0.00106235796518 -0.00655319282267 0)
(-0.000988671131784 -0.00613346652728 0)
(-0.000923623602088 -0.00574174145072 0)
(-0.000877066221755 -0.0053486040645 0)
(-0.000820972259306 -0.00492679337171 0)
(-0.000747909051612 -0.00459340966472 0)
(-0.000668640084111 -0.00426668321956 0)
(-0.000613229491885 -0.00396162683476 0)
(-0.000586884072324 -0.00369412742932 0)
(-0.000556726764452 -0.00343339436667 0)
(-0.000490733927934 -0.0032776660291 0)
(-0.000418652701575 -0.00294492664501 0)
(-0.000401090804361 -0.00266067242613 0)
(-0.000479491803695 -0.00253903880229 0)
(-0.000684925225991 -0.00249841522039 0)
(-0.000768586554824 -0.00198598565136 0)
(-0.00094233617301 -0.00169246040469 0)
(-0.00116172082739 -0.001259064008 0)
(-0.00133290094991 -0.000763476448722 0)
(-0.00124443184782 -0.000220785867579 0)
(0.0124159803129 -0.00175066542346 0)
(0.0130609895903 -0.00562431159609 0)
(0.0129457945472 -0.00947781167096 7.65444537807e-28)
(0.0127520166495 -0.0133103532937 0)
(0.0125010973382 -0.0170685346352 0)
(0.0121943596396 -0.0207365551234 0)
(0.0118378544345 -0.0243001829977 0)
(0.0114370524311 -0.0277456116521 0)
(0.0109990479196 -0.0310626793144 0)
(0.0105285660075 -0.0342390244925 0)
(0.0100323716416 -0.0372678049262 0)
(0.00951536574173 -0.0401426392662 0)
(0.00898498762678 -0.0428586742785 0)
(0.00844600953661 -0.0454187359769 0)
(0.00789751125496 -0.0478115464935 0)
(0.00734460349923 -0.0500426877724 0)
(0.00679343490589 -0.0521110119637 0)
(0.00624407584185 -0.0540165412696 0)
(0.00569866873574 -0.0557606306333 0)
(0.00515803192905 -0.0573456974352 0)
(0.00462454023834 -0.0587725650968 0)
(0.00409689041773 -0.0600482682995 0)
(0.0035772718203 -0.0611648820955 0)
(0.00306463047633 -0.0621370424315 0)
(0.00256129009479 -0.0629621839904 0)
(0.00206357759229 -0.063641104581 0)
(0.00157065732878 -0.0641763610793 0)
(0.00108188931272 -0.0645626938377 0)
(0.000598286945523 -0.0648165953395 0)
(0.000119340747662 -0.0649208178477 0)
(-0.000355245527578 -0.0648870116647 0)
(-0.000826915629107 -0.0647145302299 0)
(-0.00129215346222 -0.0644062068617 0)
(-0.00175149674159 -0.0639640364027 0)
(-0.00220313900217 -0.063389893188 0)
(-0.00264769914184 -0.0626812553298 0)
(-0.0030822678348 -0.061850790314 0)
(-0.00350755774653 -0.0608837730934 0)
(-0.0039165527261 -0.0597950808951 0)
(-0.00430758753242 -0.0585834986117 0)
(-0.00468388837181 -0.0572768113703 0)
(-0.00504250611239 -0.0558456688133 0)
(-0.0053800301777 -0.054313314398 0)
(-0.00569307759448 -0.0526692171156 0)
(-0.00597498329178 -0.0509353370446 0)
(-0.00622326917045 -0.0491188470622 0)
(-0.00643655176915 -0.0472318859954 0)
(-0.00661187549153 -0.0452840385682 0)
(-0.00674325768999 -0.0432887947186 0)
(-0.00683430006842 -0.0412574935059 0)
(-0.00688173290186 -0.0392157412662 0)
(-0.00688252678151 -0.037157389242 0)
(-0.00683488906735 -0.0351068942788 0)
(-0.00674134260801 -0.0330773941107 0)
(-0.00660684449831 -0.0310843301517 0)
(-0.0064342552707 -0.0291392313355 0)
(-0.00622572523753 -0.0272536419396 0)
(-0.0059878793966 -0.0254374750702 0)
(-0.00572623719959 -0.0236978960736 0)
(-0.00544967954153 -0.0220471261203 0)
(-0.00515867252683 -0.0204860845172 0)
(-0.00485786990982 -0.0190176901618 0)
(-0.00455077636267 -0.0176452572625 0)
(-0.00424543645219 -0.0163659495688 0)
(-0.00394702313925 -0.0151789046284 0)
(-0.00365984855684 -0.0140805786779 0)
(-0.00338515756025 -0.013067724162 0)
(-0.00312529066068 -0.012134796321 0)
(-0.00287975579574 -0.0112755702725 0)
(-0.00265019183044 -0.0104870411645 0)
(-0.0024378540431 -0.0097629927597 0)
(-0.00224324991608 -0.0090981153106 0)
(-0.00206600837423 -0.00849047775774 0)
(-0.00189779784728 -0.00791767588966 0)
(-0.00174076758846 -0.00740343028619 0)
(-0.00159894403578 -0.00692764785921 0)
(-0.00147633441046 -0.00649043428373 0)
(-0.00137030527809 -0.00608783290931 0)
(-0.00127920755345 -0.00571924186109 0)
(-0.0012135273154 -0.0053497021732 0)
(-0.00116853825904 -0.00506734397128 0)
(-0.00110217483812 -0.00480591934838 0)
(-0.00100985275894 -0.0044370772579 0)
(-0.000929794904209 -0.00409968199486 0)
(-0.000858634817825 -0.00375791727251 0)
(-0.000797683339194 -0.00349417656036 0)
(-0.000730343743095 -0.00322504982538 0)
(-0.000658657619722 -0.00286411550554 0)
(-0.000655301326001 -0.0026786264515 0)
(-0.000671511588544 -0.0023237698107 0)
(-0.000841497760747 -0.00205314027598 0)
(-0.00116673574366 -0.00193727745016 0)
(-0.00128143686776 -0.00141390693895 0)
(-0.00153721799712 -0.00101648379043 0)
(-0.00180437182875 -0.000641425799599 0)
(-0.00176002558437 -0.000202557887018 0)
(0.0161026919645 -0.00179541201804 0)
(0.0169729431329 -0.00575079042158 0)
(0.0168243781174 -0.00966957092245 0)
(0.0165677895098 -0.0135699666315 0)
(0.0162336033978 -0.017392487162 0)
(0.0158269972353 -0.0211204470686 0)
(0.0153558131769 -0.0247378085136 0)
(0.0148284719823 -0.028231469086 0)
(0.014251473215 -0.0315871625685 0)
(0.0136336088497 -0.0347963363855 0)
(0.0129832451529 -0.0378512535473 0)
(0.0123082121541 -0.0407452650418 0)
(0.0116175991694 -0.0434805493989 0)
(0.0109125106843 -0.0460451059544 0)
(0.010198945444 -0.04844369629 0)
(0.00948226095855 -0.050676167284 0)
(0.00876637431523 -0.0527426920386 0)
(0.00805454492937 -0.0546449016513 0)
(0.0073491364782 -0.0563838616222 0)
(0.00665067310565 -0.0579668036482 0)
(0.00595981163454 -0.059386706951 0)
(0.00527840402942 -0.0606499126532 0)
(0.00460918415742 -0.0617650707778 0)
(0.00395063100281 -0.0627292117276 0)
(0.00330124605253 -0.0635522005298 0)
(0.00265769394107 -0.064218669719 0)
(0.00201970932842 -0.0647507439442 0)
(0.00138823034038 -0.0651305618298 0)
(0.00076326954806 -0.0653703962605 0)
(0.000142637304197 -0.065469355028 0)
(-0.000470083935388 -0.0654303916513 0)
(-0.00107580133716 -0.0652523743015 0)
(-0.00167647616932 -0.0649473497001 0)
(-0.00227023430685 -0.0644978749331 0)
(-0.00285607487731 -0.0639154452414 0)
(-0.00343136711061 -0.0631975852025 0)
(-0.00398989716405 -0.0623484927446 0)
(-0.00453667567798 -0.0613791413526 0)
(-0.0050690288399 -0.0602952118526 0)
(-0.00557982954353 -0.0590780291324 0)
(-0.00607189343725 -0.0577306672791 0)
(-0.00654388570707 -0.0562673121876 0)
(-0.00698692532696 -0.0546946300578 0)
(-0.00739593653828 -0.0530174467508 0)
(-0.00776861572641 -0.0512588807673 0)
(-0.00809669982834 -0.0494026106591 0)
(-0.00837938864535 -0.0474731519535 0)
(-0.00860944884097 -0.045477966989 0)
(-0.00878260487999 -0.0434315875088 0)
(-0.00889950098145 -0.041348421314 0)
(-0.00895775655884 -0.0392446519823 0)
(-0.00895818418004 -0.0371330807349 0)
(-0.00889773430503 -0.0350385915587 0)
(-0.0087738927828 -0.0329583532567 0)
(-0.00859673993585 -0.0309192607413 0)
(-0.00836659656441 -0.0289312046177 0)
(-0.0080907263103 -0.0270074710346 0)
(-0.0077747446194 -0.0251595044044 0)
(-0.00742626012499 -0.0233932738247 0)
(-0.00705908565679 -0.0217261961205 0)
(-0.00666915819354 -0.0201514022097 0)
(-0.00626791618424 -0.0186792011475 0)
(-0.00586229579163 -0.017309525641 0)
(-0.00546191014733 -0.0160366375221 0)
(-0.00507181003633 -0.0148576613162 0)
(-0.00469853933617 -0.0137735384471 0)
(-0.00434026522186 -0.0127718202307 0)
(-0.00400064891869 -0.0118504872838 0)
(-0.0036837887185 -0.0110097526287 0)
(-0.00338704472561 -0.0102389188369 0)
(-0.00311252451202 -0.00953255902429 0)
(-0.00285826093662 -0.00888095706642 0)
(-0.00262825966002 -0.00828996392674 0)
(-0.00241303196458 -0.0077460085916 0)
(-0.00221297512584 -0.00724870613855 0)
(-0.00203649171699 -0.00679137294586 0)
(-0.00187858802085 -0.00635801193874 0)
(-0.00173568707967 -0.00596703703583 0)
(-0.00160662787511 -0.00560761073977 0)
(-0.00149950105464 -0.00523736012999 0)
(-0.00144364038753 -0.00495454375397 0)
(-0.00139327684881 -0.0046872864083 0)
(-0.00129098301755 -0.00433294370416 0)
(-0.00121329537412 -0.00409499316566 0)
(-0.00114981990743 -0.00383871329516 0)
(-0.00109533270234 -0.00359225349724 0)
(-0.00107639802901 -0.00331784378496 0)
(-0.00101620276455 -0.00293090585598 0)
(-0.000926428899186 -0.00243330426105 0)
(-0.000963683232507 -0.00217677678096 0)
(-0.00104797328436 -0.00178522581275 0)
(-0.00139403956812 -0.00162659384717 0)
(-0.00179299296621 -0.0013621005432 0)
(-0.0019221657656 -0.000867295624415 0)
(-0.00210754612899 -0.000514730678381 0)
(-0.00208074777508 -0.00016730542339 0)
(0.0198833115111 -0.00184465836399 0)
(0.0209674513045 -0.0059019947375 0)
(0.0207829052442 -0.00991382496472 0)
(0.0204601384534 -0.0139041848948 0)
(0.0200372784623 -0.0178100537 0)
(0.01952421951 -0.0216145821688 0)
(0.0189316401849 -0.0253010572649 0)
(0.0182679725867 -0.0288524529979 0)
(0.0175443615315 -0.0322577941126 0)
(0.0167715347251 -0.0355074356432 0)
(0.0159598723471 -0.0385935166433 0)
(0.0151208842178 -0.0415130931951 0)
(0.0142613199575 -0.0442630839129 0)
(0.0133855844572 -0.0468380441165 0)
(0.0125030234613 -0.0492419877678 0)
(0.0116189441487 -0.0514755872238 0)
(0.0107370524999 -0.0535392825132 0)
(0.00986158882833 -0.0554398540118 0)
(0.00899380499154 -0.0571715509319 0)
(0.0081349161511 -0.0587421827074 0)
(0.00728593057556 -0.0601516248914 0)
(0.00645273420428 -0.0614097600784 0)
(0.00563559021603 -0.0625144203059 0)
(0.00483052555111 -0.0634737013806 0)
(0.00403238774958 -0.0642844687559 0)
(0.00324159930347 -0.0649434058418 0)
(0.00245925097459 -0.0654590372325 0)
(0.00168390877299 -0.0658311752985 0)
(0.000919132536691 -0.0660637502103 0)
(0.000162863329517 -0.0661557956785 0)
(-0.000587246735803 -0.0661191572424 0)
(-0.00132992587832 -0.0659346192772 0)
(-0.00206742109095 -0.0656138872913 0)
(-0.00279672680182 -0.0651574094884 0)
(-0.00351518157639 -0.0645652249573 0)
(-0.00421972847284 -0.0638438538889 0)
(-0.00490605640234 -0.0630035891865 0)
(-0.00557649826217 -0.0620082065009 0)
(-0.006236035722 -0.0608989596983 0)
(-0.00687878471975 -0.0596475157256 0)
(-0.00749494616471 -0.0582757116286 0)
(-0.00807828007197 -0.0567810630098 0)
(-0.00863064441595 -0.0551863976292 0)
(-0.00914087473133 -0.053468999947 0)
(-0.00960352471808 -0.0516535737495 0)
(-0.0100138224191 -0.0497487264281 0)
(-0.0103663889844 -0.0477631540137 0)
(-0.0106588058694 -0.0457210555898 0)
(-0.0108801195651 -0.0436114361043 0)
(-0.0110275084138 -0.0414633596019 0)
(-0.0110985066568 -0.0392911018225 0)
(-0.0110937554196 -0.03711001034 0)
(-0.0110160384305 -0.034948496997 0)
(-0.0108604641122 -0.0328043037341 0)
(-0.010633229887 -0.0307040402439 0)
(-0.0103429666773 -0.0286709970985 0)
(-0.0099926456926 -0.0266982234555 0)
(-0.0095976406068 -0.0248188559486 0)
(-0.00915163406027 -0.0230214836132 0)
(-0.00866838448868 -0.0213272963876 0)
(-0.00817551731674 -0.0197604549355 0)
(-0.00767444991785 -0.0182919688248 0)
(-0.00716953670446 -0.0169262981704 0)
(-0.00667721576162 -0.0156612122979 0)
(-0.0061924523748 -0.0144894417625 0)
(-0.00572544861473 -0.013408257512 0)
(-0.00528725572729 -0.012429152415 0)
(-0.00486877029916 -0.0115211851995 0)
(-0.00447417153236 -0.010696266002 0)
(-0.00410752891851 -0.00994454968928 0)
(-0.00377186924501 -0.00926000488933 0)
(-0.00346169089306 -0.00863702483299 0)
(-0.00317679564244 -0.00806596733345 0)
(-0.00291717522649 -0.00754406100716 0)
(-0.00267766973319 -0.00706011270938 0)
(-0.00246122567185 -0.00660773012884 0)
(-0.00226963722479 -0.00620124263126 0)
(-0.00209529584592 -0.00583378030599 0)
(-0.00194121639374 -0.00548452722463 0)
(-0.00180433699302 -0.00510760945718 0)
(-0.00171119892842 -0.0048077548054 0)
(-0.00167017946424 -0.00457879968214 0)
(-0.0015822856387 -0.00431139387646 0)
(-0.00144686767139 -0.00397228730673 0)
(-0.00138340984762 -0.00370677709403 0)
(-0.00136582948802 -0.00346521943638 0)
(-0.00131900166268 -0.00306341766158 0)
(-0.00134931403938 -0.00282110433442 0)
(-0.00135491436378 -0.0025094543575 0)
(-0.00140498140134 -0.00219595563029 0)
(-0.0013529910118 -0.001639510452 0)
(-0.00155701896476 -0.00130754502068 0)
(-0.00207185605487 -0.00116174206536 0)
(-0.00234026019385 -0.000813740067936 0)
(-0.00243122520773 -0.000455352499393 0)
(-0.00241710209697 -0.000148541709225 0)
(0.0237745181426 -0.00190287600907 0)
(0.0250713882905 -0.00608531736017 0)
(0.0248456389805 -0.0102156327601 7.60392519404e-28)
(0.0244497479555 -0.0143187053777 0)
(0.0239310524829 -0.0183286711962 0)
(0.0233034092719 -0.0222284072145 0)
(0.0225770755248 -0.0259965237672 0)
(0.0217670053696 -0.0296189509906 0)
(0.0208864718788 -0.0330836720468 0)
(0.0199483365842 -0.0363809430723 0)
(0.018966593456 -0.039503336907 0)
(0.0179551318269 -0.0424526805595 0)
(0.0169181592496 -0.0452178199972 0)
(0.0158670122851 -0.0478039184552 0)
(0.0148115348771 -0.0502157694444 0)
(0.0137546179745 -0.0524479414575 0)
(0.0127031193877 -0.0545070495783 0)
(0.0116596753541 -0.056395263242 0)
(0.0106269182428 -0.0581166093909 0)
(0.00960711191346 -0.059675221878 0)
(0.00860339741487 -0.0610711007464 0)
(0.00761964957285 -0.062321778302 0)
(0.0066529779909 -0.0634165802674 0)
(0.00569807434815 -0.0643623287772 0)
(0.00475008473347 -0.0651548003255 0)
(0.00381304659381 -0.0658036655253 0)
(0.00288751386751 -0.0663092948537 0)
(0.00197386795301 -0.0666719505148 0)
(0.00107132113382 -0.0669048522753 0)
(0.000176687090704 -0.06698938951 0)
(-0.00071190649631 -0.0669366856708 0)
(-0.00159439267353 -0.0667456370087 0)
(-0.00246654246377 -0.0664159183513 0)
(-0.00333027638335 -0.0659608129265 0)
(-0.00417838557508 -0.0653549521371 0)
(-0.00501013874026 -0.0646347683617 0)
(-0.00583437138556 -0.0637695770769 0)
(-0.00664599274158 -0.0627595681745 0)
(-0.00743630789318 -0.0616172480699 0)
(-0.00820377020349 -0.0603407076267 0)
(-0.00894508243564 -0.0589511171298 0)
(-0.00964804450596 -0.0574208740167 0)
(-0.0103129143414 -0.0557738815948 0)
(-0.0109301751099 -0.0540093792204 0)
(-0.0114933195231 -0.052152448974 0)
(-0.0119925028915 -0.0501854733312 0)
(-0.0124210695964 -0.0481336087993 0)
(-0.0127733080336 -0.0460068115288 0)
(-0.0130423747759 -0.0438186049028 0)
(-0.0132275563189 -0.0416005817865 0)
(-0.0133148358405 -0.0393435635633 0)
(-0.0133050500022 -0.0370770363826 0)
(-0.0132074847942 -0.0348333052805 0)
(-0.0130136991022 -0.0326064246713 0)
(-0.0127348110343 -0.030441521354 0)
(-0.0123704143181 -0.0283283935235 0)
(-0.0119449281325 -0.0263119070237 0)
(-0.011431290333 -0.0243696754377 0)
(-0.0108731634045 -0.0225598678841 0)
(-0.010296934065 -0.0208855492035 0)
(-0.00968550535633 -0.0192803299422 0)
(-0.00908707569671 -0.0178178696017 0)
(-0.00847602080831 -0.016438679475 0)
(-0.00787755760919 -0.0151707938468 0)
(-0.00730287740852 -0.0140198435365 0)
(-0.00674008900897 -0.0129513829681 0)
(-0.00620786400123 -0.011980828586 0)
(-0.00570478647463 -0.0110938913065 0)
(-0.00523802457432 -0.0102990503209 0)
(-0.00479950416388 -0.00956557071912 0)
(-0.0043952341991 -0.00890350569131 0)
(-0.0040268883069 -0.00830462306526 0)
(-0.00369231826985 -0.00775984861151 0)
(-0.00339082282855 -0.0072612864041 0)
(-0.00311853680005 -0.00680800972137 0)
(-0.00286155978441 -0.00637956013013 0)
(-0.00263257120813 -0.00600089116965 0)
(-0.00242735249245 -0.00565502894687 0)
(-0.00224869271431 -0.00531984367702 0)
(-0.00209482642141 -0.00497760492676 0)
(-0.00202116697729 -0.00478060992926 0)
(-0.00191801528848 -0.00444991547645 0)
(-0.00185511585492 -0.00423824680899 0)
(-0.00176051046008 -0.00394377406389 0)
(-0.00167887008623 -0.00363934689016 0)
(-0.00167249890697 -0.0033610975513 0)
(-0.00165171954176 -0.00303389482447 0)
(-0.00160428480207 -0.00265306157867 0)
(-0.00167391759596 -0.00238486418821 0)
(-0.0017128198371 -0.00195373399575 0)
(-0.00186293951228 -0.00166054965614 0)
(-0.00186733599111 -0.00117006642133 0)
(-0.00217033220437 -0.000910978818959 0)
(-0.00263067344481 -0.000724900089785 0)
(-0.00271326713429 -0.000405536333815 0)
(-0.00270900495462 -0.000132316214824 0)
(0.0277983743769 -0.00197259769708 0)
(0.0293108999293 -0.00630645966006 0)
(0.0290375512194 -0.010581790409 -7.60269791708e-28)
(0.0285599021849 -0.0148219503557 0)
(0.0279344617203 -0.0189577762864 0)
(0.0271776311241 -0.0229695204725 0)
(0.0263056163358 -0.0268358806891 0)
(0.0253371465208 -0.030543125861 0)
(0.024286215834 -0.0340765397439 0)
(0.0231704304805 -0.0374276617502 0)
(0.0220082816808 -0.040593523334 0)
(0.0208105561767 -0.0435686276206 0)
(0.019589012643 -0.0463519683266 0)
(0.0183572828062 -0.0489515009812 0)
(0.0171194733299 -0.0513614385289 0)
(0.0158844086834 -0.053589725465 0)
(0.0146585959971 -0.0556399782835 0)
(0.0134454601347 -0.0575165179638 0)
(0.0122474247369 -0.0592243976956 0)
(0.0110665058853 -0.0607662624976 0)
(0.00990949442211 -0.0621513025869 0)
(0.00877494262128 -0.0633838689744 0)
(0.00765559608665 -0.0644665046367 0)
(0.0065479426584 -0.0653902475697 0)
(0.00545334837131 -0.0661703872846 0)
(0.00437319817237 -0.0668064649236 0)
(0.00330835548411 -0.0672991693904 0)
(0.002257819166 -0.0676611177637 0)
(0.0012149213536 -0.067874883576 0)
(0.000179485677223 -0.0679522276699 0)
(-0.000847696119062 -0.0678911608838 0)
(-0.00186396636159 -0.067690657098 0)
(-0.00287085472029 -0.0673641827622 0)
(-0.00386698396757 -0.0668857508 0)
(-0.00484717886578 -0.0662923595396 0)
(-0.00581864574857 -0.0655498803554 0)
(-0.00678597132947 -0.0646601795578 0)
(-0.00773414923083 -0.0636312772167 0)
(-0.00866013426232 -0.0624789298171 0)
(-0.00955930806403 -0.0611748270464 0)
(-0.0104302489018 -0.0597377848349 0)
(-0.0112608715253 -0.0581687439282 0)
(-0.0120419564615 -0.0564708271968 0)
(-0.0127730221129 -0.0546663038973 0)
(-0.01344189129 -0.0527321362139 0)
(-0.0140375894127 -0.0506964089254 0)
(-0.0145479425426 -0.0485630425481 0)
(-0.0149752537901 -0.0463625198192 0)
(-0.0152963093566 -0.044080640803 0)
(-0.0155110792584 -0.0417500991709 0)
(-0.0156213257866 -0.0394044224328 0)
(-0.015608843886 -0.0370313228237 0)
(-0.0154886003925 -0.0346868959337 0)
(-0.0152516636078 -0.0323594636547 0)
(-0.0149147750535 -0.0301028233818 0)
(-0.0144623436539 -0.0279100801787 0)
(-0.0139076962322 -0.0258053663902 0)
(-0.013309378669 -0.0238784634731 0)
(-0.0126306553952 -0.0220122668288 0)
(-0.0119326967398 -0.0202855066244 0)
(-0.0112081778108 -0.0186598710246 0)
(-0.010495199355 -0.0171868812151 0)
(-0.00977418587472 -0.0158115471779 0)
(-0.00907571045197 -0.0145772189351 0)
(-0.00838127316341 -0.0134270586743 0)
(-0.00773411259592 -0.0124091653471 0)
(-0.00710770143303 -0.0114653274582 0)
(-0.00652928437374 -0.0106278181564 0)
(-0.00597896855714 -0.00985310328479 0)
(-0.00546948662118 -0.00915138394949 0)
(-0.00500954065978 -0.00853091032887 0)
(-0.00457725823314 -0.00794904012682 0)
(-0.00418884816481 -0.00742941457693 0)
(-0.00384450896689 -0.00695825225138 0)
(-0.00353297111834 -0.00653045685869 0)
(-0.00324418057774 -0.00613707147395 0)