/*--------------------------------*- C++ -*----------------------------------*\
| =========                 |                                                 |
| \\      /  F ield         | OpenFOAM: The Open Source CFD Toolbox           |
|  \\    /   O peration     | Version:  v1906                                 |
|   \\  /    A nd           | Web:      www.OpenFOAM.com                      |
|    \\/     M anipulation  |                                                 |
\*---------------------------------------------------------------------------*/
FoamFile
{
    version     2.0;
    format      ascii;
    class       volVectorField;
    location    "396";
    object      U;
}
// * * * * * * * * * * * * * * * * * * * * * * * * * * * * * * * * * * * * * //

dimensions      [0 1 -1 0 0 0 0];


internalField   nonuniform List<vector> 
9216
(
(0.00271227026219 -0.00271465864865 0)
(0.00285971205758 -0.00876060168877 1.17102234035e-27)
(0.00285159860396 -0.0149007608743 1.84253970881e-31)
(0.00281436663189 -0.0210414503756 0)
(0.00276267431788 -0.0270794541769 0)
(0.00269798404185 -0.0329905443661 0)
(0.00262198109163 -0.0387489171252 0)
(0.00253601054796 -0.0443316291657 0)
(0.00244137262353 -0.0497185265053 0)
(0.00233934001527 -0.0548922392015 0)
(0.00223117730418 -0.0598381392106 0)
(0.00211808866014 -0.0645442849367 0)
(0.00200123188945 -0.0690012897251 0)
(0.00188166196915 -0.0732021754595 0)
(0.00176036349104 -0.0771421650772 0)
(0.00163819560994 -0.0808184878737 0)
(0.00151594486557 -0.084230143014 0)
(0.00139426807783 -0.0873777009105 0)
(0.0012737634763 -0.0902630755335 0)
(0.0011549064469 -0.092889351823 0)
(0.00103813668789 -0.0952605882652 0)
(0.000923781970143 -0.0973816839797 0)
(0.000812159756256 -0.0992582185661 0)
(0.000703485372273 -0.100896360159 0)
(0.000597987811402 -0.10230273955 0)
(0.000495799814948 -0.10348439285 0)
(0.000397088400676 -0.104448662218 0)
(0.000301925602684 -0.10520316421 0)
(0.000210435264284 -0.105755708691 0)
(0.000122644768844 -0.106114285611 0)
(3.86516402102e-05 -0.106286985156 0)
(-4.15627391635e-05 -0.106282047706 0)
(-0.000117953052444 -0.106107689483 0)
(-0.000190568919898 -0.105772128063 0)
(-0.000259361837599 -0.105283597379 0)
(-0.000324409097895 -0.104650302734 0)
(-0.000385689595495 -0.103880369729 0)
(-0.000443311763671 -0.102981846076 0)
(-0.000497273422362 -0.101962647037 0)
(-0.000547708982187 -0.100830560507 0)
(-0.000594631687251 -0.0995931986862 0)
(-0.000638197701707 -0.0982580041841 0)
(-0.000678432387855 -0.096832209303 0)
(-0.000715509070171 -0.0953228429368 0)
(-0.000749461540473 -0.0937366985315 0)
(-0.000780475132484 -0.0920803410486 0)
(-0.000808588487655 -0.0903600848246 0)
(-0.000833993800548 -0.0885820000899 0)
(-0.000856731081469 -0.0867519009707 0)
(-0.000876994311087 -0.0848753504826 0)
(-0.00089482204258 -0.0829576589016 0)
(-0.000910405619386 -0.0810038864626 0)
(-0.000923779921115 -0.0790188512768 0)
(-0.000935129930767 -0.0770071285736 0)
(-0.000944485692642 -0.0749730673225 0)
(-0.00095202326235 -0.0729207853082 0)
(-0.000957767580577 -0.0708541927004 0)
(-0.000961884280987 -0.06877698209 0)
(-0.000964394050177 -0.0666926574172 0)
(-0.000965451873209 -0.0646045186986 0)
(-0.00096507578531 -0.0625156941983 0)
(-0.000963410836447 -0.0604291196625 0)
(-0.000960474705636 -0.0583475721282 0)
(-0.000956404043635 -0.0562736441805 0)
(-0.000951218621396 -0.0542097777393 0)
(-0.000945048534305 -0.0521582340519 0)
(-0.000937918027777 -0.0501211265588 0)
(-0.000929952532186 -0.0481003879141 0)
(-0.000921182585564 -0.0460978012182 0)
(-0.000911730432855 -0.0441149654158 0)
(-0.000901634034056 -0.0421533248808 0)
(-0.000891013372959 -0.0402141347817 0)
(-0.000879914028696 -0.038298489117 0)
(-0.000868453890416 -0.0364072874139 0)
(-0.000856685524418 -0.0345412617235 0)
(-0.000844724209298 -0.0327009459089 0)
(-0.000832628062875 -0.0308867020302 0)
(-0.000820508589809 -0.029098693074 0)
(-0.000808427465899 -0.0273369093009 0)
(-0.000796490792782 -0.0256011450199 0)
(-0.000784761357942 -0.0238910253239 0)
(-0.000773337803056 -0.0222059872155 0)
(-0.000762281178521 -0.0205453073415 0)
(-0.000751679955686 -0.0189080879545 0)
(-0.000741589439306 -0.0172932868599 0)
(-0.000732082740334 -0.0156997102584 0)
(-0.000723199936639 -0.0141260499018 0)
(-0.000714980581566 -0.0125708938847 0)
(-0.000707407988409 -0.0110327978833 0)
(-0.000700387093466 -0.00951038152774 0)
(-0.000693581773752 -0.00800259351302 0)
(-0.000686075121777 -0.00650939082548 0)
(-0.000675321777675 -0.0050339660617 0)
(-0.00064997660966 -0.00359878600469 0)
(-0.000605984691671 -0.00204045749415 0)
(-0.00102841963498 -0.00102815583638 0)
(0.0087806490974 -0.00288981615128 0)
(0.00970907092358 -0.00977922791131 0)
(0.00968681928492 -0.0166559196084 -1.22970863214e-27)
(0.00955753566987 -0.0235381597112 0)
(0.00937861386511 -0.0302960098277 0)
(0.00915741344592 -0.0369077616959 0)
(0.00889833379799 -0.0433460264113 0)
(0.00860558898844 -0.0495855988056 0)
(0.00828348506056 -0.0556041070752 0)
(0.00793634286035 -0.0613822452382 0)
(0.00756845076868 -0.0669037982147 0)
(0.00718392854631 -0.0721555878172 0)
(0.00678669953558 -0.0771273293662 0)
(0.006380373802 -0.0818114495246 0)
(0.00596827229635 -0.0862028516341 0)
(0.00555333574062 -0.0902986775477 0)
(0.00513819940814 -0.0940980445155 0)
(0.004725116412 -0.0976018050422 0)
(0.00431607265812 -0.100812299345 0)
(0.00391270911571 -0.103733146915 0)
(0.00351646603934 -0.106369038097 0)
(0.00312849048467 -0.10872557169 0)
(0.00274980195181 -0.110809092101 0)
(0.00238117534141 -0.112626573008 0)
(0.00202332431547 -0.114185495446 0)
(0.0016767539387 -0.115493769448 0)
(0.00134196148577 -0.116559643159 0)
(0.00101925645071 -0.117391651429 0)
(0.000708981119836 -0.11799854498 0)
(0.000411298271404 -0.118389254242 0)
(0.000126436490569 -0.118572835229 0)
(-0.000145569470694 -0.118558399788 0)
(-0.00040461289841 -0.118355158721 0)
(-0.000650762750689 -0.117972382916 0)
(-0.000883976312473 -0.117419282579 0)
(-0.00110441686171 -0.116705030106 0)
(-0.00131212663634 -0.115838711442 0)
(-0.00150735989778 -0.114829312552 0)
(-0.00169023035221 -0.113685678853 0)
(-0.001861071365 -0.112416502348 0)
(-0.00202005708963 -0.111030285667 0)
(-0.00216758710883 -0.109535331954 0)
(-0.00230388373363 -0.107939715149 0)
(-0.00242939808929 -0.10625127304 0)
(-0.00254438704059 -0.104477584742 0)
(-0.00264933726024 -0.102625966929 0)
(-0.00274452626689 -0.100703459133 0)
(-0.00283046014756 -0.0987168228612 0)
(-0.00290742372083 -0.09667253478 0)
(-0.00297592713961 -0.0945767880967 0)
(-0.00303625086566 -0.0924354933328 0)
(-0.00308889575536 -0.090254281134 0)
(-0.00313412865997 -0.0880385097812 0)
(-0.0031724305154 -0.0857932683517 0)
(-0.00320404856062 -0.0835233898377 0)
(-0.00322943677132 -0.0812334535352 0)
(-0.00324882028179 -0.0789278022079 0)
(-0.00326262287004 -0.0766105425383 0)
(-0.00327104875861 -0.0742855647397 0)
(-0.00327449215103 -0.0719565401193 0)
(-0.0032731406826 -0.0696269414527 0)
(-0.00326736278177 -0.0673000369509 0)
(-0.00325733621251 -0.0649789100646 0)
(-0.00324340971951 -0.0626664496325 0)
(-0.00322575899584 -0.0603653680742 0)
(-0.00320472010955 -0.0580781879221 0)
(-0.00318047433933 -0.055807257964 0)
(-0.00315335176136 -0.0535547368765 0)
(-0.00312354543771 -0.051322607279 0)
(-0.00309138459178 -0.0491126574937 0)
(-0.00305707796953 -0.0469264939685 0)
(-0.00302095682029 -0.0447655224317 0)
(-0.00298324662322 -0.042630959334 0)
(-0.00294428087033 -0.0405238136412 0)
(-0.00290429999398 -0.0384448981246 0)
(-0.00286363741056 -0.0363948129366 0)
(-0.00282254418068 -0.0343739574851 0)
(-0.00278134913647 -0.0323825166583 0)
(-0.00274030769832 -0.030420473946 0)
(-0.00269973797429 -0.028487600919 0)
(-0.0026598920586 -0.0265834720557 0)
(-0.00262106990908 -0.0247074577988 0)
(-0.0025835113565 -0.0228587414811 0)
(-0.00254748904043 -0.0210363162068 0)
(-0.00251321871994 -0.0192390042822 0)
(-0.00248093082875 -0.0174654582535 0)
(-0.00245079338687 -0.0157141831965 0)
(-0.0024229539142 -0.0139835409381 0)
(-0.00239745140518 -0.0122717687601 0)
(-0.00237417751639 -0.0105769595252 0)
(-0.00235264878977 -0.00889697275397 0)
(-0.00233158907693 -0.00722906305385 0)
(-0.00230771038617 -0.00556843472667 0)
(-0.00227177809292 -0.00390370009685 0)
(-0.00218123317131 -0.00217638797745 0)
(-0.00203894784887 -0.000603860150587 0)
(0.0150316525984 -0.00293567873522 0)
(0.0166439175008 -0.00993998038798 0)
(0.0165834633254 -0.0169068816874 -1.22766806634e-27)
(0.0163527480497 -0.0238897332112 0)
(0.0160413962409 -0.0307445308294 0)
(0.0156591845976 -0.0374480557538 0)
(0.0152126184802 -0.0439718812988 0)
(0.0147086344351 -0.0502902505522 0)
(0.0141545579364 -0.0563804688297 0)
(0.0135578444022 -0.0622230936661 0)
(0.0129258880828 -0.0678019406785 0)
(0.0122658140389 -0.073104001857 0)
(0.0115843633543 -0.0781192785621 0)
(0.0108877555896 -0.082840564982 0)
(0.0101816581228 -0.0872631894651 0)
(0.0094711143659 -0.0913847450868 0)
(0.00876058443246 -0.09520481006 0)
(0.00805391807756 -0.0987246843941 0)
(0.00735444378945 -0.101947135858 0)
(0.00666496115188 -0.104876176772 0)
(0.00598785601645 -0.107516857898 0)
(0.0053250909114 -0.109875097543 0)
(0.00467833005385 -0.111957527225 0)
(0.00404891364196 -0.113771370369 0)
(0.00343798385613 -0.115324332269 0)
(0.00284643599729 -0.116624517782 0)
(0.00227504291734 -0.117680353516 0)
(0.00172438144042 -0.118500531909 0)
(0.00119495680265 -0.119093953476 0)
(0.000687105725696 -0.119469686043 0)
(0.000201122766979 -0.119636919531 0)
(-0.000262848875268 -0.119604932381 0)
(-0.000704681951357 -0.119383049575 0)
(-0.00112440574147 -0.118980617956 0)
(-0.00152205803349 -0.11840696294 0)
(-0.00189782605814 -0.117671364058 0)
(-0.0022518887997 -0.116783017313 0)
(-0.00258457629445 -0.115751010901 0)
(-0.00289619701742 -0.114584292434 0)
(-0.00318720773279 -0.113291647288 0)
(-0.00345802829904 -0.111881669968 0)
(-0.00370922144641 -0.110362746149 0)
(-0.00394129648167 -0.108743029477 0)
(-0.00415489788907 -0.107030428084 0)
(-0.00435059986583 -0.105232587496 0)
(-0.00452910244917 -0.103356881875 0)
(-0.00469101925877 -0.101410403505 0)
(-0.00483707952674 -0.0993999587374 0)
(-0.00496791168811 -0.0973320638678 0)
(-0.0050842494625 -0.095212945255 0)
(-0.00518671416082 -0.0930485412111 0)
(-0.00527602269555 -0.0908445055679 0)
(-0.00535277150937 -0.0886062145688 0)
(-0.00541764428933 -0.086338772759 0)
(-0.00547120039217 -0.0840470237645 0)
(-0.0055140799047 -0.0817355572889 0)
(-0.00554679917076 -0.0794087221952 0)
(-0.00556995086968 -0.0770706332003 0)
(-0.0055840088961 -0.0747251847988 0)
(-0.00558952112914 -0.0723760564197 0)
(-0.00558692537157 -0.070026725627 0)
(-0.00557673265936 -0.067680470665 0)
(-0.00555935543934 -0.0653403818657 0)
(-0.00553527946771 -0.0630093610152 0)
(-0.00550490484037 -0.0606901301821 0)
(-0.00546870492374 -0.0583852277738 0)
(-0.00542708043863 -0.0560970147017 0)
(-0.00538050429258 -0.053827667585 0)
(-0.00532938857468 -0.0515791825342 0)
(-0.00527421471175 -0.049353366319 0)
(-0.00521541306229 -0.047151838574 0)
(-0.00515347831235 -0.0449760220617 0)
(-0.00508886123812 -0.0428271442099 0)
(-0.0050220697434 -0.0407062276247 0)
(-0.00495357234234 -0.0386140920073 0)
(-0.00488388556932 -0.0365513460144 0)
(-0.00481348870549 -0.0345183904028 0)
(-0.00474289852795 -0.0325154120789 0)
(-0.00467259480595 -0.0305423891816 0)
(-0.0046030834057 -0.0285990879007 0)
(-0.00453483202055 -0.026685069885 0)
(-0.00446832254977 -0.0247996920774 0)
(-0.00440399636527 -0.0229421165979 0)
(-0.00434229645139 -0.021111313497 0)
(-0.00428362091651 -0.0193060727206 0)
(-0.00422835419761 -0.0175250087299 0)
(-0.00417682564358 -0.0157665721756 0)
(-0.00412932585552 -0.0140290505698 0)
(-0.00408606265769 -0.0123105658805 0)
(-0.00404715500668 -0.0106090386648 0)
(-0.00401258816498 -0.00892209666403 0)
(-0.00398225376777 -0.00724683957005 0)
(-0.0039561445347 -0.00557924074108 0)
(-0.00393473043506 -0.00391230058922 0)
(-0.00390451158323 -0.00225423714947 0)
(-0.00358969973151 -0.000644171706613 0)
(0.021430461714 -0.00298097784949 0)
(0.0237472870561 -0.0100902568441 0)
(0.023657931529 -0.0171525908546 1.22709754523e-27)
(0.0233237360452 -0.024231589396 0)
(0.022873596407 -0.0311771835769 0)
(0.0223219718777 -0.0379646604689 0)
(0.0216783088492 -0.0445644159654 0)
(0.0209526984353 -0.0509499882194 0)
(0.0201558013398 -0.0570983307919 0)
(0.0192984719117 -0.062989948042 0)
(0.0183914384611 -0.0686088550975 0)
(0.0174450176858 -0.073942446148 0)
(0.0164689164198 -0.0789812796162 0)
(0.0154720674831 -0.0837188105574 0)
(0.0144625549761 -0.0881510888061 0)
(0.013447557607 -0.0922764478203 0)
(0.0124333718225 -0.0960951952806 0)
(0.0114254282761 -0.0996093228286 0)
(0.0104283752931 -0.102822237687 0)
(0.00944613047337 -0.105738526634 0)
(0.00848198987091 -0.108363748387 0)
(0.0075386841527 -0.110704260138 0)
(0.00661848902044 -0.112767069996 0)
(0.00572326672414 -0.114559718707 0)
(0.00485456463648 -0.116090180342 0)
(0.00401363352385 -0.117366784785 0)
(0.00320151049503 -0.118398151223 0)
(0.00241901332502 -0.119193136171 0)
(0.00166681014291 -0.119760785795 0)
(0.000945393515562 -0.120110297451 0)
(0.000255141584107 -0.12025097933 0)
(-0.000403718844393 -0.120192228882 0)
(-0.00103105221148 -0.119943471268 0)
(-0.00162686917502 -0.11951414824 0)
(-0.00219126380291 -0.118913682151 0)
(-0.00272446670388 -0.11815144286 0)
(-0.00322677903557 -0.117236714886 0)
(-0.00369863215894 -0.116178668875 0)
(-0.00414051534923 -0.114986331201 0)
(-0.00455303806461 -0.11366855858 0)
(-0.00493685180713 -0.112234011676 0)
(-0.00529271484894 -0.110691133981 0)
(-0.00562140909786 -0.109048130587 0)
(-0.00592380720685 -0.107312952194 0)
(-0.00620078560651 -0.105493279812 0)
(-0.00645329402557 -0.10359651435 0)
(-0.006682266099 -0.101629767558 0)
(-0.00688869116363 -0.099599857171 0)
(-0.00707352390285 -0.0975133039179 0)
(-0.00723775824089 -0.0953763318155 0)
(-0.00738233755919 -0.0931948706949 0)
(-0.00750823030433 -0.0909745608296 0)
(-0.0076163422379 -0.0887207600227 0)
(-0.00770759332874 -0.0864385514524 0)
(-0.00778283341976 -0.0841327540542 0)
(-0.00784291974489 -0.0818079321827 0)
(-0.00788863712459 -0.0794684077472 0)
(-0.00792077533474 -0.077118270159 0)
(-0.00794005463011 -0.0747613886209 0)
(-0.00794720190801 -0.0724014208565 0)
(-0.00794288190314 -0.0700418240356 0)
(-0.00792777096991 -0.067685861044 0)
(-0.00790249390361 -0.065336608906 0)
(-0.00786769401 -0.0629969618051 0)
(-0.00782397514883 -0.0606696363503 0)
(-0.00777196686981 -0.0583571711385 0)
(-0.00771227111824 -0.0560619288476 0)
(-0.00764552138334 -0.0537860927225 0)
(-0.00757233346877 -0.0515316660078 0)
(-0.00749335799378 -0.0493004662176 0)
(-0.00740923476968 -0.0470941228632 0)
(-0.00732063836506 -0.0449140706656 0)
(-0.00722823580156 -0.0427615467149 0)
(-0.00713272532395 -0.0406375838603 0)
(-0.00703479733751 -0.0385430084622 0)
(-0.00693516680641 -0.0364784350869 0)
(-0.00683453749182 -0.0344442658246 0)
(-0.00673362862455 -0.0324406871635 0)
(-0.00663314258946 -0.0304676715899 0)
(-0.00653378655859 -0.0285249771902 0)
(-0.00643624374188 -0.0266121518951 0)
(-0.00634119060271 -0.0247285359742 0)
(-0.00624927166062 -0.0228732688884 0)
(-0.00616111263249 -0.0210452943352 0)
(-0.00607729844822 -0.0192433689376 0)
(-0.00599838223124 -0.0174660683024 0)
(-0.00592486586877 -0.0157117946932 0)
(-0.005857205013 -0.0139787786768 0)
(-0.00579579418204 -0.012265075836 0)
(-0.00574097766365 -0.0105685467133 0)
(-0.00569306983581 -0.00888681865445 0)
(-0.00565245648568 -0.00721721501563 0)
(-0.00561978034263 -0.00555667722236 0)
(-0.00559525630439 -0.00390055005283 0)
(-0.00555380017407 -0.00227069955701 0)
(-0.00500688701373 -0.000663766544813 0)
(0.0279359847374 -0.00304045957653 0)
(0.0309592336085 -0.0102878350609 0)
(0.0308383671552 -0.0174825624145 0)
(0.0303953540755 -0.0246907896764 0)
(0.0297991444869 -0.0317575945683 0)
(0.0290693295571 -0.038656553008 0)
(0.0282187886843 -0.0453566285367 0)
(0.0272612011347 -0.0518304448549 0)
(0.0262109455951 -0.0580545134131 0)
(0.0250826011122 -0.0640093159284 0)
(0.0238905012674 -0.0696791999225 0)
(0.0226483607558 -0.0750521743475 0)
(0.0213690015498 -0.0801196210815 0)
(0.0200641566473 -0.0848759546908 0)
(0.0187443680369 -0.0893182562469 0)
(0.0174189423765 -0.0934459058883 0)
(0.0160959786663 -0.0972602300512 0)
(0.0147824237242 -0.100764177624 0)
(0.013484174179 -0.103962030752 0)
(0.0122061778958 -0.106859155752 0)
(0.0109525619312 -0.10946179245 0)
(0.00972673880868 -0.111776881896 0)
(0.00853152784305 -0.113811926694 0)
(0.0073692418384 -0.115574881421 0)
(0.00624178528973 -0.117074065867 0)
(0.00515071172797 -0.118318098252 0)
(0.00409729496465 -0.119315841393 0)
(0.00308255773704 -0.120076359964 0)
(0.00210732023078 -0.120608883018 0)
(0.00117220646555 -0.12092277162 0)
(0.000277677721399 -0.121027483475 0)
(-0.000575975062711 -0.120932561524 0)
(-0.00138860025955 -0.120647559788 0)
(-0.00216020755614 -0.120182052395 0)
(-0.00289093906244 -0.119545587087 0)
(-0.00358108662631 -0.118747653655 0)
(-0.00423106408055 -0.117797652023 0)
(-0.00484142449319 -0.116704861654 0)
(-0.00541282883759 -0.115478411338 0)
(-0.00594606234293 -0.11412725172 0)
(-0.00644199942969 -0.112660129068 0)
(-0.00690161925204 -0.111085562369 0)
(-0.00732596760025 -0.109411822441 0)
(-0.00771617216631 -0.107646914681 0)
(-0.00807340246896 -0.105798564307 0)
(-0.00839888550934 -0.103874205242 0)
(-0.00869386487876 -0.101880971804 0)
(-0.00895961743329 -0.0998256937574 0)
(-0.00919741275286 -0.0977148942121 0)
(-0.00940853139105 -0.0955547903936 0)
(-0.00959422580339 -0.0933512971647 0)
(-0.00975574061919 -0.0911100327113 0)
(-0.00989427608036 -0.0888363266357 0)
(-0.0100110106724 -0.0865352293513 0)
(-0.010107067956 -0.0842115234035 0)
(-0.0101835416826 -0.0818697350838 0)
(-0.0102414666279 -0.0795141472824 0)
(-0.0102818460325 -0.0771488115965 0)
(-0.0103056266438 -0.0747775609717 0)
(-0.0103137279253 -0.0724040206107 0)
(-0.0103070210431 -0.0700316187207 0)
(-0.0102863589094 -0.0676635947593 0)
(-0.0102525584083 -0.0653030070618 0)
(-0.0102064300373 -0.0629527374983 0)
(-0.0101487623666 -0.0606154953054 0)
(-0.0100803499589 -0.0582938178664 0)
(-0.010001978977 -0.0559900708316 0)
(-0.00991445218767 -0.0537064454402 0)
(-0.00981857477704 -0.0514449556063 0)
(-0.00971517558981 -0.0492074327381 0)
(-0.0096050925295 -0.0469955209642 0)
(-0.00948918961498 -0.0448106707536 0)
(-0.009368341722 -0.0426541336208 0)
(-0.00924344749085 -0.040526955913 0)
(-0.00911541351984 -0.0384299743226 0)
(-0.00898516350688 -0.0363638110764 0)
(-0.00885362226004 -0.0343288713282 0)
(-0.00872172169024 -0.0323253406774 0)
(-0.00859038514103 -0.0303531851918 0)
(-0.00846053092766 -0.0284121518116 0)
(-0.00833305749726 -0.0265017713247 0)
(-0.00820884517062 -0.0246213617691 0)
(-0.00808874255716 -0.0227700342324 0)
(-0.00797356702704 -0.0209466988301 0)
(-0.00786409271964 -0.0191500725059 0)
(-0.00776105033976 -0.0173786862167 0)
(-0.00766511762942 -0.0156308926299 0)
(-0.00757692071906 -0.0139048713395 0)
(-0.00749703214033 -0.0121986323956 0)
(-0.00742598550281 -0.0105100159667 0)
(-0.00736430552057 -0.00883669620673 0)
(-0.00731257844214 -0.00717619488374 0)
(-0.00727148047917 -0.00552595662208 0)
(-0.00724012138343 -0.00388200920676 0)
(-0.0071827949387 -0.00226838956503 0)
(-0.00644982135263 -0.000666788812853 0)
(0.0345860943321 -0.0031158282875 0)
(0.0383267085887 -0.0105407634615 0)
(0.0381697190205 -0.0179073572441 0)
(0.0376098660418 -0.0252821264207 0)
(0.0368572126513 -0.032504453202 0)
(0.0359369789264 -0.0395458180717 0)
(0.0348660403328 -0.0463734455731 0)
(0.0336622215872 -0.0529588582852 0)
(0.0323441353184 -0.0592780802682 0)
(0.0309305326407 -0.0653116589436 0)
(0.0294397204489 -0.0710444733968 0)
(0.0278890894151 -0.0764654291777 0)
(0.0262947696615 -0.0815670662371 0)
(0.0246714036589 -0.0863451194925 0)
(0.0230320331129 -0.0907980650626 0)
(0.0213880738372 -0.0949266793732 0)
(0.0197493686931 -0.0987336299802 0)
(0.0181242880736 -0.102223110955 0)
(0.0165198706524 -0.105400528577 0)
(0.0149419760739 -0.108272239312 0)
(0.013395449396 -0.110845337368 0)
(0.01188427325 -0.113127487833 0)
(0.0104117152911 -0.115126798716 0)
(0.00898045057957 -0.116851725758 0)
(0.00759267316511 -0.118311002502 0)
(0.00625017864551 -0.119513589703 0)
(0.00495443722513 -0.120468637549 0)
(0.00370663953371 -0.121185456375 0)
(0.00250773850301 -0.121673491258 0)
(0.00135846844447 -0.121942298441 0)
(0.000259367114373 -0.122001516007 0)
(-0.000789223984916 -0.12186086522 0)
(-0.00178713534475 -0.121530057043 0)
(-0.00273438643547 -0.121018832256 0)
(-0.0036311667735 -0.120336895038 0)
(-0.00447784089227 -0.119493887125 0)
(-0.00527493504074 -0.118499354437 0)
(-0.00602313787376 -0.117362714942 0)
(-0.0067232836347 -0.116093227348 0)
(-0.0073763499672 -0.114699961994 0)
(-0.00798343743723 -0.113191773634 0)
(-0.00854576491266 -0.111577277298 0)
(-0.00906464631372 -0.109864826773 0)
(-0.00954148452589 -0.108062496644 0)
(-0.00997774658239 -0.106178067374 0)
(-0.0103749572367 -0.104219014097 0)
(-0.0107346738412 -0.102192498547 0)
(-0.0110584806328 -0.100105364588 0)
(-0.0113479644921 -0.097964136767 0)
(-0.0116047109239 -0.0957750221036 0)
(-0.0118302818113 -0.0935439146132 0)
(-0.012026213949 -0.0912764024734 0)
(-0.0121939997984 -0.0889777774405 0)
(-0.012335089328 -0.0866530461187 0)
(-0.012450874622 -0.0843069427962 0)
(-0.0125426955146 -0.0819439431401 0)
(-0.0126118285702 -0.0795682786259 0)
(-0.0126594966216 -0.077183950725 0)
(-0.0126868621678 -0.0747947449318 0)
(-0.0126950403574 -0.0724042434682 0)
(-0.0126850962494 -0.0700158370137 0)
(-0.0126580602382 -0.0676327342434 0)
(-0.0126149280809 -0.065257969821 0)
(-0.0125566772941 -0.0628944096794 0)
(-0.0124842684852 -0.0605447545404 0)
(-0.0123986610924 -0.0582115406489 0)
(-0.0123008145013 -0.0558971389278 0)
(-0.0121917016276 -0.0536037516931 0)
(-0.0120723085397 -0.0513334083014 0)
(-0.0119436448157 -0.0490879590241 0)
(-0.0118067408666 -0.0468690685737 0)
(-0.0116626545447 -0.0446782086752 0)
(-0.0115124659008 -0.0425166510601 0)
(-0.0113572800926 -0.0403854603233 0)
(-0.0111982198014 -0.0382854878952 0)
(-0.0110364249195 -0.0362173665664 0)
(-0.0108730432001 -0.0341815066451 0)
(-0.010709227485 -0.0321780931605 0)
(-0.0105461253501 -0.0302070850005 0)
(-0.0103848747336 -0.0282682153524 0)
(-0.0102265933733 -0.0263609941418 0)
(-0.0100723736758 -0.0244847117896 0)
(-0.00992327268938 -0.0226384447885 0)
(-0.00978030698723 -0.020821062347 0)
(-0.00964444393099 -0.0190312343985 0)
(-0.00951659755419 -0.0172674401269 0)
(-0.00939762251532 -0.0155279771916 0)
(-0.00928831342293 -0.0138109709199 0)
(-0.00918940579267 -0.0121143843649 0)
(-0.00910158628789 -0.0104360306222 0)
(-0.00902551174978 -0.00877359660816 0)
(-0.00896183642898 -0.00712467843414 0)
(-0.00891111855313 -0.00548685988392 0)
(-0.00887151834784 -0.00385619909837 0)
(-0.00879806426648 -0.00225652260982 0)
(-0.00789165466835 -0.000664580962676 0)
(0.0414178180502 -0.00320918919672 0)
(0.045891663435 -0.0108547552975 0)
(0.0456921087356 -0.0184352946827 1.21751983769e-27)
(0.0450045551325 -0.0260167227404 0)
(0.0440816555249 -0.0334312790137 0)
(0.0429549299905 -0.0406478126292 0)
(0.0416459671526 -0.0476314396076 0)
(0.0401774585909 -0.0543524081373 0)
(0.0385729220951 -0.0607862670667 0)
(0.036855861301 -0.0669138018034 0)
(0.0350490251685 -0.0727207202006 0)
(0.0331738264589 -0.0781972079691 0)
(0.0312499314497 -0.0833373951788 0)
(0.0292950104235 -0.0881387847955 0)
(0.0273246324912 -0.0926016845343 0)
(0.0253522759355 -0.0967286733617 0)
(0.0233894291364 -0.100524123126 0)
(0.0214457510538 -0.103993786894 0)
(0.0195292704209 -0.107144457559 0)
(0.0176465989407 -0.109983695052 0)
(0.0158031465957 -0.112519616218 0)
(0.0140033224671 -0.114760739515 0)
(0.0122507178651 -0.116715875127 0)
(0.0105482617217 -0.118394051248 0)
(0.00889835171044 -0.11980446714 0)
(0.00730295539588 -0.12095646488 0)
(0.00576368946274 -0.121859512267 0)
(0.00428187362745 -0.122523191256 0)
(0.00285856991381 -0.12295718721 0)
(0.00149460417292 -0.123171276038 0)
(0.000190583140239 -0.123175302783 0)
(-0.00105311108879 -0.122979197948 0)
(-0.00223629311457 -0.122592855507 0)
(-0.0033589979276 -0.122026216529 0)
(-0.00442146487483 -0.121289173515 0)
(-0.00542413936997 -0.120391552982 0)
(-0.00636766466077 -0.119343078988 0)
(-0.00725287642438 -0.118153339 0)
(-0.00808078985894 -0.116831750807 0)
(-0.00885258977184 -0.115387531388 0)
(-0.00956961324656 -0.113829668243 0)
(-0.0102333361194 -0.112166893725 0)
(-0.0108453525003 -0.110407662678 0)
(-0.0114073590615 -0.108560133621 0)
(-0.0119211329632 -0.106632153647 0)
(-0.0123885154478 -0.104631247007 0)
(-0.0128113896729 -0.10256460751 0)
(-0.0131916649862 -0.100439094457 0)
(-0.013531256033 -0.098261232229 0)
(-0.0138320689515 -0.0960372130641 0)
(-0.0140959829994 -0.0937729031179 0)
(-0.0143248398133 -0.0914738511631 0)
(-0.0145204287136 -0.0891452999784 0)
(-0.0146844800634 -0.0867921996079 0)
(-0.0148186552317 -0.0844192224647 0)
(-0.0149245448293 -0.0820307793281 0)
(-0.015003663937 -0.0796310360889 0)
(-0.0150574555053 -0.0772239302855 0)
(-0.0150872908398 -0.074813187181 0)
(-0.0150944777469 -0.0724023345449 0)
(-0.0150802655041 -0.0699947158316 0)
(-0.0150458565694 -0.0675935012027 0)
(-0.0149924145435 -0.0652016961176 0)
(-0.0149210776457 -0.0628221473018 0)
(-0.0148329677155 -0.0604575459152 0)
(-0.0147292033942 -0.0581104281242 0)
(-0.0146109081604 -0.0557831730576 0)
(-0.014479221323 -0.053477998642 0)
(-0.0143353034485 -0.0511969554547 0)
(-0.0141803438111 -0.0489419192501 0)
(-0.0140155622179 -0.0467145824315 0)
(-0.0138422122815 -0.044516445111 0)
(-0.0136615793831 -0.0423488061081 0)
(-0.013474979846 -0.040212754403 0)
(-0.0132837554105 -0.0381091614225 0)
(-0.0130892689364 -0.0360386744667 0)
(-0.0128928962019 -0.0340017116381 0)
(-0.0126960190974 -0.0319984583595 0)
(-0.0125000157844 -0.0300288657944 0)
(-0.0123062524683 -0.0280926510448 0)
(-0.0121160729923 -0.0261892993658 0)
(-0.0119307902541 -0.0243180681053 0)
(-0.0117516762426 -0.0224779925157 0)
(-0.0115799540904 -0.0206678930252 0)
(-0.0114167895356 -0.0188863840357 0)
(-0.0112632847117 -0.0171318837999 0)
(-0.0111204723769 -0.0154026255579 0)
(-0.0109893132685 -0.0136966697616 0)
(-0.0108706956026 -0.0120119185423 0)
(-0.0107654390436 -0.0103461338824 0)
(-0.0106743013455 -0.00869696603216 0)
(-0.0105979775408 -0.00706198654461 0)
(-0.0105369395048 -0.00543873916969 0)
(-0.0104886600969 -0.00382312274302 0)
(-0.010399617466 -0.00223837929902 0)
(-0.00932491269574 -0.00065968093624 0)
(0.048472244911 -0.0033226546516 0)
(0.0536992620539 -0.0112364459402 0)
(0.0534487800624 -0.0190768869275 -1.21687125281e-27)
(0.052619441431 -0.0269086225241 0)
(0.051508478532 -0.0345549910051 0)
(0.050154655499 -0.041981559903 0)
(0.0485852327073 -0.0491509213592 0)
(0.0468287148121 -0.0560319046172 0)
(0.0449143913556 -0.0625996783837 0)
(0.0428712551361 -0.0688355564956 0)
(0.0407270763188 -0.0747265087968 0)
(0.0385077019536 -0.0802645235143 0)
(0.036236587525 -0.085445883067 0)
(0.0339345423746 -0.0902704195177 0)
(0.0316196582796 -0.094740800963 0)
(0.0293073817404 -0.0988618845347 0)
(0.0270106910192 -0.102640157091 0)
(0.0247403397792 -0.106083272334 0)
(0.0225051365545 -0.109199683786 0)
(0.0203122333134 -0.111998366652 0)
(0.0181674051856 -0.11448861776 0)
(0.0160753065849 -0.116679920864 0)
(0.0140396966571 -0.118581864121 0)
(0.0120636280737 -0.120204096909 0)
(0.0101495995588 -0.121556314137 0)
(0.00829967184475 -0.122648257551 0)
(0.00651555220037 -0.123489725187 0)
(0.00479865043681 -0.124090582042 0)
(0.0031501138475 -0.124460767038 0)
(0.00157084447458 -0.124610291399 0)
(6.15140733302e-05 -0.124549231671 0)
(-0.00137746119681 -0.124287748063 0)
(-0.00274588347181 -0.123835950619 0)
(-0.00404380329683 -0.123204010667 0)
(-0.00527151335245 -0.122402043023 0)
(-0.00642954655027 -0.121440093338 0)
(-0.00751867023335 -0.120328097796 0)
(-0.00853987827411 -0.119075846316 0)
(-0.00949437843103 -0.11769294674 0)
(-0.0103835781558 -0.11618879129 0)
(-0.0112090662966 -0.114572525753 0)
(-0.0119725942112 -0.112853022185 0)
(-0.0126760536794 -0.111038855209 0)
(-0.0133214552848 -0.109138282462 0)
(-0.0139109045135 -0.107159228977 0)
(-0.0144465793106 -0.105109275884 0)
(-0.0149307061646 -0.102995653026 0)
(-0.0153655385041 -0.100825235752 0)
(-0.0157533343196 -0.0986045453995 0)
(-0.0160963368745 -0.0963397536013 0)
(-0.0163967552796 -0.0940366898702 0)
(-0.0166567489006 -0.0917008524469 0)
(-0.0168784122453 -0.0893374218129 0)
(-0.017063764387 -0.086951276622 0)
(-0.0172147393928 -0.0845470114088 0)
(-0.0173331818102 -0.0821289555527 0)
(-0.0174208434513 -0.0797011928682 0)
(-0.017479385398 -0.0772675810526 0)
(-0.0175103812092 -0.0748317704551 0)
(-0.0175153249829 -0.0723972212705 0)
(-0.0174956400664 -0.0699672188296 0)
(-0.0174526917037 -0.067544886132 0)
(-0.0173877993806 -0.0651331936023 0)
(-0.0173022517606 -0.0627349654134 0)
(-0.0171973201775 -0.0603528827091 0)
(-0.0170742732206 -0.0579894833745 0)
(-0.0169343888139 -0.0556471590001 0)
(-0.0167789660459 -0.0533281489909 0)
(-0.016609333758 -0.0510345326688 0)
(-0.0164268579471 -0.0487682195464 0)
(-0.0162329456428 -0.0465309386749 0)
(-0.0160290471671 -0.0443242273537 0)
(-0.0158166550271 -0.0421494200248 0)
(-0.0155973012276 -0.0400076376428 0)
(-0.0153725517134 -0.037899778174 0)
(-0.0151439995997 -0.035826508447 0)
(-0.0149132562301 -0.0337882578003 0)
(-0.0146819415799 -0.0317852136463 0)
(-0.0144516732524 -0.0298173191875 0)
(-0.0142240554343 -0.0278842732925 0)
(-0.0140006671866 -0.0259855325789 0)
(-0.0137830512747 -0.0241203156132 0)
(-0.0135727030013 -0.0222876091223 0)
(-0.0133710600862 -0.0204861760638 0)
(-0.0131794931478 -0.0187145653714 0)
(-0.0129992977097 -0.0169711232493 0)
(-0.0128316874139 -0.0152540059602 0)
(-0.0126777892486 -0.0135611942914 0)
(-0.012538640482 -0.0118905102563 0)
(-0.0124151874306 -0.0102396370662 0)
(-0.012308283852 -0.00860614705838 0)
(-0.0122186762707 -0.00698752580763 0)