/*--------------------------------*- C++ -*----------------------------------*\
| =========                 |                                                 |
| \\      /  F ield         | OpenFOAM: The Open Source CFD Toolbox           |
|  \\    /   O peration     | Version:  v1906                                 |
|   \\  /    A nd           | Web:      www.OpenFOAM.com                      |
|    \\/     M anipulation  |                                                 |
\*---------------------------------------------------------------------------*/
FoamFile
{
    version     2.0;
    format      ascii;
    class       volVectorField;
    location    "3";
    object      U;
}
// * * * * * * * * * * * * * * * * * * * * * * * * * * * * * * * * * * * * * //

dimensions      [0 1 -1 0 0 0 0];


internalField   nonuniform List<vector> 
24444
(
(0.108062383366 0.0402954918486 0)
(-0.00870926095837 0.000463830446702 -1.00905612056e-18)
(-0.00943854849795 -0.00188945390475 -2.35435300863e-18)
(-0.0213783863146 0.0118420237337 3.29308786037e-19)
(-0.0179297581065 0.0106153020867 0)
(-0.014846451973 -0.00396057554245 2.64542037372e-18)
(-0.0168034484729 -0.0192548338125 3.91502839197e-18)
(0.143566346472 0.107683342737 2.68152628576e-18)
(-0.00118807640689 -0.0322756774509 -1.93412629293e-18)
(-0.0582424639003 -0.160461146802 3.61187642725e-18)
(-0.0304631821662 -0.0091554298643 0)
(0.0234294569105 0.0307136465007 2.99849794654e-19)
(0.0219288871355 0.0273598102884 -1.59997379982e-19)
(-0.0107753110537 3.27665500442e-05 -3.50065299754e-19)
(0.0168479825273 0.007573073607 8.09036922277e-21)
(-0.078446205529 -0.0122889843814 -1.21894520471e-18)
(-0.000651582059047 -0.0267944061167 -1.85485384657e-18)
(-0.00246345706212 -0.00752882220409 1.05152383564e-18)
(-0.0630677902067 0.0225904944858 0)
(-0.011253826821 0.0107494351753 1.43612466221e-19)
(-0.0567921907061 -0.0467027456037 -8.42019303035e-19)
(0.119831748861 0.167368673094 6.70411473841e-18)
(0.115807521211 0.210167120912 -2.94224058481e-18)
(-0.009425849119 0.000498623093695 0)
(-0.00902574538492 0.000506140220448 -6.39309328159e-19)
(-0.00176862444336 -0.0322387714306 3.83743426296e-18)
(-0.000800668610824 -0.0316304587076 -4.12238389095e-18)
(0.00622220255448 0.0370605255992 0)
(0.00764572838113 0.0358787370267 3.52216635612e-19)
(-0.0194611897869 -0.00228202274172 3.78148561406e-19)
(-0.000154826658586 -0.0635512351453 -2.35795598343e-18)
(-0.00413938435346 -0.0301932952144 0)
(-0.0146183507778 -0.0039697058847 -1.79537664733e-18)
(-0.0755970105618 -0.106016158811 0)
(-0.077295839597 -0.0367784025557 -1.28205796107e-18)
(-0.029128064547 -0.000638019245643 0)
(-0.00280224921168 0.000795415937895 0)
(-0.00872702571858 0.00350764305344 -9.52590056718e-19)
(0.00336546414685 -0.0429117104849 0)
(0.00778806654354 0.0495885341671 0)
(0.00209727241016 -0.0423609755994 0)
(0.00737113719157 0.0508283986347 0)
(-0.00771387269961 -0.00556253124303 0)
(-0.00777099642256 -0.00529004491155 -5.34122001013e-19)
(-0.00326285449995 -0.0648919402553 -2.49980632184e-18)
(-0.0081476894075 0.00484926197322 4.01697691158e-19)
(-0.0122870566979 0.00988528988691 6.90111636229e-19)
(-0.0384381729937 -0.0173670430861 0)
(-0.0145820730343 -0.0215607818432 -3.00570208656e-18)
(-0.00332671753378 -0.0053874728274 -2.13060696427e-18)
(-0.104676410118 0.0510855088188 -6.8318269279e-19)
(-0.0114111070539 0.0111073958433 1.58457116617e-19)
(-0.00423351878665 -0.00483078611606 -2.03786383943e-18)
(-0.00216212632955 0.0132866356412 0)
(-0.0129739838744 -0.00333999179533 -1.63134093261e-18)
(-0.0471941349626 0.00917317321969 -3.65945066304e-19)
(-0.0100348870947 0.0105322937638 2.34364571022e-19)
(-0.0332331131279 -0.0323000007514 -1.3452971876e-18)
(-0.0739794421615 -0.111088696428 -8.48079825834e-18)
(-0.0116820580853 -0.00104448760523 1.61783182761e-18)
(-0.011132771393 0.000456801599225 3.48170547679e-19)
(-0.010979661573 0.000461867367875 7.5104381428e-19)
(-0.0135555979245 -0.00671569905681 1.05493326677e-18)
(-0.00824327189975 -0.00294736073921 -9.55845030663e-19)
(-0.0416921197471 0.00219122617477 6.75791192135e-19)
(-0.0304782080055 -0.00849202120542 2.82057816077e-18)
(-0.0186245194492 0.000953393671895 -1.27961802489e-18)
(-0.0106631023787 -0.0084534968342 -5.59348771383e-19)
(-0.0107135736109 0.00486174027289 0)
(-0.00835752067488 -0.0100602157079 0)
(-0.00641926285163 -0.0101236654107 1.08899014032e-18)
(0.00391433457458 0.0395537064497 0)
(0.0104062709066 -0.0473504773066 -4.42044545332e-18)
(-0.00672098425965 0.00620345326306 0)
(-0.00475142168301 -0.00553858277087 1.32675770208e-18)
(-0.0113229238765 0.000720008359815 0)
(-0.000609224631589 -0.0194299515643 -4.64890181378e-18)
(-0.00814754327444 -0.00310703418426 9.54288394908e-19)
(0.00687192669305 0.0318596623928 0)
(-0.0276149137529 -0.0047784645386 0)
(-0.00831797005697 -0.0120433588718 -3.02034864818e-19)
(3.55174639738 0.00409352423777 -3.36718078611e-18)
(-0.000142569833615 -0.00917997844249 0)
(-0.00594266552692 -1.44789222856e-05 -6.82208820696e-19)
(-0.0144998429776 0.00127683123056 0)
(0.00150417549444 0.0379508774883 0)
(0.162880667244 0.0364496241001 -2.83942625869e-18)
(-0.00913642993047 0.000263607557157 0)
(-0.00120990621996 -0.0313251496717 -2.02417656949e-18)
(-0.0119573777383 0.00422198519029 0)
(-0.0105859995422 -0.000129724883881 3.46483166228e-19)
(0.0176439064241 0.00848587578343 8.65723706487e-21)
(-0.124382482876 0.014744377201 1.16365306388e-18)
(-0.00131980351796 -0.0269893408892 0)
(-0.0139109229469 0.0114054771716 3.0804428522e-19)
(-0.0106515077984 0.000138529608021 -1.87359754461e-18)
(-0.130881629698 -0.00624288631168 8.62128118752e-20)
(-0.00831416071341 0.0034948609085 0)
(-0.0131930286082 0.00140313102398 -1.15855958673e-18)
(-0.0177609040012 -0.00210643139606 -7.39353313199e-19)
(-0.015771069861 0.0044750929984 6.20505407097e-20)
(-0.0149086648583 0.0105645826466 4.39460510966e-19)
(-0.0132275543185 0.0102563445104 3.07947906507e-19)
(-0.000976903233186 -0.0194860703557 3.39036187411e-18)
(-0.0366209100946 -0.0157785370982 -1.03924537554e-18)
(0.00283531114458 -0.0320899828415 9.59381512271e-18)
(0.00202143687852 -0.0319681228639 -4.84180353402e-18)
(-0.00555140180898 -0.00118417334452 2.05254977685e-18)
(-0.0057101303809 -0.00117382543231 0)
(-0.0180256582667 0.00517632045446 1.13359403726e-18)
(-0.0106444017028 -0.00137251472807 1.80123872146e-18)
(-0.0133542486603 0.00659410602895 -9.36010634357e-19)
(-0.0892350654176 0.0422072338264 0)
(-0.0118034118802 0.00226496801609 1.15604581814e-18)
(-0.0109120798603 -0.000301381278788 1.49465427329e-18)
(-0.122269500963 -0.00796488993886 0)
(-0.00904302240532 0.00344400072788 0)
(0.0862643293193 -0.0306080496218 3.15235906956e-18)
(0.0781010320289 -0.0406595655044 0)
(-0.00202269988963 0.013101879306 0)
(-0.00311798491175 0.0123532793314 -6.05812165483e-19)
(-0.00100438113445 -0.00851245631219 -5.85635562659e-19)
(-0.00128757669019 -0.00859840901949 5.9994088673e-19)
(-0.00742848020922 -0.00084528883203 1.89650739527e-18)
(-0.00776154018148 -0.000335626485063 -1.95210407861e-18)
(-0.00544755844106 -0.00350771069475 9.93331552455e-19)
(0.00963988352293 -0.0349813909234 -2.3110739647e-18)
(-0.0117438951306 0.00935647212614 -4.68620979772e-19)
(-0.00238276598468 -0.00748110637452 0)
(-0.00379391969298 -0.0259557516485 2.81606115262e-18)
(-0.0408597209148 0.00916602304402 -9.21701943644e-19)
(-0.00159521493131 -0.00891020135206 0)
(-0.00953016128447 -0.0121524829134 0)
(-0.0205732624599 0.0502094793689 -3.14885057774e-19)
(-0.0205602925641 0.0516163776607 1.55337666392e-18)
(-0.0109456084408 -0.0404482083956 0)
(-0.0118724248222 -0.0394313936252 0)
(-0.0153372231353 -0.0213158841732 3.60020682175e-18)
(-0.0047924246841 -0.00559976424307 1.87082936325e-18)
(-0.0074339739741 0.00650608158715 0)
(0.0336762074111 0.113363591296 2.02133393506e-18)
(-0.00874118353382 0.00139565094421 0)
(-0.00186884011188 -0.0301494019386 -5.05459298969e-18)
(-0.00960623098716 0.0399833373448 1.06430899681e-18)
(-0.00596520448393 -0.00984413473429 0)
(-0.0110519644626 0.00129173515619 -6.35183092287e-19)
(-0.00868565020904 -0.0116846405509 -2.77562360041e-21)
(-0.112009355739 -0.00220747911688 0)
(-0.010647805312 0.0166077299157 -6.94784181956e-20)
(-0.0135047967999 0.000314066045881 7.31617402233e-19)
(-0.0295737127834 -0.00165376063952 0)
(-0.114208101089 0.00849303038646 0)
(-0.114310175312 0.000661855724684 -2.85842833585e-19)
(-0.00786277625451 -0.0135949072339 4.00223287037e-18)
(-0.0134259642571 0.0156483534885 0)
(-0.00161685184233 -0.0177400318479 0)
(-0.00210930902223 -0.0172192576746 3.35680226395e-18)
(-0.0224714717232 0.0095500661163 -4.76101331346e-19)
(-0.0225904428544 0.00944704519401 1.13452355128e-18)
(-0.0505688797379 0.0304167076408 6.45636088659e-20)
(-0.0502577545392 0.0288549096363 5.29653646677e-22)
(-0.0229956046716 -0.00717998450424 -2.57300509101e-18)
(-0.00826964003457 -0.0112417132883 0)
(-0.0124363517385 0.0169269737806 0)
(-0.0143329989858 1.73905079843e-05 0)
(-0.0147681591061 -0.0171863404173 1.27311847785e-18)
(-0.0111797286853 -0.0228693311473 0)
(-0.00802881300959 -0.0146535995576 6.22851169848e-19)
(-0.00786271188675 -0.013704819129 -1.28743446397e-18)
(-0.00617461460024 -0.00072003812673 -1.79079465188e-18)
(-0.0140176851627 -0.023593284785 0)
(-0.0255305155012 -0.0133937378773 0)
(-0.0254050776658 -0.0128453708603 -3.18003365627e-18)
(0.0107643867708 -0.0521156216082 4.35766251503e-18)
(0.0091906387576 -0.050648315939 -6.1407101736e-18)
(0.00318470909347 0.0412615267726 2.59181927542e-18)
(0.00283545469479 0.0419676081025 -1.35156069032e-18)
(-0.00653776414066 -0.0076868227292 2.08105438709e-18)
(-0.0066341556009 -0.00737922376351 -2.35887588527e-18)
(-0.00908173819612 0.00791798958081 4.00095685012e-19)
(-0.00907742438278 0.00824563882264 0)
(-0.0550807301376 -0.0792503329797 2.26978551048e-18)
(-0.0124763843253 -0.00697000871504 -2.05290584395e-18)
(-0.00975745591978 0.0230817775123 6.59577249625e-20)
(-0.0143027671525 0.0013020306705 0)
(-0.0197002369006 0.00849485044 8.10966003637e-19)
(-0.00325723833075 -0.00516951403003 0)
(-0.00313439030276 -0.00545562697594 2.1131102677e-18)
(-0.0465416263325 0.0244435224351 7.38893862585e-20)
(-0.0201960381487 -0.0189825940343 5.12876248729e-18)
(-0.020586095235 -0.0193694130643 -4.96552872168e-18)
(-0.00465614121477 -0.00557184923531 2.32546764968e-19)
(-0.00683395685933 0.00634236744451 1.67857743254e-19)
(-0.0391514983376 0.0212816715755 1.95641759734e-19)
(-0.0214828092451 -0.00741462262808 -1.78012561244e-18)
(-0.00987064779926 -0.00136871871503 -1.76852057466e-18)
(-0.0114566315488 0.0049207277967 -5.23400353789e-19)
(-0.0245614743926 0.00432843726828 0)
(-0.0119786860934 0.00105488663561 7.33343139699e-19)
(-0.00378934551525 0.0155548671482 0)
(-0.00855768301409 -0.000425671541481 9.9172623341e-19)
(-0.0127306535216 0.0102892775124 -2.10933527806e-19)
(-0.01284914572 0.00131958523842 0)
(0.167881322701 0.201372077341 0)
(-0.00185893101307 -0.0312980724509 0)
(-0.0358194830965 0.0385748424706 0)
(-0.0365559814869 0.0383982025858 -2.47277247609e-19)
(-0.0208123919869 -0.0301269250953 -1.99399196793e-20)
(-0.0198299561049 -0.0306126264399 4.81862918578e-18)
(-0.00568300192298 0.00955204031514 0)
(-0.0294491537837 0.0182128775971 -9.44560237562e-21)
(-0.0048301021625 -0.0109389593333 0)
(-0.0835907325977 -0.00873863322127 -2.2873132751e-18)
(-0.0150707745079 -0.0180636388207 -2.46065982844e-18)
(-0.0643033184592 4.75298832786e-05 0)
(-0.0104429087468 -0.00101806475363 0)
(0.00784641291823 0.0312779692037 2.46911174992e-19)
(-0.00473017600654 -0.0181421232173 1.34193994507e-18)
(0.15073275245 0.0903160647177 0)
(-0.00202304696811 -0.0320280008922 5.14919355906e-19)
(0.0376568594378 -0.100292020255 6.49684911747e-18)
(-0.00427100276581 -0.012127611448 1.23359678741e-18)
(0.00371751078446 0.0363969058646 0)
(-0.0238912678743 -0.00108651984133 1.09150527453e-18)
(-0.00315032235522 -0.00560485980532 -2.42575672274e-18)
(-0.00306199233371 -0.00527981718927 2.05578681003e-18)
(-0.00254251435811 0.0346749875044 -3.14665437173e-19)
(-0.0132655421645 -0.000566640562051 1.73732761869e-19)
(-0.0294527947113 0.04459187159 -1.05470618794e-19)
(-0.0321626781133 0.043578399265 -6.85453194316e-19)
(-0.0165137404831 -0.0379379291776 -3.46134712607e-18)
(-0.0171411770436 -0.0375506499558 3.19895687957e-18)
(0.00853253482855 0.0260209964494 -1.54833584683e-19)
(0.00792028578733 0.0266536982839 0)
(-0.00200817083768 0.00494130635386 -3.5179298226e-19)
(0.0297054756248 -0.0155537933579 0)
(0.007160639917 0.026612803641 -9.08050512311e-19)
(-0.0148000570038 -0.00378653986263 0)
(-0.01171128683 0.000851605944525 -5.123397915e-21)
(-0.0284241430369 0.000378030678268 0)
(-0.0878429666161 -0.0907387766868 0)
(-0.0162617298581 -0.0066417551018 -1.90974298136e-18)
(-0.00708225015722 0.000347629559569 0)
(0.000778708852954 -0.0317610918974 1.14594737725e-18)
(-0.00301084004508 -0.00564075042883 1.62577347395e-18)
(-0.0326759767836 -0.018680828323 1.84092024462e-18)
(-0.0158474744747 0.00518661902702 3.88520259122e-19)
(-0.00648685817127 -0.00790019501401 0)
(-0.0197526802856 0.00495377819166 -1.24923373344e-19)
(-0.00667720790789 0.0388598731269 -9.4797308246e-19)
(-0.0117211812632 0.00405198822337 2.77322161025e-19)
(-0.0148896897053 -0.0176662530277 2.62611922175e-18)
(-0.00786693244573 -0.00234166817623 0)
(-0.0108572812947 -0.000807965826147 -8.18228185468e-19)
(-0.011063884178 0.00102464738604 1.5231254493e-18)
(-0.00247075190297 -0.00516529014538 0)
(-0.00249828406335 -0.00490234665018 -2.04093461399e-18)
(-0.0130483944805 -0.0194100408888 0)
(-0.00384801166329 -0.00459962851241 0)
(-0.0228774799458 -0.00835675494011 -8.82401247485e-19)
(-0.0907065850605 -0.0276625241842 6.62456907701e-20)
(-0.00256241844688 0.0338071095735 -3.87293094176e-19)
(-0.0151207657554 0.0927262641963 -1.31120615288e-18)
(-0.0100067831461 0.00116833824553 0)
(-0.00596562028788 -0.033586840808 2.76217066027e-18)
(-0.0925541614927 -0.0142311577495 1.17577057646e-18)
(-0.0151270367878 0.0126799208109 2.33038498046e-19)
(-0.00952209067461 -0.000737363323997 -4.11986487427e-19)
(-0.00380737442733 -0.00465911959176 -1.62637347764e-18)
(-0.00625025192563 -0.000268763738506 2.05597261937e-18)
(-0.000453134255884 -0.00695345520292 2.24177332918e-18)
(-0.000886822907079 0.00948241671145 5.35055970091e-19)
(0.00449411051803 0.0387973017831 -7.44931382932e-19)
(0.0120536463207 -0.0469938929289 4.69967513863e-18)
(-0.00668293453842 0.00625029904906 0)
(-0.00466467072044 -0.00560773721521 -2.14177125556e-18)
(-0.0136333269276 0.00847503233787 3.3075125013e-19)
(0.00641839077763 -0.055348679239 -4.16786297131e-18)
(-0.0373982223186 -0.0113104105839 1.42963846985e-18)
(-0.0360378492409 -0.0113446954033 1.91334085632e-18)
(0.0275412869947 -0.0696589365285 3.70086931041e-18)
(0.0226875385172 -0.0759433995557 0)
(-0.00369049106966 -0.0289909337837 2.90525311256e-18)
(-0.00249940545841 -0.00305123016439 1.04859204248e-18)
(0.0184761347192 -0.0209697929576 -2.77262932964e-18)
(-0.00317978608502 0.00350378719088 0)
(0.0150930393319 0.023546635455 2.39096017504e-18)
(-0.0881386903565 0.0354049566601 4.55809568774e-19)
(-0.00369506840061 -0.000730382249447 9.97510864435e-19)
(-0.0372596586426 -0.0119146349575 4.93567792133e-19)
(-0.0363611659978 -0.0124135873703 -9.68329782769e-19)
(-0.0378208744295 -0.0704890800294 -5.4376319864e-18)
(-0.03831469258 -0.0668270362688 2.09728951457e-18)
(0.00264358649285 0.0558672218257 0)
(-0.00843113380557 -0.00432466705561 -1.0212781979e-18)
(-0.0107081839776 0.0114242820288 0)
(-0.0269140002913 -0.00466422305391 3.37920076915e-19)
(-0.0108654643346 0.0140248139816 -2.20148794152e-19)
(-0.010352708623 0.0140311828039 0)
(-0.0103565648384 0.000932142783791 0)
(-0.0087270859348 0.00141464127376 0)
(-0.00375859776855 -0.0302234252252 -1.86165218971e-18)
(-0.102220399757 -0.101422279518 -2.60114070562e-18)
(-0.103921657853 -0.088555938881 2.40755837791e-18)
(-0.0311249891869 -0.018239056546 0)
(-0.00338377700529 -0.0138432602108 -1.25375641942e-18)
(-0.00296950621205 -0.0134094394479 1.23951738478e-18)
(-0.0106014343894 -0.0235418165579 0)
(-0.0250066795485 -0.011506716206 0)
(-0.014092925631 -0.0163836567 -5.78328849203e-19)
(0.0106201526017 -0.0231800803655 -7.92411791229e-18)
(-0.012467671252 0.00774993203068 -5.33270070393e-19)
(-0.0188044337588 0.0143909704042 -3.76808911607e-19)
(-0.0405708845933 -0.0287365224277 2.51650322015e-20)
(-0.0368205477259 -0.0199522853682 2.9249684376e-18)
(-0.00866768434103 -0.000615677061714 2.36368425131e-19)
(0.00260560480322 0.035304340189 0)
(0.00424851685146 0.0291749769322 2.23210904085e-19)
(-0.00226570356734 -0.0182284245682 3.30412776555e-19)
(-0.032647401957 0.0139808370511 0)
(-0.0193338056662 0.0112007104213 -1.11488665655e-19)
(0.0420067489572 0.107545584672 -1.13578640549e-18)
(-0.00921409597465 0.00118967096539 -8.49759060527e-19)
(-0.00196152713953 -0.0320334752208 2.12005857314e-18)
(-0.0207569593878 0.00450777993116 -1.51342655644e-18)
(-0.00919341866812 -0.00128808417846 0)
(-0.0127419313418 0.00107634027629 0)
(-0.0177211790064 0.00517771059881 -9.11254897536e-19)
(-0.0175959152263 0.0056540540873 1.1122607588e-19)
(-0.0262936086642 0.0220710564301 0)
(-0.0265531109148 0.0217799791787 -3.84768511673e-19)
(-0.0244500043491 0.0112133795479 -3.93131690873e-19)
(-0.00911315434288 -0.00152739078488 -7.78668598272e-19)
(-0.0138944885789 -0.0171393012499 -7.1538856584e-19)
(0.00620928065759 -0.0451154046664 0)
(0.00596948364055 -0.0455417784497 0)
(0.00321695027372 0.0458807993429 2.16111111472e-18)
(0.00367315954583 0.0454959305105 -7.1526926927e-19)
(-0.0058831295618 -0.00669675206985 0)
(-0.00611863581961 -0.00694009070221 0)
(-0.0224136066385 -0.00625338232201 4.47298932276e-19)
(-0.012832732337 -0.0185829133756 -1.32747698832e-18)
(-0.0911441375695 -0.0634967537999 0)
(-0.0128212702432 0.000328086081838 -6.7572109906e-19)
(-0.021789268685 -0.00708828357277 1.72740004054e-18)
(-0.0199575724316 0.00468742742057 9.34963985219e-19)
(-0.0192228640389 0.00467034636266 1.21764952544e-18)
(-0.0117306863135 -0.000860706820138 -4.4226865269e-19)
(-0.00676837741322 -0.00750536992146 0)
(-0.00702607288963 -0.00906408186144 0)
(-0.0100128406404 0.00506741546852 -4.17407220777e-19)
(-0.024695128469 0.000953578080135 -1.37270330569e-18)
(-0.0227259116709 -0.0522318343334 0)
(-0.0108186762749 -0.00967713039709 0)
(-0.0322314495662 0.0112612279045 1.28160852744e-18)
(-0.0860375727228 -0.00875274128769 1.02319028129e-18)
(-0.0146769913094 0.0168005387563 0)
(0.0616767491995 -0.0350712289811 -7.60873095162e-19)
(-0.00151929142838 -0.00788887668586 8.34697211926e-19)
(-0.00819943468698 -0.00232169343415 4.77221846177e-19)
(-0.0274075178728 -0.0360680702289 -1.48086186619e-18)
(-0.0294675352967 -0.035071396944 1.47765413069e-18)
(-0.0120228459033 0.0113610439312 -1.21720670832e-20)
(0.0168334343322 0.021826414669 -6.50968732779e-20)
(-0.0104450490287 0.000673481848601 0)
(0.0166054676923 0.0202234721376 0)
(-0.0104904633527 0.000669532049833 1.5584993953e-18)
(-0.0107760577175 -0.00345508720592 -9.41461007977e-19)
(-0.0142799014236 -0.00816200216368 -3.47327222958e-20)
(-0.0135366352094 0.00922288298733 1.03740480027e-20)
(-0.0135443418554 0.00906763080746 6.2407748326e-19)
(-0.0312917754752 -0.00672770769829 -1.72543822068e-18)
(-0.00645300103521 -0.0081393760331 2.01589996334e-18)
(-0.0107629040265 0.00450457263329 0)
(-0.0133060835695 0.0010809407054 1.7719973353e-18)
(-0.0149938954219 -0.00382630852529 -4.15039908334e-19)
(-0.00657030040737 -0.000831760263554 1.89477261585e-18)
(-0.0198188420097 0.0168339589692 2.0216944745e-19)
(-0.0199072536659 0.0155999034633 -4.13218239339e-19)
(-0.0153175379104 0.00114422122772 5.51742035708e-21)
(-0.0140613302338 0.00136451465135 3.48916486585e-19)
(-0.0346691414789 0.00983280462263 -2.28203930933e-19)
(0.00106019806242 0.0323452567966 -3.63530360301e-19)
(0.0617729641555 0.00537393183336 -1.65656995386e-18)
(-0.0392454292878 -0.0179961388315 0)
(-0.0295316536097 0.0837444876465 0)
(-0.00749229277327 -0.0333603889231 4.39287201034e-19)
(-0.0268483179371 -0.00613028244329 -9.38091015168e-19)
(-0.0271059708391 -0.00641140881364 1.98088059658e-18)
(-0.0202713045704 0.00365850181985 -5.63687673482e-19)
(-0.0131918031533 -0.0126914806108 0)
(-0.019684124523 0.00448605895741 1.16197092166e-18)
(-0.010540420482 -0.000341697815689 -7.92055816708e-19)
(-0.027438425267 0.0156346020523 6.11581277574e-19)
(-0.027209918535 0.0151807090219 -3.17689570113e-19)
(0.00642763266507 -0.0540408394983 -1.01069164292e-18)
(-0.0295410500508 0.0187017607893 -2.40860635433e-19)
(0.0387379865802 -0.0820916990958 0)
(-0.00464456523824 -0.00997804970845 -1.49305281859e-22)
(-0.00907637364937 0.00165604701494 4.61971141659e-21)
(-0.00301979709779 -0.0295636884997 -2.13137898293e-18)
(-0.0135524944717 0.0067769956659 0)
(-0.0138886100342 0.00638467310264 0)
(-0.103222726962 0.0491789281435 6.66867104377e-19)
(-0.0635961055321 0.0007012581708 2.99507453381e-19)
(-0.0216643639667 -0.0397840525418 -1.40752242102e-18)
(-0.0182153243944 -0.0023518112098 2.68839366243e-18)
(-0.0118572670083 -0.00111444895551 8.00534510321e-19)
(-0.0118471457775 -0.00114203732131 -3.93209011055e-19)
(-0.0103406450581 0.00769489535127 -4.16982166121e-19)
(-0.0105267990308 0.00752150440721 -4.07769193842e-19)
(-0.0306105520019 0.01841553972 -2.84525992047e-19)
(0.017740601429 -0.108451465234 0)
(-0.0451194715369 -0.0174574863644 0)
(-0.0465769885003 -0.0157708340535 9.54259934083e-19)
(-0.00360884055495 -0.000749377130459 -9.90076511436e-19)
(-0.0166000915297 -0.00395854860245 8.1060038851e-19)
(-0.0149615998217 -0.000102362526857 -3.53165037587e-19)
(-0.0124257185486 0.0375274115136 3.98460541769e-19)
(-0.0493947706886 -0.0501233965836 0)
(-0.0245783237792 0.000636373449135 6.45462871351e-19)
(-0.0344656104838 0.00802078265722 -5.09836370775e-19)
(-0.00579859704772 -0.0302161104563 -8.71425270362e-19)
(0.00437249971287 -0.0532566387671 -4.0810909705e-18)
(-0.0344536263532 -0.0157685298969 0)
(-0.0342155064311 -0.0152193695898 0)
(-0.0578169850868 -0.074774057778 0)
(-0.039658774825 -0.0209768996401 7.7087373668e-21)
(-0.012759542812 -0.00798634169298 2.27223472887e-18)
(-0.0185159900471 -0.0232495051256 -1.37941142273e-18)
(-0.0153768771216 -0.000915659311912 7.06350294875e-19)
(-0.0104712484231 -0.0252911488327 0)
(0.00452778319721 -0.054696755881 3.4550345724e-18)
(-0.0872852510929 0.0173869819654 0)
(-0.0868156881673 0.0209023824274 3.00111865629e-19)
(-0.0105568475512 0.00119809367214 0)
(-0.02227231538 -0.0362694445063 0)
(-0.0206469833002 -0.0349733956798 0)
(0.0013767858964 0.0337521501962 0)
(0.0638904368798 0.00761976932013 3.52889995734e-18)
(0.0310490151597 0.0381725142464 -2.52804733045e-18)
(-0.00712916635291 0.00312770106218 0)
(-0.037055452316 -0.0193180023786 -1.83801595145e-18)
(-0.0131956649793 0.000865255072095 -7.27253174954e-19)
(-0.0128487604235 0.000923235229977 -2.09081887511e-18)
(-0.0339907638092 0.0101079519112 0)
(0.000280014987982 0.0480920303533 -6.95287494023e-19)
(0.000747703739145 -0.0439629340216 5.04411008191e-19)
(-0.00742810984448 -0.00600778711 1.95207759427e-18)
(0.00261572504177 0.0351799853608 0)
(-0.00243598050196 -0.0190403324566 -6.69277101943e-19)
(-0.0210481128697 0.00511164178016 0)
(-0.00898340005138 0.0106076976365 -1.91950616713e-19)
(-0.00973032637991 0.000242933925697 -5.44143800129e-19)
(-0.00992051608948 0.000200606398223 0)
(0.35415872924 0.304845450799 1.32980434002e-17)
(0.31939553634 0.175715300478 -4.49651449315e-19)
(0.00635701907279 0.0428925950527 0)
(0.0090320181154 0.0435537197536 0)
(8.09502012243e-05 -0.0311241751322 -9.12914797617e-18)
(9.34188055598e-05 -0.0309249233744 5.55172319408e-18)
(-0.0124487892637 0.00629319630384 -8.74735000378e-19)
(-0.00977780232487 0.00776610737916 1.70778598489e-19)
(-0.0272043764165 -0.0131132993445 0)
(0.0025583432665 0.0358310211675 0)
(-0.0342891180304 0.0415042944911 9.96830902134e-19)
(-0.0166428906402 -0.0353339803179 1.46930771651e-18)
(-0.00783687273359 -0.00983283401573 1.5515475696e-19)
(-0.0172055184769 -0.00171443034274 0)
(-0.036381281357 -0.0218214029294 2.00461465155e-18)
(0.0043899328938 0.0340864600919 0)
(-0.0675442192012 -0.0651198803377 0)
(-0.060538718839 -0.0688767417161 0)
(-0.00745988086279 -0.00289190062127 0)
(-0.0144644787987 0.00954332239517 0)
(-0.00159216910664 -0.00341904546162 1.0673119565e-18)
(-0.00180505563338 0.00431114032515 0)
(0.0262690784832 -0.0149789429357 0)
(0.00788509409648 0.0240389970741 -1.04760641132e-18)
(-0.0116785875839 0.00463603230449 8.11359974481e-19)
(-0.0211850340876 0.000717878792046 0)
(-0.0153304449214 -0.00349988110954 -2.26515662763e-18)
(-0.0126380905022 -0.0149894389904 0)
(-0.0120988609959 -0.0150363995873 -1.1238767522e-18)
(-0.0175541957707 0.00747010443676 0)
(0.0590771453094 -0.004432578613 -5.1571287746e-18)
(-0.0182624860385 -0.00967454701044 -2.11006519041e-18)
(-0.0178978713966 -0.0100614143267 0)
(-0.0240455886339 -0.0125056852273 1.28639499004e-19)
(-0.0249342944791 -0.0125610812675 1.97288229156e-18)
(-0.0146889073899 -0.00836861106889 1.535156662e-18)
(-0.0410115679571 0.0283608508052 -5.50383370986e-20)
(-0.0118790149926 -0.00635841003669 0)
(-0.0117623177428 0.0106996705636 0)
(-0.0119368651096 0.0109436637955 0)
(-0.0125520004447 -0.000952593695593 0)
(-0.0127042132029 -0.00115880226476 0)
(-0.00295283090099 -0.0257712205135 1.45428451487e-18)
(-0.0118065175446 0.00112291453369 0)
(-0.0333966418365 -0.0186241711091 1.84212115015e-18)
(-0.00876485009889 0.00351403341154 4.90774673117e-19)
(0.00287231325657 0.0357547470932 3.40989804581e-19)
(-0.00488062112163 -0.017734605159 -3.92186361809e-18)
(-0.0160433005674 -0.0086763163034 5.09095622375e-19)
(-0.0129348847033 -0.0117678809284 0)
(-0.0114849982116 0.00440259838451 2.55410181613e-19)
(-0.0774703163495 -0.0504740314141 6.38977313652e-18)
(-0.0298636540254 -0.00156022375495 1.4451725375e-18)
(-0.013345306294 0.00523216383905 0)
(-0.105268715399 -0.0279425532616 0)
(-0.00984211459863 -0.00686305283427 -5.43946458705e-19)
(-0.022626911453 -0.0164844010132 1.54718013799e-18)
(0.0449906657702 -0.0215015025091 5.43126407978e-18)
(0.00542570282058 0.0337488005238 3.36922929645e-20)
(0.0448903793149 -0.0159582260058 -8.35353201143e-18)
(0.00341363406448 0.0329584764185 -1.73960920277e-18)
(-0.00285163714845 0.00797166362497 -3.91535879627e-19)
(-0.00203500085029 0.0075178517156 0)
(-0.00331298263042 0.0433036462619 0)
(-0.00194896016119 0.0433731149942 0)
(-0.00166706145429 -0.0505938824547 -2.21913236463e-18)
(0.000837551694649 -0.0505072278318 -4.10606144187e-18)
(-0.00808654401587 -0.00783529024787 -2.20835344876e-18)
(-0.00818794083964 -0.00778227610021 0)
(-0.0141919282575 0.0132609779204 2.30971350733e-19)
(-0.015829468665 -0.00203221597311 -8.3915307389e-19)
(-0.0103139880045 -0.0107551870045 2.19598479213e-18)
(-0.0131157745263 -0.00314349532265 1.72452664296e-18)
(-0.0141877341512 0.00987274355905 -2.76806007108e-19)
(-0.0134295169738 -0.000410073362381 1.02384489003e-19)
(-0.0357459361375 0.0318804415036 -9.17440093529e-20)
(-0.0233081725726 -0.0286411513449 -7.16811334928e-19)
(0.00230938513836 0.0355710475563 5.9821946742e-19)
(-0.0218449720783 0.00538124349127 -1.25991988952e-20)
(-0.094098313471 -0.0179772885687 -6.65597715675e-19)
(-0.00218396980192 0.00472939499383 -6.2760417282e-19)
(0.0282391770278 -0.0170525635363 0)
(0.00838767833845 0.0259018566407 0)
(-0.0180866099694 -0.00270287676137 -1.15783804309e-18)
(-0.00766173786175 -0.00339135789624 1.05711055608e-18)
(-0.0182356498307 0.00182165079733 -8.45676803772e-20)
(-0.0369290488042 -0.0236195887688 0)
(-0.023162526764 0.00717481033662 0)
(-0.0112012314568 -0.00321610819297 0)
(-0.0110064017886 0.00218230268109 1.10692109883e-18)
(-0.0413139121829 -0.0195581547493 4.34213206919e-18)
(0.0977720911583 -0.0477337821805 -9.21083806401e-18)
(-0.00147006422844 -0.00912633260296 1.08580295432e-18)
(-0.00254897166227 0.013781290746 0)
(-0.00785008995367 -0.000346888794282 1.81943625731e-18)
(0.00299235413826 0.0359734504279 8.50143547376e-19)
(0.0528033763307 -0.0170704402348 -4.15661137982e-18)
(-0.00129238438994 -0.00700357444305 -1.1073678202e-18)
(-0.00217948940064 0.00936972573792 1.09468986759e-18)
(-0.0140688475244 0.0139808201562 -4.3436228861e-19)
(-0.0121226461994 0.00940628328961 1.93003023218e-19)
(0.0615366760738 -0.00656888592144 4.65191207021e-18)
(-0.0178706922896 0.0127122131791 -5.76517855514e-19)
(-0.0180927812837 -0.00195862113977 0)
(-0.011925710736 -0.00793481938481 0)
(-0.0272340812275 -0.0209484314716 0)
(-0.0270948421948 -0.00644016663387 -1.52223005886e-18)
(-0.00375044753452 -0.0197116376356 2.80630390852e-18)
(-0.012436537879 -0.000441390549833 8.80052112179e-19)
(-0.00345453203983 -0.0196294953831 1.57633850507e-20)
(-0.0120561428478 -0.000641028771963 8.2659370946e-19)
(-0.0134618902541 0.0498099285576 0)
(-0.0076447076891 -0.0416497906142 -9.32961494112e-19)
(0.107934924427 -0.046623328529 8.25586123881e-18)
(-0.00129885957119 -0.00908285739202 0)
(-0.00238193852864 0.0140431869912 0)
(-0.00780695436423 -0.000227859128653 0)
(-0.0261000495901 -0.00547145064448 9.46537441119e-19)
(-0.0228750898576 0.00269571117709 0)
(-0.00498475693534 0.0200635434483 0)
(-0.0045093350962 0.0182898464762 -1.42216704251e-20)
(-0.059170068379 0.0174981182689 -1.7137002532e-19)
(-0.00430241174247 -0.00465326854932 1.56997373235e-18)
(-0.00631105483032 -0.00960694114667 -5.87264375088e-19)
(-0.00655404164019 -0.00939454903489 -1.3241057701e-18)
(3.6286669983 -0.0298798301022 0)
(0.0001243516999 -0.00915558782756 4.50742107501e-18)
(-0.00567456406478 0.000102773746884 -1.42684545888e-18)
(-0.0129138590483 0.000584802614597 0)
(-0.0725183141502 -0.0693136084284 -3.59362601204e-18)
(-0.0212596520255 -0.00350348517443 -4.25619588703e-19)
(-0.00777462431478 0.0044806056348 4.37811910142e-19)
(-0.0149039111484 -0.011594510097 0)
(-0.0116779380713 -0.0101046619079 1.45027963344e-19)
(-0.0162997928455 0.0963130179652 3.4574259191e-18)