/*--------------------------------*- C++ -*----------------------------------*\
| =========                 |                                                 |
| \\      /  F ield         | OpenFOAM: The Open Source CFD Toolbox           |
|  \\    /   O peration     | Version:  v1906                                 |
|   \\  /    A nd           | Web:      www.OpenFOAM.com                      |
|    \\/     M anipulation  |                                                 |
\*---------------------------------------------------------------------------*/
FoamFile
{
    version     2.0;
    format      ascii;
    class       volVectorField;
    location    "818";
    object      U;
}
// * * * * * * * * * * * * * * * * * * * * * * * * * * * * * * * * * * * * * //

dimensions      [0 1 -1 0 0 0 0];


internalField   nonuniform List<vector> 
9216
(
(0.00156805016074 -0.00156923895271 0)
(0.00160813006481 -0.00489028408373 6.54543767071e-28)
(0.0015968042793 -0.00821949553559 1.08865948577e-31)
(0.00157368125831 -0.0115287133232 0)
(0.00154256573963 -0.0147792938017 0)
(0.0015043069256 -0.0179572321311 0)
(0.00145970603752 -0.0210485153433 0)
(0.00140961534629 -0.0240407983146 0)
(0.00135476188821 -0.0269234212698 0)
(0.00129600799012 -0.0296873314049 0)
(0.00123403820175 -0.032325149704 0)
(0.00116966769326 -0.0348310102997 0)
(0.0011034701115 -0.0372005567017 0)
(0.00103615454427 -0.0394307153923 0)
(0.000968139501268 -0.0415196486167 0)
(0.000900001207682 -0.0434664964665 0)
(0.000831990417106 -0.0452713206208 0)
(0.000764551791891 -0.0469348457166 0)
(0.000697779471021 -0.0484584175753 0)
(0.000632005943937 -0.0498437621215 0)
(0.000567191953351 -0.0510929710165 0)
(0.000503584253649 -0.0522082872507 0)
(0.000441037555051 -0.053192120188 0)
(0.000379740235512 -0.0540468584921 0)
(0.000319466674732 -0.0547749127105 0)
(0.000260371003049 -0.0553785548153 0)
(0.000202170650878 -0.0558599827318 0)
(0.000145007011595 -0.0562211841031 0)
(8.85615216691e-05 -0.0564640197573 0)
(3.2982581883e-05 -0.0565901119796 0)
(-2.20638523765e-05 -0.0566009471992 0)
(-7.64066910369e-05 -0.0564977856756 0)
(-0.000130374166367 -0.0562817682797 0)
(-0.000183746222666 -0.0559538782899 0)
(-0.000236820409334 -0.0555150605063 0)
(-0.000289311703198 -0.0549662011855 0)
(-0.000341466206431 -0.0543082652198 0)
(-0.00039291746709 -0.0535423067383 0)
(-0.000443843698497 -0.0526696069352 0)
(-0.000493791191495 -0.0516917078184 0)
(-0.000542867790846 -0.0506105344451 0)
(-0.000590544640039 -0.0494284387928 0)
(-0.00063687426363 -0.0481482803202 0)
(-0.00068128383512 -0.0467734646331 0)
(-0.000723800483877 -0.045307960083 0)
(-0.00076384837153 -0.0437563309359 0)
(-0.000801453554545 -0.0421236824318 0)
(-0.000836060152156 -0.0404157175096 0)
(-0.000867679113056 -0.0386386403235 0)
(-0.000895745901351 -0.0367993038343 0)
(-0.000920177797124 -0.0349051302694 0)
(-0.000940316002584 -0.0329644186486 0)
(-0.000955873921396 -0.0309863200287 0)
(-0.000966033051285 -0.0289812800744 0)
(-0.000970291893218 -0.0269609859925 0)
(-0.000967778880712 -0.0249387277233 0)
(-0.000958006202506 -0.0229290958669 0)
(-0.000940377963222 -0.0209479755113 0)
(-0.000914793321978 -0.0190118878837 0)
(-0.000881297961959 -0.017137554521 0)
(-0.000840570544349 -0.0153408587015 0)
(-0.000793531398294 -0.0136360519642 0)
(-0.000741484160048 -0.0120349768629 0)
(-0.000685801990496 -0.0105466880093 0)
(-0.000627920441029 -0.00917718321124 0)
(-0.000568849788242 -0.00792992094988 0)
(-0.000509634255929 -0.0068062817459 0)
(-0.000451365036437 -0.00580547626789 0)
(-0.000395331013711 -0.00492419902918 0)
(-0.000342653269232 -0.00415658153819 0)
(-0.000294290254163 -0.00349453142732 0)
(-0.000250781627197 -0.00292837820942 0)
(-0.000212398035822 -0.00244759717904 0)
(-0.000179003705468 -0.00204154205764 0)
(-0.000150256307842 -0.00170008149138 0)
(-0.000125539088859 -0.00141413926045 0)
(-0.000104245425646 -0.00117596463126 0)
(-8.58358066657e-05 -0.000979057153165 0)
(-7.00707734397e-05 -0.000817699186423 0)
(-5.67528958963e-05 -0.000686581550922 0)
(-4.56817222554e-05 -0.000580778159193 0)
(-3.65214505129e-05 -0.000495940670153 0)
(-2.89623306631e-05 -0.000428369758398 0)
(-2.24831851672e-05 -0.000375504946964 0)
(-1.62744760264e-05 -0.000330291813173 0)
(-1.34111878353e-05 -0.000303849448485 0)
(-1.21946538609e-05 -0.000277444462338 0)
(-1.02505525589e-05 -0.000255283670685 0)
(-1.02468598812e-05 -0.000237213419329 0)
(-1.13316945153e-05 -0.000216124824509 0)
(-1.1749959912e-05 -0.000194570266387 0)
(-1.25920749167e-05 -0.00017049966972 0)
(-1.51859359494e-05 -0.000142694599923 0)
(-1.82149981937e-05 -0.000110608581168 0)
(-2.14672803864e-05 -6.97568011512e-05 0)
(-2.34389880416e-05 -2.26541256263e-05 0)
(0.00490301408942 -0.00162573909481 0)
(0.00516581665323 -0.00520462989518 0)
(0.00512658702618 -0.00875218994162 -6.73045744194e-28)
(0.00505065954807 -0.0122808336792 0)
(0.00494962982612 -0.0157435793082 0)
(0.00482610833484 -0.0191272998358 0)
(0.0046824023209 -0.0224173886539 0)
(0.00452106693409 -0.0256008185785 0)
(0.00434454260522 -0.0286662784616 0)
(0.0041554765705 -0.0316042156009 0)
(0.00395622245225 -0.0344068578474 0)
(0.00374925077515 -0.037068104692 0)
(0.00353658101484 -0.0395834517555 0)
(0.00332030833992 -0.0419498065003 0)
(0.00310197455826 -0.0441653637789 0)
(0.00288321330396 -0.0462293914861 0)
(0.00266505167616 -0.0481420969493 0)
(0.0024486684285 -0.0499044160618 0)
(0.00223461478276 -0.051517896886 0)
(0.00202367827932 -0.0529845119311 0)
(0.00181601194557 -0.0543065716665 0)
(0.00161209869143 -0.0554865674087 0)
(0.00141178212595 -0.0565271171547 0)
(0.00121532826615 -0.0574308390148 0)
(0.00102235464534 -0.0582003263556 0)
(0.000832988506258 -0.0588380484541 0)
(0.000646695028268 -0.0593463502121 0)
(0.000463531102403 -0.0597273769232 0)
(0.000282875599785 -0.0599830948823 0)
(0.000104778002781 -0.0601152395661 0)
(-7.14047661595e-05 -0.060125352506 0)
(-0.000245570428979 -0.0600147582625 0)
(-0.000418316340178 -0.0597846308013 0)
(-0.00058941547442 -0.0594359799519 0)
(-0.000759345822243 -0.0589697387553 0)
(-0.00092769111603 -0.0583867912931 0)
(-0.00109474181717 -0.0576880741962 0)
(-0.00125983587889 -0.0568746320166 0)
(-0.00142302672609 -0.0559477305061 0)
(-0.0015833827256 -0.0549089288588 0)
(-0.00174071483595 -0.0537601883697 0)
(-0.00189385444952 -0.0525039432127 0)
(-0.0020424255915 -0.0511431786682 0)
(-0.00218511917085 -0.0496814781047 0)
(-0.00232148003413 -0.048123046119 0)
(-0.00245018765183 -0.0464727207421 0)
(-0.00257080516866 -0.0447359362699 0)
(-0.00268207175963 -0.0429187232283 0)
(-0.00278354344551 -0.0410276501364 0)
(-0.0028739141415 -0.0390698833526 0)
(-0.00295248920506 -0.0370531912037 0)
(-0.00301760669984 -0.0349861562426 0)
(-0.00306795278816 -0.0328783098801 0)
(-0.00310124411386 -0.0307404995949 0)
(-0.00311548608378 -0.0285850594547 0)
(-0.00310809783847 -0.0264260961071 0)
(-0.00307715591546 -0.0242793714569 0)
(-0.00302089419596 -0.0221621410915 0)
(-0.00293868504366 -0.0200926053185 0)
(-0.00283078238834 -0.0180893245004 0)
(-0.00269925127761 -0.0161700682562 0)
(-0.00254730166263 -0.0143506134083 0)
(-0.00237909471195 -0.0126439959409 0)
(-0.00219935350444 -0.0110599510189 0)
(-0.00201277672709 -0.00960445217102 0)
(-0.00182250894424 -0.00828074890981 0)
(-0.00163163512926 -0.00709038290605 0)
(-0.00144375411727 -0.00603277381849 0)
(-0.00126307110121 -0.00510445009645 0)
(-0.00109341486667 -0.00429884143766 0)
(-0.00093787163612 -0.00360675064567 0)
(-0.000798263783217 -0.00301719209418 0)
(-0.000675371521866 -0.00251828587254 0)
(-0.000568774638591 -0.00209809021677 0)
(-0.000477227639447 -0.00174535112644 0)
(-0.000398670832954 -0.00145016720591 0)
(-0.000330933522586 -0.00120440598924 0)
(-0.000272261759939 -0.00100156604158 0)
(-0.000221933179422 -0.000835946522755 0)
(-0.000179517512271 -0.000701960054852 0)
(-0.000144348109604 -0.000594237330714 0)
(-0.000115389350307 -0.00050804709836 0)
(-9.1683932664e-05 -0.000439335027266 0)
(-7.21783400826e-05 -0.000384664357065 0)
(-5.55214972874e-05 -0.000338984935764 0)
(-4.41881189684e-05 -0.000297597040058 0)
(-3.67900939007e-05 -0.000271311204947 0)
(-3.07201664974e-05 -0.000250291572165 0)
(-2.98842837389e-05 -0.000229260881874 0)
(-3.25449313113e-05 -0.000212845197009 0)
(-3.48517146217e-05 -0.000195036530562 0)
(-3.87970773152e-05 -0.000169821866069 0)
(-4.52693839399e-05 -0.000141171992927 0)
(-5.87737651389e-05 -0.000113997719854 0)
(-7.46398576895e-05 -7.42214104948e-05 0)
(-6.88846220706e-05 -2.05957341252e-05 0)
(0.00829733798313 -0.0016469961091 0)
(0.00874651667308 -0.00526977357706 0)
(0.00867258761897 -0.0088540317019 -6.72093803787e-28)
(0.00854082816661 -0.0124218797743 0)
(0.00836769307618 -0.0159216542865 0)
(0.00815676983185 -0.0193395756238 0)
(0.00791183006388 -0.0226605820725 0)
(0.00763706186369 -0.0258714232083 0)
(0.00733675972178 -0.0289606852819 0)
(0.00701532010065 -0.0319188417796 0)
(0.00667692983792 -0.0347382332717 0)
(0.00632564198861 -0.0374129664652 0)
(0.00596508063697 -0.0399387916542 0)
(0.00559860624722 -0.042312925431 0)
(0.00522903752104 -0.044533879739 0)
(0.00485890122708 -0.0466012593673 0)
(0.00449015784994 -0.0485155868632 0)
(0.00412452119449 -0.0502781108348 0)
(0.00376316965293 -0.051890653646 0)
(0.0034071198262 -0.0533554492034 0)
(0.00305690761725 -0.0546750249587 0)
(0.00271300432784 -0.0558520746897 0)
(0.00237545752735 -0.0568893750723 0)
(0.00204434346883 -0.0577896907808 0)
(0.001719363467 -0.0585557212468 0)
(0.00140033104077 -0.0591900330611 0)
(0.00108672409809 -0.0596950310986 0)
(0.00077820771883 -0.0600729135521 0)
(0.00047414516556 -0.0603256640632 0)
(0.000174157925197 -0.0604550277874 0)
(-0.000122399453982 -0.0604625242338 0)
(-0.000415841131219 -0.0603494437804 0)
(-0.000706708587703 -0.0601168815387 0)
(-0.000995136571639 -0.0597657627715 0)
(-0.00128144170863 -0.0592969009583 0)
(-0.00156545800861 -0.0587110493966 0)
(-0.00184715890705 -0.0580089862042 0)
(-0.00212597387737 -0.0571915931647 0)
(-0.00240144786089 -0.0562599605209 0)
(-0.00267255528823 -0.055215482668 0)
(-0.00293840292421 -0.0540599665291 0)
(-0.00319755711025 -0.0527957223787 0)
(-0.00344878895444 -0.0514256465321 0)
(-0.00369042147785 -0.0499532763433 0)
(-0.0039210964644 -0.0483828155489 0)
(-0.00413912646323 -0.046719129795 0)
(-0.00434323073949 -0.0449677018778 0)
(-0.00453185221724 -0.0431345811423 0)
(-0.00470378518147 -0.0412263123816 0)
(-0.0048574186255 -0.0392499217759 0)
(-0.00499120451407 -0.0372129363045 0)
(-0.00510286859394 -0.0351235479614 0)
(-0.0051897978135 -0.0329908534615 0)
(-0.00524843922764 -0.0308252626769 0)
(-0.00527488048866 -0.0286388905889 0)
(-0.00526476149096 -0.0264459217708 0)
(-0.00521422391379 -0.0242626698467 0)
(-0.00512020276499 -0.0221073038894 0)
(-0.00498107532063 -0.0199993969933 0)
(-0.004797106907 -0.0179594082834 0)
(-0.00457182002589 -0.0160071716412 0)
(-0.00431125989449 -0.0141599236642 0)
(-0.00402258431961 -0.0124317574794 0)
(-0.00371476265407 -0.0108328251168 0)
(-0.00339652809659 -0.00936790972824 0)
(-0.00307234859403 -0.00803906133279 0)
(-0.00274657840288 -0.00684819835116 0)
(-0.00242549116089 -0.00579560546766 0)
(-0.00211677176412 -0.00487800436423 0)
(-0.00182757158085 -0.00408804213009 0)
(-0.00156332375579 -0.00341511317279 0)
(-0.00132723089215 -0.00284663441607 0)
(-0.00112044461794 -0.0023691785827 0)
(-0.000942175695952 -0.00196940687464 0)
(-0.000789957929466 -0.00163491542385 0)
(-0.000659877798935 -0.00135513856707 0)
(-0.000547513376863 -0.00112215368758 0)
(-0.000449598853753 -0.000930511384189 0)
(-0.000365308190715 -0.000775466873733 0)
(-0.000294613132725 -0.000651436710913 0)
(-0.000236384498197 -0.000552581085441 0)
(-0.000188719496016 -0.000473989152684 0)
(-0.000149995904233 -0.000411711917927 0)
(-0.000118824421841 -0.000362581673617 0)
(-9.44608129228e-05 -0.000321617181372 0)
(-7.61229106313e-05 -0.000285632755644 0)
(-6.37226689612e-05 -0.00026704336424 0)
(-5.29999126914e-05 -0.000238740294421 0)
(-4.74123227815e-05 -0.000214874434625 0)
(-4.97490200302e-05 -0.000201717983736 0)
(-5.94535613021e-05 -0.000191153711954 0)
(-6.48577773066e-05 -0.00015716177897 0)
(-7.82599538637e-05 -0.00013263873297 0)
(-9.63914132846e-05 -9.88363861542e-05 0)
(-0.000112545821081 -6.03452858408e-05 0)
(-0.000111544041733 -1.87582731889e-05 0)
(0.0117569947772 -0.00167327578525 0)
(0.0123983728944 -0.00535205525144 0)
(0.0122916975729 -0.00898875502863 6.72004422368e-28)
(0.0121020522415 -0.0126078301968 0)
(0.0118531816528 -0.0161553869775 0)
(0.0115503978228 -0.0196168577313 0)
(0.0111992413637 -0.0229765850359 0)
(0.0108057777866 -0.0262209828955 0)
(0.010376303212 -0.0293385113008 0)
(0.00991715182223 -0.0323197083228 0)
(0.0094344343069 -0.0351571314163 0)
(0.00893392937624 -0.0378452320882 0)
(0.00842089367557 -0.0403801905261 0)
(0.00790004879713 -0.0427597141702 0)
(0.00737546061174 -0.0449828283197 0)
(0.00685060910139 -0.0470496578711 0)
(0.00632831556124 -0.0489612234312 0)
(0.00581087004857 -0.050719244733 0)
(0.00529997931738 -0.0523259697357 0)
(0.00479692675303 -0.0537840170323 0)
(0.00430251853113 -0.0550962464368 0)
(0.00381725849816 -0.0562656421185 0)
(0.00334127901587 -0.0572952217172 0)
(0.00287452189307 -0.0581879543461 0)
(0.00241664863321 -0.0589467006608 0)
(0.00196722576506 -0.0595741578348 0)
(0.00152561530085 -0.0600728233338 0)
(0.00109116687407 -0.0604449610206 0)
(0.000663092408788 -0.0606925842567 0)
(0.000240669431322 -0.06081744047 0)
(-0.00017689467028 -0.0608210147404 0)
(-0.000590245047017 -0.0607045324571 0)
(-0.00100002145771 -0.0604689827065 0)
(-0.0014066253368 -0.0601151522324 0)
(-0.00181036945241 -0.0596436751125 0)
(-0.00221123362326 -0.0590550938786 0)
(-0.00260902796895 -0.0583499424511 0)
(-0.00300314979154 -0.0575288388222 0)
(-0.0033927729358 -0.0565925961346 0)
(-0.00377662471426 -0.0555423382355 0)
(-0.00415321829667 -0.0543796219891 0)
(-0.00452066870375 -0.0531065502441 0)
(-0.00487697839808 -0.0517258703912 0)
(-0.00521989761263 -0.0502410427676 0)
(-0.00554724733727 -0.0486562690301 0)
(-0.00585679272575 -0.0469764731434 0)
(-0.00614653989691 -0.045207229459 0)
(-0.00641454145799 -0.0433546540947 0)
(-0.00665905814504 -0.0414252733868 0)
(-0.00687819662989 -0.0394259240794 0)
(-0.00706985009515 -0.0373637252762 0)
(-0.00723117326558 -0.0352462099058 0)
(-0.00735841325155 -0.0330816479295 0)
(-0.00744653359908 -0.0308796069238 0)
(-0.00748943292621 -0.0286516357521 0)
(-0.00748035769253 -0.0264119197858 0)
(-0.00741295466292 -0.0241775433681 0)
(-0.00728236827876 -0.0219680272424 0)
(-0.00708534172147 -0.0198049329643 0)
(-0.00682126311709 -0.0177119973029 0)
(-0.00649561997527 -0.0157127995831 0)
(-0.00611833629146 -0.0138267784741 0)
(-0.00569955293213 -0.012069916056 0)
(-0.0052544582916 -0.010453539656 0)
(-0.00479845206472 -0.00897913224419 0)
(-0.0043345149662 -0.00764557029651 0)
(-0.00386645798246 -0.00645620364714 0)
(-0.00340366723517 -0.00541378122055 0)
(-0.0029589013629 -0.00451570317389 0)
(-0.00254383310165 -0.00375313657984 0)
(-0.00216673907767 -0.00311292039962 0)
(-0.00183215619715 -0.00257976941355 0)
(-0.00154146856109 -0.00213779217113 0)
(-0.00129327807178 -0.00177140915795 0)
(-0.00108354674125 -0.00146622316445 0)
(-0.000905608358486 -0.00121036019005 0)
(-0.000751306638216 -0.000996321170303 0)
(-0.000614902294956 -0.000821188603684 0)
(-0.000496621314402 -0.000682488574833 0)
(-0.000398472327768 -0.000574320568104 0)
(-0.000318708416074 -0.000489431434451 0)
(-0.000253782469347 -0.000422588632459 0)
(-0.000201223576572 -0.000370242331847 0)
(-0.000159132212935 -0.000329763134032 0)
(-0.000126416621829 -0.000294646754564 0)
(-0.000103705864313 -0.000269674884665 0)
(-8.70448530806e-05 -0.000249407687419 0)
(-7.43043345727e-05 -0.000224226586155 0)
(-6.9333654679e-05 -0.00020857275377 0)
(-6.81088888692e-05 -0.000185265344224 0)
(-7.70855226172e-05 -0.000164791731123 0)
(-9.67453339905e-05 -0.000150205173427 0)
(-0.000108391901753 -0.000113006244764 0)
(-0.00012888828562 -8.10768478811e-05 0)
(-0.00014878351335 -5.00222495165e-05 0)
(-0.000150795553942 -1.64719374989e-05 0)
(0.0152785544816 -0.00170845386682 0)
(0.0161119317145 -0.00546321466169 0)
(0.0159702729448 -0.00917272138429 0)
(0.0157191797596 -0.0128617108109 0)
(0.0153899525422 -0.0164741695286 0)
(0.014989893858 -0.0199945379835 0)
(0.0145265834044 -0.0234063989427 0)
(0.014008245617 -0.0266957276915 0)
(0.0134433991854 -0.0298508406457 0)
(0.0128405412134 -0.0328623962123 0)
(0.0122078503155 -0.0357232900086 0)
(0.0115529791044 -0.0384284824845 0)
(0.0108828735476 -0.0409747808052 0)
(0.0102036894175 -0.0433605922008 0)
(0.00952072153234 -0.0455856701232 0)
(0.00883842151649 -0.0476508639286 0)
(0.00816040326724 -0.0495578860956 0)
(0.00748952339491 -0.0513090998537 0)
(0.0068279236748 -0.0529073343166 0)
(0.00617713840073 -0.054355724104 0)
(0.00553814335789 -0.0556575763242 0)
(0.00491146634662 -0.056816258729 0)
(0.00429722543663 -0.0578351101657 0)
(0.00369523180386 -0.0587173663306 0)
(0.00310501164944 -0.0594661020681 0)
(0.00252590010771 -0.0600841836123 0)
(0.0019570488287 -0.0605742328539 0)
(0.00139751539828 -0.0609385982051 0)
(0.000846262697914 -0.0611793355122 0)
(0.00030225064379 -0.0612981944318 0)
(-0.000235565518431 -0.061296617887 0)
(-0.000768135404277 -0.0611757435691 0)
(-0.00129631002418 -0.0609364222545 0)
(-0.00182073099519 -0.0605792523221 0)
(-0.00234182416385 -0.0601046256958 0)
(-0.00285968131434 -0.0595127930708 0)
(-0.00337405874375 -0.058803950113 0)
(-0.0038842669265 -0.0579783423829 0)
(-0.00438919335264 -0.0570363902216 0)
(-0.00488722541912 -0.0559788274249 0)
(-0.00537632523599 -0.0548068487523 0)
(-0.00585401477962 -0.0535222538874 0)
(-0.00631752584556 -0.0521275745421 0)
(-0.00676386031296 -0.0506261667673 0)
(-0.00719000546322 -0.0490222494686 0)
(-0.00759303066172 -0.0473208736505 0)
(-0.0079702869662 -0.0455278098761 0)
(-0.00831941780576 -0.0436493623989 0)
(-0.00863837770546 -0.0416921304554 0)
(-0.00892517194377 -0.039662773034 0)
(-0.00917753023641 -0.0375678656247 0)
(-0.00939228714391 -0.0354139546095 0)
(-0.00956480791395 -0.0332079460969 0)
(-0.00968841005712 -0.0309579020675 0)
(-0.00975434471394 -0.0286742211218 0)
(-0.00975250438238 -0.0263708367195 0)
(-0.00967305852256 -0.0240659612445 0)
(-0.00950894123369 -0.0217808610667 0)
(-0.00925417007409 -0.0195393538464 0)
(-0.0089047841858 -0.0173706438359 0)
(-0.00846959898452 -0.0153051018943 0)
(-0.00796488839222 -0.013364618754 0)
(-0.00740164464142 -0.0115685523882 0)
(-0.00680580274663 -0.00993231448579 0)
(-0.00620745834923 -0.00844848060156 0)
(-0.00559913111811 -0.0071075119008 0)
(-0.00497969267029 -0.00591773248117 0)
(-0.00436321808562 -0.00488837477073 0)
(-0.00377125447365 -0.00401844685641 0)
(-0.0032222490307 -0.00329611345322 0)
(-0.00272777891824 -0.00270363271987 0)
(-0.00229334266863 -0.00222152854994 0)
(-0.00192016519847 -0.00183043808979 0)
(-0.00160609283354 -0.00151159985175 0)
(-0.00134527256047 -0.00124734128258 0)
(-0.00112700696616 -0.00102297791722 0)
(-0.000936133623733 -0.000831513666215 0)
(-0.000761759040759 -0.000675881078644 0)
(-0.000608238062836 -0.000559082916508 0)
(-0.000484118057836 -0.0004735624741 0)
(-0.000385966904013 -0.000407923946473 0)
(-0.000306330513123 -0.000356532102699 0)
(-0.000241855991344 -0.000317079878138 0)
(-0.000190332883865 -0.000287600631552 0)
(-0.000149318836649 -0.000259869861953 0)
(-0.000126620114108 -0.000248590310117 0)
(-0.000109991825927 -0.000232870018872 0)
(-9.6794048734e-05 -0.000212750169597 0)
(-8.71575248321e-05 -0.000186393954373 0)
(-8.9319707865e-05 -0.000170813681354 0)
(-9.65462299446e-05 -0.000146003698974 0)
(-0.000119960728575 -0.000130156547761 0)
(-0.000147064066622 -0.000106111079773 0)
(-0.000160224132014 -7.03290308278e-05 0)
(-0.000175025863252 -4.19317453801e-05 0)
(-0.00017745547879 -1.39528046584e-05 0)
(0.018883308865 -0.00175349474395 0)
(0.0199111650317 -0.00560622967085 0)
(0.0197311245649 -0.00940998181908 0)
(0.0194134675069 -0.0131890262391 0)
(0.0189974176765 -0.0168847234614 0)
(0.0184925946067 -0.0204802577732 0)
(0.0179089739402 -0.0239582685703 0)
(0.0172573014831 -0.0273042073513 0)
(0.016548638996 -0.0305062607163 0)
(0.0157939334616 -0.0335553067846 0)
(0.0150036471323 -0.0364447474882 0)
(0.0141874778452 -0.0391702669782 0)
(0.0133541560511 -0.0417295422708 0)
(0.0125113327578 -0.0441219319558 0)
(0.0116655280569 -0.0463481654713 0)
(0.0108221486214 -0.0484100486381 0)
(0.0099855361765 -0.0503101970712 0)
(0.00915905804158 -0.0520518026315 0)
(0.00834520060031 -0.0536384355917 0)
(0.00754568423825 -0.0550738805427 0)
(0.00676156199548 -0.0563620037907 0)
(0.00599332900701 -0.0575066472293 0)
(0.00524100588867 -0.0585115451224 0)
(0.00450423062938 -0.0593802584605 0)
(0.00378232154405 -0.0601161239409 0)
(0.00307435192925 -0.0607222132963 0)
(0.00237919686639 -0.061201301541 0)
(0.00169559770962 -0.061555841313 0)
(0.00102220166629 -0.0617879436368 0)
(0.000357626055018 -0.0618993633719 0)
(-0.000299499191647 -0.0618914954738 0)
(-0.000950458570682 -0.0617653712908 0)
(-0.00159639659987 -0.0615216720531 0)
(-0.00223823102165 -0.0611607593535 0)
(-0.00287658754268 -0.0606827174409 0)
(-0.00351170206476 -0.0600874192992 0)
(-0.00414335389465 -0.0593746175452 0)
(-0.00477077562147 -0.0585440613659 0)
(-0.00539261048326 -0.0575956408352 0)
(-0.00600686421333 -0.0565295544225 0)
(-0.00661092750731 -0.0553464935823 0)
(-0.0072016147097 -0.0540478308504 0)
(-0.00777529345181 -0.0526357935319 0)
(-0.00832804083162 -0.051113597449 0)
(-0.00885588481005 -0.049485511755 0)
(-0.00935504093456 -0.0477568241867 0)
(-0.00982216983109 -0.0459336831682 0)
(-0.0102545264175 -0.044022808279 0)
(-0.0106499890108 -0.0420310877175 0)
(-0.0110068218247 -0.039965133419 0)
(-0.0113231443775 -0.0378308937993 0)
(-0.0115960625699 -0.0356335373475 0)
(-0.0118205263911 -0.0333778170447 0)
(-0.0119882258953 -0.0310691864332 0)
(-0.0120870218622 -0.0287157694443 0)
(-0.0121019130501 -0.0263306698344 0)
(-0.0120176997788 -0.0239340134073 0)
(-0.0118256260595 -0.0215491691198 0)
(-0.0115155955089 -0.0192008034991 0)
(-0.0110727688541 -0.0169274507457 0)
(-0.0105138284688 -0.0147729257853 0)
(-0.00986786026857 -0.0127588438178 0)
(-0.00913582192197 -0.0109108475047 0)
(-0.00836498247416 -0.00925936855987 0)
(-0.00762595165045 -0.00777247231355 0)
(-0.00687225616067 -0.00641781287392 0)
(-0.00608826001193 -0.00522029604768 0)
(-0.00529831179567 -0.00420534634832 0)
(-0.00454160261525 -0.00337473544732 0)
(-0.00384717209078 -0.00270966052359 0)
(-0.00322963599482 -0.00218401232864 0)
(-0.00269400007213 -0.00177215355859 0)
(-0.00224053757792 -0.00145054029269 0)
(-0.00186655955131 -0.00119651479898 0)
(-0.00156503167328 -0.000987136002799 0)
(-0.00132005300971 -0.000801220520806 0)
(-0.00110217980973 -0.000631073390734 0)
(-0.000887419368463 -0.000493294131587 0)
(-0.000692146767025 -0.000404848870245 0)
(-0.000544379358126 -0.000352050516248 0)
(-0.000434126772901 -0.000311644817815 0)
(-0.000343562072605 -0.000278478120103 0)
(-0.00026956054754 -0.00025423248748 0)
(-0.000210857245293 -0.000236842576059 0)
(-0.000164210674149 -0.000219861652719 0)
(-0.000139850590883 -0.000215652995185 0)
(-0.000120870679912 -0.000202044396394 0)
(-0.000112854720105 -0.000193106110153 0)
(-0.00011058242429 -0.000180409018971 0)
(-0.000115960708068 -0.000165218616354 0)
(-0.000118752160252 -0.00013380791908 0)
(-0.000137546693538 -0.00011077704818 0)
(-0.000172397906644 -9.46014928595e-05 0)
(-0.000191514006736 -6.67065789218e-05 0)
(-0.000201463805635 -3.88093754133e-05 0)
(-0.000204835044517 -1.29514915716e-05 0)
(0.0225929761134 -0.00180956548838 0)
(0.0238189257281 -0.00578440494452 0)
(0.0235958950771 -0.00970559300274 6.67236497436e-28)
(0.0232048180624 -0.0135964758547 0)
(0.0226933690743 -0.0173950741713 0)
(0.0220739273032 -0.0210829825389 0)
(0.0213593423724 -0.0246416918995 0)
(0.0205633557591 -0.0280560623869 0)
(0.0197000007062 -0.0313142083754 0)
(0.0187830396188 -0.0344073877615 0)
(0.0178254993155 -0.0373297453095 0)
(0.0168393243747 -0.0400779732731 0)
(0.0158351459962 -0.0426509256441 0)
(0.0148221618269 -0.0450492200108 0)
(0.0138081051818 -0.0472748541556 0)
(0.0127992889914 -0.0493308557995 0)
(0.0118006977463 -0.0512209767706 0)
(0.0108161145803 -0.0529494356392 0)
(0.00984826051782 -0.0545207084498 0)
(0.00889894058224 -0.0559393631655 0)
(0.00796918020108 -0.0572099321432 0)
(0.0070593545187 -0.0583368155595 0)
(0.00616929920564 -0.0593242094062 0)
(0.00529841123747 -0.0601760516814 0)
(0.00444573095198 -0.0608959819205 0)
(0.00361001747718 -0.0614873095919 0)
(0.00278980969211 -0.0619529885273 0)
(0.00198348704761 -0.0622955950137 0)
(0.00118932216357 -0.0625173089226 0)
(0.000405540820314 -0.0626198969098 0)
(-0.000369619819758 -0.0626047042077 0)
(-0.00113783888145 -0.0624726424168 0)
(-0.00190063510702 -0.0622241959325 0)
(-0.00265927400715 -0.0618594442616 0)
(-0.00341467098076 -0.0613780974871 0)
(-0.00416727905994 -0.0607795599057 0)
(-0.00491698151085 -0.0600630238737 0)
(-0.00566298151054 -0.0592275988855 0)
(-0.00640371621279 -0.0582724784313 0)
(-0.00713679328049 -0.0571971437678 0)
(-0.00785898370702 -0.0560015982714 0)
(-0.00856627254414 -0.0546866185636 0)
(-0.00925400072732 -0.0532539991127 0)
(-0.0099170920222 -0.0517067562967 0)
(-0.0105503775181 -0.0500492474676 0)
(-0.0111489820437 -0.0482871562843 0)
(-0.01170873042 -0.0464272926696 0)
(-0.0122264834411 -0.0444771785515 0)
(-0.0127002887514 -0.0424444224476 0)
(-0.0131291918285 -0.0403359245367 0)
(-0.0135125778414 -0.0381571019923 0)
(-0.0138488717299 -0.0359113316919 0)
(-0.0141336538622 -0.0336001039582 0)
(-0.0143573718561 -0.0312243916818 0)
(-0.0145035373758 -0.0287879022714 0)
(-0.0145495554188 -0.0263015089263 0)
(-0.0144705200948 -0.0237896687082 0)
(-0.0142602877168 -0.0212787516805 0)
(-0.0139050685022 -0.0187864921326 0)
(-0.0133543598578 -0.016368871065 0)
(-0.0126489081394 -0.0141001868964 0)
(-0.0118496083254 -0.0119866025334 0)
(-0.0109050330654 -0.0100656590277 0)
(-0.00990983719056 -0.00842240905687 0)
(-0.00905933291887 -0.00695564309822 0)
(-0.00817247482851 -0.00556965538592 0)
(-0.00720236587244 -0.00434358671269 0)
(-0.00620316775073 -0.00334149082598 0)
(-0.00525326880472 -0.00256705373873 0)
(-0.00439770788258 -0.00198387211473 0)
(-0.00365099353611 -0.00155018430279 0)
(-0.0030133077012 -0.00123217453493 0)
(-0.00248232140541 -0.00100277515283 0)
(-0.00205592279456 -0.000835907927321 0)
(-0.0017295339047 -0.000700685492726 0)
(-0.00148356495633 -0.000560016405843 0)
(-0.00125870117719 -0.000398819032407 0)
(-0.000992734446343 -0.000265831145427 0)
(-0.000733920143878 -0.000216037189321 0)
(-0.000568369521804 -0.000215539270368 0)
(-0.000460529998808 -0.000207105161231 0)
(-0.000364026358218 -0.000191963501777 0)
(-0.000282302009187 -0.000184308799034 0)
(-0.000219374257087 -0.000180144895529 0)
(-0.000170953278458 -0.000177987007224 0)
(-0.000145552272373 -0.000181249467965 0)
(-0.000129169392725 -0.000179654513639 0)
(-0.000121109769322 -0.000173246975579 0)
(-0.000124564234259 -0.000167084400569 0)
(-0.000131969303846 -0.00014927328809 0)
(-0.00014960889352 -0.000133804293957 0)
(-0.000161091429295 -0.000104048753039 0)
(-0.000186813208547 -8.33639413911e-05 0)
(-0.000216828842448 -6.41443146261e-05 0)
(-0.000226423376129 -3.74939856298e-05 0)
(-0.000230661346448 -1.25586063568e-05 0)
(0.0264318630878 -0.00187802241905 0)
(0.0278603842495 -0.00600189489641 0)
(0.0275883616884 -0.0100661703824 -6.67133593763e-28)
(0.0271149381349 -0.0140928175862 0)
(0.0264969743018 -0.0180156514225 0)
(0.0257502230915 -0.0218142844924 0)
(0.0248910527652 -0.0254688387689 0)
(0.0239368255266 -0.0289635473997 0)
(0.022905103887 -0.0322865750251 0)
(0.0218129269566 -0.0354298061656 0)
(0.0206762328075 -0.0383884605824 0)
(0.0195094449951 -0.0411606180452 0)
(0.0183252192158 -0.0437467024987 0)
(0.017134333642 -0.0461489704132 0)
(0.0159456954314 -0.0483710359385 0)
(0.0147664347318 -0.0504174537155 0)
(0.0136020555556 -0.0522933691521 0)
(0.0124566191654 -0.0540042375729 0)
(0.0113329377226 -0.0555556073583 0)
(0.0102327646406 -0.0569529586952 0)
(0.00915696997286 -0.0582015877675 0)
(0.00810569714962 -0.0593065262253 0)
(0.007078497092 -0.0602724865007 0)
(0.00607444217504 -0.0611038249169 0)
(0.00509222004897 -0.0618045160184 0)
(0.00413021279205 -0.0623781329963 0)
(0.00318656296779 -0.0628278305418 0)
(0.00225923343448 -0.0631563275514 0)
(0.00134606302113 -0.0633658887082 0)
(0.000444825535201 -0.0634583039708 0)
(-0.000446706088747 -0.0634348739069 0)
(-0.00133068302801 -0.0632963849748 0)
(-0.00220909013727 -0.0630431053688 0)
(-0.00308363879336 -0.0626747931986 0)
(-0.003955643594 -0.0621907202316 0)
(-0.00482588249266 -0.0615897273206 0)
(-0.00569444906607 -0.0608703172302 0)
(-0.00656060226246 -0.0600307930387 0)
(-0.00742263150581 -0.0590694493111 0)
(-0.00827775209772 -0.057984818362 0)
(-0.00912205992648 -0.0567759690413 0)
(-0.00995056893553 -0.0554428438315 0)
(-0.0107573660723 -0.0539866087547 0)
(-0.0115359020613 -0.0524099697856 0)
(-0.0122794358259 -0.0507173971333 0)
(-0.0129816076881 -0.0489151722529 0)
(-0.0136370967364 -0.0470111795139 0)
(-0.0142422424172 -0.0450143612922 0)
(-0.0147954723568 -0.0429337904429 0)
(-0.0152973082904 -0.0407774163898 0)
(-0.0157496607499 -0.0385505669908 0)
(-0.0161541315457 -0.0362546059312 0)
(-0.0165090066423 -0.0338863089403 0)
(-0.016804968332 -0.0314390610749 0)
(-0.0170202138757 -0.0289079438183 0)
(-0.0171197147393 -0.0262976442392 0)
(-0.0170564718496 -0.0236447372236 0)
(-0.016843254874 -0.0209837086525 0)
(-0.0164765526293 -0.0182948652393 0)
(-0.0157856310599 -0.0156712660918 0)
(-0.0148973686916 -0.013268103786 0)
(-0.0139601020676 -0.0110147687583 0)
(-0.0127117023608 -0.00897071659356 0)
(-0.0113571843005 -0.00741255339289 0)
(-0.0104980812906 -0.0060313780323 0)
(-0.00951811358721 -0.00455537421185 0)
(-0.00831985097906 -0.0032443208978 0)
(-0.00704807378332 -0.00224872352776 0)