/*--------------------------------*- C++ -*----------------------------------*\
| =========                 |                                                 |
| \\      /  F ield         | OpenFOAM: The Open Source CFD Toolbox           |
|  \\    /   O peration     | Version:  v1906                                 |
|   \\  /    A nd           | Web:      www.OpenFOAM.com                      |
|    \\/     M anipulation  |                                                 |
\*---------------------------------------------------------------------------*/
FoamFile
{
    version     2.0;
    format      ascii;
    class       volScalarField;
    location    "620";
    object      p;
}
// * * * * * * * * * * * * * * * * * * * * * * * * * * * * * * * * * * * * * //

dimensions      [0 2 -2 0 0 0 0];


internalField   nonuniform List<scalar> 
9216
(
273.612434335
273.692200584
273.857253091
274.108996948
274.446011782
274.866710939
275.369126217
275.950947872
276.609563511
277.342098097
278.145451559
279.016338032
279.951321557
280.946852068
281.999296626
283.104970016
284.260160164
285.461152521
286.704249563
287.985789187
289.30215902
290.649809684
292.025265007
293.425131199
294.846104115
296.2849753
297.73863726
299.204087136
300.678430692
302.158884128
303.642777331
305.127553629
306.610772513
308.09010904
309.563355673
311.028419618
312.483324685
313.926207609
315.355319556
316.769021297
318.165784486
319.544185816
320.902908152
322.240733808
323.556545621
324.849319511
326.118125584
327.362120141
328.580546904
329.772728636
330.938068561
332.076041754
333.186196812
334.268147157
335.321572977
336.346212552
337.341864485
338.30837912
339.245661024
340.153660567
341.0323766
341.881848208
342.702157507
343.493421589
344.255795334
344.989463547
345.694643692
346.371578207
347.020537084
347.641810362
348.235710476
348.802564948
349.342718462
349.85652578
350.344353514
350.806573319
351.243563356
351.65570183
352.043368142
352.40693685
352.746778536
353.063254264
353.356716189
353.627502593
353.87593829
354.102330338
354.306968313
354.490120897
354.65203632
354.792940499
354.913039247
355.012521536
355.091573206
355.150424162
355.18990437
355.206229702
273.532713312
273.612841891
273.778238415
274.030984308
274.369435068
274.791929033
275.296453541
275.880661324
276.541904255
277.27727166
278.083628827
278.957656088
279.895885844
280.894738276
281.950553643
283.059622321
284.218210964
285.422586148
286.669034342
287.953879529
289.273497777
290.624329821
292.002891372
293.40578181
294.829691382
296.271407028
297.727817426
299.195916728
300.672808123
302.155705992
303.641938337
305.12894798
306.614294185
308.095652066
309.570813787
311.037687463
312.494297446
313.938782172
315.369393929
316.784495851
318.182561201
319.562169595
320.922005892
322.260855776
323.577604356
324.871231247
326.140808994
327.385497799
328.604543881
329.797273994
330.963093823
332.101482428
333.21199076
334.294236133
335.347900931
336.37272719
337.368515523
338.335119865
339.272446614
340.180449569
341.059129257
341.908528049
342.72872963
343.519854269
344.282058359
345.015529814
345.720487601
346.397177235
347.045870247
347.666859737
348.260459741
348.827000836
349.366829374
349.880303153
350.36779051
350.829666092
351.266309818
351.678102797
352.065426189
352.42865732
352.768168485
353.084323326
353.377475615
353.647965959
353.896120618
354.122248606
354.3266406
354.509566506
354.671274504
354.811989026
354.931909489
355.031206791
355.110015644
355.168404642
355.20625879
355.222558349
273.366904165
273.448181078
273.615110503
273.870161427
274.211657511
274.637892153
275.146791534
275.735940447
276.402619377
277.143844827
277.956410093
278.836925744
279.781858337
280.787566841
281.850335915
282.966405981
284.131999737
285.343345351
286.596696347
287.888348543
289.214654314
290.572034456
291.956988125
293.366100926
294.796051748
296.24361819
297.705681266
299.179228972
300.661359515
302.14928352
303.640326167
305.131928378
306.621648088
308.107160317
309.586257678
311.056849711
312.516962582
313.964737549
315.398429991
316.816407115
318.217146374
319.599232512
320.961355472
322.302306895
323.620977634
324.916353848
326.187514247
327.433625921
328.653941445
329.847794575
331.014597339
332.153835718
333.265066824
334.347914666
335.402067489
336.427273702
337.423339415
338.390124575
339.327540714
340.235547294
341.114149656
341.963395548
342.783373226
343.574208133
344.336061092
345.06912508
345.77362345
346.44980675
347.097950924
347.718354138
348.311334912
348.877228937
349.416387131
349.92917244
350.415957815
350.877123037
351.313052631
351.724132747
352.110749061
352.473283756
352.812113459
353.127606378
353.420120322
353.690000059
353.93757546
354.163159121
354.367044676
354.549504684
354.71078903
354.85112286
354.970704446
355.069701699
355.148246439
355.206419398
355.244167695
355.261990134
273.111978872
273.194542864
273.363869897
273.622525519
273.968772178
274.400827548
274.916523963
275.513341266
276.188448673
276.93874907
277.760923273
278.65147328
279.606763283
280.623057613
281.6965551
282.823419542
283.999806303
285.221885119
286.485859436
287.787982567
289.124571123
290.492016023
291.886791574
293.30546283
294.744691703
296.201241865
297.671982906
299.153893609
300.644064779
302.139701367
303.638124317
305.13677168
306.63319968
308.125083082
309.610215324
311.086508008
312.551990309
314.004807672
315.443220484
316.865602028
318.270436496
319.656316305
321.021939542
322.366106768
323.687718028
324.98576927
326.259349068
327.507634796
328.7298892
329.925456467
331.093758782
332.234292405
333.346624323
334.430388448
335.485282431
336.511064064
337.5075483
338.47460389
339.412150639
340.320156267
341.198633884
342.047639047
342.867267404
343.6576519
344.418960524
345.151393599
345.855181567
346.530582301
347.177878875
347.797376847
348.389401975
348.95429745
349.492421539
350.00414477
350.489847511
350.949917131
351.384745538
351.794726363
352.180252504
352.541713377
352.879492516
353.193964954
353.485494941
353.754433488
354.001116255
354.225861316
354.428967215
354.610710945
354.771346115
354.911100946
355.030176178
355.128742565
355.206937864
355.264861808
355.302501495
355.320627997
272.766856311
272.851069269
273.023685999
273.28729577
273.640067636
274.080108466
274.605118535
275.212431079
275.89906035
276.661751514
277.497029791
278.40124769
279.370629099
280.401309372
281.489370958
282.630874395
283.821884794
285.05849405
286.336839261
287.653117743
289.003599229
290.384635646
291.792669008
293.224237716
294.67598172
296.144646662
297.62708736
299.12027063
300.621277691
302.127306069
303.635671195
305.143807386
306.649268784
308.149729845
309.642985222
311.126949302
312.599655466
314.059254814
315.504014655
316.932316489
318.34265379
319.733629345
321.103952447
322.452435704
323.777991788
325.079629862
326.356452029
327.60764953
328.832499045
330.030358806
331.200664886
332.342927359
333.456726695
334.541710076
335.59758798
336.624130726
337.621165306
338.588572188
339.526282418
340.434274671
341.312572596
342.161242091
342.980388821
343.770155654
344.530720293
345.262292783
345.965113185
346.639449087
347.285593247
347.90386106
348.494588128
349.058127649
349.594847902
350.105129562
350.589363106
351.04794608
351.481280466
351.889769943
352.273817266
352.633821575
352.970175842
353.283264291
353.573459969
353.841122332
354.086594992
354.310203501
354.512253298
354.693027709
354.852786053
354.991761786
355.11016069
355.208159193
355.285903077
355.343505986
355.380972689
355.399129362
272.329753683
272.416058414
272.592911145
272.862908218
273.224089592
273.674411237
274.211396805
274.832185145
275.533586276
276.312138695
277.164164935
278.085824015
279.073159444
280.122141941
281.2287065
282.388783829
283.598326433
284.85332986
286.149849701
287.484014998
288.852038714
290.250225844
291.674979717
293.122806922
294.590321239
296.074246819
297.571420857
299.078795836
300.593441472
302.11254633
303.633419184
305.15348986
306.670310079
308.181554021
309.685017986
311.178619963
312.660398764
314.128512726
315.581238052
317.01696673
318.434204139
319.83156629
321.207776821
322.561663692
323.892155719
325.198278881
326.479152552
327.733985595
328.962072445
330.162789141
331.335589425
332.480000839
333.595620965
334.682113717
335.739205801
336.76668328
337.764388329
338.732216088
339.670111729
340.578067604
341.456120572
342.3043494
343.122872295
343.911844464
344.671455767
345.401928354
346.103514341
346.776493435
347.421170568
348.037873443
348.626950071
349.188766213
349.723702803
350.232153285
350.714520941
351.171216155
351.602653687
352.00924991
352.391420093
352.749575674
353.084121614
353.395453773
353.683956393
353.94999964
354.193937273
354.416104393
354.616815331
354.796361639
354.955010208
355.093001514
355.21054802
355.30783297
355.385009637
355.442200364
355.479417488
355.497491721
271.798393643
271.887289324
272.069406717
272.347342391
272.718967385
273.182040399
273.73385628
274.371303876
275.090932417
275.889018403
276.761629388
277.70468298
278.713999586
279.785348146
280.914484657
282.097183754
283.329263947
284.60660727
285.925174259
287.281015085
288.670277722
290.089213842
291.534183106
293.00165632
294.488217885
295.990567789
297.505523358
299.030020826
300.561116798
302.095989569
303.631940237
305.166393474
306.696898327
308.221128773
309.736883259
311.24208425
312.734777302
314.21312967
315.675428529
317.120078763
318.545600409
319.950625722
321.333895976
322.694257963
324.030660313
325.342149603
326.627866369
327.887041012
329.118989679
330.323110126
331.498877638
332.645841002
333.763618603
334.851894628
335.910415438
336.938986097
337.937467086
338.905771176
339.843860499
340.751743768
341.629473648
342.477144256
343.29488877
344.082877098
344.841313617
345.570434911
346.27050752
346.94182565
347.584708847
348.199499595
348.78656086
349.346273548
349.879033898
350.385250799
350.865343064
351.319736642
351.748861817
352.153150382
352.533032826
352.888935544
353.22127809
353.530470482
353.816910603
354.080981669
354.323049822
354.54346183
354.742542922
354.920594753
355.077893528
355.214688296
355.331199463
355.427617689
355.504103228
355.560784677
355.597678462
355.615608673
271.169953429
271.26199779
271.450515592
271.738096266
272.122394519
272.600916369
273.170665467
273.82821484
274.569786885
275.39133262
276.288605813
277.25722997
278.292756621
279.390714279
280.546648179
281.756151452
283.014888731
284.31861338
285.663179541
287.044550206
288.458802325
289.902129875
291.370845611
292.861382073
294.370292265
295.894250277
297.430051996
298.974615979
300.524984436
302.078324298
303.631928024
305.183214593
306.729730204
308.2691487
309.799271217
311.318025669
312.823465739
314.313769406
315.787237023
317.242288952
318.677462799
320.091410289
321.482893807
322.850782678
324.194049214
325.511764586
326.803094572
328.067295232
329.303708545
330.511758068
331.690944643
332.84084221
333.961093736
335.05140731
336.111552418
337.141356413
338.140701197
339.10952011
340.047795029
340.955553651
341.832866955
342.679846808
343.496643685
344.283444471
345.040470315
345.767974494
346.466240264
347.135578661
347.776326238
348.388842721
348.973508571
349.530722439
350.060898547
350.564463956
351.041855786
351.493518352
351.919900279
352.321451583
352.698620767
353.051851917
353.381581867
353.688237401
353.972232556
354.233966008
354.473818578
354.692150867
354.889301026
355.065582686
355.221283059
355.356661228
355.471946666
355.567338145
355.643002903
355.699074973
355.735574593
355.753317411
270.441002546
270.536823599
270.733014604
271.032145788
271.431597184
271.928553945
272.51965248
273.201070732
273.968626031
274.817870144
275.744176269
276.742815554
277.809021584
278.938042496
280.125181324
281.365825795
282.655469165
283.989723793
285.36432915
286.775155738
288.218206274
289.689615176
291.185647217
292.702695955
294.237282368
295.786053937
297.345784283
298.913373328
300.485847893
302.060362576
303.63420041
305.204774077
306.769626697
308.326432148
309.87299483
311.407249125
312.927258333
314.431213093
315.917429307
317.384345578
318.830520222
320.254627876
321.655455767
323.031899696
324.382959781
325.70773603
327.00542379
328.275309127
329.516764194
330.729242624
331.912275009
333.065464496
334.18848254
335.281064853
336.343007569
337.374163648
338.374439526
339.343792016
340.282225453
341.189789065
342.066574547
342.912713797
343.728376791
344.513769544
345.269132119
345.994736642
346.690885281
347.357908165
347.996161205
348.606023806
349.187896455
349.74219818
350.269363896
350.769841628
351.244089643
351.692573512
352.115763107
352.514129576
352.888142314
353.238265947
353.564957367
353.868662825
354.149815117
354.408830868
354.646107943
354.862022997
355.056929172
355.23115397
355.384997303
355.51872975
355.63259104
355.726788849
355.801497862
355.856857853
355.892893442
355.910411619
269.607427096
269.707741209
269.913052706
270.225893623
270.643295492
271.162037018
271.778292993
272.487749424
273.285724716
274.16728484
275.127346097
276.160762758
277.262398126
278.42717929
279.650136896
280.926432032
282.251372611
283.620421665
285.02919977
286.473483546
287.949201812
289.452430665
290.979388394
292.526430909
294.090048079
295.666861175
297.253621429
298.847209603
300.444636319
302.04304295
303.639702253
305.23201996
306.817535855
308.393923971
309.958992552
311.510683536
313.04707143
314.566361625
316.066888131
317.547110793
319.005612022
320.441093099
321.852370109
323.238369573
324.59812384
325.930766299
327.235526476
328.511725072
329.758769007
330.976146509
332.163422314
333.320233012
334.446282596
335.541338229
336.605226288
337.637828688
338.639079495
339.608961855
340.547505195
341.454782711
342.330909074
343.176038352
343.990362069
344.774107367
345.527535216
346.250938614
346.944640731
347.608992969
348.244372885
348.851181973
349.429843281
349.980798871
350.504507117
351.001439865
351.472079473
351.916915752
352.336442841
352.731156044
353.101548655
353.4481088
353.771316328
354.071639768
354.349533382
354.605434331
354.839759972
355.052905307
355.245240598
355.417109156
355.568825334
355.700672716
355.812902528
355.905732387
355.979345176
356.033886945
356.069387781
356.086645691
268.664334608
268.769970593
268.986072831
269.315105599
269.753657088
270.297990172
270.943699206
271.685858387
272.519173468
273.43812235
274.437076976
275.510403495
276.652539811
277.858051672
279.121669889
280.438311978
281.803091724
283.211319977
284.658499585
286.140316867
287.652631492
289.191466189
290.752997277
292.333546663
293.929575691
295.537680907
297.154591675
298.777169333
300.402407548
302.027433442
303.649508503
305.266030663
306.874535995
308.472698703
310.058331445
311.629384842
313.183946324
314.720238296
316.236615671
317.731562802
319.203689892
320.651728924
322.074529205
323.47105258
324.840368409
326.181648354
327.494161073
328.777266853
330.030412278
331.253124965
332.445008435
333.605737175
334.735051926
335.832755264
336.898707483
337.932822826
338.935066077
339.905449505
340.84403016
341.75090749
342.626221245
343.470149608
344.282907497
345.064744986
345.815945761
346.536825548
347.227730473
347.889035286
348.52114141
349.124474807
349.699483629
350.246635662
350.766415575
351.259321988
351.725864397
352.166559972
352.581930275
352.972497931
353.338783281
353.681301055
354.000557095
354.297045148
354.571243772
354.823613361
355.054593309
355.264599352
355.454021069
355.623219595
355.772525519
355.902237012
356.012618162
356.103897605
356.176267357
356.229880663
356.264773933
356.281735561
267.605932621
267.717864015
267.946713063
268.294832094
268.758241757
269.332547365
270.012611215
270.79274577
271.666905214
272.628858051
273.672331726
274.791126364
275.979197727
277.230712231
278.54007841
279.901959908
281.311274943
282.763186734
284.253088537
285.776586197
287.329480333
288.907749667
290.507536489
292.125134879
293.756981926
295.39965194
297.049853356
298.70442787
300.360351197
302.014734836
303.664827625
305.308018556
306.941839342
308.563964229
310.172210791
311.764539515
313.339052589
314.893991912
316.427736361
317.938798396
319.42582007
320.887568524
322.322931055
323.730909859
325.110616498
326.461266219
327.782172152
329.072739503
330.33245977
331.560905076
332.75772266
333.922629599
335.055407806
336.155899371
337.224002269
338.259666489
339.262890581
340.233718647
341.17223775
342.078575705
342.952899215
343.795412284
344.606354828
345.386001407
346.134659997
346.852670713
347.540404418
348.198261157
348.826668364
349.426078812
349.996968307
350.539833105
351.05518709
351.54355873
352.005487844
352.441522232
352.852214203
353.238117038
353.599781444
353.937752026
354.252563811
354.544738859
354.814782994
355.063182664
355.290401967
355.496879853
355.683027519
355.849226005
355.995824021
356.123135974
356.231440229
356.320977708
356.391950584
356.444520058
356.478729956
356.495358177
266.425372796
266.544760588
266.788681982
267.159311096
267.651936272
268.261318926
268.981393684
269.805522039
270.726735992
271.737950546
272.832134732
274.002438955
275.242280787
276.545394688
277.905852824
279.318064502
280.776761163
282.276972732
283.813999885
285.383385505
286.980887651
288.602455465
290.24420898
291.902423258
293.573517029
295.254045586
296.94069747
298.63029414
300.319791775
302.006284131
303.687005343
305.35933395
307.0207962
308.669066005
310.301966283
311.917468607
313.513691927
315.088900361
316.64150015
318.170035846
319.673185849
321.149757372
322.598680968
324.019004683
325.409887973
326.77059544
328.100490501
329.39902904
330.665753131
331.900284897
333.102320563
334.271624783
335.408025297
336.511407989
337.581712388
338.61892767
339.623089168
340.59427542
341.532605713
342.438238107
343.311367865
344.152226218
344.961079362
345.738227591
346.484004463
347.198775882
347.882939026
348.536921036
349.161177397
349.756190009
350.3224649
350.860529614
351.370930287
351.854228447
352.310997602
352.741819643
353.147281145
353.527969583
353.884469552
354.217358993
354.527205501
354.814562714
355.079966851
355.323933387
355.546953916
355.749493206
355.931986461
356.094836817
356.238413052
356.363047547
356.469034475
356.556628275
356.626042367
356.67744695
356.710894039
356.727149971
265.114548989
265.24279996
265.504600744
265.901849156
266.428878783
267.0793592
267.846042247
268.721097884
269.696425681
270.763916479
271.915652912
273.144048574
274.441931492
275.802581673
277.21973394
278.687557015
280.200618222
281.753841245
283.342462235
284.961987888
286.608157613
288.276911127
289.964362065
291.666777942
293.380566363
295.10226714
296.828549461
298.556213016
300.282191751
302.003558085
303.717528687
305.421469646
307.11289973
308.789491935
310.449074851
312.089632434
313.709302595
315.306374723
316.87928622
318.426618191
319.947090395
321.439555596
322.902993416
324.336503838
325.73930045
327.11070354
328.450133137
329.757102072
331.031209125
332.272132349
333.479622615
334.653497482
335.793635451
336.899970684
337.972488262
339.011220029
340.016241066
340.987666802
341.925650742
342.830382777
343.702087987
344.541025854
345.347489741
346.121806541
346.86433632
347.575471864
348.255637994
348.905290557
349.524915035
350.115024728
350.676158496
351.208878084
351.71376506
352.19141742
352.642445933
353.067470279
353.467115053
353.842005709
354.192764479
354.520006335
354.824335028
355.106339242
355.366588901
355.605631642
355.823989495
356.022155774
356.200592207
356.359726295
356.499948939
356.621612296
356.725027891
356.810465089
356.878149684
356.92826165
356.960862275
356.976705124
263.663833317
263.802679925
264.085802304
264.514675179
265.082372894
265.781138922
266.602206598
267.536246756
268.573767334
269.7054344
270.922303632
272.215966101
273.578620243
275.003086353
276.482780789
278.011665367
279.584184418
281.195198511
282.839920797
284.513859356
286.212767298
287.932601276
289.669488659
291.419703318
293.179649867
294.945855733
296.714969969
298.483767099
300.249154118
302.008177216
303.758031177
305.496066261
307.219791522
308.926878026
310.615160266
312.282635971
313.927464499
315.547963956
317.142607209
318.710016942
320.248959918
321.758340566
323.237194073
324.684679093
326.100070235
327.482750419
328.832203217
330.148005237
331.42981864
332.677383834
333.89051246
335.069080709
336.213023104
337.32232682
338.397026635
339.437200586
340.442966396
341.414478663
342.351926822
343.255533808
344.125555341
344.96227969
345.766027784
346.537153482
347.276043846
347.98311925
348.658833174
349.303671575
349.918151748
350.502820645
351.058252624
351.585046678
352.083823183
352.555220245
352.999889739
353.418493103
353.811697007
354.18016894
354.524572803
354.845564547
355.143787916
355.419870329
355.674418928
355.908016831
356.121219605
356.314551987
356.48850485
356.643532453
356.780049937
356.898431123
356.999006549
357.082061832
357.147836299
357.196520795
357.228186609
357.243573209
262.061726782
262.213339852
262.522074281
262.98876153
263.604792733
264.360529454
265.245240962
266.247704277
267.356717028
268.561488075
269.851897593
271.218638518
272.653261414
274.148149277
275.696447891
277.291973188
278.929111518
280.602723325
282.308056081
284.040669088
285.796370652
287.571167289
289.361224413
291.162838235
292.972418586
294.786482126
296.60165438
298.414678244
300.22242599
302.021910398
303.810297897
305.58491828
307.343268057
309.083014986
310.801999629
312.498235089
314.169905029
315.815360247
317.433113989
319.021836251
320.580347177
322.107609762
323.602722014
325.064908762
326.493513255
327.887988701
329.24788981
330.572864447
331.862645425
333.117042527
334.335934808
335.519263297
336.6670242
337.779262735
338.856067704
339.89756692
340.903923551
341.87533342
342.812023246
343.714249758
344.582299579
345.416489702
346.217168379
346.984716204
347.71954716
348.422109436
349.09288582
349.732393521
350.341183339
350.91983811
351.468970454
351.989219841
352.481249086
352.945740352
353.383390789
353.79490792
354.181004875
354.542395577
354.879789938
355.193889136
355.485381021
355.754935684
356.003201228
356.230799772
356.4383237
356.62633219
356.795348027
356.945854706
357.07829384
357.193062853
357.290512955
357.370947515
357.434620575
357.481734628
357.512372084
357.527256857
260.29439067
260.461540246
260.801327691
261.313605851
261.98748331
262.810810862
263.770298508
264.852322347
266.043580855
267.331562868
268.704826666
270.153116348
271.667354202
273.239550907
274.862670893
276.5304817
278.237406828
279.978393166
281.748797698
283.54429393
285.360796387
287.194400911
289.041339245
290.897947315
292.760647388
294.625943873
296.490430964
298.350808607
300.203902128
302.046680026
303.876271992
305.689981342
307.485288389
309.259855959
311.011530941
312.738343742
314.438505746
316.110405075
317.752601054
319.36381755
320.94293537
322.488983876
324.001132069
325.478679323
326.921045987
328.327763986
329.698467515
331.03288388
332.330824525
333.592176269
334.816892862
336.004986937
337.156522529
338.271608297
339.350391631
340.393053762
341.399806013
342.370887205
343.306562249
344.207121829
345.072883033
345.904190737
346.70141949
347.464975614
348.195299242
348.892866017
349.558188227
350.191815184
350.794332736
351.366361854
351.908556321
352.421599575
352.906200833
353.363090649
353.793016038
354.196735343
354.575012956
354.928614017
355.258299159
355.564819371
355.848911026
356.111291109
356.352652677
356.57366059
356.774947516
356.957110263
357.120706415
357.266251305
357.39421531
357.505021477
357.59904345
357.676603739
357.737972303
357.783364416
357.81287433
357.827208841
258.345007549
258.531299297
258.909166999
259.476967662
260.220665384
261.124723931
262.172495097
263.34730399
264.633282008
266.015913064
267.48230862
269.021262444
270.623150241
272.27973879
273.983957627
275.72967074
277.511470438
279.324503386
281.164330125
283.026814507
284.908037418
286.804229725
288.711721317
290.626905876
292.546222778
294.466157373
296.38325758
298.294161725
300.195629043
302.084568574
303.958062966
305.813381194
307.647983352
309.45952569
311.245861926
313.005042277
314.73531001
316.435096095
318.103012557
319.73784472
321.338542385
322.904210177
324.434097309
325.927587082
327.384186324
328.803514974
330.185295865
331.52934472
332.835560341
334.103915019
335.334445206
336.527242595
337.682445781
338.800232738
339.880814298
340.924428864
341.931338495
342.901826445
343.83619617
344.734771719
345.59789932
346.425949915
347.219322309
347.978446581
348.703787361
349.395846659
350.055165909
350.682327023
351.277952301
351.842703152
352.377277647
352.882407028
353.358851329
353.807394325
354.228838
354.623996768
354.993691564
355.338743979
355.659970489
355.958176858
356.234152743
356.488666553
356.722460565
356.936246356
357.130700559
357.306460961
357.464122976
357.604236475
357.727302987
357.833773244
357.924045063
357.998461654
358.057310105
358.100819229
358.129096288
358.142829246
256.192894156
256.403124339
256.828329224
257.464555652
258.293363906
259.294599272
260.447181328
261.730556528
263.125739452
264.615922847
266.186702389
267.826007876
269.523847848
271.271965438
273.063478911
274.89255281
276.754122128
278.643674741
280.55708673
282.490499821
284.440229179
286.402691902
288.374351167
290.351676459
292.33112455
294.30914631
296.282217222
298.246883879
300.199811229
302.137828181
304.057957229
305.957424696
307.833666643
309.684331336
311.507280318
313.300586966
315.06253168
316.791594886
318.486449063
320.145949771
321.769125426
323.355166077
324.903411627
326.413339817
327.884554365
329.316773444
330.709818533
332.063603569
333.378124306
334.653447797
335.88970208
337.08706619
338.245760774
339.366039582
340.448182149
341.492487949
342.499272238
343.468863713
344.401604033
345.297849082
346.15797177
346.982366037
347.771451629
348.525679167
349.245535034
349.931545606
350.584280443
351.204354156
351.792426775
352.34920256
352.875427325
353.371884447
353.839389782
354.278785797
354.690935202
355.07671434
355.437006545
355.772695606
356.084659429
356.37376393
356.640857192
356.886763911
357.112280151
357.318168449
357.505153287
357.673916967
357.825095896
357.95927729
358.076996271
358.17873338
358.264912426
358.335898732
358.391997722
358.433452899
358.460385237
358.473462031
253.812243172
254.052949936
254.537949492
255.259669425
256.193396271
257.312617936
258.590382125
260.001217248
261.522400673
263.134589151
264.821908216
266.571658055
268.373808388
270.220428361
272.105149156
274.022710848
275.96861014
277.938843442
279.929727734
281.937777145
283.95961391
285.991897358
288.031263008
290.074274456
292.117399642
294.15702623
296.189513464
298.211268416
300.218821793
302.208893902
304.178431714
306.124613364
308.044848082
309.936775251
311.79826581
313.62742093
315.422564923
317.182235649
318.905175043
320.590319096
322.236785976
323.843862883
325.410992337
326.937758359
328.423873068
329.869164038
331.273562262
332.637090559
333.959852122
335.242019063
336.483820927
337.685533422
338.847467683
339.969960492
341.053365888
342.098048548
343.104379253
344.072732661
345.003487413
345.897028507
346.753751635
347.574069068
348.358416528
349.107260406
349.821104692
350.500497002
351.146033195
351.758360229
352.33817703
352.886233348
353.403326684
353.890297556
354.348023444
354.777411819
355.179392672
355.554910884
355.904918692
356.230368415
356.532205482
356.811361795
357.068749409
357.30525454
357.52173193
357.71899959
357.897833975
358.058965614
358.203075209
358.330790212
358.442681857
358.539262618
358.620984067
358.688235204
358.741340976
358.78056028
358.806028999
358.818391745
251.170294932
251.450643597
252.01260164
252.842817065
253.907488063
255.171291766
256.599493376
258.160428554
259.826985021
261.577159758
263.393865326
265.264246267
267.17878268
269.130396191
271.113680809
273.124306069
275.15859163
277.213226817
279.285097937
281.371184369
283.468488353
285.573972023
287.684489265
289.796719105
291.907125904
294.011985016
296.107467814
298.189766879
300.255218823
302.300400702
304.322171073
306.317659648
308.284249326
310.21957
312.121503878
313.988186498
315.817995231
317.609534912
319.361627185
321.073300259
322.743775085
324.372449611
325.958882709
327.502778002
329.003968697
330.462403837
331.878135591
333.251307132
334.582140568
335.870924488
337.118001155
338.323753588
339.488593094
340.612947795
341.697252785
342.741942426
343.747445261
344.71418181
345.642565403
346.53300591
347.38591605
348.201719703
348.980861492
349.723816792
350.431101291
351.103279302
351.740970184
352.344852376
352.915664831
353.454205793
353.961329107
354.437938398
354.884979644
355.30343271
355.694302437
356.058609732
356.397383
356.711650042
357.002430449
357.270728421
357.517525966
357.743776453
357.95039854
358.13827053
358.308225218
358.461045257
358.597459071
358.718137325
358.823689892
358.914663334
358.991538795
359.054730306
359.104583488
359.141373748
359.165252525
359.176839576
248.22460293
248.557871546
249.221059696
250.191372114
251.421638686
252.86430473
254.474368843
256.212470609
258.046510722
259.951963368
261.911153184
263.911920085
265.94612243
268.008293599
270.094588092
272.202036884
274.328071965
276.470257474
278.626161079
280.793303647
282.969133194
285.150981542
287.33598258
289.520964085
291.702362065
293.876259074
296.038521459
298.185006921
300.311772049
302.415210929
304.492089883
306.539506003
308.554822119
310.535656047
312.479901693
314.385738991
316.251611549
318.07620233
319.858423585
321.597409379
323.292498878
324.94321677
326.549254238
328.110449616
329.626770997
331.098301716
332.52522735
333.907823591
335.2464439
336.541506113
337.793477994
339.002862229
340.170181622
341.295965372
342.380737221
343.425006256
344.429260944
345.393966884
346.319568437
347.206494176
348.055165702
348.866009117
349.639468139
350.376017748
351.076177162
351.740521094
352.369688411
352.964387616
353.525398865
354.053572514
354.549824451
355.015128706
355.450508085
355.857023659
356.23576394
356.587834401
356.914347696
357.216414727
357.495136426
357.751596097
357.986852142
358.201931137
358.397821284
358.575466326