/*--------------------------------*- C++ -*----------------------------------*\
| =========                 |                                                 |
| \\      /  F ield         | OpenFOAM: The Open Source CFD Toolbox           |
|  \\    /   O peration     | Version:  v1906                                 |
|   \\  /    A nd           | Web:      www.OpenFOAM.com                      |
|    \\/     M anipulation  |                                                 |
\*---------------------------------------------------------------------------*/
FoamFile
{
    version     2.0;
    format      ascii;
    class       surfaceScalarField;
    location    "5";
    object      phi;
}
// * * * * * * * * * * * * * * * * * * * * * * * * * * * * * * * * * * * * * //

dimensions      [0 3 -1 0 0 0 0];
oriented        oriented;


internalField   nonuniform List<scalar> 
18240
(
0.010388744099
-0.0104298950648
0.0222803242032
-0.0119460852573
0.0342939869837
-0.0120539978196
0.0461675699465
-0.0119296828214
0.057858697957
-0.0117269454717
0.0692871476337
-0.0114854733662
0.0804557094636
-0.0111996343829
0.0912866381154
-0.010888579746
0.101799055961
-0.0105388153486
0.111912605062
-0.0101715914891
0.121661285921
-0.00977047240238
0.13096268387
-0.00935962091795
0.139865333288
-0.00892001691857
0.148285523551
-0.00847838563581
0.156285672248
-0.00801321621607
0.163781114615
-0.00755342001923
0.170847138678
-0.0070750165611
0.177398273876
-0.00660869914735
0.183521355086
-0.00612813902365
0.189129914009
-0.00566552797349
0.194320847438
-0.0051922948003
0.199006504137
-0.00474184337042
0.203292275802
-0.00428357848712
0.207088990326
-0.00385194916274
0.210509018077
-0.00341452170173
0.213461507711
-0.00300659803236
0.216064374768
-0.00259418380312
0.218224883686
-0.00221334357457
0.220065245729
-0.00182874253969
0.221490898402
-0.00147708477746
0.222627312732
-0.00112200427497
0.223378193942
-0.000800852752422
0.223871668731
-0.000476522070412
0.224011785868
-0.000188598973756
0.223930950965
0.00010021684951
0.223526756439
0.000357240375627
0.222923393159
0.000624948869922
0.222014587236
0.000863573268018
0.220926991857
0.00111135540673
0.219554711459
0.00132894603575
0.218025337793
0.00155513362116
0.216233001611
0.00175105292671
0.214304884174
0.00195578262421
0.212135078461
0.00213068921689
0.20984959716
0.00231484270299
0.207342828521
0.00246993389831
0.204738999521
0.00263477846757
0.201933087981
0.00277145172454
0.199047047104
0.00291836990335
0.195976921517
0.00303813658912
0.192841939333
0.00316857997831
0.189539571501
0.00327292275537
0.186185936915
0.00338829391206
0.182680421375
0.00347868711184
0.17913565751
0.00358036790724
0.175453299729
0.00365819457891
0.17174216883
0.0037474725926
0.167906648063
0.00381407009945
0.164051420271
0.00389218467888
0.160083923873
0.00394878409028
0.156104422557
0.00401687151032
0.152023828181
0.00406464884127
0.147937699984
0.00412379117851
0.143760716899
0.00416381900772
0.139583487451
0.00421500009217
0.135324832385
0.00424829679982
0.13107015579
0.00429244761705
0.126742684276
0.00431993717015
0.122422396811
0.00435789949437
0.118037259344
0.00438045465297
0.113661597144
0.00441302008926
0.109228350644
0.00443142853733
0.10480599625
0.00445930901814
0.100332734504
0.00447430840649
0.0958710013837
0.00449816786587
0.0913644500968
0.00451041790844
0.0868693322422
0.0045308499093
0.0823349676328
0.00454095881293
0.0778113046302
0.00455851042101
0.0732534511027
0.00456701400664
0.0687049946833
0.00458216974639
0.0641269662328
0.00458955086413
0.0595565669026
0.00460274396416
0.0549608707383
0.004609421187
0.0503706959832
0.00462101481304
0.0457593397653
0.0046273436222
0.0411511745926
0.00463761551355
0.0365257817682
0.00464382565859
0.0319010134383
0.00465285495452
0.027262750297
0.00465874983275
0.0226230034028
0.00466578336752
0.017975529055
0.00466909993958
0.0133311686933
0.00466775607467
0.00870670224073
0.0046471886567
0.00419231353149
0.00453738748712
0.00420362161486
0.0117846473856
-0.0222611523617
0.0255443282396
-0.0257583218549
0.0393625516335
-0.0259205351328
0.0530112042206
-0.0256301194752
0.0664362158075
-0.0251974988993
0.0795784967397
-0.0246780513469
0.0924139803567
-0.0240777485466
0.104887671362
-0.0234109192991
0.116984728413
-0.0226755738623
0.128652931091
-0.0218867078703
0.139887146232
-0.0210415044855
0.15063899959
-0.0201565931829
0.160913430528
-0.0192284043111
0.170666508103
-0.0182747393639
0.179913096242
-0.0172909729507
0.188613822215
-0.0162955460674
0.196792887166
-0.015282502126
0.20441518062
-0.0142704827271
0.211513293194
-0.0132520017628
0.218055788221
-0.0122455759172
0.224082494048
-0.0112421189826
0.229564899363
-0.010259833894
0.234548815165
-0.00928805635798
0.239007858437
-0.00834458645879
0.242992599148
-0.00741730440045
0.246478035435
-0.00652360985456
0.249518352147
-0.00565009535076
0.252089280357
-0.00481381329211
0.254247640114
-0.00400029374902
0.25596939473
-0.00322635064926
0.257313192381
-0.00247668866383
0.258254840684
-0.00176802441675
0.258854169405
-0.00108452235019
0.25908656371
-0.000444556436863
0.259011428258
0.000168820244025
0.258601142696
0.000745879303454
0.257913066523
0.00130858388637
0.256916284668
0.00184069589682
0.255666358312
0.00235892748373
0.254131857332
0.0028458245031
0.252368572038
0.00331814161899
0.250345023754
0.00375904342827
0.248116776623
0.004185767844
0.245652143556
0.00458183639408
0.24300600276
0.0049646977921
0.240146390768
0.00531813733415
0.237127146357
0.00565964083282
0.233916045276
0.00597321762848
0.230565638325
0.0062762519971
0.227043537292
0.00655297263328
0.223400804151
0.00682056840711
0.219605007857
0.00706351022155
0.215705574792
0.0072987061123
0.211670191519
0.0075109015361
0.207546516016
0.00771666035083
0.203302507811
0.00790104519222
0.198983955232
0.00808021029153
0.194559267886
0.0082395796341
0.190072264014
0.00839484670426
0.185491963021
0.0085318452376
0.180860134278
0.00866575224321
0.176146581653
0.00878285905061
0.171390942186
0.00889778073763
0.166563956749
0.0089973154742
0.161703062428
0.00909546582975
0.156780102476
0.00917958551947
0.151830238795
0.00926302118563
0.146826558851
0.009333730754
0.141801885574
0.00940435664367
0.136730704119
0.00946350991652
0.131643426287
0.00952308530786
0.126516063559
0.00957239457462
0.121376555087
0.00962253790289
0.116202576267
0.00966357560922
0.111019529639
0.00970577077541
0.105806865299
0.00973997612088
0.100587402543
0.00977557524772
0.0953424808636
0.00980425572647
0.0900922973389
0.00983448518508
0.0848201654493
0.0098588202428
0.0795436453404
0.00988478021614
0.0742481221739
0.00990582281436
0.068948529529
0.00992848869921
0.0636324336456
0.00994716269116
0.058312183356
0.00996737060087
0.0529776645773
0.00998445884476
0.0476386103281
0.0100028844342
0.0422872047694
0.0100189693312
0.0369303563913
0.0100360414024
0.0315623233631
0.0100513099971
0.0261867890889
0.0100668116178
0.0207995181691
0.0100805542844
0.0153998386604
0.0100921184151
0.00997984132179
0.0100915516435
0.00455117354543
0.00998955948553
0.00876598907302
0.0119735058918
-0.0342817299009
0.0258818085366
-0.0397176499015
0.0398772114697
-0.0399651881111
0.0537141805552
-0.0395165510736
0.0673245792785
-0.0388550096001
0.0806563449295
-0.0380572683376
0.0936730867658
-0.0371392664492
0.106330670034
-0.0361138812692
0.118599968913
-0.0349872905962
0.130442219859
-0.0337722237717
0.141835990738
-0.0324753066435
0.152748767688
-0.0311104954357
0.163167360988
-0.0296846574243
0.173065967462
-0.0282123126805
0.182439654421
-0.026699942923
0.191269235947
-0.0251619327052
0.199557581259
-0.0236037865185
0.20729162974
-0.0220391666834
0.214481226442
-0.0204721920621
0.221118609828
-0.0189154257302
0.22721956429
-0.0173713558807
0.23278068145
-0.0158512409967
0.237822551585
-0.0143558946344
0.24234510066
-0.0128952507212
0.246372624337
-0.0114685160969
0.249907461731
-0.0100843797024
0.252976597042
-0.00874063392719
0.255583934147
-0.00744490803424
0.257758282516
-0.00619380807805
0.259504452307
-0.00499412251031
0.260852370706
-0.0038415689193
0.261807211724
-0.00274237221666
0.262399543615
-0.00169169685894
0.262634802045
-0.000697240352699
0.26254275307
0.000248151672835
0.262125935323
0.00114730328167
0.261411208077
0.00201265117344
0.260398468597
0.00284011648178
0.259113437584
0.00363539911257
0.257555692935
0.00439232502423
0.25575082048
0.00511651618531
0.253698158561
0.00580252945761
0.251422959191
0.00645652036124
0.248924171881
0.00707349034986
0.24622645861
0.00765996017347
0.243328255261
0.00821123142306
0.240253425596
0.00873399693582
0.236999796619
0.0092237298155
0.233590310997
0.00968718274264
0.230022192948
0.0101199426613
0.226317376037
0.0105287240513
0.222472484693
0.0109091834189
0.218508404731
0.0112679525644
0.214421230582
0.0116007531684
0.210230768369
0.0119140795408
0.205932627184
0.0122037081891
0.201545530912
0.0124759771069
0.197064695986
0.0127267331617
0.192507755231
0.0129621211009
0.187869591575
0.0131780619056
0.183166758096
0.0133804982601
0.178393901394
0.0135654482558
0.173566494298
0.0137386236893
0.168679009119
0.0138961497994
0.16374585322
0.0140435018042
0.158761418354
0.0141769372933
0.153739046924
0.014301669598
0.148673110119
0.014414101741
0.143575897816
0.0145191790513
0.138441846863
0.0146134751784
0.133282192031
0.014701643468
0.128091490934
0.0147804429257
0.122879931143
0.0148542268995
0.117642267526
0.014919963617
0.112387636823
0.0149816835846
0.107111041483
0.0150365793001
0.101820577153
0.0150883492105
0.0965115614419
0.0151344307642
0.0911910519252
0.0151781703597
0.0858547280208
0.0152172635986
0.0805086291764
0.0152546959705
0.0751488652866
0.0152884364354
0.0697804928406
0.0153210914373
0.0644001342609
0.0153509144695
0.0590119386314
0.0153801171253
0.0536131327339
0.0154072503099
0.0482069517497
0.0154341058214
0.0427911679614
0.0154595405893
0.0373678241879
0.015484885174
0.0319349920026
0.0155093147772
0.026493306953
0.0155337183282
0.0210407824519
0.0155574345173
0.0155771503634
0.0155799527862
0.0101043229396
0.0155890335949
0.00467187179537
0.0154457175979
0.0134488509751
0.0120672992404
-0.0463956918241
0.0260673985975
-0.0537673609204
0.0401631208032
-0.0541098750335
0.0541054429693
-0.0535070956168
0.0678200876899
-0.0526165871441
0.0812561837987
-0.0515395835865
0.0943722025322
-0.0503000828438
0.107126757663
-0.0489125807846
0.119485375897
-0.0473885416354
0.131413116138
-0.0457419973977
0.142882887665
-0.0439855309933
0.153867005337
-0.0421345079253
0.164346352326
-0.0402022502726
0.174300869703
-0.0382045680873
0.183719451621
-0.0361545666253
0.192589487045
-0.0340675416201
0.200907409749
-0.0319555345231
0.208667411021
-0.0298325690415
0.215872607136
-0.0277090058759
0.222523052986
-0.0255970954667
0.228627477267
-0.0235051784094
0.234190704246
-0.021443507223
0.239225924484
-0.0194183025606
0.243741631183
-0.0174378072939
0.247754371533
-0.0155062199868
0.25127527444
-0.0136299336777
0.254323238736
-0.0118113462533
0.256911133382
-0.0100552556298
0.259059358772
-0.00836256819777
0.260781774519
-0.00673681608511
0.262099598879
-0.00517776425101
0.263027126534
-0.0036880538447
0.26358601118
-0.00226683460013
0.263790541482
-0.000917788895966
0.263660626815
0.000363947840653
0.263208050577
0.00158594733737
0.262450862
0.00275782695613
0.261398981388
0.0038801827657
0.260069456709
0.00495502170843
0.258471758382
0.005980307639
0.256622529862
0.00695793271296
0.254530776474
0.00788663819781
0.252212632565
0.00876889841241
0.249676541919
0.00960397371723
0.246937983006
0.0103947726073
0.24400472227
0.0111408911948
0.240891460689
0.0118454863711
0.237605220278
0.0125083400189
0.234159857728
0.0131327183214
0.230561622042
0.0137184849603
0.22682348785
0.0142689283042
0.222950937225
0.0147839363067
0.218956060132
0.015266759633
0.214843596645
0.0157172715251
0.210624758919
0.0161386495782
0.206303585697
0.0165307362618
0.20189043736
0.0168966101408
0.19738869853
0.0172360714537
0.192807902559
0.0175520859328
0.188150832576
0.0178444127987
0.183426230704
0.0181158935395
0.178636332504
0.0183662468174
0.173789118652
0.0185981848156
0.168886331236
0.018811393677
0.163935226159
0.0190084507509
0.158937105599
0.0191890150502
0.153898529317
0.0193555267514
0.148820410165
0.0195076278242
0.143708644568
0.019647617462
0.138563805447
0.0197751277496
0.133391149824
0.0198923144516
0.12819095502
0.0199988097541
0.12296786549
0.0200966220961
0.117721907025
0.0201853912541
0.112457131839
0.0202669748933
0.10717335402
0.02034102921
0.101874058819
0.0204092568899
0.0965588909949
0.0204713374806
0.0912307903118
0.0205288145115
0.0858892713524
0.0205813976031
0.0805367575349
0.0206304668686
0.0751726849297
0.0206757673848
0.0697990090691
0.0207185097804
0.064415159957
0.0207584781964
0.0590227105126
0.0207967062477
0.0536211600789
0.0208330244153
0.0482117042759
0.0208682773079
0.0427938258352
0.020902344327
0.037368109702
0.0209358965742
0.0319338243202
0.0209688511536
0.0264906938074
0.0210016848182
0.0210379749449
0.0210345090246
0.0155762598254
0.0210661527782
0.0101100955361
0.0210793959879
0.00469463049095
0.0208845491878
0.0181546311866
0.0121858623416
-0.058627551902
0.0263230717767
-0.0679535925566
0.040560510737
-0.0683954159864
0.0546450109598
-0.0676389573764
0.0684991960197
-0.066517035381
0.0820711911513
-0.0651569540544
0.0953166712619
-0.0635898343406
0.108193985255
-0.0618332684979
0.120666074073
-0.0599028797335
0.132698395108
-0.0578156625095
0.14426154871
-0.0555888716215
0.155328905545
-0.0532411457888
0.165879349622
-0.0507907962938
0.17589451084
-0.0482569227465
0.185361567107
-0.0456576145628
0.194270126027
-0.0430111893054
0.20261510232
-0.0403343839998
0.210393315197
-0.0376437511707
0.217606455277
-0.0349538804856
0.224257467756
-0.0322789434758
0.230353644605
-0.0296309443453
0.235902852484
-0.0270214023703
0.240916756517
-0.0244596294704
0.245406940499
-0.0219545150342
0.24938828044
-0.0195128074449
0.252874987645
-0.0171409828944
0.255884116058
-0.0148435242158
0.258431552695
-0.0126248432226
0.260535660871
-0.0104875384284
0.262213233907
-0.00843436435473
0.263483249469
-0.00646647908
0.264362810261
-0.0045854626541
0.264871323373
-0.00279192857019
0.265025414516
-0.00108757228425
0.264841666589
0.000533287943307
0.264334499201
0.00207955058306
0.263519824297
0.00356022316269
0.262411028079
0.00497756985872
0.261023179497
0.00633273574245
0.259368951047
0.00762524723209
0.257462755011
0.00885608889732
0.255316618652
0.0100255644453
0.252944262335
0.0111352748833
0.250356983885
0.012186079946
0.247567735717
0.0131800541278
0.244587027148
0.0141184277462
0.241426979309
0.0150035489572
0.23809726544
0.015836843218
0.234609144745
0.0166207896286
0.230971448368
0.0173568939364
0.227194565294
0.0180476635821
0.223286489007
0.0186946056175
0.219256753869
0.0193001975435
0.215112549016
0.0198659040151
0.21086257894
0.0203941288823
0.206513260127
0.0208862638272
0.202072504455
0.0213446196033
0.197546005484
0.0217705029201
0.192940920042
0.0221661139197
0.188262260199
0.022532665213
0.183516471685
0.022872243598
0.178707938589
0.0231859690548
0.173842435505
0.0234758087652
0.16892376115
0.023742790041
0.16395706244
0.0239887640482
0.158945604022
0.0242146717953
0.153893942507
0.0244222463167
0.148804848065
0.0246123455287
0.143682326117
0.0247865892904
0.138528698121
0.0249457596769
0.133347450139
0.0250913621312
0.128140489227
0.0252241067176
0.122910815075
0.0253453885768
0.117659959945
0.025455852189
0.112390464479
0.0255567808189
0.107103517673
0.0256487567863
0.101801231919
0.0257329541009
0.0964844909227
0.0258098978357
0.0911550055392
0.0258806506359
0.0858133876464
0.0259456829125
0.0804609796411
0.0260059469541
0.0750981687582
0.0260618612244
0.0697259808503
0.0261142641098
0.0643446468098
0.0261635235738
0.0589549686564
0.0262103625133
0.0535570860181
0.0262550987195
0.0481515897658
0.0262983395234
0.0427384644943
0.0263403608218
0.0373178266469
0.0263816413552
0.0318893384983
0.0264224641133
0.0264527138088
0.0264632532051
0.0210073875917
0.026504003452
0.0155541898289
0.0265431992993
0.0100988281607
0.0265591527285
0.00469613225055
0.0263107230134
0.0228616139691
0.0123421704991
-0.071015006523
0.0266696835684
-0.0823288023897
0.041100473094
-0.0828735712537
0.0553760972882
-0.081961005817
0.0694163099628
-0.0806027764476
0.0831675426142
-0.0789527692994
0.0965831454537
-0.0770490607208
0.109620102757
-0.0749129134828
0.122239423514
-0.0725639028269
0.134405754456
-0.0700227509765
0.146088300071
-0.0673111665418
0.157260288561
-0.0644519221441
0.167899795734
-0.0614680600519
0.177988957871
-0.0583828698991
0.187514675205
-0.0552190710478
0.196467608098
-0.0519988783744
0.204842791008
-0.0487432604574
0.212638473612
-0.045472136615
0.219856701651
-0.0422037369603
0.226502068853
-0.0389549366523
0.232582306489
-0.0357407178699
0.238106996797
-0.0325746174445
0.243088209493
-0.0294682651255
0.24753921315
-0.0264319165359
0.251475172764
-0.0234740450378
0.254911876277
-0.0206019272968
0.257866502892
-0.0178212611383
0.260356377491
-0.0151367818315
0.262399802169
-0.0125518932047
0.264014836272
-0.0100692949115
0.265220194359
-0.00769061469705
0.266034045592
-0.00541707935597
0.266475572752
-0.0032501168551
0.266562037115
-0.00118962830202
0.266308743176
0.000772116463166
0.265731016475
0.00264384340463
0.264844501823
0.00443444137577
0.263663960448
0.00614686037398
0.262204340472
0.0077822228623
0.260479590503
0.00934088347545
0.258503802011
0.0108238581802
0.256290100468
0.0122322378847
0.253851722954
0.0135676933432
0.251200920729
0.0148318926619
0.248350043576
0.0160269910269
0.245310443332
0.0171550346719
0.242093562337
0.0182184628658
0.238709846275
0.0192195204602
0.235169829934
0.0201607741397
0.231483061018
0.0210445378202
0.227659181185
0.0218734013382
0.223706866114
0.0226496653951
0.219634894357
0.0233758742891
0.215451104149
0.024054261321
0.211163447596
0.0246872839347
0.206778969222
0.0252770778377
0.202304838973
0.02582598817
0.197747353264
0.0263360344035
0.193112944498
0.0268094369327
0.188407209763
0.027248092278
0.183635891432
0.0276540899532
0.178803934543
0.0280292005334
0.173916436171
0.0283753824092
0.168977736636
0.0286942830521
0.163992333046
0.0289877312903
0.158964005497
0.0292572544643
0.153896692221
0.0295045556792
0.14879365571
0.0297310478219
0.143658315569
0.0299383119366
0.138493455838
0.0301276508287
0.133302012618
0.0303005276285
0.128086327628
0.0304581405339
0.122848887319
0.0306018380854
0.117591624814
0.0307327177481
0.112316607313
0.0308520164831
0.107025391845
0.0309607351725
0.101719657806
0.031060001395
0.0964006193931
0.0311507222101
0.0910695976342
0.0312339173357
0.0857274977119
0.0313104024911
0.0803753153801
0.0313810903995
0.0750136903647
0.0314467067234
0.0696433480604
0.0315080568592
0.0642647306098
0.0315657765426
0.058878385486
0.0316205629139
0.0534846256329
0.0316729652476
0.0480838386016
0.0317235694608
0.0426761278435
0.031772838784
0.0372615234602
0.03182127904
0.0318397872454
0.0318692498986
0.0264104460312
0.0319171251902
0.0209733305206
0.0319652212412
0.0155294605941
0.0320113224571
0.0100839416364
0.0320285000007
0.00469152832923
0.0317261588031
0.0275641835836
0.0125406770346
-0.0836001487419
0.0271118027911
-0.0969471191174
0.0417898416564
-0.0975979379288
0.0563081772115
-0.0965249684914
0.0705836717294
-0.0949229538916
0.0845603217467
-0.0929732394346
0.0981891273516
-0.0907207701613
0.111425063192
-0.0881908652092
0.124227211391
-0.0854071449647
0.13655885132
-0.0823945747098
0.148387965596
-0.0791795205419
0.159687216052
-0.0757894803035
0.170434247892
-0.0722524358778
0.180611425749
-0.0685964394684
0.190205929663
-0.0648489841731
0.199209292864
-0.0610366824651
0.207617354027
-0.0571847646056
0.21542967147
-0.0533169116198
0.222649403421
-0.049454910753
0.229282669329
-0.0456186439574
0.235338423622
-0.0418258820402
0.240827817271
-0.0380924034296
0.245764104591
-0.0344318936038
0.250162035455
-0.0308561540055
0.254037820852
-0.0273750657967
0.257408568655
-0.0239968555159
0.260292311844
-0.0207280927297
0.262707490156
-0.0175739829994
0.264673041451
-0.0145383716817
0.266207925802
-0.0116240423885
0.267331263184
-0.00883272762556
0.268061886993
-0.00616544079431
0.268419311109
-0.00362419933656
0.26842109691
-0.00120697925589
0.268082178465
0.00109659572456
0.267418209825
0.00329444242872
0.266445162328
0.00539524238098
0.265178445185
0.00740241682606
0.263633366634
0.00931724043001
0.261824577441
0.0111406654343
0.259766393041
0.0128741021513
0.257472479832
0.014519236572
0.254956146923
0.0160781521316
0.252230045836
0.0175531193304
0.249306475235
0.0189467020647
0.246197085318
0.0202615429967
0.242913182884
0.0215004769588
0.239465439269
0.0226663310052
0.235864198043
0.0237620526424
0.232119186417
0.0247905215325
0.228239821067
0.0257546877168
0.224234924166
0.0266573944854
0.22011302941
0.0275015251902
0.215882102176
0.0282898320967
0.21154984083
0.0290250870878
0.207123402202
0.0297099172931
0.202609700004
0.0303469593281
0.198015135225
0.0309386981176
0.193345887132
0.0314876212596
0.18860765017
0.0319960628381
0.183805919411
0.0324663581095
0.178945733722
0.0329006897511
0.1740319516
0.0333012402044
0.169069002407
0.0336700426035
0.164061154416
0.0340091311435
0.159012273788
0.0343203947751
0.153926081212
0.034605723437
0.148805920382
0.0348668669196
0.143655004944
0.035105577255
0.138476196023
0.0353234713333
0.13327223627
0.0355221676521
0.128045538482
0.0357031550818
0.122798408279
0.0358679240743
0.117532843985
0.0360178405972
0.112250745235
0.0361542702569
0.10695372685
0.0362784597112
0.101643314062
0.0363916534972
0.0963207712168
0.0364949823023
0.0909872790186
0.0365895712427
0.0856437841222
0.0366764370602
0.0802911558387
0.0367565873772
0.0749300662566
0.0368309263899
0.0695611282348
0.0369003438949
0.064184807286
0.0369656322342
0.0588015561983
0.0370275636837
0.0534116969616
0.0370868161531
0.0480155435636
0.037144047509
0.0426132245395
0.0371998278146
0.0372046658761
0.0372546803311
0.0317896637315
0.037309113218
0.0263679161258
0.0373635782391
0.020938987095
0.0374180433812
0.015503735526
0.0374700618429
0.01006778059
0.0374885486599
0.00468492283311
0.0371321977468
0.032259798578
0.0127835054163
-0.0964273506836
0.0276537805239
-0.111863151741
0.042634522561
-0.11262422932
0.0574496343868
-0.111384741576
0.0720119587076
-0.109529167267
0.0862626372549
-0.10726693429
0.100149831499
-0.104650145046
0.113626042494
-0.101708397375
0.126648113873
-0.0984696794285
0.1391776036
-0.0949636538196
0.151181171866
-0.091221794711
0.16263075911
-0.0872768760976
0.173503708297
-0.0831622841952
0.183782645262
-0.0789113568417
0.1934553454
-0.0745567335405
0.20251438675
-0.0701298333953
0.210956847577
-0.0656603821121
0.218783832823
-0.0611760942042
0.226000099532
-0.0567024018683
0.232613546046
-0.0522623342557
0.238634836666
-0.0478764220824
0.244076914526
-0.0435627291735
0.248954672089
-0.0393368830072
0.253284519621
-0.0352122070106
0.257084120057
-0.0311998294717
0.260372022885
-0.0273088695173
0.263167467
-0.0235465839781
0.265490081114
-0.0199185724854
0.267359746416
-0.0164289358991
0.268796346885
-0.0130804714637
0.269819687759
-0.0098748233923
0.270449266885
-0.00681271655831
0.27070498456
-0.00389656878597
0.270604751667
-0.00112227382145
0.270163722723
0.00152321602212
0.269397596651
0.00404726807175
0.268322739176
0.00645791574048
0.266955094757
0.00875898925157
0.265310418393
0.0109519335465
0.263403908264
0.0130382681881
0.26125022702
0.0150199315345
0.25886343202
0.0168992215403
0.256257031291
0.0186787685295
0.253443931517
0.0203614487179
0.250436511505
0.0219503523559
0.247246572371
0.0234487006024
0.243885416044
0.0248598282145
0.240363794295
0.0261871130154
0.236691988368
0.027433973344
0.232879756987
0.0286038098554
0.228936417455
0.0297000153266
0.224870793894
0.0307259253117
0.220691297902
0.0316848358252
0.216405877003
0.0325799611134
0.212022094957
0.0334144574178
0.207547081196
0.034191385422
0.202987609103
0.0349137371222
0.198350046179
0.0355844022294
0.193640430502
0.0362061974509
0.188864422351
0.0367818354008
0.184027377613
0.037313954361
0.179134300649
0.037805089573
0.174189914932
0.0382577033555
0.169198617829
0.0386741579477
0.164164547647
0.0390567446859
0.159091539977
0.0394076585563
0.153983191477
0.0397290265545
0.148842818196
0.0400228835113
0.143673515665
0.0402911987435
0.13847811871
0.0405358534172
0.13325925815
0.0407586656857
0.128019322619
0.0409613694254
0.122760511844
0.0411456372318
0.117484800576
0.0413130608321
0.112193988747
0.0414651720788
0.106889668607
0.0416034250231
0.10157327147
0.0417292144962
0.0962460388221
0.041843860066
0.0909090635055
0.0419486222699
0.0855632692312
0.0420446885882
0.0802094430524
0.0421331870303
0.0748482329195
0.0422151742147
0.0694801761723
0.0422916463753
0.0641057130908
0.0423635288699
0.0587252249913
0.0424316852794
0.0533390138619
0.0424969117302
0.0479473284188
0.0425599346598
0.0425502563816
0.0426214166113
0.03714773439
0.0426819780952
0.0317395206217
0.0427421138281
0.0263250734873
0.0428022468798
0.0209042407712
0.0428627028913
0.0154779403347
0.0429203759746
0.0100508861673
0.0429390598485
0.00467711409962
0.0425286320557
0.0369478376392
0.0130730070615
-0.109543163712
0.0282997080818
-0.12713514345
0.0436416646076
-0.128010629844
0.0588102839249
-0.126597209661
0.0737139293223
-0.124475806977
0.0882900039549
-0.121885238841
0.102483344213
-0.118884900375
0.116243358817
-0.115509034141
0.129524248114
-0.111790372111
0.142285462935
-0.107763854108
0.154492178378
-0.103466653164
0.166115506518
-0.0989375008265
0.177132593557
-0.0942157996463
0.187526470359
-0.0893407881601
0.197285821495
-0.0843507461383
0.206404577529
-0.0792823518444
0.214881487993
-0.0741701382704
0.222719588773
-0.0690461165569
0.2299257047
-0.0639394978619
0.236509898884
-0.0588765598965
0.242484994929
-0.0538805832964
0.247866074422
-0.0489718995632
0.252670067392
-0.0441679726219
0.256915326237
-0.0394835602281
0.260621303404
-0.034930875849
0.263808205662
-0.0305198085619
0.266496757132
-0.0262581167515
0.268707925933
-0.022151667834
0.270462762929
-0.0182046282928
0.271782189564
-0.0144196877977
0.272686893878
-0.0107982372274
0.27319710411
-0.00734059189613
0.273333093589
-0.00404917160884
0.273113027626
-0.000917715990856
0.27255285273
0.0020690397894
0.271668162285
0.00491872383484
0.270475710295
0.00763826628414
0.268991940276
0.0102317702124
0.267233122823
0.0127008623632
0.265214923992
0.0150476519641
0.262952386381
0.0172747159991
0.260459886413
0.0193850073878
0.257751165086
0.0213818056499
0.254839315942
0.0232686227763
0.251736833321
0.0250491614042
0.248455606257
0.0267272372035
0.24500696743
0.0283067531461
0.241401685978
0.0297916391723
0.237650015725
0.0311858408939
0.233761686273
0.0324932720926
0.229745949816
0.0337178139971
0.225611570838
0.0348632777624
0.221366872546
0.0359334120755
0.217019725297
0.036931872121
0.212577591711
0.0378622327096
0.208047514035
0.0387279622175
0.203436158644
0.039532440027
0.198749802316
0.0402789332069
0.193994375175
0.0409706164596
0.189175446161
0.0416105510103
0.184298265111
0.0422017065469
0.179367747389
0.0427469409153
0.174388514309
0.0432490229039
0.169364877201
0.0437106127778
0.164300876919
0.0441342857783
0.159200267132
0.0445225125946
0.154066552287
0.0448776828376
0.148902970227
0.0452020857783
0.14371252942
0.0454979338425
0.138497990476
0.0457673430222
0.133261902214
0.0460123559087
0.128006582357
0.0462349222519
0.122734153304
0.04643692162
0.117446522121
0.0466201437268
0.11214541581
0.0467863103707
0.106832361521
0.0469370560345
0.10150872161
0.0470739491369
0.0961756748603
0.0471984726924
0.0908342488737
0.0473120446007
0.0854853066015
0.0474159988976
0.0801295732175
0.047511605014
0.0747676378059
0.0476000493996
0.0693999782795
0.0476824531783
0.064026978002
0.0477598555585
0.0586489644839
0.0478332288907
0.0532661779728
0.0479034600663
0.0478788194481
0.0479713742746
0.0424869433511
0.0480377098587
0.0370903751782
0.0481031142006
0.0316888440457
0.0481682212705
0.0262819861513
0.0482335615475
0.020869246845
0.0482990531083
0.0154512900832
0.0483614617682
0.0100334643941
0.0483806761211
0.00466903597833
0.0479159384172
0.0416274056428
0.0134109709275
-0.122996142506
0.0290550476712
-0.142822968256
0.0448195020331
-0.143818736535
0.0604019504222
-0.142222495341
0.075704786873
-0.139820816563
0.0906610527769
-0.136882897713
0.105211385941
-0.133475892576
0.119301450653
-0.129638994195
0.132882200354
-0.12541025941
0.145910577988
-0.120830589469
0.158350027886
-0.11594367352
0.170170787289
-0.110795022726
0.181349912991
-0.10543086916
0.191871094113
-0.0998970766236
0.201724283907
-0.0942381953166
0.210905202188
-0.0884966649866
0.219414756063
-0.0827122103613
0.227258415092
-0.0769214013333
0.234445581012
-0.0711573847443
0.24098896969
-0.0654497481561
0.246904030335
-0.0598245098441
0.252208408549
-0.054304192398
0.256921463168
-0.0489079772937
0.261063836733
-0.043651898821
0.264657079871
-0.0385490846713
0.267723327278
-0.0336100008394
0.270285018487
-0.0288427218513
0.2723646677
-0.024253179463
0.2739846646
-0.0198454292329
0.275167113401
-0.0156218782285
0.275933731322
-0.0115835233877
0.276305730142
-0.00773019439553
0.276303511924
-0.00406354154839
0.275945236095
-0.000574905874067
0.275248228033
0.0027517540317
0.274227989707
0.00592581536837
0.272901632932
0.00895260815482
0.271286119949
0.0118363932486
0.269398239895
0.0145789471233
0.267254110341
0.0171830693399
0.264869122111
0.0196520477826
0.262257945457
0.0219895731388
0.259434527232
0.0241996353178
0.256412125846
0.0262864495635
0.253203329154
0.0282543770955
0.249820093278
0.0301078778986
0.246273762746
0.031851455841
0.242575105451
0.0334896291595
0.238734330969
0.035026891272
0.234761121418
0.0364676937454
0.230664648137
0.0378164184503
0.22645359945
0.0390773695291
0.222136195407
0.0402547533933
0.217720213136
0.0413526774834
0.213212999938
0.0423751359404
0.20862149686
0.0433260130463
0.203952249772
0.0442090724282
0.199211431483
0.0450279639151
0.194404851075
0.0457862151292
0.189537974982