/*--------------------------------*- C++ -*----------------------------------*\
| =========                 |                                                 |
| \\      /  F ield         | OpenFOAM: The Open Source CFD Toolbox           |
|  \\    /   O peration     | Version:  v1906                                 |
|   \\  /    A nd           | Web:      www.OpenFOAM.com                      |
|    \\/     M anipulation  |                                                 |
\*---------------------------------------------------------------------------*/
FoamFile
{
    version     2.0;
    format      ascii;
    class       volVectorField;
    location    "18";
    object      U;
}
// * * * * * * * * * * * * * * * * * * * * * * * * * * * * * * * * * * * * * //

dimensions      [0 1 -1 0 0 0 0];


internalField   nonuniform List<vector> 
24444
(
(0.0583106126269 0.0190598432008 0)
(-0.00867961373598 0.00038551475497 -1.02936978703e-18)
(-0.00916652930307 -0.00105525065057 -2.30930251585e-18)
(-0.00964556192839 0.00764009403257 2.31348472028e-19)
(-0.00836121858856 0.00736798323122 0)
(-0.00914486369333 -0.00208563683059 2.4333243486e-18)
(-0.00641959524731 -0.0122812986096 2.89647426284e-18)
(0.0810899952664 0.0551689912333 2.8716907034e-18)
(-0.000711010976066 -0.0184846941412 -1.47986040232e-18)
(-0.025001261262 -0.0928670582504 3.51807084548e-18)
(-0.0133746987435 -0.00486961384256 0)
(0.0119110361802 0.0133536352034 4.14397652194e-19)
(0.0122269589459 0.0117702146045 -2.59390362088e-19)
(-0.0102650334955 0.000445281393681 -3.35903125169e-19)
(0.0106606897159 0.00721564168619 1.17953290967e-20)
(-0.126638902232 0.00176489878444 -1.55955488552e-18)
(0.000659833355582 -0.0171589095068 -1.44701884225e-18)
(-0.00150452974699 -0.00869343545175 1.02462829756e-18)
(-0.0254825956747 0.0135936975411 0)
(-0.00613605239475 0.00924461595086 1.1966726814e-19)
(-0.0218512979656 -0.0275668083359 -7.23866431108e-19)
(0.0769375241471 0.0901627009551 7.67445731157e-18)
(0.0700816409058 0.119013939728 -3.38037039334e-18)
(-0.00926924528299 0.000548145986544 0)
(-0.00923016157552 0.000450550749651 -6.3164564099e-19)
(0.000358600093043 -0.0185531022118 2.6136919849e-18)
(0.00131359625053 -0.0185647807774 -3.01793634775e-18)
(0.00180307484055 0.0205613304292 0)
(0.001577611907 0.019842901423 4.34123745652e-19)
(-0.0102033493077 -0.000622242828307 3.1670975575e-19)
(0.00632181895826 -0.0308564930975 -2.26020839612e-18)
(-0.00162542414689 -0.0172372975261 0)
(-0.00914994371757 -0.00208654033056 -1.66204850587e-18)
(-0.035436532417 -0.0595319278519 0)
(-0.0348071205501 -0.0201413742199 -9.67279991365e-19)
(-0.0121722095747 -0.000837989312717 0)
(-0.00350651055087 0.000789864653485 0)
(-0.00745013956443 0.00259586492773 -1.02217909293e-18)
(0.00298901195722 -0.0209582821172 0)
(0.00754401500538 0.0221935988947 0)
(0.00260114552709 -0.0198662476385 0)
(0.00801919946691 0.023632858719 0)
(-0.00597432988301 -0.00364218370978 0)
(-0.00609420850217 -0.00349531876136 -5.29921216535e-19)
(0.00284848577785 -0.0322794550102 -2.45957395283e-18)
(-0.00627014697742 0.00368687352256 4.30873101169e-19)
(-0.0064602846183 0.00882849677187 6.80142511653e-19)
(-0.0143700392111 -0.00801706155969 0)
(-0.00498541269157 -0.0132636518396 -2.22358431783e-18)
(-0.00294147821429 -0.00608955068947 -2.20391178841e-18)
(-0.0527197615938 0.0290768887072 -1.26500251478e-18)
(-0.00663419084952 0.00922504450897 1.26013800514e-19)
(-0.00369685878933 -0.00544806985828 -2.1228753169e-18)
(0.00250515541131 0.0107199249177 0)
(-0.00887500462121 -0.00196474955142 -1.4817732919e-18)
(-0.0179927585315 0.00459310501137 -1.74736884882e-19)
(-0.00481869226602 0.0101277691405 2.58998688911e-19)
(-0.0112937080422 -0.0174310603099 -1.05123187692e-18)
(-0.0343077921036 -0.0664153083829 -8.47688979914e-18)
(-0.00989213908517 -0.000280941695529 1.56424876272e-18)
(-0.00968998356165 -5.58481918685e-05 3.26589983716e-19)
(-0.00964895338026 -2.27425145994e-05 7.30124715315e-19)
(-0.00814723582179 -0.0039308944757 9.77593591021e-19)
(-0.00784951168426 -0.0017892201433 -9.83290799628e-19)
(-0.0156874515133 0.000532931516963 4.20955255722e-19)
(-0.0130029462813 -0.00358937233269 2.15416686194e-18)
(-0.0102864600954 0.000497950290839 -1.07282551109e-18)
(-0.00558169976631 -0.00671067635938 -5.13966230012e-19)
(-0.00650840864831 0.00508947992221 0)
(-0.00452912704859 -0.00794808162062 0)
(-0.00320743078096 -0.00849367747018 9.7125429562e-19)
(0.00340468470932 0.019634304445 0)
(0.00966016537119 -0.0224985891838 -3.69572639449e-18)
(-0.00478526054847 0.00597999012531 0)
(-0.00422747169742 -0.0059702158239 1.37823269577e-18)
(-0.00983132499489 0.000284275961036 0)
(-0.000249979220217 -0.0130220987912 -3.80002209272e-18)
(-0.00769056261412 -0.00169562395905 9.66672392412e-19)
(0.00304062161979 0.0198527326285 0)
(-0.0120363053893 -0.00318654107363 0)
(-0.00396358535996 -0.00874311931379 -2.61786087907e-19)
(2.69992991501 0.0213907657561 -8.04558675028e-18)
(3.70866432001e-06 -0.0103440497531 0)
(-0.00713236683446 -4.55036353464e-05 -7.77745593108e-19)
(-0.0107876339742 0.00190183298629 0)
(-0.00017024283168 0.020496127072 0)
(0.0916316208541 0.0205265327317 -3.31335476059e-18)
(-0.00902398602562 0.000239204256326 0)
(-0.000808950941084 -0.019389708949 -1.65613478167e-18)
(-0.00837428608054 0.00261445011705 0)
(-0.0104034600201 8.82117309255e-05 3.44777076977e-19)
(0.0107473574505 0.00812508747798 1.26306208633e-20)
(-0.140247763684 0.0226939670333 1.79020354478e-18)
(-0.000632574331301 -0.0176853494416 0)
(-0.0074019606354 0.0101046309791 2.86909171969e-19)
(-0.00979784814863 4.48869926479e-05 -1.83788576067e-18)
(-0.0807797274043 -0.00520719322851 7.8004562963e-20)
(-0.00625212707039 0.00570480749922 0)
(-0.00914073049379 0.00108798057977 -1.0910140742e-18)
(-0.0100120447287 -0.000672263018514 -6.40053208672e-19)
(-0.00900773213797 0.00351582956215 5.85925942803e-20)
(-0.00671808560449 0.00798162441267 3.72927992838e-19)
(-0.00641768977482 0.00819080073908 2.84156192447e-19)
(-0.000537745529016 -0.0130376073097 2.59698885737e-18)
(-0.0127253442185 -0.00900111074716 -7.43833269829e-19)
(0.0026010627936 -0.0173986063629 8.2670708301e-18)
(0.00136556499058 -0.0168574496087 -4.28519611688e-18)
(-0.00642489041608 -0.0012478732577 2.19718428544e-18)
(-0.00657535573543 -0.00118027798865 0)
(-0.00928690435753 0.00424852088686 1.00245592289e-18)
(-0.0092432180379 -0.000858434415916 1.72584041626e-18)
(-0.00798135831297 0.00414525787776 -8.99487411727e-19)
(-0.0430951795992 0.0277341787539 0)
(-0.0089465897092 0.00114886272262 1.09694021883e-18)
(-0.00992538005538 -0.000150581545995 1.42271579142e-18)
(-0.090225866148 -0.00607105644526 0)
(-0.0061749393003 0.00537096282083 0)
(0.0504292858992 -0.0152161502751 2.81963849736e-18)
(0.0444184161093 -0.0216157935505 0)
(-0.00100817824846 0.00963221592055 0)
(-0.00138397049686 0.00954229630401 -7.49133476629e-19)
(-0.000904299856887 -0.00879577003108 -5.60153233803e-19)
(-0.000991065584475 -0.00871333366064 5.72025366326e-19)
(-0.00817013616662 -0.000785684324716 1.98261928493e-18)
(-0.00816392345559 -0.000580043775199 -2.02169093637e-18)
(-0.0057482154763 -0.00316184075016 1.06153431459e-18)
(0.00439500866827 -0.0184844997986 -2.12398465984e-18)
(-0.00608932772817 0.00865778736249 -4.76039060891e-19)
(-0.00155164830279 -0.0085889604528 0)
(-0.00193741264136 -0.0150841119054 2.16082801583e-18)
(-0.0156467616071 0.00447032513928 -4.71565211192e-19)
(-0.00108151188255 -0.00881357057254 0)
(-0.00464737442899 -0.00935436260494 0)
(-0.00404320765569 0.0251031144763 -4.095207044e-19)
(-0.00245329590146 0.0262855411946 1.99439450175e-18)
(-0.00348448416939 -0.0199792250814 0)
(-0.00266822883131 -0.0195404538844 0)
(-0.00510022772682 -0.0136742596425 2.73237961875e-18)
(-0.00344177156448 -0.00697553903059 1.95426534298e-18)
(-0.00402280142683 0.00699454758932 0)
(0.0253375497434 0.0615669614479 2.6974405276e-18)
(-0.00886485539589 0.00111426858825 0)
(-4.4548595577e-05 -0.0179866242907 -4.60741164919e-18)
(-0.00259086819381 0.0207425517963 1.29048508942e-18)
(-0.00314110921413 -0.00883177938806 0)
(-0.0092762239669 0.000793336093936 -6.12298025926e-19)
(-0.0044244477224 -0.00949859817125 -1.48386603054e-21)
(-0.0621843458849 -0.00368367738746 0)
(-0.00399862183488 0.0113181612702 -1.68806108709e-20)
(-0.00961409166324 0.000268722497529 6.89466283354e-19)
(-0.0124138211884 -0.00148663797417 0)
(-0.0637533996123 0.00285691140271 0)
(-0.0639829494233 0.00456248646105 9.48187984395e-20)
(-0.0030142990721 -0.00993740614018 3.2468991963e-18)
(-0.00624558827062 0.0101626393273 0)
(-0.00101565944453 -0.0126337450578 0)
(-0.000719254022181 -0.0124157383308 2.86018598572e-18)
(-0.0104906829846 0.00578665392273 -3.58967046903e-19)
(-0.0104490133897 0.00581152085661 8.64730763269e-19)
(-0.0182501641227 0.0183174270221 -2.93924165113e-19)
(-0.018622846525 0.0169429720482 -1.24348574412e-19)
(-0.0101842269792 -0.0036052941163 -2.0145256402e-18)
(-0.0043778316855 -0.00808333006269 0)
(-0.00485966205141 0.0108353437819 0)
(-0.00939749624804 0.000322922945012 0)
(-0.00710888932697 -0.010871565662 1.03146616969e-18)
(-0.00502940641048 -0.0140790559616 0)
(-0.00355222610799 -0.010576392945 5.26564601041e-19)
(-0.00315724941379 -0.0099532361313 -1.05989540361e-18)
(-0.00762223419019 -0.000803311104544 -1.93506402434e-18)
(-0.00603198154057 -0.0141022773811 0)
(-0.0100615017815 -0.00795110525123 0)
(-0.0102189722406 -0.00750193763977 -2.24062352308e-18)
(0.00931283592902 -0.0243341197584 3.55549481587e-18)
(0.00888731314983 -0.0220030973572 -4.86770836107e-18)
(0.00128781107506 0.0211592998866 2.99502090845e-18)
(0.00171839883259 0.0211301455393 -1.55394256318e-18)
(-0.00372299015313 -0.00632110843583 2.02160513972e-18)
(-0.00379124419257 -0.0061762334661 -2.26128863639e-18)
(-0.00438918702846 0.00629920988196 4.37603443868e-19)
(-0.00441034510492 0.00640015858744 0)
(-0.0221374644923 -0.0434785459106 2.05684931035e-18)
(-0.00719282852436 -0.00567118540249 -1.9508235613e-18)
(-0.0011507045182 0.0140679938808 1.71282739787e-19)
(-0.00928065564247 0.000525218694771 0)
(-0.00955481312519 0.00598361099082 6.79490794622e-19)
(-0.00278782636937 -0.0053190515453 0)
(-0.00255564929296 -0.00555274541711 2.15526644458e-18)
(-0.016678757395 0.0141237186682 -2.03750812945e-19)
(-0.00744593917598 -0.0113569024032 3.65215172033e-18)
(-0.00727070458927 -0.011488421567 -3.51147924597e-18)
(-0.00356666477116 -0.0069024553864 2.44069178168e-19)
(-0.00405936265784 0.00697420030425 2.08866810551e-19)
(-0.0135065467435 0.0120081380126 -4.2926360688e-20)
(-0.0098473693939 -0.00425601092382 -1.52526950739e-18)
(-0.00858984174069 -0.000406907903777 -1.72110961975e-18)
(-0.00796085582423 0.00240172227666 -5.09728117898e-19)
(-0.0109650390261 0.00287463200124 0)
(-0.0099002080804 0.000145929731713 7.09585879202e-19)
(-0.00129194649239 0.0101230708075 0)
(-0.00834459555971 -0.000533247156414 9.71311457764e-19)
(-0.0062870734435 0.00937680469607 -2.0044980824e-19)
(-0.00960324625885 -3.360920523e-06 0)
(0.0934792197718 0.104991532493 0)
(-0.00264493296158 -0.0181433164494 0)
(-0.0106207765314 0.021301528322 0)
(-0.010207313167 0.0214835912997 -4.84502957821e-19)
(-0.00606981691897 -0.0164107000009 -2.80791400943e-20)
(-0.00623984107889 -0.0165131171138 3.7244956854e-18)
(-0.00257796363713 0.00804429696078 0)
(-0.0109974984409 0.0105450389038 -1.07774746733e-20)
(-0.00239474820793 -0.00974601542395 0)
(-0.0366978363523 -0.00437952463146 -1.37135302611e-18)
(-0.00685344650717 -0.0116254144348 -1.92365941686e-18)
(-0.0266075872838 0.00198734348418 0)
(-0.00923569123451 -0.000824606589454 0)
(0.0046623958366 0.019404720272 3.22451639225e-19)
(-0.00134710009569 -0.0121625511944 1.0520526519e-18)
(0.0811149044141 0.0529768504244 0)
(-0.000567144311839 -0.0183654064706 4.38826417613e-19)
(0.0228127145536 -0.0531678518131 5.84001212263e-18)
(-0.00177515077491 -0.00897560167412 1.0463645769e-18)
(0.00104670392047 0.0204459835032 0)
(-0.0119448036739 0.000244526715436 9.03580472386e-19)
(-0.0024231245056 -0.0058062705566 -2.48914947681e-18)
(-0.00269373156293 -0.00593564084433 2.12374914431e-18)
(-0.00080410197663 0.018968546076 -3.86265729337e-19)
(-0.00961438943744 0.000111877556767 1.63082266115e-19)
(-0.00620553494699 0.0237658139817 -1.53404424143e-19)
(-0.00887714642543 0.0239455663511 -1.01579880769e-18)
(-0.00463390066577 -0.0186676180828 -2.50254006231e-18)
(-0.00538544788726 -0.018513976055 2.26859024502e-18)
(0.00525568953686 0.0165654250605 -1.75089565127e-19)
(0.00403115455244 0.0177253794712 0)
(-0.00181334711206 0.00615894985896 -4.61916122479e-19)
(0.0183798118346 -0.00545409666558 0)
(0.00242637493741 0.0168236232511 -1.47729766787e-18)
(-0.00918987944008 -0.00225421867538 0)
(-0.00970973451919 0.000583074829318 -4.71534041101e-21)
(-0.0121866967824 -0.000133444027953 0)
(-0.0455226692525 -0.0494055527199 0)
(-0.00861205617383 -0.00459423971734 -1.69457440489e-18)
(-0.00759089245494 0.000380297178015 0)
(7.32117308574e-05 -0.0189205503006 1.0060077487e-18)
(-0.00270124781076 -0.00624694680285 1.67148485712e-18)
(-0.0108886996253 -0.0118848168117 1.34356104591e-18)
(-0.00864796607198 0.00388471286816 3.64182002026e-19)
(-0.00378118389514 -0.00685177218182 0)
(-0.0105593200864 0.00411770003102 -1.11901836614e-19)
(0.000764668490807 0.0202938631862 -1.31530994814e-18)
(-0.00851292065611 0.00143264472593 2.62491458305e-19)
(-0.00708442527092 -0.0117492501721 2.18515037857e-18)
(-0.00840418374868 -0.00168769162308 0)
(-0.00999893446604 -0.000320242386965 -7.85404281615e-19)
(-0.00924357991659 0.000480703184366 1.42536498124e-18)
(-0.00165901040924 -0.00665217051041 0)
(-0.00164247293845 -0.00679031007845 -2.16443117194e-18)
(-0.00585093641362 -0.0121627272923 0)
(-0.00351149569401 -0.00549052950726 0)
(-0.0105051023387 -0.00479129016153 -6.80451662536e-19)
(-0.0408062956815 -0.0163362180484 7.49049189785e-20)
(-0.000580133869451 0.0191401422137 -5.18652745356e-19)
(0.000628756754878 0.0487763522592 -1.71196629257e-18)
(-0.00899732070735 0.00158115962248 0)
(-0.00188870793029 -0.0188138889605 2.22658159583e-18)
(-0.0440615759846 -0.00958664791328 9.130122284e-19)
(-0.00742984221275 0.0110148985875 2.3799554801e-19)
(-0.00944261729383 -0.000554209398318 -4.14668058343e-19)
(-0.0033090308207 -0.00571725580717 -1.71092457008e-18)
(-0.00698325373744 -0.000342416241132 2.25357807878e-18)
(-0.000445244092489 -0.00757609061237 2.27538380467e-18)
(-0.000527093524376 0.00860171574404 6.85290801268e-19)
(0.00408931472312 0.0198977415036 -1.0224217233e-18)
(0.0114737722921 -0.0219331207465 3.88813576339e-18)
(-0.00458346517154 0.00632242635931 0)
(-0.00408218304404 -0.00628877461743 -2.214309168e-18)
(-0.00727967843479 0.0072550080015 3.07387630518e-19)
(0.00661963121321 -0.0279369564403 -3.73702584536e-18)
(-0.0141817995125 -0.00512937015595 9.47166786745e-19)
(-0.0135369607759 -0.00500549764291 1.31080581424e-18)
(0.018567987021 -0.0322627975764 3.0579692331e-18)
(0.014007330021 -0.0355203602848 0)
(-0.00146274298582 -0.0174901932331 2.49686270233e-18)
(-0.00319192412428 -0.0039100386476 1.16996881867e-18)
(0.0107724611502 -0.00963784920832 -3.28568221239e-18)
(-0.00345087924454 0.00411662475562 0)
(0.0071305939107 0.0128184331481 4.03892133119e-18)
(-0.0453557050809 0.0227029026148 1.2234242891e-18)
(-0.00489948683634 -0.000844582935489 1.12962310172e-18)
(-0.0138480318724 -0.00532860621387 3.31419720144e-19)
(-0.0132354265982 -0.00606080613379 -6.74589107722e-19)
(-0.0161122563372 -0.0395391827461 -4.92377086858e-18)
(-0.0165879306148 -0.0360593655795 1.80169779637e-18)
(0.00571986654659 0.0261825764193 0)
(-0.00704836812398 -0.00278806860999 -1.02600425553e-18)
(-0.00393709833136 0.00896922517747 0)
(-0.0127096917965 -0.00326405212857 2.85326128079e-19)
(-0.00404176046981 0.0112567559455 -2.32489828948e-19)
(-0.00368277958929 0.0113246748102 0)
(-0.00922417057183 0.000608675807755 0)
(-0.00899425406264 0.000767220032269 0)
(-0.00188640076528 -0.0183837887757 -1.58727602139e-18)
(-0.0542869706321 -0.0612441735884 -2.55146418704e-18)
(-0.0580989703819 -0.0594228562377 2.24020991225e-18)
(-0.0101283029742 -0.0119950911302 0)
(-0.0015442228641 -0.0102950438136 -1.01241185107e-18)
(-0.00114692462526 -0.0102864112611 1.01417749516e-18)
(-0.00475230630303 -0.0146223737219 0)
(-0.0105158585115 -0.00687343094138 0)
(-0.00709853161115 -0.0108416718104 -4.77260778991e-19)
(0.00424573681738 -0.0145482226305 -9.31405095383e-18)
(-0.00689181200219 0.00583605535394 -5.23764590298e-19)
(-0.00827151921718 0.00891143167361 -2.56922440538e-19)
(-0.0131010991474 -0.0165731802221 2.53193984402e-20)
(-0.0130760667079 -0.0108491714786 2.13528578058e-18)
(-0.00954040065267 -0.000231073802759 2.45899948457e-19)
(0.000772309805754 0.0193180002444 0)
(0.00295339835448 0.0178225078043 2.69734774918e-19)
(-0.00078251227278 -0.0125173634797 2.50789438256e-19)
(-0.0117013577911 0.00854290091062 0)
(-0.00996847433454 0.00921982004246 -1.05728193356e-19)
(0.0281674376774 0.0545558348715 -1.42183626741e-18)
(-0.0090246067234 0.000878517475288 -8.71774602568e-19)
(-0.00125779979099 -0.0193226363183 1.7853766436e-18)
(-0.0104855939653 0.00232622189298 -1.23651134389e-18)
(-0.00847729953338 -0.00033107851067 0)
(-0.00979246142756 0.000107501565647 0)
(-0.00893920628561 0.00456157099266 -7.9522033159e-19)
(-0.00889513871237 0.00490927634875 9.31234729272e-20)
(-0.00963497770129 0.0116170857909 0)
(-0.00973504279371 0.0114547915099 -5.23814365796e-20)
(-0.0105842970368 0.00657870951084 -2.67449639514e-19)
(-0.00925890313062 -0.000932818435419 -8.0453558706e-19)
(-0.00641376662566 -0.0113293989066 -6.05098254539e-19)
(0.00484771737884 -0.021223967936 0)
(0.00462376988809 -0.0211378873481 0)
(0.00213764764396 0.0211075544816 2.64645831676e-18)
(0.00284281180766 0.0210782243952 -8.72212434366e-19)
(-0.00464655646448 -0.00500567404333 0)
(-0.00462716382738 -0.0050410437926 0)
(-0.0106457714212 -0.00318629262964 3.7172244842e-19)
(-0.00639618863582 -0.012310848157 -1.12038660744e-18)
(-0.0456316307264 -0.0372501056184 0)
(-0.00998507844144 0.000569745233122 -6.29644682686e-19)
(-0.0103135902926 -0.00384401852185 1.46717040281e-18)
(-0.0102766896937 0.00278025305458 7.79328713194e-19)
(-0.0102401071169 0.00239583923028 1.0515960929e-18)
(-0.00971844758868 -0.000379644453852 -4.1512846863e-19)
(-0.0040197907248 -0.00653788294686 0)
(-0.00435026810228 -0.00667831356425 0)
(-0.00663304576956 0.00501186838643 -4.60063335765e-19)
(-0.011132714304 0.000289749347391 -1.04829397873e-18)
(-0.00774067138396 -0.027949699577 0)
(-0.00537868736509 -0.00755544984302 0)
(-0.0126662953412 0.00597369537668 7.74501821382e-19)
(-0.0409033561452 -0.00376125415182 7.53310063539e-19)
(-0.00481064046203 0.0122538925901 0)
(0.0349821676313 -0.0191835392835 -7.15953960989e-19)
(-0.00138277811989 -0.00824494015843 8.14817468262e-19)
(-0.00848528747531 -0.00163866960748 4.93600850331e-19)
(-0.00868517346483 -0.0196557762687 -1.18940570312e-18)
(-0.0104621220054 -0.0188354865219 1.05084824496e-18)
(-0.00557999634453 0.00928544050916 -1.14749146908e-20)
(0.00789527024286 0.0154728579351 -7.75990871815e-20)
(-0.00974766517723 0.000451679937119 0)
(0.00918996787142 0.0147540389796 0)
(-0.00983206484998 0.000289501435837 1.51444956734e-18)
(-0.00851785711515 -0.00226369389498 -9.22540255942e-19)
(-0.00825123302284 -0.00463248727641 -3.1135887211e-20)
(-0.00707076211423 0.00727664460733 1.03935772759e-20)
(-0.00688838939974 0.00716789656804 6.1982236267e-19)
(-0.0125543848847 -0.00396544340875 -1.30005813864e-18)
(-0.00314215265514 -0.00722532395938 1.90029881653e-18)
(-0.0073788336608 0.00351214971614 0)
(-0.00948418276699 0.000779268820961 1.63613023356e-18)
(-0.00933831865587 -0.00115970850795 -3.70848286086e-19)
(-0.0076919573379 -0.000824150375557 2.01164635416e-18)
(-0.00764194155578 0.0104103798865 9.78239576026e-20)
(-0.00812417792356 0.010377251187 -2.24165307389e-19)
(-0.00978525247816 0.000946052887954 5.02849903167e-21)
(-0.00966924244806 0.00104470672515 3.40964071854e-19)
(-0.013732140409 0.00647591918588 -1.37164481723e-19)
(-0.00107152708154 0.0195054840747 -5.50133089312e-19)
(0.0351033467846 -2.66086080139e-05 -2.08096901191e-18)
(-0.0145496304962 -0.00799173649035 0)
(-0.00978346733012 0.0422287448452 0)
(-0.00287680551057 -0.0185911318006 2.83306996459e-19)
(-0.0115295848666 -0.0050723873612 -7.13067030441e-19)
(-0.0114901753068 -0.00448430914447 1.52789892124e-18)
(-0.0108254721881 0.00221479523159 -4.88141205512e-19)
(-0.00723738788299 -0.00977900489631 0)
(-0.0103390527541 0.00367698103569 9.99451433523e-19)
(-0.00987406185253 0.000102042566809 -7.69167306285e-19)
(-0.0110809573486 0.00846975914565 3.20796213517e-19)
(-0.0112012500298 0.00822989447704 -1.58397219629e-19)
(0.00591609866202 -0.0274224473341 -8.50043086412e-19)
(-0.0114584207566 0.0103435752903 -5.88606576487e-20)
(0.0230877307549 -0.0413590943798 0)
(-0.00191064976861 -0.00854117180025 -1.37329410314e-22)
(-0.00895097014504 0.000765308761004 4.12571363597e-21)
(-0.00170965451446 -0.0178505159712 -1.9179683316e-18)
(-0.00828787737581 0.00447997066406 0)
(-0.00813113246449 0.00406977653903 0)
(-0.0490164971423 0.0272906450978 1.14889361124e-18)
(-0.025747001774 0.000359668602413 1.3447642488e-19)
(-0.00656180014713 -0.0205516626226 -1.01825050235e-18)
(-0.0100197666091 -0.00046864569497 2.40161024197e-18)
(-0.00963427829316 -0.000581844336763 7.43070711633e-19)
(-0.00992784101622 -0.000341951002422 -3.63936952098e-19)
(-0.00532090650496 0.00549815803897 -4.42162127143e-19)
(-0.00522752010214 0.00553146112152 -4.33059536329e-19)
(-0.0112223102517 0.00909909879387 -1.11671755154e-19)
(0.0178600816835 -0.0601473764711 0)
(-0.0165752681885 -0.00974300094582 0)
(-0.0173644831594 -0.00908622772886 6.14666440581e-19)
(-0.00473745763518 -0.000776963835624 -1.1248865007e-18)
(-0.00959161045118 -0.00241371037406 6.91630452724e-19)
(-0.00972668801533 0.000610831068846 -3.31099555747e-19)
(-0.00233141160315 0.0204455044716 6.13500776362e-19)
(-0.0181944110423 -0.0275582945924 0)
(-0.0120306040566 0.000332602802773 5.15436000925e-19)
(-0.0136343151345 0.00537697275272 -3.26410820643e-19)
(-0.00248519432732 -0.0175230753173 -6.3349447863e-19)
(0.00569924908961 -0.0246393298012 -3.58006472116e-18)
(-0.0121990107393 -0.0103646799664 0)
(-0.0121052950137 -0.00973370894544 0)
(-0.0251385100685 -0.0418696110466 0)
(-0.0140023485122 -0.0115258099174 4.26677328498e-21)
(-0.00740132878714 -0.00638604967928 2.0500105e-18)
(-0.00731434577327 -0.0142870776151 -1.05998385165e-18)
(-0.00977936884004 -0.000215600355868 6.33716803279e-19)
(-0.00416466572481 -0.0149477657384 0)
(0.00465270501022 -0.0270386735646 3.09131922783e-18)
(-0.0400273366749 0.00795491685102 0)
(-0.0389851795188 0.00928764193538 -5.58542714617e-20)
(-0.00978630442707 0.000671697117673 0)
(-0.00702879889413 -0.0191293713011 0)
(-0.00552381505385 -0.0194056806326 0)
(-0.00137330438949 0.0196854539875 0)
(0.0370964100163 0.00163793196377 4.42417777627e-18)
(0.0183448553074 0.0149029959807 -2.6298234661e-18)
(-0.00653832016509 0.0022851454879 0)
(-0.0122664411954 -0.0108460798841 -1.34781012498e-18)
(-0.00965999631035 -3.46852825326e-05 -6.64915690219e-19)
(-0.00956874497554 -7.04088388354e-05 -1.89464184957e-18)
(-0.0133489646411 0.00758871161312 0)
(0.00224001541951 0.0228387629386 -8.63286370951e-19)
(0.00336804913411 -0.0207400421427 4.2040976623e-19)
(-0.0057054038188 -0.00434779403409 1.98539795501e-18)
(0.000832432185688 0.0189498773072 0)
(-0.000757857788074 -0.0125810155483 -5.1186458466e-19)
(-0.0103970618446 0.00316018882577 0)
(-0.00582233952733 0.00906744022022 -1.37616172064e-19)
(-0.0096968060012 0.00027328597693 -5.4147110423e-19)
(-0.00965846663132 0.000248974565653 0)
(0.18910557529 0.171309813683 1.31407985342e-17)
(0.176570092432 0.0932547789214 -3.31994655248e-19)
(0.000885396388117 0.0219622382313 0)
(0.00213498382754 0.0218991020668 0)
(-0.000398971313093 -0.0186346420635 -6.56558222668e-18)
(-0.000249036615883 -0.0190426718868 4.22572967623e-18)
(-0.00723009639326 0.00545173046338 -9.09724207185e-19)
(-0.00699003717429 0.00796888136494 1.21697285649e-19)
(-0.0114200638221 -0.00818349151675 0)
(0.000461235589511 0.019809705608 0)
(-0.0100363908443 0.0224256200689 1.57860920302e-18)
(-0.00518594344292 -0.0182169913429 1.0355472525e-18)
(-0.00461737540926 -0.00827934121782 1.50277689712e-19)
(-0.0101953850946 -0.000590851993653 0)
(-0.0133612643963 -0.0107411209806 1.38824827434e-18)
(0.00184226095716 0.0194583180458 0)
(-0.0295319468377 -0.0395576598854 0)
(-0.0196479781867 -0.04092772389 0)
(-0.00797627775046 -0.00136579093212 0)
(-0.00746052668427 0.00870347262275 0)
(-0.00160784853828 -0.00526062292293 1.18523211339e-18)
(-0.00178567601376 0.0056747840814 0)
(0.0158673182419 -0.00578269843976 0)
(0.00284802417478 0.01496983967 -1.78700005973e-18)
(-0.00797352329107 0.00218432641219 7.78249961528e-19)
(-0.0108138155417 0.00065964705896 0)
(-0.00961581021434 -0.00204094876015 -1.94731391128e-18)
(-0.00561346310461 -0.0105417267123 0)
(-0.00516538077969 -0.010540822932 -9.56052731103e-19)
(-0.00884497706693 0.00552635632146 0)
(0.0344456433311 0.00102619732677 -4.98745865334e-18)
(-0.00821915785296 -0.00700770017707 -1.68464906001e-18)
(-0.00853798582126 -0.00734187561059 0)
(-0.00989939866071 -0.00783677144867 9.69022907247e-20)
(-0.00967051277976 -0.0078134363743 1.41098666021e-18)
(-0.00786457026793 -0.00477786599365 1.32108113206e-18)
(-0.0155974447459 0.0161156390704 6.86575026128e-19)
(-0.00733379503874 -0.00488836412604 0)
(-0.00645128131839 0.0090503505237 0)
(-0.00648562720138 0.00978858944499 0)
(-0.00965083228812 -0.000392593751652 0)
(-0.00989562280849 -0.000683307822206 0)
(-0.00184235830545 -0.0150811112155 1.13545322881e-18)
(-0.00997750084436 -2.88760432992e-05 0)
(-0.0117447362154 -0.0115375127575 1.32376623803e-18)
(-0.00745734117897 0.0027711968085 5.41521417685e-19)
(0.000125161298493 0.019917692542 4.82701627871e-19)
(-0.00185433736331 -0.012057591374 -3.05090728615e-18)
(-0.00812093635119 -0.0051879298666 4.1522916975e-19)
(-0.00711654271077 -0.00926945301562 0)
(-0.00798294669694 0.00277288611332 2.55547165268e-19)
(-0.0332629258869 -0.0278632045613 5.36670696676e-18)
(-0.0122901684785 -0.00112540870466 1.15082710022e-18)
(-0.00824467067179 0.00287289965433 0)
(-0.0541254947525 -0.019737205108 0)
(-0.00656988499466 -0.00489112384672 -5.39269188933e-19)
(-0.010366516641 -0.0103311673148 1.28021023175e-18)
(0.0261520766498 -0.00748429228199 3.96226163038e-18)
(0.00110657438226 0.0187020475078 5.05341617097e-20)
(0.0248908012801 -0.00428825462719 -6.32762921524e-18)
(9.9653584644e-05 0.0185364083365 -2.35935337307e-18)
(-0.00122567066194 0.00776687234616 -4.87102733083e-19)
(-0.00110127811565 0.00763973997712 0)
(0.000896763173723 0.0214966720368 0)
(0.00114894982022 0.0215065917576 0)
(0.00295514249557 -0.0229364700864 -1.76282313494e-18)
(0.00357491383706 -0.0230503084804 -3.11157609446e-18)
(-0.00461686865883 -0.00547839671163 -2.05959789831e-18)
(-0.00476666724522 -0.00538454856756 0)
(-0.00744579062872 0.00949986448827 1.7030835455e-19)
(-0.00959249523992 -0.000506848867268 -7.42513231356e-19)
(-0.00464912478754 -0.00839908249903 1.81074720536e-18)
(-0.00882548713019 -0.001942006704 1.60678401418e-18)
(-0.00668020401544 0.00884531984385 -2.55905838912e-19)
(-0.0096985750306 -0.000515062429955 9.7676092483e-20)
(-0.0108681388146 0.0176264675503 -5.70621952862e-19)
(-0.00742989600315 -0.0159704090081 -5.55525764946e-19)
(0.000129129168044 0.0197321789541 8.69087659949e-19)
(-0.0105483482175 0.00307049788143 -1.04375811528e-20)
(-0.0453782639047 -0.0124653847135 -5.76622801245e-19)
(-0.00205656660634 0.00599357148204 -8.2175492163e-19)
(0.0179324451738 -0.0076712468934 0)
(0.00417703822851 0.0165469027357 0)
(-0.0101390763919 -0.000605643744222 -1.00395864998e-18)
(-0.00700104274544 -0.00232051334488 1.09569563736e-18)
(-0.0101450217115 0.00143792723257 -7.51089017154e-20)
(-0.0131822218267 -0.011376656735 0)
(-0.0105202134831 0.00433124036028 0)
(-0.00861426141558 -0.00186075895151 0)
(-0.00884512434088 0.00131233122975 1.01829452899e-18)
(-0.0152811630316 -0.0114307381171 2.74576790914e-18)
(0.0557797703829 -0.0261457379655 -8.4429034207e-18)
(-0.00103210477924 -0.00896200441987 9.91550647172e-19)
(-0.00147822947793 0.00990201580579 0)
(-0.00830063012226 -0.000776749433875 1.87901319507e-18)
(0.00142757025749 0.0191156545313 1.08658345413e-18)
(0.0304679424256 -0.00853622040463 -3.52794884764e-18)
(-0.00091315543494 -0.00742657980927 -1.10418974093e-18)
(-0.0010616569214 0.00803925226634 1.35527337192e-18)
(-0.00669134280235 0.00931854011265 -3.14890243033e-19)
(-0.00648213623808 0.00933001369509 2.00053427845e-19)
(0.0363485779716 -0.000497731937508 4.4240715706e-18)
(-0.00750097695397 0.00879211551825 -4.21902551129e-19)
(-0.0101088499577 -0.000998903961897 0)
(-0.00692972331455 -0.00499990379488 0)
(-0.0105516028535 -0.0127694009145 0)
(-0.0117234056287 -0.00523914211491 -1.15385326959e-18)
(-0.00127536363583 -0.0119735237326 2.08292935703e-18)
(-0.00941971675273 -0.000227820059514 7.98812167871e-19)
(-0.00177561704782 -0.0120768962708 2.2991422565e-20)
(-0.00957591097573 -0.000384563564404 7.43552561108e-19)
(-0.00288698659551 0.0240465553354 0)
(-0.00311545984627 -0.0207720277055 -7.50196456708e-19)
(0.0637076356995 -0.025796926616 8.41667970851e-18)
(-0.00093580731667 -0.00923967580647 0)
(-0.00127072833601 0.0102737988817 0)
(-0.0085113053563 -0.000631611673943 0)
(-0.0118136028004 -0.00411249396314 7.79172368077e-19)
(-0.0111335909855 0.00146578011934 0)
(0.0010016207651 0.0134261551486 0)
(0.000954892639271 0.0129866711651 -3.12959002441e-20)
(-0.022718708767 0.0101185697938 1.16964112733e-19)
(-0.00398933697274 -0.00521783303455 1.67428728773e-18)
(-0.00304110682766 -0.00831090417327 -5.42043110453e-19)
(-0.00328594311691 -0.00812024909435 -1.21869148024e-18)
(2.83071366962 -0.0457167116708 0)
(0.000178575199823 -0.0107341188394 4.45534449897e-18)
(-0.00700760084834 0.000183380466822 -1.6300146853e-18)