/*--------------------------------*- C++ -*----------------------------------*\
| =========                 |                                                 |
| \\      /  F ield         | OpenFOAM: The Open Source CFD Toolbox           |
|  \\    /   O peration     | Version:  v1906                                 |
|   \\  /    A nd           | Web:      www.OpenFOAM.com                      |
|    \\/     M anipulation  |                                                 |
\*---------------------------------------------------------------------------*/
FoamFile
{
    version     2.0;
    format      ascii;
    class       volScalarField;
    location    "590";
    object      p;
}
// * * * * * * * * * * * * * * * * * * * * * * * * * * * * * * * * * * * * * //

dimensions      [0 2 -2 0 0 0 0];


internalField   nonuniform List<scalar> 
9216
(
268.29285094
268.378030537
268.550918732
268.811868971
269.159454091
269.591936714
270.10718315
270.702707003
271.375717317
272.123157137
272.941753284
273.82805268
274.778469448
275.789315279
276.856840295
277.977255247
279.146764409
280.361579226
281.617943072
282.91213731
284.240498706
285.599419565
286.985358992
288.394838984
289.824450738
291.270848513
292.730752022
294.200939707
295.678248075
297.159565892
298.641831114
300.122027384
301.597179592
303.064353893
304.520652321
305.963217772
307.389228518
308.795909108
310.180525224
311.540401072
312.872914563
314.175521034
315.445748102
316.681224786
317.879674835
319.038949981
320.157020744
321.232013149
322.262197282
323.246028595
324.182136605
325.069373702
325.906807265
326.693777948
327.429895096
328.115100005
328.749656196
329.33420458
329.869735174
330.35762183
330.799568924
331.197621955
331.554090441
331.871537158
332.152688744
332.400414594
332.617627372
332.807252691
332.972129327
333.114990188
333.238383539
333.344681871
333.436032027
333.514390778
333.58149712
333.638920079
333.688038046
333.73008283
333.766119455
333.797087525
333.823786499
333.846915892
333.867065289
333.884758131
333.900455766
333.913960143
333.925045124
333.933898361
333.94067682
333.945673406
333.949199911
333.951613624
333.95322618
333.954205482
333.954700982
333.954876804
268.207750713
268.293357245
268.466881879
268.729050155
269.078289013
269.512805961
270.030422324
270.628610413
271.304536364
272.055102331
272.876993537
273.766719394
274.720657344
275.735088047
276.806232212
277.930277439
279.103406525
280.321815532
281.581733722
282.879433781
284.211244498
285.573554735
286.962820329
288.375563558
289.808375711
291.257913669
292.720899413
294.194115133
295.674400728
297.158648685
298.643800576
300.1268429
301.604803312
303.074748642
304.533782021
305.979044078
307.407711762
308.817003746
310.204181603
311.566559935
312.901510005
314.2064744
315.478972439
316.716618338
317.917127043
319.078334413
320.198202144
321.274839088
322.306505316
323.291635726
324.228845817
325.116961258
325.95502962
326.742359288
327.478538099
328.163477829
328.79743035
329.381022648
329.915253581
330.401505651
330.84151526
331.237358902
331.591397157
331.906237045
332.184666046
332.429607975
332.644043791
332.830953439
332.993233526
333.133651446
333.254787822
333.359022469
333.448509452
333.525192857
333.59080562
333.64689903
333.694845361
333.735860846
333.771003794
333.801196881
333.827230368
333.849785258
333.869436518
333.886669784
333.901894683
333.915122046
333.926030879
333.934622875
333.941269361
333.946190556
333.94960513
333.951935986
333.953515532
333.954440676
333.954887085
333.955069285
268.034106869
268.120807309
268.296083641
268.560858488
268.913514404
269.352199141
269.874659206
270.478285734
271.160159556
271.917097803
272.745702084
273.642403404
274.60350603
275.625225625
276.703724986
277.835142994
279.015620959
280.241322202
281.508449546
282.813256696
284.152058363
285.521235193
286.917238273
288.336589401
289.775881601
291.231776303
292.701001225
294.180345779
295.666657431
297.156836456
298.647831766
300.136636086
301.620282238
303.095839802
304.560412927
306.011139601
307.445192029
308.859779551
310.252152416
311.619608965
312.959503034
314.269255228
315.546363236
316.788415971
317.993105101
319.158240084
320.281758966
321.361742821
322.396425324
323.384207658
324.323669874
325.213591277
326.052970074
326.841055689
327.577380578
328.26180249
328.894537578
329.476192455
330.007773484
330.490690717
330.926736433
331.318062053
331.667124943
331.976631438
332.249483317
332.48872654
332.697475913
332.878835788
333.035814436
333.17126022
333.287809785
333.387865325
333.473583157
333.546886993
333.609485085
333.662899508
333.708482086
333.747426594
333.780770619
333.809409728
333.83410961
333.855523874
333.87420431
333.890612568
333.905157195
333.917808877
333.928024786
333.936079355
333.942466023
333.947175206
333.950371287
333.952598672
333.954064949
333.954910242
333.955359977
333.95558367
267.769764511
267.857873028
268.035857596
268.304660988
268.662588829
269.107692341
269.637602885
270.2495854
270.940588639
271.707297302
272.546183966
273.453558102
274.425611975
275.458461231
276.548180968
277.690835703
278.882504774
280.119301968
281.39739136
282.712998268
284.062417481
285.442017652
286.848243971
288.277617967
289.726736398
291.192268049
292.670950237
294.159583841
295.655028509
297.154196954
298.654049767
300.151589978
301.643858548
303.127930188
304.600910586
306.059934744
307.502167188
308.924804029
310.325077211
311.700261131
313.047681374
314.364725808
315.648857042
316.897626516
318.108688463
319.279814224
320.40890472
321.49400236
322.533300524
323.525153597
324.468086933
325.360811993
326.202247052
326.991549363
327.728156667
328.411838588
329.042746818
329.621455924
330.148978755
330.626771194
331.056708282
331.441065673
331.782453275
332.083730032
332.347967285
332.578405881
332.778374248
332.951182397
333.100015433
333.227851897
333.337409867
333.431123617
333.511141802
333.579349815
333.637405703
333.686784787
333.728806894
333.764638068
333.795283345
333.82159784
333.844306954
333.864025269
333.881270215
333.896475002
333.910040494
333.921706518
333.931007075
333.938433629
333.944231459
333.94853883
333.951585036
333.953651172
333.954985448
333.955789849
333.956243993
333.956467977
267.413406835
267.503384242
267.685077593
267.959401766
268.324548909
268.778431639
269.31851948
269.941900723
270.645340232
271.425338816
272.278191039
273.200039306
274.186923148
275.234822388
276.339694183
277.497503486
278.704247672
279.955975358
281.248800513
282.578912053
283.942580053
285.336158724
286.756087191
288.198888058
289.661164669
291.139596912
292.630936327
294.132000309
295.639666072
297.150864138
298.662571949
300.171807561
301.675623961
303.171103914
304.655356055
306.125512321
307.57872731
309.012179761
310.423076603
311.808659676
313.166215246
314.493086119
315.786685891
317.044514673
318.264175173
319.443388101
320.580005494
321.672021265
322.717578365
323.714973665
324.662662415
325.559266697
326.40359289
327.194664828
327.931775764
328.614559005
329.243062938
329.817813461
330.339827025
330.810625379
331.232191802
331.606987514
331.937851174
332.227836917
332.480233973
332.698558826
332.886455599
333.047542475
333.18526196
333.302775906
333.402908813
333.48812831
333.560555628
333.622002851
333.674037723
333.718061998
333.755358498
333.787069244
333.814156972
333.837417966
333.857519012
333.875021679
333.890396549
333.904047633
333.916293917
333.926643323
333.934843114
333.94143917
333.946679922
333.950562853
333.953281368
333.955150867
333.956397373
333.957162134
333.957608216
333.957830882
266.963089628
267.055460802
267.24193668
267.52338182
267.897833241
268.363016097
268.916183465
269.554188914
270.273554548
271.070539853
271.941207473
272.881483677
273.887212091
274.954199732
276.078255217
277.255219285
278.480988337
279.751531649
281.062903305
282.411249554
283.792812613
285.20393146
286.641040439
288.100665986
289.579422108
291.074004708
292.581185244
294.097803701
295.620761259
297.147012621
298.673558317
300.197437155
301.715719158
303.225499029
304.723890808
306.208023976
307.675041638
309.122101116
310.546377563
311.945070818
313.315415782
314.654696123
315.960260873
317.229542986
318.460078444
319.6495242
320.795672894
321.896462635
322.949980615
323.95446099
324.908279441
325.809950081
326.658133769
327.451668952
328.189636807
328.871461813
329.497032519
330.066806465
330.581795789
331.043618596
331.454372351
331.816795608
332.134085262
332.409494982
332.646552646
332.849145934
333.021379748
333.167322806
333.290778201
333.395149639
333.48338778
333.557985027
333.620997644
333.674103968
333.718710245
333.756101332
333.787535678
333.814160354
333.836887915
333.856423945
333.87335215
333.888165064
333.901268749
333.913018786
333.923574665
333.932375079
333.939507602
333.945304827
333.949828512
333.95309236
333.955518915
333.957211392
333.958334989
333.959114386
333.95956743
333.959797171
266.416322479
266.511673333
266.704109373
266.994424068
267.380450747
267.859669187
268.429051184
269.08514737
269.824168864
270.642068462
271.534616656
272.49747
273.526230197
274.6164932
275.763888435
276.964108752
278.212932165
279.506236551
280.840008553
282.210347858
283.613467875
285.045693697
286.503458038
287.983295685
289.48183688
290.995799907
292.521983092
294.05725636
295.598552452
297.142857909
298.687203851
300.228656941
301.764310626
303.291276843
304.806678799
306.307645299
307.791307232
309.254796872
310.695250683
312.109816189
313.495663307
314.850000163
316.170092943
317.453288667
318.697039045
319.898922868
321.056663809
322.168140437
323.231385812
324.244575724
325.206007628
326.114077493
326.967267497
327.764166377
328.503544472
329.184505299
329.806684189
330.370463811
330.87682674
331.327559935
331.724795688
332.071710897
332.37215421
332.629448144
332.847299934
333.030098661
333.182641474
333.309663835
333.415463955
333.503744031
333.577591177
333.639497585
333.691397403
333.734732085
333.770613804
333.80012949
333.824571425
333.845192152
333.862839905
333.878061532
333.891321987
333.903035599
333.9135259
333.923087385
333.931718495
333.938930029
333.944892739
333.949717147
333.953445604
333.956256142
333.958404003
333.95993862
333.96095051
333.961706362
333.96215612
333.962381891
265.770004134
265.868992465
266.068702297
266.369830156
266.769946329
267.266214569
267.855246795
268.533209023
269.29592098
270.138953196
271.057715927
272.047537028
273.103727146
274.221631824
275.396671138
276.62436808
277.900367357
279.220446309
280.580519685
281.97663975
283.404993036
284.8618947
286.343781316
287.847202579
289.368812361
290.905359285
292.45367699
294.010674093
295.573323918
297.138653941
298.703734949
300.265670216
301.821584784
303.368614926
304.903898592
306.424567294
307.927740288
309.410521891
310.870002953
312.303267357
313.70740432
315.079526805
316.416795738
317.716448846
318.975831763
320.19242791
321.363882418
322.48801485
323.562815417
324.586421126
325.557071983
326.473053837
327.332646664
328.13411024
328.875759697
329.556186678
330.174605917
330.731386352
331.227388883
331.664814262
332.045419845
332.373147813
332.65332369
332.888741981
333.083033503
333.241315764
333.369498003
333.47333558
333.557785869
333.626886634
333.683841893
333.731108243
333.770419596
333.80281986
333.828864655
333.84925742
333.865504737
333.879254484
333.891242101
333.901677932
333.910859296
333.919144476
333.926748498
333.933890267
333.940429794
333.946018549
333.950732747
333.954605713
333.957659967
333.960092189
333.961908182
333.963304631
333.964283895
333.964936331
333.96538964
333.965605567
265.02034933
265.123723469
265.332196512
265.646333186
266.063366154
266.580054883
267.19255433
267.89654645
268.687363435
269.560105152
270.509744023
271.531214071
272.619482647
273.769605015
274.976763194
276.236291207
277.543689196
278.894628922
280.284952879
281.710668996
283.167942401
284.653085456
286.162546796
287.692899954
289.240831823
290.803131112
292.376676791
293.95842647
295.545404585
297.13469031
298.723404943
300.30869914
301.887739877
303.457697236
305.01573185
306.558983615
308.084562642
309.589543677
311.070965311
312.525835451
313.951144284
315.343885636
316.701086808
318.0198458
319.297373188
320.531034044
321.718383201
322.857185554
323.945412137
324.981203612
325.962795771
326.888410478
327.756129545
328.563801422
329.309066413
329.989670141
330.604036198
331.152865909
331.636512911
332.058538977
332.418707997
332.722442485
332.979147165
333.188907964
333.354606979
333.48262001
333.580809415
333.656545608
333.715609631
333.76231604
333.799919937
333.83079792
333.856428031
333.877227333
333.892655924
333.902544212
333.909087618
333.915169188
333.921194792
333.926551122
333.931317128
333.935945503
333.940476285
333.945070941
333.949468418
333.953446833
333.956947942
333.959931962
333.96240593
333.964426072
333.966035844
333.967268279
333.968206098
333.968787686
333.96925667
333.969462761
264.162795406
264.271419874
264.49037194
264.820036977
265.257214216
265.79814653
266.438410002
267.173079756
267.996884158
268.904348129
269.889917463
270.948060574
272.07334666
273.260501449
274.504443199
275.80030236
277.143428607
278.529388624
279.953957689
281.413107388
282.9029913
284.419929825
285.960395009
287.520995728
289.098463455
290.689638546
292.291456963
293.900937129
295.515166736
297.131289131
298.746488996
300.357977437
301.962976386
303.55870215
305.142349164
306.711074516
308.261984527
309.792124876
311.298476225
312.777957385
314.227438168
315.643763669
317.023790891
318.364437114
319.662737202
320.915904155
322.121383877
323.276891977
324.380417668
325.430178689
326.42451213
327.361691591
328.239678612
329.055857097
329.806879742
330.489028223
331.098950506
331.639091835
332.107625001
332.513223871
332.847835887
333.119992655
333.351816787
333.532780128
333.663742953
333.753918989
333.814915868
333.856759571
333.886046896
333.907053761
333.922910629
333.935914943
333.947369782
333.956847604
333.961608535
333.959146651
333.953526692
333.951303879
333.951728652
333.951976668
333.951963633
333.952840477
333.954191233
333.956209089
333.95855356
333.96103293
333.963415235
333.965585123
333.967510461
333.969187715
333.970663148
333.971841868
333.972693572
333.973275422
333.973740824
333.973955523
263.191882572
263.306771945
263.538211096
263.886340256
264.347400178
264.916971919
265.58989749
266.360491812
267.222737509
268.170460897
269.197479558
270.297717905
271.465290725
272.694557574
273.980152577
275.316994963
276.700285563
278.125493981
279.588340205
281.084773598
282.610951181
284.163216527
285.738079856
287.332199652
288.942365689
290.565483331
292.198558693
293.838684304
295.483024742
297.128801796
298.773278512
300.413742173
302.047485837
303.671788175
305.283892649
306.880986697
308.460182343
310.018500218
311.55285949
313.060076725
314.536876945
315.979920049
317.385844937
318.751331967
320.073181451
321.348401823
322.574296047
323.748529473
324.869157208
325.934584636
326.94343024
327.8942576
328.78514511
329.613102504
330.373412958
331.059794268
331.664009782
332.195640908
332.643707637
333.036750443
333.337727068
333.561755364
333.773492881
333.924067555
334.011744591
334.053354909
334.067831764
334.069775118
334.065249904
334.057402621
334.049095321
334.042948294
334.040613653
334.041044059
334.036915089
334.018765873
333.995581629
333.985002174
333.981998878
333.977516732
333.971905869
333.969201483
333.96729489
333.966820016
333.967282972
333.968407496
333.969853218
333.971424515
333.972970984
333.974421599
333.975746765
333.976894824
333.977779737
333.978394894
333.978842777
333.979080617
262.101099178
262.223463355
262.469776616
262.839842556
263.329177512
263.932510354
264.643749002
265.456254722
266.363090075
267.357235863
268.431765883
269.57997645
270.795472697
272.072217202
273.404548452
274.787177062
276.215167157
277.68390908
279.189088203
280.726653116
282.292785303
283.883871341
285.496478058
287.127330531
288.773292643
290.431349657
292.098592305
293.77220166
295.449434153
297.127605867
298.804075413
300.476224848
302.141438235
303.797077278
305.440455038
307.068808305
308.679270327
310.268846184
311.834394101
313.372616771
314.880067613
316.353177134
317.788304161
319.181814879
320.530189066
321.830147372
323.07878613
324.273698056
325.413049389
326.495576101
327.520450609
328.486951019
329.393827257
330.238231753
331.013896788
331.710337698
332.303833412
332.831122091
333.241754951
333.643483891
333.897899654
334.039186781
334.294445548
334.425203925
334.450965422
334.417365956
334.361013057
334.302458891
334.252329637
334.21093369
334.176632381
334.150290755
334.135859904
334.134612699
334.127907447
334.083799355
334.02851992
334.011904548
334.01262561
334.003819378
333.98957231
333.984418938
333.979134663
333.97641548
333.975244988
333.975282592
333.976119973
333.977363168
333.978681448
333.980001705
333.981279697
333.982408994
333.983371072
333.984087334
333.98452237
333.984777282
260.882680731
261.013985787
261.278055506
261.674227844
262.197071404
262.840209955
263.596356764
264.45767345
265.416087532
266.463560124
267.592291322
268.794862016
270.064317647
271.394203882
272.778565955
274.211923337
275.689229832
277.205827112
278.757397333
280.339918464
281.949624158
283.582968884
285.236598124
286.907323124
288.592099384
290.288008149
291.992240002
293.702079729
295.414891412
297.128102632
298.839186781
300.545642345
302.244968452
303.934636025
305.612055012
307.274538405
308.919264665
310.543241257
312.143273215
313.715942167
315.257602704
316.764404223
318.232346626
319.657376917
321.035529689
322.363107161
323.636884015
324.854310471
326.013677238
327.114197443
328.155947647
329.139577726
330.065601141
330.932898063
331.734755964
332.456246431
333.018781039
333.566730643
333.894110808
334.464097936
334.628328838
334.361763837
334.291222545
334.357783152
334.397963179
334.391634045
334.360884651
334.322405829
334.285712817
334.256245541
334.236644279
334.229277451
334.236942231
334.254559584
334.250552272
334.162328855
334.020504
334.015343531
334.047832343
334.034271767
334.00097812
333.9985463
333.988970149
333.984362288
333.982052907
333.981418611
333.982090919
333.983310764
333.984473893
333.985773795
333.987129769
333.988372773
333.989423809
333.990275746
333.990724015
333.991012325
259.527346452
259.669398262
259.954760235
260.382121103
260.94479647
261.634964854
262.443802039
263.361955235
264.379951435
265.488526933
266.678865293
267.942746365
269.272618048
270.661607566
272.103490354
273.592633129
275.123924789
276.692705022
278.294697115
279.925948393
281.582779609
283.261743017
284.959588184
286.673234162
288.399746787
290.136319842
291.88025912
293.628968212
295.379934827
297.130715959
298.878920676
300.622188493
302.358162338
304.08445495
305.798608848
307.498050265
309.180038599
310.841614092
312.47954828
314.09030383
315.670013136
317.214487521
318.719270909
320.179751592
321.591341859
322.949725756
324.251160289
325.492797097
326.672981273
327.791481637
328.849606814
329.850162251
330.797099553
331.694449158
332.541153971
333.335925649
333.804835161
334.55709225
334.361925118
334.391019707
334.502230007
334.469695513
334.405826696
334.400060603
334.399932873
334.380393624
334.34784776
334.311123158
334.27729592
334.250484094
334.230999057
334.218504324
334.211383587
334.203572745
334.181962148
334.144025798
334.125262017
334.154420341
334.175772002
334.095933037
333.981095064
334.010431206
333.995423125
333.989763648
333.987471676
333.986314857
333.98760958
333.989270769
333.990247708
333.991652477
333.993231752
333.994705347
333.995956031
333.996924511
333.997461991
333.99779373
258.023950682
258.179011205
258.490073577
258.954911982
259.565165698
260.311104855
261.181912718
262.16631748
263.253118353
264.431588414
265.691743523
267.024487631
268.421656444
269.875986778
271.381038624
272.931093207
274.521044672
276.146297282
277.802674749
279.486344442
281.193756307
282.921594856
284.666741799
286.426246979
288.197305573
289.977240101
291.763486002
293.55357968
295.345147471
297.135893454
298.923584187
300.706027517
302.481043688
304.246427206
305.999898907
307.739048291
309.461267116
311.163676693
312.843053413
314.495760157
316.117695324
317.704276021
319.25047677
320.750947712
322.200234069
323.593106745
324.924991639
326.192452083
327.393668157
328.52886437
329.600682584
330.614629043
331.579956908
332.51334305
333.452840603
334.590983464
334.423554675
334.439994326
334.503745317
334.467450265
334.483960958
334.456881454
334.412189435
334.39208603
334.377126305
334.352787266
334.320981644
334.287288728
334.257397077
334.233910549
334.216194392
334.203219559
334.192754467
334.180932964
334.162937218
334.140091054
334.126589639
334.129501946
334.126370212
334.113015761
334.127119229
334.121313243
333.99908376
333.984704228
333.990966255
333.988738469
333.992737712
333.995628128
333.995863981
333.997541512
333.999578278
334.001435989
334.002940248
334.00406504
334.004782588
334.005137166
256.359015673
256.529968291
256.872319087
257.38253901
258.049994622
258.862409742
259.806366454
260.868152591
262.034438671
263.292763808
264.631826821
266.04160703
267.513353586
269.039486468
270.613448868
272.22954258
273.882768563
275.568685781
277.283294216
279.022942655
280.784258733
282.56409703
284.359500882
286.167674
287.98595918
289.81182231
291.642840762
293.476695146
295.311162943
297.144111176
298.973485453
300.797291127
302.613563985
304.420328179
306.215540335
307.997019119
309.762360456
311.508839675
313.233304339
314.932065331
316.600799839
318.234487662
319.82741192
321.373263739
322.865393421
324.297237706
325.662919113
326.957941239
328.179886683
329.329023944
330.408732772
331.425602629
332.389721402
333.31969853
334.272154513
334.473702154
334.557810391
334.499162729
334.498398863
334.471392176
334.457466203
334.425092144
334.38524645
334.356020549
334.33096761
334.302852134
334.27175515
334.241978119
334.217095141
334.197394832
334.182574187
334.17161732
334.162577389
334.152990986
334.140823657
334.127098343
334.11786329
334.115808473
334.111545597
334.102838075
334.100556508
334.090355532
334.095974191
334.095107949
334.010757229
333.980942473
333.997818431
334.003746645
334.000753519
334.003171963
334.006154461
334.008622473
334.010464138
334.011779736
334.0126507
334.013031644
254.516096812
254.706685361
255.087532963
255.653227505
256.390009706
257.282168448
258.312865455
259.465276813
260.723459133
262.072922062
263.500919442
264.996508664
266.55044392
268.154970069
269.803573929
271.490734831
273.211700568
274.96230169
276.738807116
278.53781783
280.356191867
282.190992841
284.039454614
285.898956449
287.767004939
289.641221204
291.519333077
293.399172285
295.278675194
297.155883655
299.028941635
300.896081756
302.755597561
304.605798894
306.444948518
308.271178761
310.082386762
311.876107506
313.649365899
315.398513666
317.119064549
318.805553036
320.451458679
322.049257654
323.590680046
325.067242754
326.471087477
327.795978219
329.038311339
330.197983133
331.278799668
332.288753718
333.244613202
334.198737968
334.348629026
334.449878395
334.50482465
334.483310004
334.463529053
334.43353001
334.402748928
334.363444152
334.321323748
334.285072723
334.253526415
334.223434807
334.194342984
334.169268882
334.14993219
334.135209451
334.124844695
334.117989636
334.113113513
334.108605816
334.103532476
334.098618865
334.096293011
334.097014686
334.096217603
334.091719544
334.087853534
334.081682542
334.079202399
334.071276509
334.077891309
334.076643333
334.018752644
334.01749099
334.002095284
334.007958073
334.013117853
334.016453803
334.018644093
334.020079213
334.021046703
334.021456619
252.474905863
252.690088739
253.118904131
253.753175985
254.574778923
255.563316502
256.697423074
257.956302314
259.320822234
260.77416288
262.302061676
263.892748478
265.536678084
267.226161077
268.954972419
270.717990541
272.51089521
274.329933526
276.171750957
278.033277145
279.91165344
281.804188888
283.708333478
285.621660404
287.541852995
289.466695451
291.394069218
293.321956997
295.248453946
297.171781304
299.090295683
301.002485131
302.906945951
304.80233727
306.6873116
308.560419739
310.419986647
312.263953594
314.089683136
315.893727589
317.671570377
319.417364831
321.123721312
322.781632194
324.380672155
325.909625097
327.357683013
328.715892284
329.978632083
331.144812352
332.219004988
333.217028627
334.193112342
334.318407857
334.384494447
334.439018905
334.458448448
334.43524545
334.399204488
334.355466528
334.309729442
334.261864816
334.215303493
334.174570887
334.140085527
334.110491194
334.085398752
334.066462809
334.053626155
334.04532342
334.041271206
334.040731812
334.042482488
334.045348103
334.048680492
334.052681186
334.058048392
334.064410512
334.069489968
334.072160885
334.073912568
334.073402967
334.071542356
334.068426072
334.069606564
334.067826832
334.083000043
334.069336365
333.985272882
334.010589513
334.021306007
334.025468871
334.027629123
334.02899787
334.029976036
334.030399829
250.210078024
250.45656499
250.94603866
251.666190932
252.592699064
253.698706699
254.956823609
256.341189353
257.828827532
259.400326458
261.039952232
262.735355995
264.477047474
266.257784453
268.071985546
269.915228606
271.783859901
273.674713998
275.584929553
277.511839894
279.452915806
281.405740126
283.36799755
285.337468521
287.312022084
289.2896089
291.268260136
293.246099155
295.221367389
297.192457983
299.157945253
301.116596381
303.067356207
305.009302966
306.941574586
308.863265258
310.773286062
312.670179202
314.551874233
316.41537757
318.256393313
320.068889297
321.84465687
323.572977993
325.240627899
326.832509528
328.333462786
329.730378304
331.014211827
332.182438302
333.246825469
334.263150246
334.35582861
334.379760826
334.397396701
334.405685418
334.387952231
334.344119625
334.289189725
334.230240554
334.172065886
334.116648695
334.066430247
334.02392501
333.989732261
333.963219609
333.944487089
333.933394519
333.928048875
333.927534684
333.931529354
333.939258458
333.949644786
333.961678307
333.974677814
333.988379809
334.002665257
334.016905143
334.029785568
334.040577353
334.049590197
334.056234738
334.060904342
334.063640218
334.06513781
334.065151761
334.069105748
334.065049742
334.05647524
334.026511904
334.035262011
334.036800979
334.037562948
334.038468393
334.039392863
334.039862537
247.689401301
247.976492151
248.543991447
249.373283699
250.431103817
251.681602841
253.089348931
254.622059946
256.252215046
257.957668074
259.721474828
261.531206451
263.378018052
265.255690004
267.1597813
269.086959914
271.034521496
273.000076256
274.981369797
276.976200209
278.982396308
280.997827029
283.020418918
285.048166638
287.079131006
289.111429138
291.143230075
293.172773111
295.198414346
297.218691973
299.232388101
301.238564521
303.2365591
305.225943051
307.206444288
309.17784156
311.139819836
313.091767343
315.032491026
316.959827
318.870123532
320.757580328
322.613460259
324.425277624
326.176305407
327.845882875
329.412441606
330.856415337
332.163610493
333.336037219
334.429439949
334.481904708
334.446049406
334.410675666
334.376446821
334.333203717
334.275502281
334.205340702
334.130944089
334.057989201
333.99021145
333.9296756
333.878038333
333.83663303
333.805818063
333.785240215
333.774571481
333.772049057
333.77526397
333.783811748
333.797256808
333.814732213
333.835199842
333.857679275
333.881379909
333.905720685
333.93017539
333.954004275
333.976240451
333.99622508
334.013800282
334.028624625
334.040812965
334.050241343
334.057101601
334.06107436
334.062843793
334.060937376
334.056842809
334.064570072
334.057849644
334.049877945
334.047804527
334.048055523
334.049246189
334.049881231
244.871212785
245.212151433
245.881997196
246.852274583
248.076609586
249.506542507
251.095913456
252.804388237
254.599249089
256.455737936
258.356337231
260.289429257
262.247747039
264.226927704
266.224337794
268.23822034
270.267139908
272.309668726
274.364248941
276.429170946
278.502616584
280.58272629
282.667658973
284.755624716
286.844883602
288.933720766
291.020423894
293.103303413
295.180768488
297.251444787
299.314288987
301.368660939
303.414333542
305.451447095
307.480427031
309.501884757
311.516486244
313.524754502
315.526767127
317.521708758
319.50722705
321.478517743
323.427061511
325.3389945
327.19353812
328.96180434
330.612575656
332.116984285
333.461170585
334.697576392
334.712649248
334.598271366
334.492344228
334.39853265
334.305815967
334.211534645
334.11538929
334.019259151
333.927495582
333.843642646
333.769985291
333.707758631
333.65771833
333.62031027
333.59556171
333.583204847
333.581572762
333.587815165
333.600334101
333.618775719
333.642496822
333.670539357
333.701860149
333.735458282
333.77044102
333.806028064
333.84147512
333.875968481
333.908645049
333.938825768
333.966111775
333.990133563
334.010765426
334.027857604
334.04145903
334.051347127
334.057763147
334.060540293
334.060389612
334.063354474
334.067314918
334.061595517
334.056166978
334.056774261
334.059530834
334.060574058
241.700461641
242.11471377
242.921833933
244.077518223
245.515909091
247.170803808
248.981818619
250.898727444
252.88320058
254.908505504
256.957815944
259.021817094
261.096234559
263.17972681
265.272324782
267.374411997
269.486148148
271.607216718
273.736787996
275.873609349
278.01615451
280.16277924
282.31184334
284.461771567
286.611043459
288.758128109
290.901409366
293.039195467
295.169838357
297.291943712
299.404574598
301.507377536
303.600603119
305.685040091
307.761913145
309.832803677
311.899563349
313.96416004
316.028399268
318.093471024
320.159248344
322.223178562
324.278506562
326.311410718
328.297398146
330.19427858
331.956896907
333.553870016
335.034220973
335.03962805
334.838885502
334.650492345
334.484241086
334.326644376
334.176981414
334.037197029
333.908136652
333.790727694
333.686572062
333.596868234
333.522116211
333.462285607
333.417130327
333.386348011
333.369677272
333.366516003
333.374062996
333.389093792
333.411074125
333.439518652
333.473561829
333.512178488
333.554318805
333.598964298
333.645159264
333.692011556
333.738657668
333.784224752
333.827853806
333.868808154
333.906526844
333.9405376