/*--------------------------------*- C++ -*----------------------------------*\
| =========                 |                                                 |
| \\      /  F ield         | OpenFOAM: The Open Source CFD Toolbox           |
|  \\    /   O peration     | Version:  v1906                                 |
|   \\  /    A nd           | Web:      www.OpenFOAM.com                      |
|    \\/     M anipulation  |                                                 |
\*---------------------------------------------------------------------------*/
FoamFile
{
    version     2.0;
    format      ascii;
    class       volScalarField;
    location    "917";
    object      p;
}
// * * * * * * * * * * * * * * * * * * * * * * * * * * * * * * * * * * * * * //

dimensions      [0 2 -2 0 0 0 0];


internalField   nonuniform List<scalar> 
9216
(
273.667522847
273.747281196
273.912318775
274.164039852
274.501025
274.921686504
275.424057481
276.005826806
276.66438377
277.396851636
278.200132376
279.07093811
280.005835282
281.001271496
282.053616573
283.159182654
284.314260776
285.515133444
286.758106579
288.039514834
289.355749605
290.703257983
292.078567868
293.478281665
294.899099581
296.337809099
297.791307331
299.256587117
300.730759051
302.211034818
303.694749328
305.179341195
306.6623751
308.141521223
309.614577351
311.079445674
312.534155433
313.976838241
315.405750761
316.819248562
318.215808833
319.594003023
320.952519534
322.290135419
323.605739029
324.898301043
326.166897023
327.410678078
328.628893307
329.820860359
330.985987724
332.123745474
333.233687343
334.315421887
335.368634276
336.39305809
337.388496742
338.354796068
339.291865256
340.199650383
341.07815472
341.927413296
342.747512436
343.53856543
344.300731151
345.034190876
345.739165835
346.415895227
347.064652581
347.685724997
348.279428219
348.846087134
349.386049505
349.89966777
350.387311385
350.849349993
351.286164366
351.698130996
352.08563166
352.449039493
352.788727204
353.105054699
353.398375994
353.669028437
353.917338389
354.14361211
354.348140289
354.531190727
354.693011953
354.833828143
354.953842938
355.053238987
355.132188542
355.190882881
355.229870497
355.246919505
273.58781549
273.667936286
273.833317739
274.086040957
274.424461816
274.846918269
275.351398183
275.935553807
276.596737689
277.332038572
278.138322561
279.012269304
279.950412167
280.949170546
282.004885808
283.113847441
284.272323353
285.476579133
286.722902635
288.007616759
289.327099086
290.67778917
292.056204357
293.458942749
294.882696333
296.324250686
297.780496316
299.248425926
300.725144618
302.207865241
303.693917779
305.180743442
306.665903525
308.147071472
309.622041524
311.088720071
312.545133572
313.989418693
315.419829844
316.834728355
318.232589614
319.61199141
320.971620717
322.310261382
323.626800611
324.920216182
326.189582709
327.434058569
328.652892014
329.845407997
331.011014192
332.149187896
333.259481994
334.34151209
335.394962446
336.419573446
337.415147519
338.381537024
339.31865011
340.226439086
341.104906161
341.954092316
342.77408285
343.564996747
344.326991951
345.060255207
345.765006969
346.441491708
347.089982378
347.710771169
348.304173479
348.870519112
349.410155722
349.923440473
350.410742945
350.87243729
351.308904609
351.720525647
352.107682679
352.470752792
352.81010932
353.126115766
353.419126844
353.689483095
353.937511581
354.16352126
354.367803399
354.550627748
354.712242733
354.85287241
354.972716148
355.071945158
355.150697594
355.209057136
355.246948074
355.263971572
273.4220336
273.503302781
273.670217032
273.925245278
274.266711295
274.692908396
275.201762947
275.790859643
276.457479212
277.198638046
278.011129743
278.891564747
279.836409974
280.842024255
281.904692666
283.020655479
284.186135865
285.397361827
286.650587413
287.942108263
289.268277323
290.625515195
292.010321646
293.419282069
294.849075997
296.296480799
297.758378161
299.231755822
300.713712685
302.201459095
303.69232094
305.18373883
306.67327141
308.158593373
309.637498051
311.107894637
312.567810016
314.01538508
315.448875918
316.866649354
318.267183541
319.649062826
321.010977837
322.351719808
323.670180262
324.965344944
326.236293217
327.482191751
328.702293759
329.895932579
331.062520857
332.201544164
333.312560211
334.39519261
335.449130188
336.474120972
337.46997164
338.436541782
339.373743485
340.281535886
341.159924866
342.008957889
342.828723747
343.619347641
344.380990928
345.113846396
345.818137931
346.494115954
347.142056949
347.762259013
348.355041219
348.920739259
349.459704613
349.972300297
350.458899841
350.919883161
351.355635375
351.766542832
352.152991808
352.515364741
352.854038854
353.169382653
353.461754524
353.731499547
353.978948124
354.204413151
354.408188713
354.590547638
354.751740232
354.891992076
355.011502399
355.110441173
355.188945112
355.247106754
355.284891645
355.302908432
273.167149551
273.249705792
273.419017582
273.677650442
274.023866875
274.455884556
274.971535899
275.568300764
276.243348481
276.993581963
277.815682173
278.706151152
279.661353265
280.677552905
281.750949106
282.877705741
284.053978411
285.275936937
286.53978503
287.8417761
289.178227048
290.545528895
291.940156259
293.3586743
294.797745253
296.254132898
297.724707156
299.206446911
300.696443307
302.191901386
303.690142426
305.188604554
306.684844312
308.176536536
309.661474988
311.137571328
312.602855045
314.055471631
315.493681772
316.915858783
318.320487143
319.706159285
321.071573571
322.415530566
323.736930576
325.03476954
326.308136282
327.556208158
328.778248151
329.973600427
331.141687392
332.282005287
333.39412131
334.477669353
335.532347275
336.55791285
337.554181236
338.521021178
339.458352686
340.36614349
341.244406908
342.093198529
342.912614222
343.702786987
344.463885054
345.196108831
345.899689023
346.57488363
347.221976012
347.8412719
348.43309737
348.997795831
349.535725907
350.047258392
350.532774048
350.99266056
351.427310267
351.837117164
352.222474609
352.583772423
352.921394627
353.235716687
353.527103348
353.79590607
354.042461004
354.267086672
354.470082108
354.651724792
354.812268933
354.951943542
355.070950628
355.169463124
355.247622526
355.305534694
355.343192274
355.361385647
272.822082296
272.906287479
273.078888863
273.342475747
273.695217198
274.135220115
274.660184821
275.267444599
275.954013778
276.716637588
277.551841351
278.455977661
279.425270535
280.455855433
281.543814959
282.685209781
283.876105187
285.112593224
286.390811192
287.706956574
289.057299325
290.438191555
291.846075511
293.277489791
294.729074586
296.197575738
297.679848312
299.172859323
300.673690239
302.179538778
303.687720613
305.195670236
306.700942007
308.20121056
309.694270772
311.178037198
312.650543429
314.10994072
315.554496576
316.982592635
318.392722556
319.783489248
321.153602173
322.501874049
323.827217704
325.128642399
326.405250378
327.656232973
328.880866992
330.078510748
331.248600435
332.390646202
333.504228634
334.588994984
335.644655841
336.670981595
337.667799351
338.634989654
339.572483665
340.480260146
341.358342874
342.206797845
343.02573087
343.815284938
344.575637916
345.306999998
346.009611439
346.683740007
347.329678689
347.947743101
348.538269109
349.101610178
349.638134894
350.148224246
350.632269063
351.090667253
351.523821197
351.932134981
352.316011802
352.675851248
353.012046769
353.32498307
353.615033702
353.882558627
354.127901976
354.351389826
354.553328172
354.734000926
354.893668097
355.032564006
355.150895616
355.248841001
355.32654816
355.384133227
355.421601383
355.43977878
272.385049125
272.471346019
272.648183311
272.91815733
273.279308067
273.729591514
274.266531368
274.887266527
275.588607076
276.367091585
277.219042672
278.140619454
279.127865552
280.176751804
281.283213346
282.443181029
283.652607525
284.907488548
286.203879878
287.537910748
288.905794328
290.303835818
291.728438771
293.176109995
294.6434635
296.127223661
297.624227909
299.131428953
300.64589674
302.164820057
303.685507906
305.205390307
306.722019183
308.233068916
309.736336018
311.229738665
312.711315868
314.179226138
315.631745859
317.067267178
318.484295639
319.881447399
321.257446246
322.61112027
323.941398421
325.247306797
326.527964896
327.782581684
329.010451711
330.21095111
331.383533725
332.527727188
333.643129177
334.729403688
335.786277522
336.813536824
337.81102386
338.778633857
339.716312086
340.62405099
341.501887538
342.349900603
343.168208517
343.956966613
344.716364899
345.446625676
346.148001237
346.820771477
347.465241538
348.081739349
348.670613174
349.232229045
349.766968196
350.27522439
350.75740126
351.213909561
351.645164455
352.051582737
352.433580126
352.791568532
353.125953408
353.437131127
353.725486461
353.991390121
354.235196425
354.45724105
354.657838927
354.837282242
354.995838593
355.133749265
355.251227683
355.34845824
355.425595379
355.482762135
355.519969904
355.538046487
271.853772794
271.942660591
272.124762407
272.40267484
272.774268932
273.237303414
273.789073169
274.426467093
275.146034476
275.944051886
276.816586963
277.759557405
278.768783732
279.840035001
280.969067348
282.151655556
283.383618296
284.66083778
285.979274731
287.334979519
288.724100327
290.142889045
291.587705559
293.055020904
294.541419718
296.043602225
297.55838599
299.082707485
300.613623551
302.148312715
303.684076305
305.218339196
306.748650634
308.272684812
309.788240384
311.293240021
312.785729469
314.26387617
315.725967474
317.170408437
318.595719253
320.000532333
321.383589092
322.743736464
324.079923203
325.391196014
326.676695547
327.935652315
329.167382569
330.371284165
331.546832482
332.693576401
333.811134392
334.899190728
335.957491853
336.985842915
337.984104475
338.95218939
339.89005988
340.797724746
341.675236751
342.522690117
343.34021813
344.127990825
344.88621271
345.615120519
346.314980956
346.986088411
347.628762628
348.243346316
348.830202686
349.389712913
349.922273532
350.428293755
350.908192744
351.362396828
351.791336698
352.195444583
352.575151436
352.930884142
353.263062771
353.572097882
353.858387918
354.122316674
354.364250892
354.584537951
354.783503713
354.961450488
355.118655165
355.255367527
355.371808759
355.468170276
355.544612956
355.6012655
355.638143247
355.6560679
271.225430662
271.31746706
271.505969161
271.793526375
272.177793434
272.656276373
273.225978878
273.88347402
274.624984247
275.446460644
276.343657056
277.31219708
278.34763235
279.4454915
280.601319897
281.810710823
283.069329077
284.3729282
285.717362528
287.098595257
288.512703554
289.955881621
291.424442448
292.914818814
294.423563969
295.947352247
297.482979788
299.027365393
300.577551519
302.130705338
303.684119545
305.235213325
306.781533083
308.320752885
309.850674083
311.369224797
312.874458911
314.36455459
315.83781237
317.292652782
318.727613598
320.141346693
321.532614601
322.900286784
324.243335684
325.560832593
326.85194341
328.115924299
329.352117348
330.559946206
331.738911812
332.88858819
334.008618396
335.098710595
336.158634354
337.188217102
338.187340818
339.155938919
340.093993361
341.001531922
341.878625672
342.725386568
343.54196519
344.328548535
345.085357876
345.812646629
346.510698205
347.179823809
347.820360192
348.432667291
349.017125807
349.574134656
350.104108352
350.607474279
351.084669908
351.536139939
351.962333412
352.363700793
352.740691061
353.093748818
353.423311436
353.729806269
354.013647946
354.275235758
354.514951161
354.733155402
354.930187291
355.106361124
355.261964783
355.397258018
355.51247094
355.607802916
355.683421552
355.739460773
355.775940115
355.793673652
270.496592365
270.5924054
270.788580539
271.087688033
271.487107912
271.984025348
272.575076777
273.256440177
274.023932926
274.873106847
275.799335212
276.797889252
277.864002653
278.992923668
280.179955465
281.42048592
282.710008456
284.044135617
285.41860707
286.82929353
288.27219794
289.743454953
291.239329587
292.756215651
294.29063438
295.839233512
297.39878693
298.966194816
300.538484245
302.112810069
303.686455559
305.256833614
306.821487567
308.378091526
309.924450114
311.458497927
312.978298469
314.482042574
315.968046324
317.4347485
318.880707581
320.304598361
321.705208214
323.081433079
324.432273205
325.756828722
327.054295093
328.323958493
329.565191175
330.777446871
331.960256259
333.113222573
334.236017346
335.328376368
336.390095843
337.421028804
338.421081754
339.390211575
340.328422674
341.235764352
342.112328378
342.958246736
343.773689491
344.55886276
345.314006718
346.039393617
346.735325768
347.402133461
348.040172788
348.649823361
349.231485894
349.785579677
350.312539912
350.812814942
351.286863391
351.735151216
352.158148714
352.556327495
352.93015745
353.280103739
353.606623822
353.910164548
354.191159342
354.45002548
354.687161501
354.902944739
355.097729026
355.271842545
355.425585872
355.559230226
355.673015926
355.767151121
355.841810814
355.897134787
355.933147183
355.950653984
269.663144153
269.763450159
269.968745652
270.281562632
270.698932647
271.217634408
271.833842726
272.543243637
273.341155582
274.222644581
275.182626998
276.215957181
277.317498528
278.482178242
279.705027098
280.981206335
282.306024035
283.67494342
285.083585268
286.527726423
288.003295938
289.506370159
291.03316763
292.580044529
294.143490994
295.720128567
297.306708757
298.900112597
300.49735098
302.095565541
303.692029285
305.284148164
306.869462189
308.445645631
310.010506968
311.561988355
313.098164511
314.617241025
316.117552094
317.597557741
319.055840546
320.491101944
321.902158171
323.287935888
324.647467574
325.97988674
327.284423027
328.560397244
329.807216412
331.024368849
332.211419381
333.368004677
334.493828806
335.588659
336.652321705
337.684698895
338.685724702
339.655382326
340.593701259
341.500754754
342.376657551
343.221563787
344.035665063
344.819188609
345.572395493
346.295578823
346.989061901
347.653196272
348.288359665
348.894953765
349.473401842
350.024146206
350.547645513
351.044371925
351.514808155
351.959444406
352.378775249
352.773296464
353.143501858
353.489880116
353.812911681
354.113065716
354.390797149
354.646543835
354.880723843
355.093732901
355.285941994
355.457695144
355.609307388
355.741062951
355.853213625
355.945977535
356.019537893
356.07404078
356.109516159
356.12676136
268.720193697
268.825821522
269.041907585
269.370916174
269.809435459
270.353728326
270.99938913
271.741492087
272.574742974
273.493619729
274.492494347
275.565733045
276.707773815
277.913182509
279.17669007
280.493214162
281.857868743
283.265964857
284.713005566
286.194677419
287.706840335
289.245517304
290.806884918
292.387265366
293.983120276
295.591046487
297.20777365
298.830163394
300.455209669
302.080039877
303.701915754
305.318235466
306.926535323
308.524489783
310.109911741
311.680752048
313.235098348
314.77117325
316.287331858
317.782058709
319.253964173
320.701780394
322.124356827
323.52065546
324.889745782
326.23079958
327.543085623
328.825964308
330.078882313
331.30136735
332.49302302
333.653523889
334.782610767
335.880086295
336.945810826
337.979698659
338.981714627
339.95187105
340.890225025
341.796876053
342.671963931
343.5156669
344.328199939
345.109813196
345.860790435
346.581447479
347.272130566
347.933214575
348.565101083
349.168216232
349.743008378
350.289945546
350.809512678
351.302208706
351.768543477
352.209034556
352.624203947
353.01457476
353.380667872
353.722998594
354.042073394
354.338386691
354.612417751
354.864627707
355.095456718
355.305321291
355.494611783
355.663690081
355.812887497
355.942502878
356.052800929
356.144010782
356.216324863
356.269896643
356.304762487
356.321710301
267.661948699
267.773871849
268.002704597
268.350799205
268.814176329
269.388441266
270.068456308
270.848533917
271.722628287
272.684507942
273.727900367
274.846605741
276.034579903
277.28598937
278.5952428
279.957003987
281.366191324
282.817968233
284.30772819
285.831077289
287.383816409
288.961924552
290.561544299
292.17897003
293.810639141
295.453126249
297.103140098
298.757522693
300.413250048
302.067433958
303.717323515
305.360307957
306.993919253
308.615831909
310.223863751
311.8159755
313.390269568
314.94498806
316.478510051
317.989348185
319.476144689
320.937666862
322.372802158
323.780552907
325.160030809
326.510451229
327.831127415
329.121464673
330.380954603
331.609169412
332.805756423
333.970432781
335.102980469
336.20324163
337.271114296
338.306548496
339.309542825
340.280141422
341.218431386
342.124540565
342.998635701
343.840920835
344.65163593
345.431055597
346.179487875
346.897272954
347.584781792
348.242414543
348.870598774
349.469787421
350.040456478
350.583102426
351.098239411
351.586396203
352.048112969
352.483937905
352.894423767
353.280124334
353.641590869
353.979368584
354.293993166
354.585987389
354.85585783
355.104091733
355.331154017
355.537484468
355.723495119
355.889567829
356.036052092
356.163263049
356.271479724
356.360943655
356.431857486
356.484382665
356.518563231
356.535176692
266.48156096
266.600940476
266.844845422
267.215449904
267.708042223
268.317383777
269.037409162
269.861479852
270.782627838
271.793768123
272.887869758
274.058083187
275.297826048
276.600832891
277.961176001
279.373264836
280.831831016
282.331904674
283.868786723
285.438020306
287.035363764
288.656766537
290.298348972
291.956386452
293.627298037
295.30763935
296.994099263
298.683499563
300.372796748
302.059084888
303.739598382
305.411716024
307.072964338
308.721017511
310.353698721
311.968979786
313.564979883
315.139963346
316.692336614
318.22064443
319.723565365
321.199906801
322.648599437
324.068691468
325.459342476
326.81981719
328.149479138
329.44778431
330.714274875
331.948573041
333.15037511
334.319445805
335.455612924
336.558762404
337.628833816
338.665816373
339.669745437
340.640699572
341.578798085
342.484199058
343.35709777
344.197725475
345.006348392
345.783266851
346.528814445
347.243357136
347.92729217
348.581046776
349.205076551
349.799863535
350.365913924
350.90375547
351.413934553
351.897012994
352.353564641
352.784171779
353.189421432
353.569901591
353.926197419
354.258887497
354.568540114
354.855709668
355.120933186
355.364727
355.587583594
355.789968646
355.972318277
356.135036522
356.278493023
356.403020981
356.50891533
356.596431161
356.66578248
356.717139925
356.750555721
356.766795879
265.170924492
265.299167131
265.56095139
265.958174993
266.485171499
267.13561043
267.902243582
268.777240865
269.752501813
270.819917244
271.971569789
273.199873059
274.49765513
275.858196089
277.275230873
278.742928353
280.255856036
281.808937825
283.397410123
285.016779904
286.662786882
288.331371096
290.018646521
291.720881018
293.434482549
295.155991282
296.882076761
298.609539027
300.335312369
302.056469535
303.770227472
305.473952533
307.165163793
308.841534531
310.50089361
312.141225236
313.760667557
315.357510182
316.930190719
318.477290459
319.997529344
321.489760299
322.952963103
324.38623788
325.788798352
327.159964929
328.499157756
329.805889763
331.07975983
332.320446089
333.527699488
334.701337648
335.841239126
336.947338124
338.019619761
339.058115905
340.062901658
341.034092455
341.971841812
342.876339616
343.747810954
344.586515301
345.39274603
346.166830036
346.909127406
347.620030952
348.299965538
348.949387074
349.568781127
350.158661109
350.719566027
351.252057808
351.756718247
352.234145617
352.684951014
353.109754507
353.509181145
353.883856902
354.234404602
354.561439882
354.865567229
355.147376135
355.407437394
355.646299571
355.864485666
356.062489997
356.240775297
356.399770071
356.539866191
356.661416734
356.764734076
356.850088394
356.917706151
356.967767772
357.00033498
357.016161042
263.720411527
263.859249815
264.142355604
264.571203564
265.138867961
265.837592199
266.65860953
267.592590709
268.630043602
269.761634222
270.978418214
272.271986642
273.634537973
275.058892564
276.538466881
278.067222888
279.639605104
281.250474332
282.89504399
284.568822462
286.267563187
287.987223171
289.723930151
291.473958378
293.233712852
294.999721385
296.768633416
298.537223846
300.30240004
302.061208527
303.810844387
305.548658174
307.272159261
308.979019015
310.66707221
312.334316838
313.978912498
315.599177522
317.193584984
318.760757763
320.299462799
321.808604691
323.287218778
324.734463861
326.14961468
327.532054283
328.881266351
330.1968276
331.478400279
332.725724884
333.938613123
335.11694125
336.260643834
337.369708088
338.444168812
339.484104063
340.489631565
341.460905914
342.39811653
343.301486337
344.171271027
345.007758853
345.811270717
346.582160463
347.320815141
348.027655124
348.703133904
349.347737471
349.961983174
350.546418047
351.101616565
351.628177875
352.126722556
352.597888968
353.042329297
353.460705361
353.853684282
354.221934075
354.566119251
354.886896454
355.184910207
355.46078879
355.715140286
355.948548818
356.161571023
356.354732738
356.528525967
356.683406087
356.819789336
356.938050589
357.038521382
357.121488213
357.187191217
357.235821895
357.26745195
357.282820578
262.118523187
262.270127948
262.578845827
263.045508141
263.661505946
264.41720069
265.301861519
266.304265331
267.413209643
268.617903218
269.90822616
271.274871373
272.709389419
274.204163344
275.752339028
277.347732549
278.984730456
280.65819344
282.363369264
284.095817561
285.851346999
287.625964481
289.415835827
291.217257662
293.026640239
294.840500639
296.655464803
298.468276034
300.275807006
302.075070846
303.863234304
305.637627496
307.395747271
309.1352617
310.854011643
312.550010467
314.22144209
315.866657534
317.48417026
319.072650457
320.630918452
322.157937405
323.652805485
325.114747661
326.543107322
327.937337797
329.296993914
330.621723639
331.911259883
333.165412505
334.384060632
335.567145347
336.714662903
337.826658543
338.903221088
339.944478351
340.950593494
341.921762317
342.85821151
343.760197764
344.628007658
345.461958135
346.262397402
347.029706001
347.764297878
348.466621184
349.137158688
349.776427595
350.384978723
350.963394956
351.512288993
352.032300425
352.524092239
352.988346824
353.425761619
353.83704451
354.222909071
354.584069755
354.921237098
355.235113
355.526386132
355.795727506
356.043786241
356.271185555
356.478519007
356.666347004
356.835193589
356.985543526
357.11783968
357.232480678
357.329818863
357.41015869
357.473755123
357.520811334
357.551410386
357.56627593
260.351420814
260.518562186
260.858333183
261.37058653
262.044430662
262.867716218
263.827153018
264.909116985
266.100306426
267.388210035
268.761385977
270.209578275
271.72370919
273.295789426
274.918783499
276.586459092
278.293239916
280.034073126
281.804316025
283.599642486
285.415967434
287.249387141
289.0961338
290.952543791
292.815039843
294.680126826
296.544399385
298.404557911
300.25742816
302.099978995
303.929340449
305.7428162
307.537886918
309.312215761
311.063649919
312.790220082
314.490137883
316.161791681
317.803741011
319.41470994
320.993579453
322.539379084
324.051277988
325.528575689
326.970692671
328.377160987
329.747614946
331.081781965
332.379473576
333.640576684
334.865045104
336.052891524
337.204180015
338.319019261
339.397556654
340.43997342
341.446480854
342.417317742
343.352748943
344.253065082
345.118583174
345.949648025
346.746634099
347.509947642
348.240028708
348.937352874
349.602432364
350.235816449
350.838090951
351.409876849
351.951827963
352.46462781
352.948985741
353.405632497
353.835315354
354.238792994
354.616830239
354.970192755
355.299641809
355.605929139
355.889791983
356.151948308
356.393092274
356.613889939
356.814975274
356.996946454
357.160362485
357.305740139
357.433551222
357.544220176
357.638121978
357.715580341
357.776866327
357.822196127
357.85166464
357.865978421
258.402287014
258.588570698
258.966422228
259.534198374
260.277863064
261.181879826
262.22960021
263.404349074
264.690257583
266.072809446
267.539115958
269.077970763
270.679749503
272.336218955
274.040308724
275.785882945
277.567534148
279.38040929
281.220069268
283.082378341
284.963417847
286.859419133
288.766712585
290.681692395
292.600798443
294.520516582
296.437395226
298.348073181
300.249310149
302.138015551
304.011272404
305.866350087
307.700709074
309.512005957
311.298094771
313.057026019
314.787043224
316.486577591
318.154241359
319.788820047
321.389263641
322.954676931
324.484309292
325.97754417
327.433888534
328.852962452
330.234488879
331.578283641
332.884245643
334.152347254
335.382624998
336.575170613
337.730122735
338.847659346
339.927991279
340.971356912
341.978018268
342.948258539
343.882381114
344.780709952
345.643591187
346.471395654
347.264522049
348.02340033
348.748495018
349.440308008
350.099380635
350.726294718
351.32167249
351.886175314
352.42050125
352.92538157
353.401576393
353.849869635
354.271063503
354.665972714
355.035418609
355.380223295
355.701203887
355.999166917
356.274902952
356.529181449
356.762745874
356.976309125
357.170549271
357.346105638
357.503575242
357.643509598
357.766411883
357.872734439
357.962876614
358.03718309
358.095942221
358.139383804
358.167616019
358.181326603
256.250438466
256.460660869
256.885850006
257.522052478
258.350828284
259.352022392
260.504554037
261.787869338
263.182982561
264.673086176
266.243775628
267.882980537
269.580709333
271.328705113
273.120086195
274.949017271
276.810433571
278.699823296
280.613062926
282.546294648
284.495834142
286.458099046
288.429553098
290.406666345
292.38589612
294.36369384
296.336535528
298.300968303
300.253657596
302.191432743
304.111316645
306.010536064
307.886527459
309.736939459
311.559633929
313.35268454
315.114371948
316.843176815
318.537771829
320.197012747
321.819928163
323.405708298
324.953693212
326.463360797
327.934314913
329.366273866
330.75905926
332.112585146
333.426847377
334.701913094
335.937910401
337.135018387
338.293457727
339.41348218
340.495371267
341.539424429
342.545956862
343.515297189
344.447786971
345.343781981
346.203655002
347.027799838
347.816636082
348.570614206
349.290220434
349.975980988
350.628465275
351.24828777
351.836108374
352.39263125
352.918602141
353.414804395
353.882053892
354.321193188
354.733085158
355.118606405
355.478640633
355.814072123
356.125779416
356.414629212
356.681470543
356.927129219
357.152402592
357.358054643
357.544811454
357.713357051
357.864329664
357.998318389
358.11586025
358.217437661
358.303476253
358.374343
358.430344847
358.471726572
358.498610114
358.511662567
253.870067737
254.110767106
254.595751637
255.317448511
256.251143898
257.370325248
258.648039803
260.058815528
261.579929383
263.192037762
264.879265891
266.628913713
268.43095078
270.277446164
272.162031079
274.07944575
276.025187139
277.995252023
279.985957836
281.993819243
284.015459062
286.047537244
288.086689939
290.129481375
292.172380105
294.211774394
296.24402407
298.26553678
300.272843735
302.262665719
304.231950165
306.177875676
308.097851907
309.989518614
311.850747072
313.679638742
315.474518194
317.233923515
318.956596849
320.641474376
322.287674444
323.894484419
325.461346984
326.987846307
328.473694659
329.918719751
331.322852707
332.686116465
334.008614328
335.290518497
336.532058593
337.733510373
338.895185
340.01741926
341.100567169
342.144993352
343.151068521
344.11916723
345.049668003
345.942955694
346.799425839
347.619490533
348.403585313
349.152176373
349.865767505
350.544906115
351.190187862
351.802259506
352.381819791
352.9296183
353.446452395
353.933162498
354.39062604
354.81975051
355.221465997
355.596717581
355.946457816
356.271639479
356.573208612
356.852097909
357.109220405
357.345463499
357.561683318
357.758699461
357.937290158
358.098187882
358.242075406
358.369582347
358.481282144
358.57768946
358.659257974
358.726378707
358.779378371
358.818517284
358.84393262
358.856268819
251.228414891
251.508756787
252.070700852
252.900894602
253.965535664
255.229300544
256.657453819
258.218330568
259.884818007
261.634912664
263.451526713
265.32180437
267.236225497
269.187711593
271.170856676
273.181330428
275.215452799
277.269913537
279.341599477
281.427490616
283.52458988
285.629860112
287.740155931
289.852157064
291.962328545
294.066946376
296.162182559
298.244230301
300.309426759
302.354349507
304.375857641
306.371081376
308.337404054
310.27245596
312.174119636
314.040530912
315.870067405
317.661334173
319.413153055
321.124552446
322.794753468
324.42315424
326.009313789
327.5529359
329.053853927
330.512017062
331.927477614
333.300378887
334.630943105
335.91945896
337.166268791
338.371755676
339.536330946
340.660422724
341.744466068
342.788895281
343.794138807
344.76061705
345.688743189
346.578926923
347.431580777
348.24712842
349.026014246
349.768713392
350.475741291
351.147662004
351.785094625
352.388717338
352.959268841
353.497547143
354.004405871
354.48074847
354.927520783
355.345702608
355.736298797
356.100330376
356.438825997
356.752813861
357.043314138
357.311331807
357.557849883
357.783822975
357.990171233
358.177774696
358.347468138
358.500036397
358.636210266
358.756662903
358.862006746
358.952790926
359.029499099
359.092547615
359.142284224
359.178986133
359.202806205
359.214364071
248.283033031
248.616295746
249.279471504
250.249764286
251.480003176
252.922632605
254.532650333
256.270695216
258.104667335
260.010040339
261.969138388
263.969800974
266.003886128
268.065927035
270.152078164
272.259370646
274.385236799
276.527241256
278.682952307
280.849891557
283.02550782
285.20713376
287.391904105
289.576647424
291.757800457
293.931446436
296.093452378
298.23967666
300.366176471
302.469346479
304.545953635
306.593095574
308.608135589
310.588691891
312.532658724
314.438216301
316.303808465
318.128118379
319.910058481
321.648763005
323.343571289
324.994008184
326.599765035
328.160680336
329.676722341
331.147974538
332.574622662
333.956942544
335.295287782
336.590076321
337.84177602
339.050889622
340.217939965
341.343456238
342.427962144
343.471966689
344.475958232
345.440402219
346.365742839
347.252408454
348.100820441
348.911404643
349.684604512
350.420894735
351.120794233
351.784877401
352.413782787
353.008218566
353.56896457
354.096870833
354.59285294
355.057884644
355.492988514
355.899225446
356.277683859
356.629469239
356.955694392
357.257470538
357.53589913
357.79206422
358.027025221
358.241810003
358.43740836