/*--------------------------------*- C++ -*----------------------------------*\
| =========                 |                                                 |
| \\      /  F ield         | OpenFOAM: The Open Source CFD Toolbox           |
|  \\    /   O peration     | Version:  v1906                                 |
|   \\  /    A nd           | Web:      www.OpenFOAM.com                      |
|    \\/     M anipulation  |                                                 |
\*---------------------------------------------------------------------------*/
FoamFile
{
    version     2.0;
    format      ascii;
    class       volScalarField;
    location    "41";
    object      p;
}
// * * * * * * * * * * * * * * * * * * * * * * * * * * * * * * * * * * * * * //

dimensions      [0 2 -2 0 0 0 0];


internalField   nonuniform List<scalar> 
9216
(
18491.1107872
18486.0747625
18475.8051409
18460.2664025
18439.5270266
18413.6688604
18382.7940055
18347.0225562
18306.4918122
18261.3537332
18211.774261
18157.9304826
18100.0100565
18038.2082039
17972.7273491
17903.7740668
17831.559023
17756.2939756
17678.1920641
17597.4649242
17514.3233416
17428.974509
17341.6230287
17252.4683183
17161.7059301
17069.5250935
16976.1103077
16881.6390036
16786.2833616
16690.2080704
16593.572322
16496.5276434
16399.2200167
16301.7877074
16204.3638071
16107.0740097
16010.0386564
15913.3709795
15817.1794254
15721.5656263
15626.6267475
15532.4535075
15439.1325273
15346.7443806
15255.3659212
15165.0683645
15075.9195776
14987.9821959
14901.3158641
14815.9753928
14732.0129393
14649.4762108
14568.4105764
14488.8573229
14410.8556898
14334.441184
14259.647533
14186.5050626
14115.0425629
14045.2857354
13977.2589676
13910.9838532
13846.4808719
13783.7679875
13722.86223
13663.7783748
13606.530425
13551.1303744
13497.5895887
13445.9176549
13396.1236593
13348.2151259
13302.1991901
13258.081628
13215.8679239
13175.562393
13137.1691422
13100.6912855
13066.1318001
13033.4928334
13002.7764548
12973.9840544
12947.1169915
12922.1760837
12899.1621532
12878.0756053
12858.9168731
12841.6860849
12826.383407
12813.0087966
12801.5622392
12792.0435678
12784.4525646
12778.7886554
12775.0534149
12773.2209332
18496.068516
18491.0136677
18480.7182903
18465.1246328
18444.3092921
18418.3567235
18387.3705322
18351.4723924
18310.8009299
18265.5097748
18215.7662586
18161.7492257
18103.6477091
18041.6586716
17975.9857999
17906.8373048
17834.4249311
17758.9619059
17680.6622232
17599.7387911
17516.4030118
17430.8631461
17343.3241837
17253.9864174
17163.0455782
17070.6915998
16977.1089812
16882.4757132
16786.9638294
16690.7384632
16593.9585491
16496.7759843
16399.3364502
16301.7787331
16204.2352132
16106.8314734
16009.6876016
15912.9171156
15816.6279901
15720.922038
15625.8959168
15531.6405034
15438.2419034
15345.7808395
15254.3336532
15163.9717044
15074.7623574
14986.7683903
14900.0489586
14814.659015
14730.6502442
14648.0704953
14566.9646839
14487.3742374
14409.3379625
14332.8915054
14258.068182
14184.8984549
14113.4107245
14043.6308261
13975.5827796
13909.2883078
13844.7675453
13782.03858
13721.1181189
13662.0210555
13604.7610919
13549.3503332
13495.7998663
13444.1193818
13394.3177094
13346.4024683
13300.3805593
13256.2578448
13214.0395967
13173.730207
13135.333592
13098.8529335
13064.291039
13031.6501145
13000.9320808
12972.1383776
12945.2702362
12920.3285147
12897.313928
12876.2269131
12857.067817
12839.836792
12824.5339421
12811.1592483
12799.7126762
12790.1941359
12782.6035881
12776.9410371
12773.2109587
12771.3784977
18506.2075407
18501.1018035
18490.7280354
18475.016699
18454.0454839
18427.9005999
18396.687945
18360.5319151
18319.5739847
18273.9709292
18223.8932001
18169.5229526
18111.0523608
18048.6816266
17982.6173857
17913.0708297
17840.2563077
17764.3896482
17685.6870178
17604.3634874
17520.6321705
17434.7030443
17346.7823614
17257.0717121
17165.7676841
17073.0611382
16979.137081
16884.1741194
16788.3445074
16691.8137445
16594.7407598
16497.2776223
16399.5698274
16301.7561316
16203.9686312
16106.3329008
16008.968608
15911.9890995
15815.5018928
15719.6086021
15624.4053973
15529.9829307
15436.4268049
15343.817507
15252.2308743
15161.7380311
15072.4058461
14984.2968686
14897.4697742
14811.9792978
14727.8766642
14645.2095184
14564.0223383
14484.3563623
14406.2499831
14329.7386731
14254.8553583
14181.6303422
14110.0916599
14040.2650008
13972.1740437
13905.8403785
13841.2838217
13778.5223401
13717.5723452
13658.4486197
13601.1645925
13545.7322674
13492.162479
13440.4648254
13390.6479044
13342.7192508
13296.6855532
13252.5525968
13210.3254607
13170.0084664
13131.6053562
13095.1192477
13060.552793
13027.9081397
12997.1870716
12968.3909755
12941.5209638
12916.5778475
12893.5622403
12872.4745382
12853.3150053
12836.0837599
12820.7808432
12807.4062131
12795.959799
12786.4415056
12778.8512821
12773.1890267
12769.4590324
12767.621459
18521.6388927
18516.4712416
18505.9767742
18490.0842572
18468.8735277
18442.4335536
18410.8737378
18374.3225557
18332.9259226
18286.8453815
18236.2562757
18181.3457718
18122.3109732
18059.3569579
17992.6949922
17922.5407207
17849.1125906
17772.6302777
17693.3133828
17611.3801341
17527.0463732
17440.5245376
17352.0229257
17261.7449386
17169.8885935
17076.6459917
16982.2030418
16886.7391134
16790.4269306
16693.4323724
16595.9144977
16498.0254582
16399.910618
16301.7085957
16203.551138
16105.5635252
16007.8649918
15910.5684776
15813.7809667
15717.6036055
15622.1319812
15527.4562414
15433.6613828
15340.8273744
15249.0294447
15158.3382025
15068.8199189
14980.536642
14893.5464696
14807.9036571
14723.6588775
14640.8593216
14559.5489452
14479.7685602
14401.5560681
14324.9465431
14249.9724514
14176.6637261
14105.0479736
14035.1505402
13966.9947055
13900.6017423
13835.9910968
13773.1804429
13712.1858494
13653.021829
13595.7014939
13540.2365996
13486.6376891
13434.9141323
13385.0742592
13337.1253957
13291.0739855
13246.9256229
13204.6851643
13164.3567577
13125.9439441
13089.4496844
13054.8764501
13022.2262484
12991.5007028
12962.7010758
12935.8283395
12910.8831963
12887.8661396
12866.7774725
12847.6173589
12830.3858404
12815.0828789
12801.7083728
12790.262192
12780.7441948
12773.1542727
12767.4922115
12763.7621816
12761.9233802
18542.4178895
18537.1693672
18526.5108926
18510.3718164
18488.8352665
18461.9941387
18429.9626918
18392.8749875
18350.883062
18304.1549784
18252.8728124
18197.2305619
18137.4320926
18073.6890965
18006.2191691
17935.2439602
17860.9874958
17783.6746064
17703.5295506
17620.7747542
17535.6297469
17448.3102069
17359.0271915
17267.9864569
17175.3879469
17081.4253457
16986.2857792
16890.1495578
16793.1900454
16695.5735486
16597.4593141
16498.9995262
16400.3393944
16301.6172909
16202.9645057
16104.5058389
16006.3599853
15908.6392796
15811.4500253
15714.8926817
15619.062093
15524.0476747
15429.9336522
15336.7992476
15244.7189153
15153.7625245
15063.9955872
14975.479433
14888.2714281
14802.4251399
14717.9905444
14635.0141808
14553.5393462
14473.6062399
14395.2521454
14318.5115637
14243.4163838
14169.9960052
14098.2774966
14028.285709
13960.0434227
13893.5714514
13828.8887792
13766.012655
13704.9587205
13645.7410963
13588.3725001
13532.8643265
13479.2267552
13427.4688245
13377.5985307
13329.6228959
13283.5480587
13239.3793361
13197.1213067
13156.7778667
13118.3523056
13081.8473569
13047.2652666
13014.6078386
12983.8764957
12955.0723205
12928.1961091
12903.2484072
12880.2295567
12859.1397269
12839.9789544
12822.7471699
12807.4442319
12794.06995
12782.6241125
12773.1065029
12765.5169381
12759.8551086
12756.1251104
12754.2860322
18568.6279998
18563.2771672
18552.4095812
18535.9557572
18514.0032752
18486.6502626
18454.0173403
18416.2458346
18373.4957314
18325.9435277
18273.7800018
18217.2079432
18156.439913
18091.6960653
18023.2020858
17951.187257
17875.8826918
17797.5197251
17716.3284938
17632.5366791
17546.3684332
17458.0434556
17367.7762352
17275.7754199
17182.243327
17087.3755549
16991.3607107
16894.3802119
16796.6081815
16698.2113938
16599.3492926
16500.1740417
16400.8306314
16301.4570521
16202.1840138
16103.1356792
16004.430033
15906.1786161
15808.4868715
15711.4543645
15615.1750053
15519.7372643
15425.2244018
15331.7146807
15239.2815907
15147.9940533
15057.9166372
14969.1097542
14881.6298627
14795.5296524
14710.8582364
14627.6613228
14545.981395
14465.8578713
14387.3272722
14310.4233688
14235.177338
14161.6178993
14089.7714592
14019.6622373
13951.3123993
13884.7421739
13819.9699759
13757.0125134
13695.8849016
13636.6007619
13579.1723266
13523.6105299
13469.9251046
13418.124666
13368.2168004
13320.2081418
13274.1044537
13229.9106992
13187.6311151
13147.2692761
13108.8281624
13072.3102176
13037.7174097
13005.051283
12974.3130134
12945.5034539
12918.6231837
12893.6725485
12870.651703
12849.5606458
12830.3992556
12813.1673214
12797.8645726
12784.4907041
12773.0454013
12763.5283569
12755.9393041
12750.2778491
12746.5480504
12744.7090642
18600.374596
18594.8981869
18583.7736608
18566.9329584
18544.4693161
18516.4875248
18483.1162502
18444.5059624
18400.8266248
18352.2652818
18299.0235663
18241.3151899
18179.3634846
18113.3990403
18043.6574876
17970.3774471
17893.7986722
17814.1603879
17731.699836
17646.6510145
17559.2436105
17469.7021075
17378.24506
17285.0845129
17190.4255583
17094.4660053
16997.3961565
16899.3986697
16800.6484993
16701.3128972
16601.5514725
16501.5162893
16401.3520164
16301.1961053
16201.1785375
16101.4226677
16002.0455759
15903.1578082
15804.8637458
15707.2618472
15610.4448799
15514.5001538
15419.5097563
15325.5507788
15232.6955431
15141.0118183
15050.5630352
14961.4084917
14873.6035542
14787.1998498
14702.2454549
14618.7850733
14536.8602122
14456.509347
14377.7680841
14300.6693139
14225.2433608
14151.5181248
14079.5192198
14009.2701042
13940.7922091
13874.1050579
13809.2263852
13746.1722467
13684.9571293
13625.5940518
13568.0946668
13512.4693535
13458.7273109
13406.8766439
13356.9244488
13308.8768919
13262.7392884
13218.5161741
13176.2113776
13135.8280857
13097.3689087
13060.8359403
13026.230816
12993.5547673
12962.808674
12933.9931126
12907.1084023
12882.1546476
12859.1317787
12838.0395882
12818.8777655
12801.6459278
12786.3436495
12772.9704874
12761.5260047
12752.0097862
12744.421474
12738.7605945
12735.0311706
12733.1924554
18637.786888
18632.1598114
18620.7270859
18603.4223466
18580.3458175
18551.6105683
18517.3552172
18477.7415078
18432.951664
18383.1856422
18328.6583131
18269.596653
18206.2370182
18138.8225599
18067.6008233
17992.8215603
17914.734774
17833.5889984
17749.6298145
17663.0985909
17574.2314368
17483.258349
17390.4025363
17295.8799003
17199.8986551
17102.6590657
17004.3532912
16905.1653133
16805.2709395
16704.8378658
16604.0257902
16502.9865613
16401.8643874
16300.795988
16199.910444
16099.3301098
15999.1709407
15899.542269
15800.5471933
15702.2828401
15604.8406111
15508.306432
15412.7609979
15318.2800114
15224.9344155
15132.7906186
15041.9107132
14952.3526863
14864.1706238
14777.4149053
14692.1323938
14608.3666166
14526.1579399
14445.543736
14366.5585447
14289.2342267
14213.6001126
14139.6831449
14067.5080141
13997.0972902
13928.4715483
13861.6494888
13796.648054
13733.482539
13672.1666981
13612.7128479
13555.1319656
13499.4337827
13445.6268766
13393.7187569
13343.7159489
13295.6240731
13249.4479223
13205.1915338
13162.8582603
13122.4508357
13083.9714394
13047.4217561
13012.8030341
12980.1161391
12949.3616061
12920.5396879
12893.6504007
12868.6935672
12845.6688556
12824.5758175
12805.4139212
12788.1825833
12772.8811972
12759.5091586
12748.0658886
12738.5508508
12730.9635846
12725.3035282
12721.5746681
12719.7363502
18681.0196873
18675.2147419
18663.4183393
18645.5661645
18621.7669654
18592.1439538
18556.8479006
18516.0542697
18469.9601504
18418.7810881
18362.7478638
18302.1033172
18237.0993014
18167.9938309
18095.048471
18018.5259956
17938.6883265
17855.7947552
17770.1004389
17681.8551521
17591.3022769
17498.6780051
17404.2107315
17308.120612
17210.6192642
17111.9095902
17012.1857008
16911.6329245
16810.4278848
16708.7386342
16606.724832
16504.5379512
16402.3215608
16300.2114104
16198.3354832
16096.8149109
15995.7642778
15895.2914621
15795.4980389
15696.4795621
15598.3258295
15501.1211476
15404.9445896
15309.8702444
15215.9674578
15123.3010649
15031.9316142
14941.9155829
14853.3055837
14766.1505632
14680.4959927
14596.3840503
14513.8537958
14432.941339
14353.6799994
14276.1004609
14200.2309188
14126.0972214
14053.7230055
13983.1298265
13914.3372827
13847.3631353
13782.2234231
13718.9325723
13657.5035028
13597.9477291
13540.2754581
13484.4956824
13430.6162704
13378.6440517
13328.5849006
13280.4438143
13234.2249894
13189.9318941
13147.5673379
13107.1335373
13068.6321796
13032.0644825
12997.4312519
12964.7329354
12933.9696742
12905.1413511
12878.2476362
12853.2880294
12830.2619001
12809.1685238
12790.0071163
12772.7768647
12757.4769556
12744.1066011
12732.6650615
12723.1516612
12715.5658259
12709.9068998
12706.1788186
12704.3410144
18730.2555008
18724.2429592
18712.0222511
18693.5316062
18668.8901014
18638.2332816
18601.7266462
18559.5622272
18511.9549878
18459.139127
18401.3643617
18338.8923039
18271.9930338
18200.9419375
18126.0168584
18047.4955863
17965.6536912
17880.7626935
17793.088554
17702.8904561
17610.4198532
17515.9197492
17419.6241823
17321.7578816
17222.5360698
17122.1643872
17020.8389146
16918.7462762
16816.0638054
16712.9597602
16609.5935754
16506.1161358
16402.6701497
16299.3901095
16196.4026698
16093.827484
15991.7774908
15890.3588505
15789.6713528
15689.8087198
15590.8588922
15492.90431
15396.0221839
15300.2847557
15205.7595482
15112.5096053
15020.5937214
14930.0666612
14840.9793697
14753.3791734
14667.3099716
14582.8124206
14499.9241084
14418.6797224
14339.1112096
14261.2479299
14185.1168027
14110.7424469
14038.1473157
13967.351825
13898.3744771
13831.2319785
13765.9393539
13702.5100549
13640.9560643
13581.2879968
13523.5151949
13467.6458218
13413.6869499
13361.6446459
13311.5240529
13263.3294683
13217.0644194
13172.731735
13130.3336143
13089.8716928
13051.3471047
13014.7605431
12980.1123162
12947.402402
12916.6304987
12887.7960733
12860.8984064
12835.9366351
12812.9097922
12791.8168431
12772.6567193
12755.4283496
12740.1306887
12726.762742
12715.323589
12705.8124007
12698.2284748
12692.5710466
12688.8439973
12687.0068374
18785.7070381
18779.4541146
18766.7422202
18747.5127881
18721.8973844
18690.0464992
18652.1434155
18608.400088
18559.0528668
18504.3581452
18444.5880311
18380.026187
18310.963952
18237.6968244
18160.5213502
18079.7324356
17995.6210812
17908.4725173
17818.5647098
17726.1672
17631.5402383
17534.9341714
17436.5890436
17336.7343784
17235.5891065
17133.3616116
17030.2498711
16926.4416683
16822.1148602
16717.4376857
16612.5691025
16507.6591339
16402.8493609
16298.272695
16194.0541602
16090.3116535
15987.1561656
15884.6918474
15783.0164186
15682.2214918
15582.3928806
15483.6108978
15385.9506399
15289.4822593
15194.271223
15100.3785599
15007.8610957
14916.7716769
14827.1593841
14739.0697344
14652.5448751
14567.6237671
14484.3423609
14402.733763
14322.8283957
14244.6541492
14168.2365271
14093.5987852
14020.7620643
13949.7455176
13880.5664326
13813.2403478
13747.7811644
13684.2012542
13622.5115625
13562.721707
13504.8400729
13448.8739043
13394.8293919
13342.711757
13292.5253323
13244.2736398
13197.9594647
13153.5849268
13111.1515489
13070.6603215
13032.1117658
12995.5059923
12960.8427577
12928.1215181
12897.3414803
12868.5016493
12841.6008736
12816.6378872
12793.6113493
12772.5198805
12753.3620968
12736.1366403
12720.8422075
12707.4775751
12696.0416229
12686.5333492
12678.951911
12673.2964276
12669.5707096
12667.7343424
18847.6202379
18841.0904486
18827.8129009
18807.7331167
18780.997759
18747.775418
18708.2708265
18662.7198557
18611.3843839
18554.5471243
18492.5065488
18425.5720828
18354.0597026
18278.2880171
18198.5748738
18115.234497
18028.5751394
17938.8972095
17846.4918285
17751.6397644
17654.6106897
17555.6627104
17455.0421209
17352.9833394
17249.7089886
17145.4300876
17040.3463293
16934.6464202
16828.5084635
16722.1003711
16615.5802942
16509.0970444
16402.7907908
16296.792505
16191.2251307
16086.2045608
15981.8395012
15878.2317705
15775.4767084
15673.6635198
15572.8756049
15473.1908746
15374.6820486
15277.4169384
15181.4587151
15086.8661635
14993.6939219
14901.9927101
14811.8095451
14723.187945
14636.1681235
14550.7871735
14467.0792423
14385.0756978
14304.8052865
14226.2942845
14149.5666413
14074.6441169
14001.5464129
13930.291298
13860.8947281
13793.3709612
13727.7326675
13663.9910355
13602.1558732
13542.235706
13484.2378697
13428.1686013
13374.0331246
13321.8357341
13271.5798742
13223.2682159
13176.9027306
13132.4847603
13090.0150853
13049.4939886
13010.921318
12974.2965444
12939.6188186
12906.8870239
12876.0998268
12847.2557251
12820.3530919
12795.3902185
12772.3653531
12751.2767376
12732.1226408
12714.9013896
12699.6113973
12686.2511886
12674.8194229
12665.3149121
12657.7366565
12652.0836441
12648.3596112
12646.5242136
18916.2779194
18909.4302938
18895.5034326
18874.4481054
18846.4292643
18811.6374499
18770.3032923
18722.6913807
18669.0940454
18609.8251616
18545.2141576
18475.6004426
18401.3283984
18322.7430194
18240.1862285
18153.9938556
18064.4932396
17972.0013916
17876.8236512
17779.2527652
17679.5683168
17578.0364436
17474.909784
17370.4276044
17264.8160618
17158.288569
17051.0462301
16943.2783253
16835.1628242
16726.8669139
16618.5475277
16510.3518482
16402.4182803
16294.8754158
16187.8436453
16081.4365716
15975.7602479
15870.9138042
15766.9898648
15664.0749081
15562.2496178
15461.5892145
15362.1637672
15264.0384866
15167.2740012
15071.9266173
14978.0485637
14885.6882222
14794.8903457
14705.6962627
14618.1440721
14532.2688261
14448.1027048
14365.6751804
14285.0131743
14206.1412056
14129.0815331
14053.8542904
13980.4776147
13908.9677703
13839.3392664
13771.60497
13705.7762145
13641.862903
13579.8736084
13519.8156694
13461.6952823
13405.5175892
13351.2867641
13299.0060938
13248.678057
13200.3043998
13153.8862086
13109.4239792
13066.9176842
13026.3668367
12987.7705515
12951.1276036
12916.4364836
12883.695451
12852.9025842
12824.0558276
12797.153037
12772.1920207
12749.1705793
12728.0865414
12708.9377977
12691.7223314
12676.4382465
12663.0837937
12651.6573929
12642.1576492
12634.5833942
12628.9334771
12625.211544
12623.3773195
18992.0041877
18984.7923164
18970.1213093
18947.94872
18918.4617262
18881.8775716
18838.4582327
18788.5028424
18732.3400837
18670.3207099
18602.8104371
18530.1834635
18452.816776
18371.0853172
18285.3580193
18195.9946611
18103.343474
18007.7394053
17909.5029419
17808.9393976
17706.3385771
17601.9747354
17496.106766
17388.9785591
17280.8194821
17171.8449446
17062.2570162
16952.2450745
16841.9864634
16731.6471495
16621.3823609
16511.337239
16401.6476407
16292.4395295
16183.8304875
16075.9311809
15968.8446512
15862.666972
15757.4876954
15653.3902354
15550.4522401
15448.7459388
15348.3384652
15249.2921614
15151.6648603
15055.5101513
14960.8776281
14867.813122
14776.3589201
14686.5539708
14598.4340773
14512.0320799
14427.3780283
14344.4993443
14263.4209764
14184.165546
14106.7534868
14031.2031776
13957.5310682
13885.7518007
13815.8783247
13747.9220079
13681.8927424
13617.7990462
13555.6481609
13495.4461458
13437.1979683
13380.9075907
13326.578054
13274.2115583
13223.8095404
13175.3727481
13128.9013124
13084.3948156
13041.8523579
13001.2726206
12962.6539266
12925.9942984
12891.2915134
12858.5431563
12827.746669
12798.8993982
12771.998639
12747.0416777
12724.02583
12702.9484775
12683.8071012
12666.5993123
12651.3228803
12637.9757584
12626.5561065
12617.0623092
12609.4930131
12603.8469125
12600.1275608
12598.2947492
19075.1697539
19067.5406054
19052.0170173
19028.5653352
18997.3998775
18958.7705159
18912.9773173
18860.3610893
18801.2939875
18736.1704266
18665.3986136
18589.3930059
18508.5678571
18423.3319016
18334.0841429
18241.2106561
18145.0822829
18046.0530866
17944.459432
17840.6195671
17734.8335956
17627.3837453
17518.5348518
17408.5349947
17297.6162326
17185.9953986
17073.8749227
16961.4436615
16848.8777148
16736.3412219
16623.9871169
16511.9579737
16400.3864284
16289.3953973
16179.0991719
16069.6049804
15961.0124288
15853.4141312
15746.896185
15641.5385828
15537.4156024
15434.5961677
15333.1441841
15233.1188497
15134.574944
15037.5630974
14942.1300413
14848.3188423
14756.1691207
14665.7172545
14576.9965722
14490.0375321
14404.8678928
14321.5128731
14239.9953034
14160.3357692
14082.5527475
14006.662736
13932.6803772
13860.6185754
13790.4886103
13722.300244
13656.0618257
13591.7803897
13529.4617523
13469.1106027
13410.7305919
13354.3244181
13299.8939082
13247.4400976
13196.9633059
13148.4632106
13101.9389176
13057.389029
13014.8117087
12974.204745
12935.5656102
12898.8915187
12864.1794812
12831.4263574
12800.6289052
12771.7838279
12744.8878185
12719.937601
12696.9299698
12675.8618253
12656.7302078
12639.5323279
12624.2655948
12610.927642
12599.5163504
12590.0298635
12582.4666304
12576.8251842
12573.1089688
12571.277842
19166.1983713
19158.0908428
19141.5895954
19116.6724193
19083.5869573
19042.6231791
18994.1276726
18938.4917227
18876.1396063
18807.5174783
18733.0832609
18653.2978785
18568.6179891
18479.4902114
18386.3467472
18289.6022406
18189.6516873
18086.8692053
17981.6074906
17874.1977976
17764.9503118
17654.1548032
17542.0814688
17428.9818962
17315.0900931
17200.6235424
17085.784253
16970.7597868
16855.7242451
16740.8392105
16626.2546185
16512.1098737
16398.5338898
16285.6456576
16173.5557985
16062.3675965
15952.1767502
15843.07198
15735.1355246
15628.4435794
15523.0667025
15419.0701886
15316.514413
15215.455149
15115.9438611
15018.0279764
14921.7511358
14827.1534277
14734.2716048
14643.139287
14553.7871503
14466.2431042
14380.532458
14296.6780777
14214.7005336
14134.6182405
14056.4475896
13980.2030753
13905.8974147
13833.5416624
13763.1453199
13694.7164407
13628.261731
13563.7866463
13501.2954849
13440.7914771
13382.2768719
13325.7530207
13271.2204569
13218.6789743
13168.1277013
13119.5651737
13072.9894039
13028.3979479
12985.7879701
12945.1563049
12906.4995163
12869.8139549
12835.0958122
12802.3411726
12771.5460624
12742.706497
12715.8185247
12690.8782682
12667.8819636
12646.8259963
12627.7069347
12610.5215604
12595.2668969
12581.9402348
12570.539155
12561.0615463
12553.5056444
12547.8698045
12544.157359
12542.3282315
19265.5746397
19256.9177517
19239.2933242
19212.6940741
19177.4088386
19133.7772083
19082.2029424
19023.1387642
18957.0716366
18884.5091016
18805.9671969
18721.9603175
18632.9931192
18539.5543745
18442.1125727
18341.1130079
18236.9760793
18130.0965467
18020.8435106
17909.5609216
17796.5684612
17682.1626651
17566.6181943
17450.1891785
17333.1105792
17215.5995344
17097.8566577
16980.0672761
16862.4025945
16745.0207773
16628.0678813
16511.6799127
16395.9809933
16281.0850464
16167.0990303
16054.1216816
15942.2442506
15831.5510942
15722.1201655
15614.0234699
15507.3274851
15402.0935432
15298.3781816
15196.2334641
15095.7072766
14996.8435979
14899.6827509
14804.2616334
14710.6139327
14618.7703246
14528.7586588
14440.6041321
14354.3294502
14269.9549803
14187.4988945
14106.9773051
14028.4043929
13951.7925293
13877.1523924
13804.4930777
13733.8222038
13665.1460148
13598.4694773
13533.7963744
13471.1293966
13410.4702286
13351.8196338
13295.1775355
13240.5430958
13187.9147913
13137.2904867
13088.6675059
13042.0427
12997.412514
12954.7730501
12914.1201289
12875.4493485
12838.7561409
12804.0358258
12771.2836623
12740.4948982
12711.664816
12684.7887774
12659.8622646
12636.8809186
12615.840576
12596.7373019
12579.5674206
12564.3275442
12551.0145979
12539.6258436
12530.1588948
12522.611761
12516.9826138
12513.2746565
12511.4478806
19373.8534896
19364.564181
19345.6457967
19317.1106027
19279.2987318
19232.6116956
19177.5240317
19114.5636659
19044.2932177
18967.2931435
18884.1473241
18795.4314416
18701.7041257
18603.5006166
18501.3285828
18395.6656903
18286.958539
18175.6226206
18062.043011
17946.5755619
17829.548411
17711.2636723
17591.9992057
17472.010394
17351.5318767
17230.7792106
17109.9504345
16989.2275302
16868.7777751
16748.7549796
16629.3006744
16510.5457614
16392.6092501
16275.600003
16159.6199801
16044.7628983
15931.115063
15818.7559875
15707.7588984
15598.1912082
15490.1149439
15383.5871361
15278.6601728
15175.3821223
15073.7970276
14973.945176
14875.8633467
14779.5850378
14685.1406766
14592.5578132
14501.8613013
14413.0734655
14326.2142583
14241.3014066
14158.3505503
14077.3753723
13998.3877223
13921.3977336
13846.4139347
13773.4433565
13702.4916337
13633.5631032
13566.660898
13501.7870385
13438.9425199
13378.1273965
13319.3408645
13262.5813402
13207.8465378
13155.1335428
13104.4388848
13055.7586065
13009.0883315
12964.4233293
12921.7585781
12881.0888253
12842.408646
12805.712499
12770.9947802
12738.249874
12707.4722021
12678.6562702
12651.7967112
12626.8883272
12603.9261282
12582.9053674
12563.8215758
12546.6705919
12531.4485908
12518.1521092
12506.7780689
12497.3237945
12489.7870534
12484.1658161
12480.4631556
12478.6391322
19491.6717229
19481.652181
19461.237712
19430.4663018
19389.7424944
19339.5458425
19280.4392619
19213.0433136
19138.0122592
19056.0132207
18967.7090913
18873.7454188
18774.7410016
18671.2816888
18563.9167838
18453.1574585
18339.4766496
18223.3099968
18105.057472
17985.0854292
17863.7288795
17741.2938464
17618.0597057
17494.2814445
17370.1917991
17246.0032508
17121.9098671
16998.0889902
16874.7027759
16751.8995736
16629.8154704
16508.5753987
16388.2922156
16269.0691391
16151.0023718
16034.1800252
15918.6829176
15804.5852168
15691.9549688
15580.8545798
15471.3412505
15363.4673676
15257.2808578
15152.825508
15050.1412572
14949.2644607
14850.2281327
14753.0621671
14657.7935415
14564.4465047
14473.0427497
14383.6015755
14296.1400366
14210.6730839
14127.2136964
14045.773006
13966.3604148
13888.9837073
13813.6491571
13740.3616286
13669.1246749
13599.9406316
13532.8107078
13467.7350732
13404.7129428
13343.7426588
13284.82177
13227.9471092
13173.1148675
13120.3206673
13069.5596325
13020.8264572
12974.1154714
12929.4207058
12886.7359536
12846.0548302
12807.3708311
12770.6773877
12735.9679203
12703.2358892
12672.4748433
12643.6784667
12616.840622
12591.9553921
12569.0171187
12548.0204384
12528.9603164
12511.8320772
12496.6314328
12483.3545089
12471.9978682
12462.5585253
12455.033993
12449.4220356
12445.7255768
12443.9047495
19619.7620429
19608.8966581
19586.7448314
19553.3787392
19509.2845413
19455.0413458
19391.3235158
19318.86651
19238.4359732
19150.8020105
19056.7191707
18956.9120257
18852.0656619
18742.8201629
18629.7681494
18513.4545364
18394.3778108
18272.9922874
18149.7109354
18024.9084811
17898.9245866
17772.0669674
17644.6143669
17516.8193382
17388.9108088
17261.0964222
17133.5646583
17006.486742
16880.0183487
16754.3010308
16629.4651338
16505.6280706
16382.8948017
16261.3630937
16141.1225736
16022.2550464
15904.8352602
15788.9315194
15674.6062242
15561.9163561
15450.9139118
15341.6462924
15234.1566532
15128.4842187
15024.6645666
14922.7298861
14822.709211
14724.6286334
14628.5114988
14534.3785848
14442.2482668
14352.1366709
14264.0578161
14178.0237473
14094.0446604
14012.1290198
13932.2836698
13854.5139405
13778.8237493
13705.2156971
13633.6911617
13564.2503875
13496.8925721
13431.61595
13368.417874
13307.2948945
13248.2428361
13191.2568724
13136.3315988
13083.4611035
13032.6390361
12983.8586751
12937.1129925
12892.3947177
12849.6963981
12809.010459
12770.3292603
12733.6451521
12698.9505276
12666.2378738
12635.49982
12606.7291843
12579.9190174
12555.0626435
12532.1536996
12511.1861715
12492.1544274
12475.053249
12459.8778598
12446.6239511
12435.2877051
12425.8658132
12418.3555171
12412.754357
12409.0651064
12407.2479737
19758.9700188
19747.1222888
19722.942713
19686.5498237
19638.5342765
19579.6040721
19510.5757086
19432.3281815
19345.7628764
19251.7720384
19151.2158412
19044.9072315
18933.6031289
18818.0004525
18698.7355828
18576.3861219
18451.4740763
18324.4698261
18195.7964349
18065.8340065
17934.9238998
17803.3726952
17671.4558528
17539.4210421
17407.4911432
17275.8669322
17144.7294737
17014.2422448
16884.5530075
16755.7955287
16628.0923611
16501.5524809
16376.2729271
16252.3445294
16129.8496963
16008.8632956
15889.4534209
15771.6819931
15655.6053008
15541.2744833
15428.7359586
15318.0318054
15209.2001041
15102.2752419
14997.2881871
14894.266736
14793.235736
14694.2172879
14597.230931
14502.2938113
14409.4208374
14318.6248235
14229.9166228
14143.3052521
14058.7980085
13976.4005792
13896.1171462
13817.9504855
13741.9020621
13667.9721214
13596.1597769
13526.4630954
13458.8791793
13393.4042467
13330.0337095
13268.7622491
13209.5838908
13152.4920763
13097.479734
13044.5393485
12993.6630278
12944.8425692
12898.0695231
12853.3352555
12810.6310086
12769.9479596
12731.2772773
12694.6101768
12659.937973
12627.2521303
12596.544312
12567.806426
12541.0306689
12516.209567
12493.3360159
12472.4033165
12453.4052086
12436.3359023
12421.1901065
12407.9630554
12396.6505317
12387.2488818
12379.7550638
12374.166389
12370.4854613
12368.6725697
19910.2742736
19897.2847898
19870.7250717
19830.7790644
19778.1728013
19713.784266
19638.6135397
19553.7201981
19460.1712509
19359.0031336
19251.1964699
19137.6613965
19019.2308556
18896.659449
18770.6259
18641.7376553
18510.5365927
18377.5051379
18243.0723525
18107.6197306
17971.4865637
17834.9748142
17698.3534824
17561.8624875
17425.7160931
17290.1059181
17155.2035771
17021.1629923
16888.1223761
16756.2066267
16625.5291455
16496.188673
16368.2742375
16241.8684629
16117.0458494
15993.8736921
15872.4128456
15752.7183274
15634.8398532
15518.8223089
15404.7061675
15292.5278579
15182.3200921
15074.1121566
14967.9301724
14863.797328
14761.7340887
14661.7583862
14563.8857899
14468.1296638
14374.5013101
14283.0101016
14193.6636045
14106.4676933
14021.4266584
13938.5433076
13857.8190628
13779.2540522
13702.8471983
13628.5963039
13556.4981338
13486.5484954
13418.7423162
13353.0737202
13289.5361023
13228.1222009
13168.8241695
13111.6336469
13056.5418252
13003.5395179
12952.6172251
12903.7651984
12856.9735037
12812.2320831
12769.530814
12728.8595684
12690.2082683
12653.566941
12618.9257715
12586.2751532