/*--------------------------------*- C++ -*----------------------------------*\
| =========                 |                                                 |
| \\      /  F ield         | OpenFOAM: The Open Source CFD Toolbox           |
|  \\    /   O peration     | Version:  v1906                                 |
|   \\  /    A nd           | Web:      www.OpenFOAM.com                      |
|    \\/     M anipulation  |                                                 |
\*---------------------------------------------------------------------------*/
FoamFile
{
    version     2.0;
    format      ascii;
    class       surfaceScalarField;
    location    "243";
    object      phia;
}
// * * * * * * * * * * * * * * * * * * * * * * * * * * * * * * * * * * * * * //

dimensions      [0 3 -1 0 0 0 0];
oriented        oriented;


internalField   nonuniform List<scalar> 
18240
(
0.00136467421478
-0.00136331682186
0.00285905447731
-0.00149272928898
0.00435251926731
-0.00149209773558
0.00582786859469
-0.00147364209043
0.00727653363547
-0.00144737393279
0.00869257737301
-0.00141429026445
0.0100691676138
-0.00137537814951
0.0114018342619
-0.00133087475752
0.0126846825202
-0.00128171966204
0.0139145804765
-0.00122807717994
0.0150866037222
-0.00117098439606
0.016198986168
-0.00111054306486
0.0172477904152
-0.00104785914969
0.0182325768024
-0.000982939236891
0.0191503419782
-0.000916918735416
0.0200018667196
-0.00084968071866
0.0207849735735
-0.000782361071192
0.0215015089112
-0.000714705179128
0.0221499821318
-0.000647830957906
0.0227331316448
-0.00058134325014
0.0232500061595
-0.000516335380186
0.0237040594666
-0.000452280252
0.0240947406446
-0.000390245866063
0.0244260585802
-0.000329586416914
0.0246977413487
-0.000271348791837
0.0249142091127
-0.000214785427094
0.0250753677377
-0.000160925013442
0.0251859272258
-0.000108933179793
0.0252458879044
-5.982349239e-05
0.0252601420429
-1.26902593097e-05
0.0252287185417
3.14664128014e-05
0.0251566018286
7.36123936887e-05
0.025043782577
0.000112772928218
0.0248952414614
0.000149963104602
0.0247108947835
0.000184214351401
0.02449566511
0.000216573231276
0.0242493609106
0.000246092005921
0.0239767818484
0.000273840039685
0.0236776052313
0.000298888962396
0.023356461707
0.000322318744181
0.0230128855057
0.000343220263159
0.0226513006191
0.000362671989049
0.0222710960035
0.000379785829921
0.0218764646303
0.000395629105136
0.0214666555856
0.000409335312655
0.0210456127838
0.000421950772784
0.0206124575395
0.000432632637531
0.0201708775851
0.000442398800283
0.0197198833863
0.000450430831899
0.0192629037436
0.000457710702416
0.0187988593757
0.000463446443439
0.0183309258829
0.000468578897185
0.0178579577947
0.000472343430954
0.0173828854919
0.000475634654643
0.0169045225968
0.000477717428336
0.0164255678062
0.000479437251662
0.015944818933
0.000480089793205
0.0154647561031
0.000480468860698
0.0149841852673
0.000479903543087
0.0145053832934
0.00047913543794
0.0140271851563
0.000477529001295
0.01355167672
0.000475773394203
0.0130777390449
0.000473271404664
0.0126072786813
0.000470661161651
0.0121392347121
0.00046738593368
0.011675341557
0.000464034235501
0.0112146031641
0.000460092420053
0.0107585873152
0.000456101794619
0.0103063643364
0.000451593259618
0.00985933675489
0.0004470629361
0.00941663847546
0.000442087618866
0.008979507151
0.000437120626716
0.00854713388859
0.000431784662357
0.00812058960424
0.000426491951333
0.0076991142991
0.000420910711072
0.00728361097313
0.000415413726517
0.00687335944325
0.000409713139837
0.00646909363378
0.000404143197255
0.00607012503425
0.000398458012499
0.00567701967097
0.000392953894107
0.00528911466337
0.000387424100092
0.0049068114085
0.000382126724
0.00452947059157
0.000376890815226
0.00415733717459
0.000371934731065
0.00378980051349
0.000367117738094
0.00342696831196
0.000362612538555
0.00306828442936
0.000358294191925
0.00271378002017
0.000354263986889
0.00236306560563
0.000350351205275
0.00201636390933
0.000346445583646
0.00167405634786
0.00034197603237
0.00133806712745
0.000335728589667
0.00101400041389
0.000323788568079
0.000719754021932
0.000293985554331
0.00041397481636
0.000305413270266
0.000413757537992
0.00150861133531
-0.00287043466753
0.00319295812146
-0.0031754189828
0.00486843243548
-0.00316600112761
0.00652058405334
-0.0031241317408
0.00814183823947
-0.0030670851944
0.00972564852697
-0.00299644026078
0.0112651581055
-0.00291337898892
0.0127547472884
-0.0028188114131
0.0141885835115
-0.00271408909561
0.0155623599405
-0.00260021723971
0.0168714676491
-0.00247867458577
0.0181130032227
-0.00235046726962
0.0192836087979
-0.00221710430757
0.0203817501653
-0.00207950320787
0.0214052495227
-0.00193912138488
0.0223538247288
-0.00179672108061
0.0232263414856
-0.00165365148818
0.0240236013437
-0.00151048080957
0.0247453421828
-0.00136842076081
0.0253932590884
-0.00122783360666
0.0259677823011
-0.00108978750146
0.0264713122062
-0.0009544474448
0.0269048030594
-0.00082274837546
0.0272711898052
-0.000694679338999
0.0275718037213
-0.000571059748968
0.0278099667081
-0.000451727776164
0.027987263715
-0.000337405537989
0.0281072783371
-0.000227803818259
0.0281717456105
-0.000123561960212
0.0281844025468
-2.42828645215e-05
0.0281470437953
6.94663830444e-05
0.028063464087
0.000158174447619
0.0279354545969
0.00024133592509
0.0277668030028
0.000319513065886
0.0275592278577
0.000392256465493
0.0273164254437
0.000460188840577
0.0270399931631
0.000522905884175
0.0267334867418
0.000581073873544
0.0263983485712
0.00063432584314
0.0260379529236
0.000683356285969
0.0256535639773
0.000727827624961
0.0252483449881
0.000768448339387
0.0248233697448
0.000804903038961
0.0243815721776
0.00083790139468
0.0239238326828
0.000867144267068
0.0234528466349
0.000893331473885
0.0229693061293
0.00091617505613
0.0224756673662
0.000936355464871
0.0219724455537
0.000953591914989
0.0214618636091
0.000968537582005
0.0209442767054
0.000980915567389
0.0204216864923
0.00099134534698
0.0198943087538
0.000999551698307
0.0193639397912
0.0010061156553
0.0188306793609
0.0010107624533
0.0182961375269
0.00101403168023
0.0177603221856
0.00101564921578
0.0172246769427
0.00101611207965
0.0166891414118
0.00101514825797
0.0161550122567
0.00101321288746
0.0156221818728
0.00101003891495
0.0150918168887
0.00100604190073
0.0145637798752
0.0010009635693
0.014039121235
0.000995183462528
0.013517686212
0.000988456593834
0.0130004182396
0.000981130789193
0.0124871525972
0.00097297890936
0.011978730957
0.000964321586264
0.0114749808187
0.00095495370777
0.0109766429978
0.000945172885167
0.0104835350901
0.000934799268651
0.00999629511639
0.00092411087652
0.00951472532529
0.000912955147716
0.00903935677452
0.000901592835174
0.00856996913612
0.000889899253281
0.00810698193977
0.000878119032303
0.0076501446438
0.000866154553159
0.00719976108825
0.000854234202729
0.00675554399503
0.000842285309645
0.00631767936133
0.000830518755028
0.00588583897245
0.000818883515285
0.00546009144906
0.000807570384678
0.00504006706681
0.000796545272129
0.00462572179619
0.000785974294826
0.00421664903484
0.000775832505111
0.00381270315622
0.000766251223913
0.00341345349386
0.000757196641307
0.00301867240054
0.000748735632428
0.00262791686913
0.000740768191756
0.00224085904364
0.000733191841563
0.00185687645298
0.000725640181389
0.00147483958949
0.000717468532876
0.00109089606644
0.000707430677964
0.000691063214441
0.000693540119041
0.000304532234656
0.00069165691935
0.000718133684424
0.00153489196908
-0.00440380606808
0.00324033996323
-0.00487923793817
0.0049395033539
-0.00486354342574
0.00661517839135
-0.00479817228957
0.00825922942468
-0.00470953347282
0.00986458440114
-0.00460017270055
0.0114244465569
-0.0044716620421
0.0129328172363
-0.00432557913511
0.0143840600417
-0.00416378317514
0.0157734970479
-0.00398807925146
0.0170968243884
-0.00380049193954
0.0183507710995
-0.0036028754839
0.0195323844179
-0.00339725417354
0.0206397585733
-0.0031853838625
0.0216712054373
-0.00296915952632
0.022626057005
-0.00275013207012
0.0235037351773
-0.00252998247114
0.0243046303862
-0.00230999564348
0.0250290858479
-0.00209159725111
0.0256783526794
-0.0018757863981
0.0262535011746
-0.00166373000859
0.0267564505287
-0.00145615429251
0.0271888195427
-0.00125398894659
0.0275530256046
-0.00105771845794
0.0278510828411
-0.000868068791111
0.0280857626052
-0.000685319510565
0.0282593473978
-0.00051002522516
0.0283748429993
-0.000342292800125
0.028434693906
-0.000182532131334
0.0284420374769
-3.07033678483e-05
0.0283993897271
0.000112908817669
0.0283099318291
0.000248470429769
0.0281761737447
0.00037580236899
0.028001264537
0.000495174203251
0.0277876429287
0.000606499526391
0.027538362023
0.000710135294987
0.027255735721
0.000806067742435
0.026942670149
0.000894718868718
0.0266013153157
0.00097613113594
0.0262343938349
0.00105077228226
0.0258438648459
0.00111872441865
0.0254322419501
0.00118048266195
0.0250012779778
0.00123615449098
0.0245532638499
0.00128624665357
0.0240897400438
0.00133087911166
0.0236127693581
0.00137055630971
0.0231236823668
0.00140540033547
0.022624317164
0.00143590193372
0.0221158034455
0.00146217613518
0.0215997636734
0.00148469012072
0.0210771416432
0.00150354489559
0.0205493595929
0.00151917655091
0.0200171945423
0.00153166635965
0.0194818871071
0.00154141356502
0.01894406992
0.00154847654386
0.0184048239272
0.00155321467738
0.0178646608516
0.00155566212718
0.017324523905
0.00155613766932
0.0167848271759
0.00155465279991
0.0162463977726
0.00155148781896
0.0157095729906
0.0015466349939
0.0151750820787
0.00154034029187
0.0146432028918
0.00153258244111
0.0141145816863
0.00152357918863
0.0135894492596
0.00151330227449
0.0130683783642
0.00150194806722
0.0125515600747
0.00148948857252
0.0120394986945
0.00147610591273
0.0115323476581
0.00146177886561
0.0110305428625
0.00144668151923
0.0105341980081
0.00143080497058
0.0100436774929
0.00141432022373
0.00955904989914
0.00139723424853
0.00908060237437
0.00137971791442
0.00860835143288
0.00136179576329
0.00814250074148
0.00134363955599
0.00768300747885
0.00132529084417
0.00722998588449
0.00130692122396
0.00678332782344
0.00128858693062
0.00634305419825
0.0012704566258
0.00590898776455
0.00125259707496
0.00548105459715
0.00123516949412
0.00505900757087
0.0012182453955
0.00464267954169
0.00120197200158
0.00423175523574
0.00118641696901
0.00382597705169
0.00117170290308
0.00342496122373
0.00115787876654
0.00302835017484
0.00114502225378
0.00263565384537
0.00113313562956
0.00224630673552
0.00112221875043
0.0018594207185
0.00111220493774
0.00147349749269
0.00110308609624
0.0010855089585
0.00109513115792
0.000689316368651
0.0010894337278
0.000291578775714
0.00108910339664
0.00100957742605
0.00155791281407
-0.00596018679138
0.00328600502148
-0.00660568067102
0.00500798128266
-0.00658388255202
0.00670580766019
-0.0064943580057
0.00837093936454
-0.00637304024847
0.00999592139743
-0.00622353111875
0.0115738150599
-0.00604795070047
0.013098381605
-0.00584854477022
0.0145639786878
-0.00562780338385
0.0159657687777
-0.00538829915502
0.0172995470718
-0.0051327298187
0.0185619449943
-0.00486374248812
0.0197501947446
-0.00458400871869
0.0208623366521
-0.00429604263779
0.0218969311078
-0.00400231195452
0.0228532781906
-0.00370505178401
0.0237310885388
-0.00340641166356
0.0245307228202
-0.00310826551683
0.0252528321859
-0.0028123925764
0.0258986232836
-0.00252028208521
0.0264694778154
-0.00223334315381
0.0269672464562
-0.00195270147289
0.0273938539668
-0.00167943170426
0.0277516217048
-0.00141434250375
0.0280428618222
-0.00115822426723
0.028270225203
-0.000911619993202
0.0284362855848
-0.000675083370545
0.0285439079146
-0.000448935305194
0.028595823008
-0.000233529548203
0.0285950119091
-2.89973753545e-05
0.028544272636
0.000164479947584
0.02844661638
0.000346935376221
0.0283048290564
0.000518334464394
0.0281218771528
0.000678847656031
0.0279004673459
0.000828566839917
0.0276434598015
0.000967777151497
0.027353427798
0.0010966700925
0.0270330759466
0.00121561828369
0.0266848036279
0.00132488785969
0.0263111246585
0.00142491338921
0.0259142370477
0.00151601213176
0.025496441122
0.00159865735099
0.0250597177834
0.00167319642189
0.0246061419283
0.00174012082005
0.024137471274
0.0017997900681
0.0236555524754
0.00185269654337
0.0231619223487
0.00189919665913
0.0226582041484
0.00193976894564
0.0221457228474
0.00197475394465
0.0216258896416
0.00200460417065
0.0210998326622
0.00202963375741
0.0205687677733
0.00205025935506
0.0200336457809
0.00206676065961
0.0194955080371
0.00207951147213
0.0189551508987
0.002088751826
0.0184134645676
0.00209480874379
0.0178711152417
0.00209788068003
0.0173288660006
0.00209824751612
0.0167872769061
0.00209606763299
0.0162470067148
0.0020915768028
0.0157085310023
0.00208489816117
0.0151724239125
0.002076229566
0.0146390943702
0.00206566641435
0.014109047176
0.00205337708888
0.0135826372935
0.00203943854624
0.0130603100865
0.00202399942676
0.0125423737569
0.00200712813581
0.0120292187027
0.00198896329326
0.0115211081051
0.00196957406197
0.0110183768454
0.00194909768957
0.010521240323
0.00192761173619
0.0100299735129
0.00190525864594
0.00954473794673
0.00188212958768
0.00906574180836
0.00185837615428
0.00859308502237
0.00183410549229
0.00812690129682
0.001809479419
0.0076672210555
0.00178462056809
0.00721409644417
0.00175969934226
0.00676748182376
0.00173485079122
0.00632734261012
0.00171024989254
0.00589355279835
0.00168603888153
0.00546598839475
0.00166239133892
0.00504444132546
0.00163944966653
0.00462869777581
0.00161737833679
0.00421846709978
0.00159631113369
0.00381344427464
0.00157639387127
0.00341325044259
0.00155774128371
0.00301747392537
0.00154047072425
0.00262561015297
0.00152467144242
0.00223706215113
0.0015104415131
0.00185105616671
0.00149789747493
0.00146657187675
0.00148726501348
0.00108233586614
0.00147905762213
0.000697417123417
0.00147406083625
0.000318539043653
0.00146769440423
0.0013279684202
0.00158740470687
-0.00754604063897
0.00334682711916
-0.00836345616481
0.00509959016022
-0.00833498541157
0.00682701707879
-0.00822013340722
0.00852015841758
-0.00806453696841
0.0101711744155
-0.00787291079554
0.0117728713597
-0.0076480236915
0.0133187773698
-0.0073928375673
0.0148031449423
-0.00711057469517
0.0162210326615
-0.00680460534564
0.017568259318
-0.0064783965662
0.0188414573344
-0.00613539961094
0.0200379845471
-0.00577902106338
0.0211559576421
-0.00541252426238
0.0221941333101
-0.00503902644278
0.0231519319805
-0.00466141660094
0.0240292993955
-0.00428237920698
0.0248267306024
-0.00390432768201
0.0255451223408
-0.00352945256231
0.0261858060367
-0.00315966751498
0.0267503988395
-0.00279667756924
0.0272408517575
-0.00244193161163
0.0276593042457
-0.00209670353519
0.0280081494233
-0.00176204400892
0.02828989231
-0.00143886725814
0.0285072300052
-0.00112789590759
0.02866291144
-0.000829748282183
0.0287598283695
-0.000544874514099
0.0288008737735
-0.000273643526567
0.0287890403005
-1.62720250816e-05
0.0287272771636
0.000227087764413
0.028618593413
0.000456423820231
0.0284659156011
0.000671769264143
0.028272195286
0.000873284512667
0.0280402675295
0.00106116325948
0.0277729641186
0.00123570880204
0.0274729742087
0.00139724071337
0.0271429612705
0.00154617167156
0.0267854280852
0.00168291456355
0.0264028361432
0.00180795931637
0.0259974750987
0.00192178138836
0.0255715834559
0.00202491866689
0.0251272229602
0.0021178822404
0.0246663993437
0.00220123281286
0.0241909413909
0.00227549397678
0.0237026208903
0.00234122787299
0.023203036789
0.00239895128222
0.0226937335335
0.00244920988243
0.0221760901489
0.00249249718835
0.0216514364336
0.00252932726102
0.0211209474043
0.00256015688917
0.020585756629
0.0025854563748
0.0200468558328
0.00260563520611
0.0195052047447
0.00262111099651
0.0189616360915
0.00263223917162
0.0184169610713
0.0026393798144
0.0178718793287
0.00264283160614
0.0173270792982
0.00264289661407
0.0167831531468
0.00263981878407
0.0162406911196
0.00263384631005
0.0157002009449
0.00262517460267
0.0151621956228
0.00261400608297
0.0146271172304
0.00260049752399
0.014095417667
0.00258481678137
0.0135674864811
0.00256709409712
0.0130437245013
0.00254747550456
0.0125244757824
0.00252607772522
0.012010094186
0.00250303778613
0.0115008793387
0.00247847101106
0.0109971365812
0.00245251666053
0.0104991172682
0.00242529868476
0.0100070725383
0.00239696711337
0.0095211980996
0.00236766127132
0.00904168245033
0.0023375469255
0.00856865659084
0.0023067818919
0.00810223719887
0.00227554890637
0.00764248147919
0.00224402362917
0.00718942580624
0.002212403427
0.0067430460431
0.00218087793799
0.00630329192932
0.00214965388686
0.00587005288584
0.00211892838945
0.0054431883137
0.00208891004362
0.00502249875361
0.002059795201
0.00460775184348
0.0020317855191
0.00419865800858
0.00200506749446
0.00379489116269
0.00197982703091
0.00339606726031
0.00195623318865
0.00300175631584
0.00193445171363
0.00261146206078
0.00191463808941
0.00222462328688
0.00189695770148
0.00184059621024
0.0018816022558
0.00145870179616
0.00186885216603
0.00107836351555
0.00185910885466
0.000699646744497
0.00185247166783
0.00032674999452
0.00184028554579
0.00165457959615
0.00162465436536
-0.00916913063811
0.00342458539722
-0.0101617035826
0.00521693740142
-0.0101256635956
0.00698229822461
-0.00998382103651
0.0087112116452
-0.00979178742519
0.0103954040755
-0.00955544805941
0.0120273429651
-0.00927831877419
0.0136002938331
-0.00896415684862
0.0151083526376
-0.00861701736509
0.0165464865154
-0.00824113960639
0.0179105195438
-0.00784085025371
0.0191971350031
-0.00742045665054
0.0204038216817
-0.00698417462946
0.0215288500017
-0.00653604457561
0.0225711912348
-0.00607988963113
0.0235304797586
-0.00561925610287
0.0244069176386
-0.0051574021983
0.0252012342901
-0.00469726178031
0.025914587831
-0.00424146097989
0.0265485320309
-0.00379230169632
0.0271049241589
-0.00335179969501
0.0275859061364
-0.00292168079082
0.0279938241064
-0.00250343050755
0.0283312253796
-0.00209829316142
0.028600789257
-0.00170732217978
0.0288053361293
-0.00133137392071
0.0289477647303
-0.000971152132995
0.0290310677258
-0.000627193883678
0.0290582707936
-0.000299907942609
0.0290324510907
1.04444109703e-05
0.0289566764679
0.000303713495684
0.0288340250771
0.000579883778957
0.028667528048
0.000839028535693
0.0284601910642
0.0010813409097
0.0282149375431
0.00130708965636
0.0279346368388
0.00151663956762
0.0276220498919
0.00171041119405
0.0272798617843
0.00188890091227
0.0269106311162
0.00205264035038
0.0265168262127
0.00220221767105
0.0261007781617
0.00233823778613
0.0256647196962
0.00246134501068
0.0252107415384
0.00257218466057
0.0247408328951
0.00267142679212
0.0242568409278
0.00275972954193
0.0237605121025
0.00283776331581
0.0232534546814
0.00290617592126
0.0227371803447
0.00296561664216
0.0222130697639
0.00301670335484
0.0216824141671
0.00306004609403
0.0211463839513
0.00309621631315
0.0206060698201
0.00312576990198
0.0200624543065
0.00314921893056
0.0195164521058
0.00316705424939
0.018968884137
0.00317971993094
0.0184205165084
0.00318763571467
0.0178720366431
0.00319117434201
0.0173240902893
0.00319068399096
0.0167772591205
0.0031864684539
0.0162320951184
0.00317880957843
0.0156890991392
0.00316795013061
0.0151487521197
0.00315411601101
0.0146114941976
0.00313750143778
0.0140777522923
0.00311829054228
0.0135479195749
0.00309664446453
0.0130223792472
0.00307272177195
0.0125014843636
0.00304666699399
0.0119855778244
0.0030186292841
0.0114749727502
0.00298875199225
0.0109699689911
0.00295718904427
0.0104708344126
0.00292409519806
0.00997781836841
0.00288963978033
0.00949113431522
0.00285399742308
0.00901097084832
0.00281735900546
0.00853747607397
0.00277992275541
0.00807076679391
0.00274190248031
0.00761091497601
0.00270351904571
0.00715795563964
0.00266500615998
0.00671187565335
0.00262660231234
0.00627262071189
0.00258855450104
0.00584008648688
0.00255111077168
0.00541412490668
0.00251452234632
0.00499453744524
0.0024790369649
0.00458108063179
0.00244489993136
0.00417346089726
0.00241234863209
0.00377133892508
0.00238161330684
0.00337432549766
0.00235291376931
0.00298198455055
0.00232646195541
0.00259383062181
0.00230246304823
0.00220933556912
0.00228112598951
0.00182794899085
0.00226267674055
0.00144913140995
0.00224736491463
0.00107246887458
0.00223545927225
0.000698006776519
0.00222664046715
0.000328361779641
0.00220963910259
0.00198279054919
0.00167048586078
-0.0108380265579
0.00352050473573
-0.0120100369489
0.00536177685554
-0.0119652335457
0.00717390335026
-0.0117942557121
0.00894680693449
-0.0115630043614
0.0106716834172
-0.0112786474114
0.0123405861732
-0.0109455551351
0.0139464748033
-0.0105683913702
0.0154832566432
-0.0101521604686
0.0169458109287
-0.00970207212439
0.0183299754222
-0.00922341306535
0.0196325241145
-0.00872142589826
0.02085111483
-0.00820121055038
0.0219842348855
-0.00766763736643
0.023031125741
-0.00712528213759
0.0239917103976
-0.00657837471951
0.0248665087023
-0.00603076704796
0.0256565594989
-0.00548591541286
0.0263633390085
-0.00494687896027
0.0269886903489
-0.00441633074471
0.0275347553475
-0.0038965803682
0.0280039210356
-0.00338960343467
0.0283987700416
-0.00289707627473
0.0287220466127
-0.00242040902817
0.0289766225265
-0.00196077856599
0.0291654772903
-0.00151915253067
0.029291671232
-0.00109631227938
0.0293583317335
-0.000692864521509
0.0293686261525
-0.000309255801133
0.0293257492802
5.42232658656e-05
0.0292328947512
0.000397425912537
0.0290932417715
0.000720349475743
0.0289099303857
0.00102310797778
0.0286860490064
0.00130594462
0.0284246104712
0.0015692057311
0.0281285464371
0.0018133351857
0.0278006871343
0.00203885755086
0.0274437595495
0.00224636965694
0.0270603723549
0.0024365247671
0.026653017302
0.00261002463932
0.0262240584969
0.00276760562775
0.0257757362576
0.00291003206963
0.0253101597538
0.00303808454106
0.0248293127137
0.00315255468284
0.0243350483986
0.00325423513794
0.0238290969214
0.0033439156887
0.0233130620235
0.00342237429579
0.0227884300333
0.00349037430015
0.022256568004
0.00354865607952
0.021718734429
0.00359793534828
0.0211760786253
0.00363889539937
0.0206296531237
0.00367218663347
0.0200804139975
0.0036984196056
0.0195292345807
0.00371816611463
0.0189769064979
0.00373195351135
0.0184241540344
0.00374026752911
0.0178716353553
0.00374354819671
0.0173199567132
0.00374219452468
0.0167696733933
0.00373656223186
0.0162213028878
0.00372697009572
0.0156753249757
0.00371369936075
0.0151321931737
0.00369700144937
0.0145923335396
0.00367709868635
0.0140561539339
0.00365419283112
0.0135240411799
0.00362846649155
0.0129963680311
0.00360009193713
0.0124734886135
0.00356923249512
0.0119557432893
0.00353605105147
0.0114434524356
0.00350071070124
0.0109369196866
0.00346338248294
0.0104364244091
0.00342424473231
0.00994222392918
0.00338348968262
0.00945454515132
0.00334132118445
0.00897358641759
0.00329796001745
0.00849950889748
0.00325363994025
0.0080324386056
0.00320861168127
0.00757245812726
0.00316313752075
0.00711960918014
0.00311749409928
0.00667388521208
0.00307196594023
0.00623523466265
0.00302684727467
0.00580355474692
0.002982435005
0.00537869540109
0.00293902985007
0.00496045435203
0.00289692931931
0.0045485815513
0.00285642854834
0.00414277538445
0.00281781394838
0.00374268747554
0.00278136438149
0.00334792046693
0.00274734646316
0.00295803326207
0.00271601705457
0.00257254487582
0.00268762272614
0.00219094483903
0.00266240334143
0.00181270499909
0.00264059312349
0.00143732970339
0.00262243294666
0.00106440155693
0.0026081036811
0.000693729726885
0.00259700463585
0.000327214980046
0.00257584518767
0.00230986748067
0.00172567221509
-0.0125620924211
0.0036360867038
-0.0139187212407
0.00553626125923
-0.0138636885424
0.00740459855169
-0.0136608734239
0.00923022954753
-0.0133869253244
0.0110037142498
-0.0130504298529
0.0127166088773
-0.0126567578718
0.0143615206605
-0.0122116237895
0.0159321476453
-0.0117211228493
0.0174232888786
-0.0111915661257
0.0188308213018
-0.0106293185635
0.0201516578307
-0.0100406579261
0.0213836805978
-0.00943165494411
0.0225256680195
-0.00880807371525
0.0235772024355
-0.00817529700762
0.0245385819688
-0.00753826641854
0.0254107175649
-0.00690145091315
0.0261950434274
-0.00626882488218
0.0268934182857
-0.00564387694721
0.027508048446
-0.00502962214715
0.0280414075918
-0.00442864259858
0.0284961835522
-0.00384312255472
0.0288752243913
-0.00327490348266
0.0291815104111
-0.00272552285862
0.0294181223844
-0.00219626237284
0.029588229059
-0.00168817344989
0.0296950646915
-0.00120210670758
0.0297419191742
-0.000738720998558
0.0297321142371
-0.00029849796693
0.0296689901371
0.000118256336869
0.029555879206
0.000511400060461
0.0293960889967
0.000880958367597
0.0291928783103
0.00122709079807
0.0289494424386
0.00155010774428
0.028668889708
0.00185043870518
0.0283542343959
0.00212862581684
0.0280083770989
0.00238530295483
0.0276341033227
0.00262118691672
0.0272340684181
0.00283705623107
0.026810800872
0.00303374481508
0.0263666909839
0.00321212205928
0.0259039974166
0.00337308943827
0.0254248386175
0.00351756253084
0.024931201337
0.00364647005801
0.0244249341951
0.00376073779
0.0239077574152
0.00386128896077
0.0233812583832
0.00394902975474
0.0228469023265
0.00402485016918
0.0223060299817
0.0040896110027
0.021759869242
0.00414414471032
0.0212095349935
0.00418924406793
0.0206560417102
0.0042256631594
0.0201003052902
0.00425410813
0.0195431563733
0.00427523880743
0.0189853436552
0.0042896619193
0.01842754741
0.00429793396487
0.0178703835554
0.00430055712655
0.0173144166577
0.00429798381455
0.0167601638855
0.00429061520692
0.0162081066842
0.00427880757783
0.0156586938592
0.0042628731471
0.015112351176
0.00424308789889
0.0145694829878
0.00421969417907
0.0140304791946
0.00419290939235
0.0134957151449
0.00416292966635
0.0129655556848
0.0041299385649
0.0124403533738
0.00409411110624
0.0119204496751
0.00405562155677
0.0114061718108
0.00401464717699
0.0108978314808
0.00397137425197
0.0103957209055
0.00392600107937
0.00990010969731
0.00387874164417
0.00941124072472
0.00382982757396
0.00892932590633
0.0037795092216
0.00845454251621
0.00372805649564
0.00798702866567
0.00367575748525
0.00752688055029
0.00362291825832
0.00707414827648
0.00356985945447
0.00662883437325
0.00351691526641
0.00619089042735
0.00346442861333
0.00576021697308
0.00341274960789
0.00533666119573
0.00336223000093
0.00492001809868
0.00331322151018
0.00451002938372
0.00326607024772
0.0041063857309
0.00322111537431
0.00370872706259
0.00317868423836
0.00331664639145
0.00313909196151
0.00292969284775
0.00310263818778
0.00254737838466
0.00306960705549
0.00216918683669
0.00304026722283
0.00179459646513
0.0030148727582
0.00142308299715
0.00299364231606
0.00105415111309
0.00297672151887
0.00068747680166
0.00296338758117
0.000324597016383
0.00293843564136
0.00263431360359
0.00179114425196
-0.0143515995473
0.00377315569698
-0.0158989989963
0.00574308984968
-0.0158318702574
0.0076778329055
-0.0155938740898
0.00956556495833
-0.0152729192952
0.0113960765472
-0.0148792117052
0.0131603432723
-0.0144193050629
0.0148505763754
-0.0139001485639
0.01646025298
-0.0133291064908
0.0179841131728
-0.0127137500291
0.0194181152335
-0.0120616651431
0.0207593735637
-0.0113802839387
0.0220060711635
-0.0106767464253
0.0231573627002
-0.00995778883256
0.0242132664293
-0.00922965543419
0.0251745486923
-0.00849803886594
0.0260426104299
-0.00776803803121
0.0268193682115
-0.00704414802203
0.0275071510458
-0.00633026342837
0.0281085965732
-0.0056297142659
0.028626575134
-0.00494530816186
0.029064118113
-0.00427939707157
0.0294243784695
-0.00363393720741
0.0297105947207
-0.00301055760109
0.0299260795873
-0.00241060851939
0.0300742049973
-0.00183520535596
0.0301583978407
-0.00128524966411
0.0301821264292
-0.000761444897209
0.0301488876546
-0.000264298889723
0.0300621864252
0.000205872308051
0.0299255153877
0.000648940717223
0.0297423322318
0.00106496488586
0.0295160325689
0.00145416808901
0.0292499344085
0.0018169364677
0.028947258066
0.0021537996998
0.0286111101169
0.00246541069524
0.0282444736258
0.00275253062562
0.0278501965785
0.00301600712023
0.027430989355
0.00325676138675
0.0269894167372
0.00347576766506
0.0265279007515
0.00367404406063
0.0260487149487
0.00385263458903
0.0255539905093
0.00401260360168
0.0250457119353
0.00415502037411
0.0245257248514
0.00428095587714
0.02399573306
0.00439146927939
0.0234573072938
0.00448760564623
0.0229118841848
0.00457038385019
0.0223607757058
0.00464079428703
0.0218051706874
0.00469978818313
0.0212461449856
0.00474827525193
0.0206846657912
0.00478711479377
0.0201216024343
0.00481711384162
0.0195577331371
0.00483902066242
0.0189937561841
0.00485352423751
0.0184302982198
0.00486125062837
0.0178679252368
0.00486276450062
0.0173071512207
0.00485856854739
0.0167484482738
0.00484910741566
0.0161922543672
0.00483476997798
0.0156389818672
0.00481589551696
0.0150890233828
0.00479277833938
0.0145427580547
0.00476567563121
0.0140005548741
0.00473481363597
0.0134627762803
0.00470039622399
0.0129297788268
0.00466261177057
0.0124019139111
0.00462164130327
0.0118795261436
0.00457766522758
0.0113629513179
0.00453086993006
0.0108525132242
0.0044814536431
0.0103485193085
0.00442963063111
0.00985125686258
0.0043756356989
0.00936098704023
0.00431972547501
0.00887794134278
0.00426218135003
0.0084023148356
0.00420330784147
0.00793426365015
0.00414343398088
0.00747389823432
0.00408290915209
0.00702128231578
0.00402210315993
0.00657642690979
0.00396140021156
0.00613929090195
0.00390119801954
0.00570977630869
0.00384190071766
0.00528773042851
0.00378391743971
0.00487294259456
0.00372765497385
0.00446514775426
0.00367351628593
0.00406402480676
0.00362189365289
0.00366920169171
0.00357316761269
0.00328025597561
0.00352770114764
0.00289672142787
0.00348583912066
0.0025180944987
0.0034479046522
0.00214384314407
0.00341419629877
0.00177341019489
0.00338498154696
0.00140624326636
0.00336050227632
0.00104179131803
0.00334089311004
0.000679576642341
0.00332529518134
0.00032097933794
0.00329672514694
0.00295515706448
0.00186799749682
-0.0162179433402
0.0039340013736
-0.0179632209845
0.00598559865805
-0.017881695719
0.00799787509908
-0.0176043774273
0.00995783956337
-0.0172311184528
0.0118543769616
-0.0167739903515
0.0136777947715
-0.0162409725234