/*--------------------------------*- C++ -*----------------------------------*\
| =========                 |                                                 |
| \\      /  F ield         | OpenFOAM: The Open Source CFD Toolbox           |
|  \\    /   O peration     | Version:  v1906                                 |
|   \\  /    A nd           | Web:      www.OpenFOAM.com                      |
|    \\/     M anipulation  |                                                 |
\*---------------------------------------------------------------------------*/
FoamFile
{
    version     2.0;
    format      ascii;
    class       volVectorField;
    location    "858";
    object      Ua;
}
// * * * * * * * * * * * * * * * * * * * * * * * * * * * * * * * * * * * * * //

dimensions      [0 1 -1 0 0 0 0];


internalField   nonuniform List<vector> 
9216
(
(-0.00666924265791 0.00667223394701 0)
(-0.00685612890992 0.0208083024407 2.3763022532e-27)
(-0.00684204634267 0.0350242858846 -4.61586816123e-31)
(-0.00679386111045 0.0492314537615 0)
(-0.00672648088777 0.063292715769 0)
(-0.00664138400511 0.0771728970543 0)
(-0.00654006737264 0.0908326020093 0)
(-0.00642347990533 0.104235357003 0)
(-0.00629263482375 0.117347014524 0)
(-0.00614841021191 0.130135888469 0)
(-0.00599186008903 0.142572739834 0)
(-0.00582388355813 0.154630901531 0)
(-0.00564555155177 0.166286216277 0)
(-0.0054577212308 0.177517062727 0)
(-0.0052614013117 0.188304203186 0)
(-0.00505732840144 0.198630704568 0)
(-0.00484637160727 0.208481705154 0)
(-0.00462908018778 0.217844247111 0)
(-0.00440612441272 0.226706988286 0)
(-0.00417782342952 0.235059976036 0)
(-0.00394461822972 0.242894338193 0)
(-0.00370658721488 0.250202033841 0)
(-0.00346394489773 0.256975562321 0)
(-0.00321655184858 0.263207728114 0)
(-0.00296443139513 0.268891402822 0)
(-0.00270727928781 0.274019335079 0)
(-0.00244498945736 0.278583994369 0)
(-0.00217716938835 0.282577450125 0)
(-0.00190366689427 0.285991318669 0)
(-0.00162409897251 0.28881672343 0)
(-0.0013383667074 0.291044386662 0)
(-0.00104618863026 0.292664664906 0)
(-0.000747620358622 0.293667704242 0)
(-0.000442631912065 0.294043689628 0)
(-0.000131565445416 0.293783140547 0)
(0.000185264007891 0.292877192601 0)
(0.000507137025557 0.291318040699 0)
(0.000833302403365 0.289099286732 0)
(0.00116260421485 0.286216457443 0)
(0.00149382351898 0.282667365905 0)
(0.00182537626216 0.278452632775 0)
(0.00215561681017 0.273575987096 0)
(0.00248261062403 0.2680447185 0)
(0.00280438179562 0.261869862606 0)
(0.00311875051352 0.255066554755 0)
(0.00342349470583 0.247654118167 0)
(0.00371623052256 0.239656385937 0)
(0.00399445670258 0.231101823509 0)
(0.00425546309625 0.222023991403 0)
(0.00449625502828 0.21246190981 0)
(0.00471351742244 0.202460826466 0)
(0.00490349297694 0.192072911327 0)
(0.00506210793467 0.181358195203 0)
(0.00518497299731 0.170385204918 0)
(0.00526781197473 0.159231303224 0)
(0.00530671164029 0.147982224496 0)
(0.0052987623276 0.136730687321 0)
(0.00524228429704 0.125574092927 0)
(0.00513709555092 0.114611585725 0)
(0.0049842729644 0.103941325469 0)
(0.00478614004803 0.0936578117624 0)
(0.00454621674193 0.0838496202064 0)
(0.00426974279932 0.0745962652399 0)
(0.00396358443754 0.0659649314688 0)
(0.00363705605792 0.0580064160467 0)
(0.00330226623757 0.0507492406419 0)
(0.00297116359682 0.0441961149184 0)
(0.0026529970405 0.0383273141377 0)
(0.00235281006681 0.0331081135078 0)
(0.00207241248421 0.0284973362992 0)
(0.00181207489976 0.0244523269367 0)
(0.00157283820409 0.0209296679475 0)
(0.00135618304944 0.0178833484213 0)
(0.00116336537582 0.0152643554327 0)
(0.000994082761618 0.013022743476 0)
(0.000846955613063 0.0111104364777 0)
(0.000719712295112 0.00948350591714 0)
(0.000610142600086 0.00810275538 0)
(0.000516145597764 0.00693362969906 0)
(0.000435889602005 0.00594551033046 0)
(0.000367425135448 0.00511179741265 0)
(0.000308827470113 0.00440984131516 0)
(0.000258042113811 0.00382095688214 0)
(0.000211692332084 0.00333438241261 0)
(0.000163292641813 0.00289955117212 0)
(0.000142177741215 0.00261727430957 0)
(0.000133307583448 0.00233326218928 0)
(0.000115430561122 0.00208363504839 0)
(0.000111378995797 0.001872508847 0)
(0.000113974038152 0.00164623343774 0)
(0.000110024651597 0.00142734309251 0)
(0.000107118634957 0.00120508894846 0)
(0.000115610013309 0.000975625567783 0)
(0.0001267919928 0.000734633738007 0)
(0.000140572694292 0.000452282036641 0)
(0.000149660704066 0.00014521433881 0)
(-0.020838784743 0.00689603131391 0)
(-0.0220007511993 0.0221019279961 0)
(-0.0219272849136 0.0372201370954 -2.4425927001e-27)
(-0.0217413947136 0.0523418303753 0)
(-0.0214883789498 0.067296302962 0)
(-0.0211733313765 0.0820541460693 0)
(-0.0207999760853 0.0965751619274 0)
(-0.0203717500604 0.110821066888 0)
(-0.0198924223706 0.124755695128 0)
(-0.0193657203982 0.138345381524 0)
(-0.0187957226076 0.151559091557 0)
(-0.0181863211616 0.164368533583 0)
(-0.0175416445097 0.176748152091 0)
(-0.0168654445644 0.18867511048 0)
(-0.016161581037 0.200129170196 0)
(-0.0154333616804 0.211092561359 0)
(-0.0146840943209 0.221549765944 0)
(-0.0139163987039 0.231487298431 0)
(-0.013132826134 0.24089342134 0)
(-0.0123351589706 0.249757868831 0)
(-0.0115250940359 0.258071532316 0)
(-0.0107035418704 0.265826167265 0)
(-0.00987136426348 0.273014090945 0)
(-0.0090286809371 0.279627913189 0)
(-0.00817564679897 0.285660284633 0)
(-0.00731177011583 0.291103685496 0)
(-0.00643671253527 0.295950254104 0)
(-0.00554962360298 0.300191658271 0)
(-0.0046499484942 0.303819024462 0)
(-0.00373678702777 0.306822910583 0)
(-0.00280969711351 0.309193339509 0)
(-0.00186806674319 0.310919917697 0)
(-0.000911905588415 0.311992034536 0)
(5.87124627881e-05 0.312399014127 0)
(0.0010429303485 0.312130468875 0)
(0.00203964577766 0.311176631295 0)
(0.00304684949745 0.30952879803 0)
(0.00406214113708 0.307179759089 0)
(0.00508217769633 0.304124315316 0)
(0.00610317425385 0.300359735003 0)
(0.00712048872264 0.295886266354 0)
(0.00812909879041 0.290707533537 0)
(0.00912332146924 0.28483095618 0)
(0.0100972218833 0.278268012197 0)
(0.0110444213912 0.271034520704 0)
(0.0119583514065 0.263150778951 0)
(0.0128320660969 0.254641778477 0)
(0.0136582434334 0.245537363472 0)
(0.014428939408 0.235872594169 0)
(0.0151353228309 0.225688192735 0)
(0.0157674522185 0.215031309462 0)
(0.016313968854 0.203956432575 0)
(0.0167622620604 0.192526514434 0)
(0.0170986672965 0.180813968162 0)
(0.0173095764171 0.168901289814 0)
(0.0173825794241 0.156880790737 0)
(0.0173083701647 0.144853095564 0)
(0.0170818109621 0.132924308261 0)
(0.0167026280991 0.121202403366 0)
(0.016174398702 0.10979404401 0)
(0.0155045706813 0.0988019491084 0)
(0.0147038036402 0.0883230533387 0)
(0.0137885704147 0.078445147395 0)
(0.0127797497799 0.0692437463735 0)
(0.0117069561916 0.0607782173359 0)
(0.0106108112781 0.0530815808117 0)
(0.00953172010457 0.0461537012219 0)
(0.0084999691015 0.0399663598786 0)
(0.00753086496736 0.0344748499383 0)
(0.00662788756392 0.0296304382085 0)
(0.00579009200827 0.0253870513248 0)
(0.00502019847744 0.021699916268 0)
(0.00432380264612 0.0185204860604 0)
(0.00370532967313 0.0157949348242 0)
(0.00316385611593 0.0134675477495 0)
(0.00269418349913 0.0114852923321 0)
(0.00228854644821 0.00980073935809 0)
(0.00193938054764 0.00837253121867 0)
(0.00164005539441 0.00716444741124 0)
(0.00138478148203 0.00614419710305 0)
(0.00116740775115 0.00528348923124 0)
(0.00098197101478 0.00455816238881 0)
(0.000822833736921 0.00394742068928 0)
(0.000684097328768 0.00343353889781 0)
(0.000556412616442 0.00298401947619 0)
(0.000464783148035 0.00256325938727 0)
(0.000404516516814 0.00227303284948 0)
(0.000349522390297 0.00202545181721 0)
(0.000329791092819 0.00178697013658 0)
(0.00033362180847 0.00159440459515 0)
(0.000329676573492 0.00140033148817 0)
(0.000330749574081 0.0011702263639 0)
(0.000346060971085 0.000937438988633 0)
(0.000408916535267 0.000732011059435 0)
(0.000486795337411 0.000463885787236 0)
(0.000436709240736 0.000127220941287 0)
(-0.0352151678262 0.00695133931905 0)
(-0.0372003840185 0.022284647926 0)
(-0.037049632558 0.0374948734002 -2.4459667615e-27)
(-0.0367297813191 0.0527259922568 0)
(-0.0363032288473 0.0677877873918 0)
(-0.0357751095622 0.0826494620939 0)
(-0.0351502070634 0.0972698356472 0)
(-0.0344339110489 0.11161010238 0)
(-0.0336322162427 0.125633708894 0)
(-0.0327514291531 0.139306693544 0)
(-0.0317981905627 0.152597839735 0)
(-0.0307791607071 0.165478775105 0)
(-0.0297010622252 0.177923985227 0)
(-0.028570344155 0.189910775943 0)
(-0.0273932568159 0.20141916225 0)
(-0.0261755138024 0.21243171323 0)
(-0.0249224120822 0.222933335939 0)
(-0.0236385103566 0.232911026928 0)
(-0.0223278053451 0.242353581084 0)
(-0.0209934420831 0.251251285145 0)
(-0.0196379522778 0.25959559176 0)
(-0.0182630052175 0.267378798734 0)
(-0.016869705146 0.274593733925 0)
(-0.0154583822832 0.281233464536 0)
(-0.014028937202 0.287291033562 0)
(-0.0125806647935 0.29275923458 0)
(-0.0111126300153 0.297630429563 0)
(-0.00962351818647 0.301896412921 0)
(-0.00811202985164 0.305548330075 0)
(-0.00657675505601 0.308576644836 0)
(-0.00501658994118 0.310971183865 0)
(-0.00343062662138 0.312721225367 0)
(-0.00181855832345 0.313815654623 0)
(-0.000180613386883 0.3142432063 0)
(0.00148205771262 0.313992778299 0)
(0.00316746188729 0.313053798555 0)
(0.00487243176593 0.311416672686 0)
(0.00659273895942 0.309073265467 0)
(0.00832286667221 0.306017433805 0)
(0.0100561928413 0.302245549641 0)
(0.0117849017278 0.297757027254 0)
(0.0135002436034 0.292554780839 0)
(0.0151925728625 0.286645633333 0)
(0.0168516259404 0.280040605534 0)
(0.0184665929614 0.27275513267 0)
(0.0200262710177 0.264809166334 0)
(0.0215190008625 0.256227258722 0)
(0.022932512982 0.247038638018 0)
(0.0242535816872 0.237277428328 0)
(0.0254675020416 0.226983063946 0)
(0.0265575590653 0.216201058897 0)
(0.0275044824928 0.204984139113 0)
(0.0282863856215 0.193393742846 0)
(0.0288792129344 0.181501648395 0)
(0.0292583592189 0.169391279732 0)
(0.0294012072208 0.157158015639 0)
(0.0292905156707 0.144907636512 0)
(0.028917257257 0.132752667031 0)
(0.0282813547953 0.120807166534 0)
(0.0273892695657 0.109183151356 0)
(0.0262535541843 0.0979881050591 0)
(0.0248905083565 0.0873251595593 0)
(0.0233279519364 0.0772890143878 0)
(0.021597600942 0.0679642010874 0)
(0.0197490425037 0.0594244716989 0)
(0.0178608366422 0.0517109549697 0)
(0.0160112088045 0.0448161763591 0)
(0.0142558568795 0.0386940094149 0)
(0.0126181739311 0.0332806634811 0)
(0.0110962429592 0.0285160657085 0)
(0.00968174918969 0.0243541070205 0)
(0.00837887901287 0.0207552010024 0)
(0.00720144707955 0.0176721735183 0)
(0.00616004040196 0.015046427283 0)
(0.00525315019771 0.0128152689658 0)
(0.00446966522439 0.0109207865091 0)
(0.00379439497567 0.00931396351768 0)
(0.00321327256686 0.00795432128007 0)
(0.00271547680095 0.00680694819463 0)
(0.00229195528827 0.00583981238539 0)
(0.0019322667619 0.0050244914527 0)
(0.00162630136701 0.00433744265755 0)
(0.00136567352903 0.00375887196933 0)
(0.00114351983325 0.00327314947829 0)
(0.000957919735029 0.00284801398216 0)
(0.000809426873189 0.00245923793216 0)
(0.000709912113824 0.00221799852916 0)
(0.000604755030028 0.00189901976236 0)
(0.000533358639918 0.0016311413388 0)
(0.000526608577541 0.00145680679085 0)
(0.0005629806986 0.00131332158527 0)
(0.00054731202694 0.00102938227008 0)
(0.000591546908603 0.000829834934908 0)
(0.000660103148154 0.000593655882269 0)
(0.000720706713265 0.000352367234086 0)
(0.000693275078327 0.000108610977478 0)
(-0.049789036199 0.00700860739592 0)
(-0.052619534358 0.0224880698567 0)
(-0.0524038785743 0.037821866708 2.44564177981e-27)
(-0.0519472253976 0.053181818321 0)
(-0.0513389437023 0.0683687890635 0)
(-0.0505867477998 0.0833507670931 0)
(-0.0496973499539 0.0980854039226 0)
(-0.0486784386159 0.112533081614 0)
(-0.0475385432148 0.126656652127 0)
(-0.046286766558 0.140421744076 0)
(-0.0449326134349 0.153796913524 0)
(-0.0434857265455 0.166753735379 0)
(-0.0419557278812 0.17926681867 0)
(-0.0403519584699 0.191313756768 0)
(-0.0386833442096 0.202875009167 0)
(-0.0369581580002 0.213933726006 0)
(-0.0351839293332 0.224475515309 0)
(-0.0333672505182 0.234488166331 0)
(-0.0315137495584 0.24396133343 0)
(-0.0296279597994 0.252886196357 0)
(-0.0277133693857 0.26125510541 0)
(-0.0257723634482 0.269061227992 0)
(-0.0238063498753 0.276298206362 0)
(-0.0218157682553 0.282959840271 0)
(-0.0198002773436 0.289039802411 0)
(-0.0177588139463 0.294531394875 0)
(-0.0156898220303 0.299427351572 0)
(-0.0135913461932 0.303719689798 0)
(-0.0114612893942 0.307399615849 0)
(-0.00929753552502 0.310457480026 0)
(-0.00709824192519 0.312882814768 0)
(-0.00486197380829 0.314664412653 0)
(-0.00258800945618 0.315790468018 0)
(-0.000276524633465 0.31624883456 0)
(0.00207111607838 0.31602734157 0)
(0.00445220389864 0.31511418813 0)
(0.00686244414449 0.313498420028 0)
(0.00929587520862 0.31117046582 0)
(0.0117447508378 0.308122723176 0)
(0.0141995978059 0.304350157181 0)
(0.0166492774695 0.299850888269 0)
(0.0190812089869 0.294626717501 0)
(0.0214815987322 0.288683563066 0)
(0.0238357579364 0.282031759196 0)
(0.0261283622666 0.274686213042 0)
(0.02834365043 0.266666409003 0)
(0.0304654394479 0.257996316205 0)
(0.032476894614 0.248704266539 0)
(0.0343600130387 0.238822947639 0)
(0.036094782716 0.228389666331 0)
(0.0376581695737 0.21744709193 0)
(0.0390230708349 0.206044638478 0)
(0.0401577441909 0.194240583659 0)
(0.041026172083 0.182104748509 0)
(0.0415902281638 0.169721209262 0)
(0.0418138933744 0.157189800116 0)
(0.041669484593 0.144624909073 0)
(0.0411433347158 0.132149989935 0)
(0.0402375110197 0.119888696281 0)
(0.0389620140624 0.10796050984 0)
(0.0373357552722 0.0964781684877 0)
(0.0353758116748 0.0855540404368 0)
(0.0331244712322 0.0752914851212 0)
(0.0306130513987 0.0657879071367 0)
(0.0279063345001 0.0571496072444 0)
(0.0251438607612 0.0494383036138 0)
(0.0224624190211 0.0426310122086 0)
(0.0199522394911 0.0366446505501 0)
(0.0176386696774 0.031376830331 0)
(0.0154972353663 0.0267470254288 0)
(0.0134965122324 0.0227151759157 0)
(0.0116437832283 0.0192585512007 0)
(0.00997167169391 0.0163349184857 0)
(0.00850465892374 0.013875038756 0)
(0.00723927081472 0.0118014064571 0)
(0.00615344215531 0.0100472169656 0)
(0.00521979986921 0.00856200245872 0)
(0.00441564100151 0.00730870109203 0)
(0.00372700360421 0.00625604268979 0)
(0.00314380178456 0.00537206014175 0)
(0.0026503379333 0.00462735600415 0)
(0.00223103100197 0.00399978170692 0)
(0.0018743782591 0.00347173145259 0)
(0.00157101339075 0.00303123999875 0)
(0.00131811027515 0.00263159891938 0)
(0.00113654469839 0.0023147971239 0)
(0.000994680123963 0.00203646155068 0)
(0.000863491073804 0.00172799744639 0)
(0.000791193641038 0.00151023866253 0)
(0.000729659204458 0.00125451032568 0)
(0.000731197049039 0.00104525317841 0)
(0.000802472748386 0.000896834000007 0)
(0.000798798424759 0.000634017977372 0)
(0.000860251450452 0.000430434611859 0)
(0.000927327884233 0.000256847971706 0)
(0.000909732376559 8.38864475006e-05 0)
(-0.0645094644003 0.00708254560208 0)
(-0.0681815144774 0.0227568477099 0)
(-0.0678995075884 0.0382621516515 0)
(-0.0673027718438 0.0537960630973 0)
(-0.066507924122 0.0691513281015 0)
(-0.0655254799402 0.084294718199 0)
(-0.0643644068878 0.0991824949222 0)
(-0.0630349278266 0.113773955063 0)
(-0.0615483481457 0.128031126062 0)
(-0.0599167584474 0.141919067633 0)
(-0.0581527570367 0.15540601966 0)
(-0.0562691495244 0.168463488591 0)
(-0.0542786787511 0.181066257738 0)
(-0.0521937370337 0.193192325152 0)
(-0.0500261223056 0.204822770479 0)
(-0.0477867858833 0.215941556013 0)
(-0.0454856403607 0.226535266761 0)
(-0.0431313709974 0.236592798457 0)
(-0.0407313235674 0.24610500318 0)
(-0.0382914059561 0.255064306012 0)
(-0.0358160767546 0.263464306717 0)
(-0.0333083497271 0.271299382394 0)
(-0.030769884199 0.278564305763 0)
(-0.0282010820289 0.285253892508 0)
(-0.0256012583719 0.291362687933 0)
(-0.0229688035725 0.296884699898 0)
(-0.0203014048172 0.301813182187 0)
(-0.0175962483971 0.306140469781 0)
(-0.0148502757119 0.309857868589 0)
(-0.0120604199052 0.312955592645 0)
(-0.0092239078242 0.315422791746 0)
(-0.00633851414311 0.317247611129 0)
(-0.0034028977754 0.318417320308 0)
(-0.000416919799681 0.31891857396 0)
(0.00261802627212 0.318737736919 0)
(0.00569872474119 0.317861306869 0)
(0.00881985934191 0.316276436452 0)
(0.0119738257307 0.31397153886 0)
(0.0151506114807 0.31093695936 0)
(0.0183378126043 0.307165677659 0)
(0.0215207634446 0.302654000584 0)
(0.024682817451 0.29740218777 0)
(0.0278057337375 0.291414954737 0)
(0.0308701476591 0.284701792508 0)
(0.0338560364556 0.277277064977 0)
(0.036743083156 0.269159866913 0)
(0.0395108115074 0.26037367935 0)
(0.0421383492863 0.250945913542 0)
(0.044603723508 0.240907519615 0)
(0.046882604264 0.230292904403 0)
(0.0489465897951 0.219140494579 0)
(0.0507612359745 0.207494310728 0)
(0.0522844243772 0.195406877853 0)
(0.0534659993209 0.182943590379 0)
(0.0542500829192 0.170187869631 0)
(0.0545815736016 0.157245536803 0)
(0.054417104399 0.144244725987 0)
(0.0537374305687 0.131327719788 0)
(0.0525520995411 0.118632256009 0)
(0.0508759719063 0.106287205008 0)
(0.0487394834167 0.0944071359368 0)
(0.0461455978277 0.0831185558976 0)
(0.0431692548826 0.0725304219837 0)
(0.0398056967871 0.0627497530651 0)
(0.036112653974 0.0539585043829 0)
(0.0323475866502 0.0462698216802 0)
(0.0287481169476 0.0396269373934 0)
(0.0254561336257 0.0338722988528 0)
(0.0224851764499 0.0288274142071 0)
(0.0197488831297 0.0243754285224 0)
(0.0171559865849 0.0205019705815 0)
(0.0147263564979 0.0172314902215 0)
(0.0125385326234 0.0145340114599 0)
(0.0106485616586 0.0123148448158 0)
(0.00904505315977 0.0104647515462 0)
(0.007682927051 0.00890191676531 0)
(0.0065132870773 0.0075766809611 0)
(0.00550107792751 0.00646197202828 0)
(0.00463313967494 0.00553549290186 0)
(0.00390511923991 0.00476347589368 0)
(0.00329304348773 0.00411200368723 0)
(0.00277221207459 0.00356172553701 0)
(0.00232889683533 0.00309900102153 0)
(0.00195135435604 0.00271493267075 0)
(0.00162821624514 0.00234402927315 0)
(0.00145693937548 0.00211245769185 0)
(0.00130922759709 0.00184228754111 0)
(0.00115235864908 0.00155504661517 0)
(0.00100246854624 0.00124889008802 0)
(0.00095546786991 0.00103725969614 0)
(0.000915489057734 0.000801758891009 0)
(0.000975867082102 0.000658458386845 0)
(0.00104698254789 0.000497011550379 0)
(0.00103042853607 0.000303451510347 0)
(0.00104950670374 0.000171892593858 0)
(0.00102769106502 5.68821534371e-05 0)
(-0.0794263659358 0.00717474475421 0)
(-0.0839468112987 0.0230964010643 0)
(-0.0835951541308 0.0388211674185 0)
(-0.0828529453216 0.0545765384567 0)
(-0.0818643544385 0.0701455272922 0)
(-0.0806428521347 0.0854935176411 0)
(-0.0791999315275 0.100575107946 0)
(-0.0775486279995 0.115348240822 0)
(-0.0757033165134 0.129773896468 0)
(-0.0736793575822 0.143816408399 0)
(-0.0714927371744 0.157443614749 0)
(-0.069159698879 0.170626942421 0)
(-0.0666963871671 0.183341410087 0)
(-0.0641184950865 0.195565552406 0)
(-0.0614409372257 0.207281266544 0)
(-0.0586775415022 0.21847358502 0)
(-0.0558407842601 0.229130379457 0)
(-0.0529415627369 0.239242003921 0)
(-0.0499890311149 0.248800888626 0)
(-0.0469904912708 0.257801099354 0)
(-0.0439513607475 0.266237879731 0)
(-0.0408752008168 0.274107195861 0)
(-0.037763818802 0.28140530156 0)
(-0.0346174177054 0.288128340517 0)
(-0.0314348004895 0.294271996819 0)
(-0.0282135983016 0.299831200464 0)
(-0.0249505317333 0.304799889419 0)
(-0.0216416805577 0.309170826809 0)
(-0.018282779937 0.312935472345 0)
(-0.0148695275538 0.316083896584 0)
(-0.011397936873 0.318604792972 0)
(-0.00786467219304 0.320485507469 0)
(-0.00426746247625 0.321712148608 0)
(-0.000605525828176 0.322269842298 0)
(0.00312000669855 0.322143063835 0)
(0.00690568101606 0.321316090027 0)
(0.0107453464102 0.319773578487 0)
(0.0146298675591 0.317501262092 0)
(0.0185469495298 0.314486739291 0)
(0.0224811249317 0.31072032233 0)
(0.0264139252934 0.306195889375 0)
(0.0303242595985 0.300911666538 0)
(0.0341889827448 0.29487085416 0)
(0.037983609478 0.288082004982 0)
(0.0416830757416 0.28055907439 0)
(0.0452624024684 0.272321094261 0)
(0.0486970712654 0.263391479883 0)
(0.0519628935461 0.253797068402 0)
(0.0550351590636 0.24356709213 0)
(0.0578868979205 0.232732431608 0)
(0.0604861923435 0.221325643846 0)
(0.0627927174569 0.209382426733 0)
(0.0647540955544 0.19694534436 0)
(0.0663034554669 0.184070452858 0)
(0.0673607150089 0.170836873591 0)
(0.0678412829385 0.157356941146 0)
(0.0676753828585 0.143780892786 0)
(0.0668356959516 0.130285101571 0)
(0.0653551952874 0.117027337816 0)
(0.0632526755265 0.104147978601 0)
(0.0605914813918 0.0917478765617 0)
(0.0573077525981 0.07998387459 0)
(0.0535935236548 0.0689516654667 0)
(0.0492954176377 0.0587314194529 0)
(0.0443888607042 0.049691581546 0)
(0.0393992734451 0.0420737843252 0)
(0.0347463828895 0.0357395045331 0)
(0.0306555349749 0.0303816162946 0)
(0.0271010773421 0.0256695016013 0)
(0.0238446819553 0.021417817589 0)
(0.0206447034027 0.0176926760892 0)
(0.0175721595132 0.0146411281894 0)
(0.0148182270462 0.0122571288516 0)
(0.0125114268029 0.0103815456483 0)
(0.0106099836993 0.00883575582819 0)
(0.00901734900404 0.00751544261376 0)
(0.00764566633565 0.00638015513366 0)
(0.00644106789901 0.00542856179724 0)
(0.00540223721031 0.00466009156826 0)
(0.00455039099837 0.00403196824339 0)
(0.00384301772737 0.00349445155999 0)
(0.00323562346234 0.0030356329647 0)
(0.00271799640619 0.00265072507201 0)
(0.00227881898877 0.00232600899084 0)
(0.00190764763293 0.00200206238073 0)
(0.00172403145094 0.00178908829148 0)
(0.00153000858847 0.00150467722333 0)
(0.00140167120588 0.0012818769182 0)
(0.00130101165252 0.00105261335929 0)
(0.00123225691843 0.000836418625413 0)
(0.00109912003607 0.000584444201102 0)
(0.00108999750433 0.000418976422325 0)
(0.00117846645908 0.000325166476014 0)
(0.00117199440523 0.00021100458792 0)
(0.00114735401317 0.000113107191882 0)
(0.00112491631124 3.7256897308e-05 0)
(-0.0945857788082 0.0072867821423 0)
(-0.0999655088546 0.0235109195462 0)
(-0.0995396029079 0.0395043717208 2.46358597943e-27)
(-0.098644713444 0.0555305900645 0)
(-0.0974530382613 0.071360567418 0)
(-0.0959811921548 0.0869579914581 0)
(-0.0942434754168 0.102275438477 0)
(-0.0922560619828 0.117269198131 0)
(-0.0900367483114 0.131898967543 0)
(-0.087604524017 0.14612819242 0)
(-0.0849791274266 0.159924225592 0)
(-0.0821805967245 0.173258410374 0)
(-0.0792288273389 0.186106075781 0)
(-0.076143140203 0.198446445031 0)
(-0.0729418715263 0.210262458593 0)
(-0.0696419909048 0.221540513262 0)
(-0.0662587625852 0.232270121633 0)
(-0.062805460422 0.242443499163 0)
(-0.0592931536171 0.25205509146 0)
(-0.0557305721809 0.261101058928 0)
(-0.0521240633809 0.269578741044 0)
(-0.0484776374513 0.277486124546 0)
(-0.0447931001187 0.284821340078 0)
(-0.0410702556431 0.291582207492 0)
(-0.0373071662248 0.297765843862 0)
(-0.0335004458118 0.303368339404 0)
(-0.0296455767056 0.308384499317 0)
(-0.0257372376051 0.312807644106 0)
(-0.0217696471069 0.316629462102 0)
(-0.0177369269203 0.319839895668 0)
(-0.0136335131397 0.322427130259 0)
(-0.00945456248752 0.324377578296 0)
(-0.0051964603588 0.325675958771 0)
(-0.000857356623984 0.326305530868 0)
(0.00356228621386 0.326248424178 0)
(0.0080591410871 0.325486117327 0)
(0.0126265047482 0.324000082336 0)
(0.0172538776876 0.321772588786 0)
(0.0219266905458 0.318787650419 0)
(0.0266262379257 0.315032073872 0)
(0.0313298729747 0.310496542698 0)
(0.0360115009846 0.305176640171 0)
(0.0406423769782 0.299073687806 0)
(0.0451921613016 0.29219525801 0)
(0.0496301204925 0.284555221464 0)
(0.0539262769724 0.276173219717 0)
(0.0580522413009 0.267073526095 0)
(0.0619813854457 0.257283362675 0)
(0.0656880129765 0.246830901723 0)
(0.0691451533256 0.235743346431 0)
(0.0723207225446 0.224045771979 0)
(0.0751718814064 0.211761740806 0)
(0.0776379745058 0.1989172298 0)
(0.0796335000815 0.185549921374 0)
(0.0810450421092 0.171725502008 0)
(0.0817399246887 0.157560078457 0)
(0.0815979228204 0.143239038359 0)
(0.080574870393 0.129007425872 0)
(0.0787747811901 0.11504911879 0)
(0.0762005727126 0.101523366921 0)
(0.0730314356855 0.0884621329632 0)
(0.0689432265297 0.0761204801423 0)
(0.0645982852326 0.0645181169202 0)
(0.0593216467472 0.0535454037588 0)
(0.0527663908753 0.0440627319973 0)
(0.046155720633 0.0366276625702 0)
(0.0402303747479 0.0308834358213 0)
(0.0353542208652 0.0262273075537 0)
(0.031421626427 0.0220173526616 0)
(0.0278351368958 0.0179207302306 0)
(0.023972689656 0.0142314784884 0)
(0.0201004602415 0.0114067214062 0)
(0.0166710929975 0.00947423960646 0)
(0.0139768981849 0.00810708923749 0)
(0.0118669091901 0.00697097328974 0)
(0.0101277800781 0.00593781913805 0)
(0.00860580210411 0.00500057563595 0)
(0.00721559691242 0.00421867535613 0)
(0.00599527472821 0.00364487639438 0)
(0.00505069969134 0.00320426542877 0)
(0.00428826493586 0.00279723311269 0)
(0.0036093713674 0.00243667802457 0)
(0.00303035138356 0.00214147553805 0)
(0.002545369342 0.00188188489601 0)
(0.00217643094089 0.00163644216873 0)
(0.00197277078103 0.00142706106405 0)
(0.0017844320732 0.00119289218783 0)
(0.00161420041034 0.000956931453927 0)
(0.00151743871772 0.000757647299989 0)
(0.00139163763153 0.000554681298275 0)
(0.00133346797637 0.000403393136592 0)
(0.00121916025037 0.000240548550247 0)
(0.00121341755366 0.00015897770478 0)
(0.00124940877906 0.000113858909757 0)
(0.00120745900622 5.93558501749e-05 0)
(0.00118332262073 1.93643008303e-05 0)
(-0.110037141014 0.00741989278318 0)
(-0.116290010538 0.024004936095 0)
(-0.115784194102 0.0403186116486 -2.46320633702e-27)
(-0.114727593007 0.056667483283 0)
(-0.113321149545 0.0728079584556 0)
(-0.111584907405 0.0887016289295 0)
(-0.109536323781 0.104298625249 0)
(-0.107195109208 0.119553244297 0)
(-0.104582909969 0.134423643933 0)
(-0.101722786592 0.148872211607 0)
(-0.0986386763486 0.162865731454 0)
(-0.0953548530148 0.176375467092 0)
(-0.0918953930811 0.189377148076 0)
(-0.0882836540278 0.20185086218 0)
(-0.0845417736092 0.213780852414 0)
(-0.0806901997821 0.225155218571 0)
(-0.076747267555 0.23596552422 0)
(-0.0727288399068 0.24620631555 0)
(-0.068648034479 0.255874564491 0)
(-0.0645150530309 0.264969057298 0)
(-0.0603371281489 0.273489756431 0)
(-0.0561185890732 0.281437168982 0)
(-0.051861040215 0.28881175445 0)
(-0.0475636311463 0.295613399926 0)
(-0.0432233923084 0.301840979795 0)
(-0.0388356053411 0.307492003997 0)
(-0.0343941861969 0.312562345839 0)
(-0.029892067646 0.31704603229 0)
(-0.0253215863367 0.320935080456 0)
(-0.0206748881613 0.324219351162 0)
(-0.0159443921609 0.326886504791 0)
(-0.0111232600577 0.328921917518 0)
(-0.00620600858838 0.330308710978 0)
(-0.00118916916855 0.331027940229 0)
(0.00392800863844 0.3310589042 0)
(0.00914282727389 0.330379639668 0)
(0.0144484402147 0.328967632542 0)
(0.019833246508 0.326800750311 0)
(0.0252804583688 0.323858386189 0)
(0.0307679314947 0.320122775459 0)
(0.0362683463168 0.315580407349 0)
(0.0417498165653 0.310223410075 0)
(0.047176963271 0.304050739179 0)
(0.0525124294903 0.297068959144 0)
(0.0577187111019 0.289292387995 0)
(0.062760064915 0.280742402863 0)
(0.0676041168003 0.271445770847 0)
(0.0722227023753 0.261432025704 0)
(0.0765913797029 0.250730062224 0)
(0.08068704872 0.239364379557 0)
(0.0844829947931 0.227351672383 0)
(0.0879406251575 0.214699071896 0)
(0.0909972529595 0.201406479859 0)
(0.0935504583901 0.187477183053 0)
(0.0954429974369 0.172943105729 0)
(0.0964620490086 0.15790973477 0)
(0.0963802661272 0.142615765202 0)
(0.0951010275472 0.127461842621 0)
(0.0929480848099 0.112652895955 0)
(0.0897998764369 0.0984044784589 0)
(0.0862790892493 0.084490763932 0)
(0.0809981801927 0.0715510255283 0)
(0.0764968461985 0.0593329673136 0)
(0.0702950738254 0.0469077109261 0)
(0.0611381457204 0.0365361438251 0)
(0.0522090194209 0.0295496132029 0)
(0.0447108145084 0.0249512615353 0)
(0.0392927136552 0.0215915040941 0)
(0.0357751192342 0.0181858280709 0)
(0.032645163398 0.0140325365105 0)
(0.0279288036897 0.0100307647922 0)
(0.0226621941028 0.00739992745752 0)
(0.0180620901907 0.00616823775144 0)
(0.0149492568917 0.00559602441056 0)
(0.0127645024749 0.0049989230597 0)
(0.0109978280048 0.00426334398187 0)
(0.00939374638578 0.00347472929197 0)
(0.0077946079249 0.00282276147113 0)
(0.00633404240127 0.00249731689092 0)
(0.005365244977 0.00232544043423 0)
(0.00463746257229 0.00205329438931 0)
(0.00388805544473 0.00177772158617 0)
(0.00325423428709 0.00158440426026 0)
(0.00275049460778 0.00139503450379 0)
(0.00240281966572 0.00121898391488 0)
(0.00218613534285 0.00102864818109 0)
(0.00201902011855 0.000841082997373 0)
(0.00185052647599 0.000638616864158 0)
(0.00169631716911 0.000454117904035 0)
(0.0015358054388 0.0002902325954 0)
(0.00142334924575 0.000172028064231 0)
(0.00135794885383 9.1283027166e-05 0)
(0.00125453726056 2.98222945089e-05 0)
(0.00128863993242 1.3306962963e-05 0)
(0.00123161937238 8.74111140898e-06 0)
(0.00120253146895 1.64834341443e-06 0)
(-0.12583311416 0.00757540226189 0)
(-0.132975610712 0.0245837696011 0)
(-0.132383013563 0.0412722659361 0)
(-0.131153660592 0.0579986466509 0)
(-0.12951815564 0.0745018805423 0)
(-0.12750035943 0.0907410120471 0)
(-0.125121326696 0.106663237373 0)
(-0.122404794589 0.1222204825 0)
(-0.119376779397 0.137369086037 0)
(-0.116064947216 0.15207019684 0)
(-0.112497971981 0.166289947113 0)
(-0.108704895457 0.179999532732 0)
(-0.104714495153 0.193175190689 0)
(-0.100554664347 0.205798075113 0)
(-0.0962518097461 0.217854029071 0)
(-0.0918302783159 0.229333246318 0)
(-0.0873118313801 0.240229819854 0)
(-0.0827151919192 0.25054117909 0)
(-0.0780556942786 0.26026742847 0)
(-0.0733450654829 0.269410611913 0)
(-0.0685913589619 0.277973940516 0)
(-0.0637990486957 0.285961028745 0)
(-0.0589692724655 0.29337518676 0)
(-0.0541001953503 0.300218808398 0)
(-0.0491874495389 0.30649287877 0)
(-0.0442246039108 0.312196602723 0)
(-0.0392036245161 0.317327134496 0)
(-0.0341153089016 0.321879374093 0)
(-0.0289497016217 0.325845797217 0)
(-0.0236965212389 0.329216272994 0)
(-0.0183456577656 0.331977972402 0)