/*--------------------------------*- C++ -*----------------------------------*\
| =========                 |                                                 |
| \\      /  F ield         | OpenFOAM: The Open Source CFD Toolbox           |
|  \\    /   O peration     | Version:  v1906                                 |
|   \\  /    A nd           | Web:      www.OpenFOAM.com                      |
|    \\/     M anipulation  |                                                 |
\*---------------------------------------------------------------------------*/
FoamFile
{
    version     2.0;
    format      ascii;
    class       volVectorField;
    location    "889";
    object      Ua;
}
// * * * * * * * * * * * * * * * * * * * * * * * * * * * * * * * * * * * * * //

dimensions      [0 1 -1 0 0 0 0];


internalField   nonuniform List<vector> 
9216
(
(-0.00666605265205 0.00666993006965 0)
(-0.00685278619156 0.0208013205389 2.37547487971e-27)
(-0.00683875554885 0.0350126775336 -4.61470015991e-31)
(-0.00679058503514 0.0492152965234 0)
(-0.00672330293961 0.063272073624 0)
(-0.00663823966327 0.0771479302004 0)
(-0.00653706098674 0.0908034331246 0)
(-0.0064205252717 0.104202198094 0)
(-0.00628985524806 0.11731004252 0)
(-0.00614569925013 0.130095362239 0)
(-0.00598935812166 0.14252888538 0)
(-0.00582146493551 0.154584019135 0)
(-0.00564337180841 0.166236576212 0)
(-0.00545563749955 0.1774650003 0)
(-0.00525958232627 0.188250025988 0)
(-0.00505561557782 0.19857477622 0)
(-0.00484494495676 0.208424364724 0)
(-0.00462776787197 0.217785879825 0)
(-0.0044051158729 0.226647957657 0)
(-0.00417693543177 0.235000683087 0)
(-0.00394404794098 0.242835166334 0)
(-0.00370614278464 0.250143395318 0)
(-0.00346382968514 0.256917855869 0)
(-0.00321656747811 0.2631513748 0)
(-0.00296478614671 0.268836815997 0)
(-0.00270777125592 0.273966944812 0)
(-0.00244583088947 0.278534229352 0)
(-0.00217815718853 0.282530753408 0)
(-0.0019050167745 0.285948140748 0)
(-0.001625609938 0.288777528944 0)
(-0.00134025791351 0.291009656684 0)
(-0.00104826447567 0.292634902448 0)
(-0.000750104581679 0.293643444495 0)
(-0.000445337733025 0.294025495366 0)
(-0.000134722363636 0.293771627034 0)
(0.000181830003064 0.292873018719 0)
(0.000503188386158 0.291321943192 0)
(0.000828995529777 0.289112068623 0)
(0.00115769075929 0.286239031419 0)
(0.00148843806059 0.282700742183 0)
(0.00181925707409 0.278497970894 0)
(0.00214887264809 0.273634580918 0)
(0.00247496565366 0.268118055141 0)
(0.00279591859374 0.26195960211 0)
(0.00310918365381 0.255174591873 0)
(0.00341288749488 0.247782546269 0)
(0.00370430477141 0.239807551774 0)
(0.00398128123101 0.231278257003 0)
(0.00424080929441 0.222228430431 0)
(0.00448025572357 0.212697155048 0)
(0.00469608339367 0.202729692452 0)
(0.00488493860574 0.19237793913 0)
(0.00504264528562 0.181701459544 0)
(0.00516529220482 0.170767799113 0)
(0.0052486560167 0.159652928875 0)
(0.00528936793323 0.148440418173 0)
(0.00528466501273 0.137220235073 0)
(0.00523329732792 0.126086230003 0)
(0.0051350121097 0.115133725047 0)
(0.00499073663955 0.104457081713 0)
(0.00480202562274 0.0941481253973 0)
(0.00457152025429 0.084294543906 0)
(0.0043035618869 0.0749772135299 0)
(0.00400533515063 0.0662656581978 0)
(0.00368801193665 0.0582100677843 0)
(0.00336380243414 0.0508352926924 0)
(0.00304168821279 0.0441431645646 0)
(0.00272658295082 0.0381213514491 0)
(0.00242093575518 0.0327509987752 0)
(0.0021283706934 0.0280079151474 0)
(0.00185293487884 0.0238600945526 0)
(0.00159851930888 0.0202671018514 0)
(0.0013676771384 0.0171817890617 0)
(0.0011621789282 0.0145524730608 0)
(0.000982529676437 0.0123251323589 0)
(0.000828214218962 0.0104456731011 0)
(0.000697032062124 0.00886307528589 0)
(0.000586096399771 0.00753186887568 0)
(0.000492286455695 0.0064131731711 0)
(0.000413073035122 0.00547400388078 0)
(0.000346172091026 0.00468639916647 0)
(0.000289519281642 0.00402680437659 0)
(0.000240873765249 0.00347598077471 0)
(0.00019697831046 0.00302241827297 0)
(0.000151693019839 0.00261993158231 0)
(0.000131475936015 0.00235644805767 0)
(0.00012267117951 0.00209513157381 0)
(0.000105860021953 0.00186545723024 0)
(0.000101484726395 0.00167168821811 0)
(0.000103097707267 0.0014656963308 0)
(9.892818778e-05 0.00126739711772 0)
(9.56599078672e-05 0.00106723334837 0)
(0.000102452532383 0.000861917518179 0)
(0.000111589665076 0.00064747393479 0)
(0.000123090498841 0.000397655621634 0)
(0.000130921558078 0.000127405360811 0)
(-0.0208290380297 0.00689367294868 0)
(-0.0219904794058 0.0220945348267 0)
(-0.0219171394687 0.0372078550111 -2.44174161514e-27)
(-0.0217313542728 0.052324723246 0)
(-0.0214785931131 0.0672744616607 0)
(-0.0211637331965 0.0820277192307 0)
(-0.0207907431205 0.0965443011561 0)
(-0.020362782511 0.110785977581 0)
(-0.0198839227708 0.124716584802 0)
(-0.0193575571703 0.138302507012 0)
(-0.0187881200182 0.1515127112 0)
(-0.0181791170817 0.16431894993 0)
(-0.0175350817501 0.17669566832 0)
(-0.0168593327547 0.18862006812 0)
(-0.0161561785023 0.200071910345 0)
(-0.0154284521636 0.211033457379 0)
(-0.0146799489225 0.221489189749 0)
(-0.0139127787489 0.231425648021 0)
(-0.013130013138 0.240831092554 0)
(-0.012332895231 0.249695278011 0)
(-0.0115236695757 0.25800909354 0)
(-0.0107026843919 0.265764310196 0)
(-0.00987137091988 0.272953243703 0)
(-0.00902926909252 0.279568515949 0)
(-0.00817712002194 0.285602777969 0)
(-0.00731384078842 0.291048519968 0)
(-0.00643969079387 0.295897884121 0)
(-0.00555322223399 0.300142548551 0)
(-0.00465448549977 0.303773649205 0)
(-0.00374198244501 0.306781757218 0)
(-0.00281587946731 0.309156914445 0)
(-0.00187497171829 0.310888745689 0)
(-0.000919877849438 0.31196667174 0)
(4.99130249604e-05 0.312380050184 0)
(0.00103293678487 0.312118541019 0)
(0.00202866287983 0.311172428629 0)
(0.00303447895973 0.309533081641 0)
(0.00404853946556 0.307193367967 0)
(0.00506690468836 0.30414819273 0)
(0.00608632519895 0.300394936868 0)
(0.00710157143189 0.295933993615 0)
(0.00810813621955 0.290769142022 0)
(0.00909976452542 0.284907993848 0)
(0.0100710196286 0.278362227785 0)
(0.0110149783857 0.271147901759 0)
(0.0119255645109 0.263285551223 0)
(0.0127953409633 0.254800434861 0)
(0.0136175002383 0.245722637016 0)
(0.0143837104373 0.236087454265 0)
(0.0150857344745 0.22593575411 0)
(0.015713437303 0.215314747057 0)
(0.0162562335531 0.204278756702 0)
(0.016701650817 0.192890320887 0)
(0.0170371048732 0.181220973986 0)
(0.0172495812586 0.169351806919 0)
(0.0173280776018 0.157372929641 0)
(0.01726416748 0.145381925415 0)
(0.017053918472 0.133480891196 0)
(0.0166971686261 0.12177312574 0)
(0.0161968809737 0.110360512851 0)
(0.0155579809005 0.0993421671498 0)
(0.0147877534478 0.0888139716806 0)
(0.0138991186479 0.0788664959521 0)
(0.0129138707448 0.069580675402 0)
(0.0118703898226 0.061015006396 0)
(0.0108105324678 0.0531934972213 0)
(0.00976405496025 0.0461103191305 0)
(0.0087441859884 0.0397454195521 0)
(0.00775615994384 0.0340773752521 0)
(0.00681077929092 0.0290822228597 0)
(0.00592183769094 0.0247263824976 0)
(0.00510185609212 0.0209654724106 0)
(0.00435917100266 0.0177472989222 0)
(0.00369909282692 0.0150149014156 0)
(0.00312353927439 0.0127085696876 0)
(0.00263066722904 0.0107680752172 0)
(0.00221304322591 0.00913681681674 0)
(0.00186042722842 0.00776561773028 0)
(0.00156247358977 0.00661364530942 0)
(0.00131091090108 0.00564682417108 0)
(0.00109879773875 0.00483601288637 0)
(0.0009197140568 0.0041562585735 0)
(0.000767407133703 0.00358639188044 0)
(0.000635764812386 0.00310864733941 0)
(0.000515553681129 0.00269321342151 0)
(0.000428706001855 0.00230525977766 0)
(0.000371946313387 0.00203865118814 0)
(0.000320409573125 0.00181093856165 0)
(0.000300504328516 0.00159308216954 0)
(0.000301916807786 0.00141738931086 0)
(0.000296510043883 0.0012412678901 0)
(0.000295459009185 0.00103442216862 0)
(0.000306955670647 0.000826459106628 0)
(0.00036037446666 0.000643572418685 0)
(0.00042709600395 0.000406712746761 0)
(0.000382480316854 0.000111277774995 0)
(-0.0351987696839 0.00694896187719 0)
(-0.0371831445975 0.0222771467015 0)
(-0.0370325573708 0.0374824145094 -2.44511366853e-27)
(-0.0367129402719 0.0527086329231 0)
(-0.036286747623 0.0677656290104 0)
(-0.0357590213852 0.082622646033 0)
(-0.0351346454512 0.0972385246662 0)
(-0.0344188918376 0.111574495907 0)
(-0.0336178783442 0.125594025996 0)
(-0.0327377700172 0.139263186498 0)
(-0.0317853518517 0.15255077829 0)
(-0.0307671209398 0.165428458562 0)
(-0.0296899635829 0.177870727861 0)
(-0.0285601464156 0.18985491716 0)
(-0.027384100966 0.201361053451 0)
(-0.0261673417294 0.212371726523 0)
(-0.0249153625687 0.222871852558 0)
(-0.0236325091571 0.232848444193 0)
(-0.0223229887479 0.2422903027 0)
(-0.0209897221392 0.25118772703 0)
(-0.01963546329 0.259532174238 0)
(-0.0182616488537 0.267315950946 0)
(-0.0168696150292 0.274531888165 0)
(-0.0154594536923 0.281173059959 0)
(-0.0140313053752 0.287232512603 0)
(-0.0125842237234 0.292703045743 0)
(-0.0111175200756 0.297577026188 0)
(-0.00962963834209 0.301846255952 0)
(-0.00811953084217 0.305501889178 0)
(-0.00658554899022 0.308534400931 0)
(-0.00502684536014 0.310933632788 0)
(-0.00344228003329 0.312688882763 0)
(-0.00183180729208 0.313789062477 0)
(-0.000195431433453 0.31422293856 0)
(0.00146543103809 0.313979451309 0)
(0.00314899923477 0.313048079239 0)
(0.00485183425648 0.311419293506 0)
(0.00656990541942 0.309085035863 0)
(0.00829741892209 0.306039260261 0)
(0.0100279345032 0.302278451544 0)
(0.0117533554411 0.297802162264 0)
(0.0134650991287 0.292613464695 0)
(0.0151532409109 0.286719370214 0)
(0.016807677256 0.280131110731 0)
(0.0184173364693 0.272864365246 0)
(0.0199711895408 0.264939349455 0)
(0.0214573680874 0.256380907428 0)
(0.0228638390319 0.247218565109 0)
(0.0241772949153 0.237486747818 0)
(0.0253834299532 0.227225150935 0)
(0.0264657175666 0.216479483436 0)
(0.0274056322051 0.205302512895 0)
(0.0281819824714 0.193755490178 0)
(0.0287720713179 0.181909606527 0)
(0.0291527700265 0.169847134713 0)
(0.0293035911436 0.157661437324 0)
(0.0292094302221 0.14545516602 0)
(0.0288633920792 0.133336296819 0)
(0.0282664014336 0.121412997407 0)
(0.0274238745342 0.109790601788 0)
(0.0263438672889 0.0985709868241 0)
(0.0250351371673 0.0878553229401 0)
(0.0235161365703 0.0777440915449 0)
(0.0218185447399 0.0683366960629 0)
(0.0200193086727 0.0597065867821 0)
(0.0182029562942 0.0518715050597 0)
(0.016424745977 0.0448046487857 0)
(0.0146983261487 0.0384682628612 0)
(0.013022146724 0.0328398317853 0)
(0.0114147696814 0.0279022251303 0)
(0.009904013578 0.0236231842873 0)
(0.00851294525319 0.0199543069771 0)
(0.00725590215452 0.0168382950447 0)
(0.00614142179315 0.0142138162969 0)
(0.00517388930241 0.0120163100663 0)
(0.00435078071185 0.0101789347745 0)
(0.00365785215593 0.00863907669718 0)
(0.00307452773245 0.0073455235828 0)
(0.00258174829876 0.00625895932892 0)
(0.00216556407298 0.00534777078471 0)
(0.00181538765011 0.00458411998675 0)
(0.00152067101402 0.00394367950492 0)
(0.00127180793955 0.00340631396975 0)
(0.00106122009724 0.0029563884629 0)
(0.000885806676409 0.00256461030679 0)
(0.0007453400135 0.00220660735732 0)
(0.00065187997627 0.00198415042258 0)
(0.000553314890742 0.00169325277349 0)
(0.000485659755615 0.00144988871545 0)
(0.000476681753043 0.00129085519809 0)
(0.000505892568494 0.00116003013158 0)
(0.00048840602541 0.000906501615749 0)
(0.000524267413654 0.000728390682409 0)
(0.000581312777125 0.000519344664225 0)
(0.00063185315319 0.00030734591635 0)
(0.000606587664773 9.45379372163e-05 0)
(-0.0497658527438 0.00700618820518 0)
(-0.0525951786388 0.022480416146 0)
(-0.0523797385211 0.037809155186 2.4447884298e-27)
(-0.0519234381862 0.0531641025415 0)
(-0.0513156416986 0.0683461764806 0)
(-0.0505640307981 0.0833233984181 0)
(-0.0496753475776 0.0980534482453 0)
(-0.048657239294 0.112496739284 0)
(-0.0475182713038 0.126616149208 0)
(-0.0462674967738 0.140377335078 0)
(-0.044914462098 0.153748875941 0)
(-0.0434687527596 0.166702371741 0)
(-0.0419400378366 0.179212451177 0)
(-0.040337594715 0.191256728709 0)
(-0.0386704015384 0.202815679863 0)
(-0.0369466623309 0.213872471646 0)
(-0.0351739638935 0.22441272432 0)
(-0.0333588257829 0.234424239873 0)
(-0.0315069380603 0.243896681464 0)
(-0.0296227586893 0.252821237908 0)
(-0.0277098425159 0.261190265394 0)
(-0.0257704980092 0.26899693747 0)
(-0.0238062041005 0.276234900331 0)
(-0.0218173236953 0.282897958023 0)
(-0.0198035909998 0.288979786328 0)
(-0.0177638676133 0.294473691127 0)
(-0.015696677448 0.299372410161 0)
(-0.0135999929711 0.303667965835 0)
(-0.0114718023009 0.307351571011 0)
(-0.00930992231536 0.310413584532 0)
(-0.00711260168503 0.312843550175 0)
(-0.00487834702473 0.314630277516 0)
(-0.00260653578466 0.315761982445 0)
(-0.000297294388843 0.316226546805 0)
(0.00204790343788 0.316011836412 0)
(0.00442638512489 0.31510609609 0)
(0.00683373462513 0.31349843001 0)
(0.00926401064859 0.311179338496 0)
(0.0117093317697 0.30814130862 0)
(0.0141602276855 0.304379413464 0)
(0.0166054108914 0.299891904973 0)
(0.0190322876726 0.294680740365 0)
(0.0214269072349 0.288752024169 0)
(0.0237745614871 0.282116307987 0)
(0.0260597773215 0.27478875306 0)
(0.0282667938142 0.266789134042 0)
(0.0303793296581 0.258141751216 0)
(0.0323806325325 0.248875303311 0)
(0.0342527452423 0.239022878397 0)
(0.0359759525237 0.228622197889 0)
(0.0375276020345 0.217716337839 0)
(0.0388813631812 0.20635505301 0)
(0.0400065680965 0.194596820294 0)
(0.0408689033474 0.18251136028 0)
(0.0414325364164 0.17018211354 0)
(0.0416645999865 0.157707368197 0)
(0.0415411269132 0.145198468868 0)
(0.041052440291 0.13277372018 0)
(0.0402033936938 0.120548916647 0)
(0.0390035936248 0.108633254531 0)
(0.0374649091305 0.0971293655291 0)
(0.0355904295461 0.0861436924205 0)
(0.033397503275 0.0757898774011 0)
(0.030908163346 0.0662074738776 0)
(0.0282670586378 0.0575079334155 0)
(0.0256337356333 0.049693636052 0)
(0.0230992780206 0.0426878843753 0)
(0.0206550232371 0.0364137853512 0)
(0.0182661106962 0.0308547764012 0)
(0.0159648939602 0.0260162080562 0)
(0.0138045962944 0.0218689451028 0)
(0.011822776808 0.0183550515875 0)
(0.0100381986452 0.0154077178505 0)
(0.00846131549832 0.0129599341304 0)
(0.00710127638652 0.0109408280628 0)
(0.00595803182235 0.00927144212345 0)
(0.00500656034818 0.00787702823247 0)
(0.00420879780787 0.00670350791689 0)
(0.00353358671118 0.00571660029954 0)
(0.00296226356574 0.00489063931296 0)
(0.00248311330376 0.00419983330405 0)
(0.00208106044788 0.0036201664118 0)
(0.00174199906813 0.00313338418006 0)
(0.00145566075166 0.00272759304027 0)
(0.00121731050461 0.00236099039468 0)
(0.00104547780397 0.00206886277855 0)
(0.000912036545066 0.00181383179557 0)
(0.000788528643514 0.00153346842198 0)
(0.000719022622501 0.00133546937969 0)
(0.000659505021775 0.00110533068408 0)
(0.000656316238367 0.000917551623715 0)
(0.000714954804827 0.000784192806409 0)
(0.000706843634782 0.000551903561683 0)
(0.000756492300364 0.000372897753321 0)
(0.000811671427437 0.000221669570911 0)
(0.000794402110852 7.22393187815e-05 0)
(-0.0644793658146 0.00708006704444 0)
(-0.0681498994763 0.022748987691 0)
(-0.0678681678767 0.0382490965662 0)
(-0.0672718975971 0.0537778673152 0)
(-0.066477673614 0.0691281018893 0)
(-0.0654959988469 0.0842666051598 0)
(-0.064335845921 0.0991496691306 0)
(-0.0630074217527 0.113736621202 0)
(-0.0615220370177 0.12798951686 0)
(-0.0598917626653 0.141873443392 0)
(-0.0581292026219 0.155356665687 0)
(-0.0562471397128 0.168410714312 0)
(-0.0542583230281 0.181010393929 0)
(-0.0521751197044 0.19313372262 0)
(-0.050009334987 0.204761797203 0)
(-0.0477718935387 0.215878595684 0)
(-0.0454727168499 0.226470716007 0)
(-0.0431204629738 0.236527065319 0)
(-0.0407224886613 0.246038504643 0)
(-0.0382846749758 0.254997466707 0)
(-0.0358114940501 0.263397556893 0)
(-0.0333059340757 0.271233156847 0)
(-0.030769670949 0.278499042396 0)
(-0.0282030831505 0.285190031748 0)
(-0.0256055060579 0.291300671946 0)
(-0.0229753099245 0.296824972489 0)
(-0.020310206693 0.301756188868 0)
(-0.0176073673234 0.306086658503 0)
(-0.0148637638868 0.309807690863 0)
(-0.0120763208913 0.312909504904 0)
(-0.00924230373449 0.31538125729 0)
(-0.00635948872199 0.317211105945 0)
(-0.00342658365489 0.318386336296 0)
(-0.000443462629438 0.318893625285 0)
(0.00258841816347 0.318719367034 0)
(0.00566581399992 0.317850097567 0)
(0.00878332872723 0.316273019205 0)
(0.0119333093717 0.313976608267 0)
(0.0151056432618 0.310951289729 0)
(0.0182878554898 0.30719014245 0)
(0.0214651583854 0.30268959581 0)
(0.0246208126154 0.297450059131 0)
(0.0277364371672 0.291476430026 0)
(0.0307925609502 0.284778418915 0)
(0.0337690184074 0.277370653271 0)
(0.0366453988375 0.269272542285 0)
(0.0394011233665 0.260507941011 0)
(0.0420153052481 0.251104702322 0)
(0.0444660091352 0.24109429204 0)
(0.0467291204173 0.230511713909 0)
(0.0487766367565 0.219396065078 0)
(0.0505748851367 0.207792100193 0)
(0.0520829836737 0.195753088815 0)
(0.0532527768282 0.183345057307 0)
(0.0540313840608 0.170651723364 0)
(0.0543680621897 0.157778313849 0)
(0.0542253049991 0.144850672928 0)
(0.0535909801672 0.132005605552 0)
(0.0524813610077 0.119370575228 0)
(0.0509141689635 0.107057943021 0)
(0.0489108399974 0.0951630783684 0)
(0.0464531449704 0.0837926298789 0)
(0.0435497839772 0.0730660227708 0)
(0.0401394062222 0.0632099270362 0)
(0.0365116892541 0.0544353310231 0)
(0.0329765519051 0.0467064435167 0)
(0.0296850165291 0.0398282827907 0)
(0.0265422443175 0.033637144454 0)
(0.0234125730948 0.0281514922612 0)
(0.0203709184155 0.0234422609566 0)
(0.0175255196255 0.0194823962174 0)
(0.0149336515211 0.01618904079 0)
(0.0126109433884 0.0134777918984 0)
(0.0105645056185 0.0112776998193 0)
(0.00881433347314 0.00951369881728 0)
(0.00737395147382 0.00808478000112 0)
(0.00619933841074 0.00689031657585 0)
(0.00521758753016 0.00587295531937 0)
(0.0043796890715 0.00501277412442 0)
(0.00366654641047 0.0042975977868 0)
(0.00307291898986 0.00370317504482 0)
(0.00257739218658 0.00320278594863 0)
(0.00215870134246 0.00278104731 0)
(0.00180490913179 0.00242993023074 0)
(0.00150252837702 0.00209125038952 0)
(0.00133919284578 0.00187620067906 0)
(0.0011984683091 0.0016292892428 0)
(0.00104951748948 0.001369447968 0)
(0.000908330488631 0.0010952768229 0)
(0.000861354046082 0.000905199271005 0)
(0.000820413446023 0.000695694562124 0)
(0.000867953921205 0.00056813750818 0)
(0.000924359548957 0.000425997885363 0)
(0.000904028136502 0.000257913351562 0)
(0.000916248172265 0.000145129857297 0)
(0.000894815940924 4.79160337776e-05 0)
(-0.0793891848577 0.00717218799743 0)
(-0.083907757799 0.023088280216 0)
(-0.0835564400088 0.0388076791086 0)
(-0.0828148090858 0.0545577354886 0)
(-0.0818269881837 0.0701215245657 0)
(-0.0806064405361 0.0854644627532 0)
(-0.0791646562663 0.10054118085 0)
(-0.0775146612457 0.115309652493 0)
(-0.0756708256927 0.12973088729 0)
(-0.0736484978991 0.143769246877 0)
(-0.071463657559 0.157392595493 0)
(-0.0691325338206 0.170572384465 0)
(-0.0666712639186 0.183283654516 0)
(-0.0640955250386 0.195504960352 0)
(-0.0614202243157 0.207218216627 0)
(-0.0586591733204 0.218408471168 0)
(-0.0558248416215 0.229063608371 0)
(-0.0529281106237 0.23917399298 0)
(-0.0499781292238 0.248732063606 0)
(-0.0469821848813 0.257731892554 0)
(-0.0439456921387 0.266168728074 0)
(-0.0408722001291 0.274038539407 0)
(-0.0377635161618 0.281337582095 0)
(-0.0346198342369 0.288062000489 0)
(-0.0314399611847 0.294207478465 0)
(-0.0282215234029 0.29976894529 0)
(-0.0249612504034 0.30474033799 0)
(-0.021655222994 0.309114418902 0)
(-0.0182991921226 0.312882647589 0)
(-0.0148888645141 0.31603509508 0)
(-0.0114202788222 0.31856045644 0)
(-0.00789012040915 0.320446084692 0)
(-0.00429615595039 0.321678097487 0)
(-0.000637638405406 0.32224163539 0)
(0.00308424642479 0.322121194226 0)
(0.00686599021842 0.321301079327 0)
(0.0107013658275 0.319765987093 0)
(0.0145811593699 0.317501701798 0)
(0.0184929729919 0.314495889012 0)
(0.0224212319288 0.310738947189 0)
(0.0263473346398 0.306224864157 0)
(0.0302500517716 0.300952004043 0)
(0.0341060754507 0.294923739879 0)
(0.0378907555106 0.288148839067 0)
(0.0415788464617 0.280641523814 0)
(0.0451451988889 0.272421156378 0)
(0.0485651307173 0.263511562423 0)
(0.0518143353845 0.253940086122 0)
(0.0548680494344 0.24373659004 0)
(0.0576993784004 0.232932730986 0)
(0.0602766841534 0.221562028464 0)
(0.0625602554494 0.20966135802 0)
(0.0644988740067 0.197274711806 0)
(0.0660276984464 0.184459805975 0)
(0.0670700456703 0.171297484137 0)
(0.0675468376711 0.157901397897 0)
(0.0673967040192 0.144421495324 0)
(0.0666044197156 0.131029866877 0)
(0.0652172696901 0.117872175215 0)
(0.063266699481 0.105062791275 0)
(0.0608083565466 0.0926684109779 0)
(0.057765206714 0.080782728117 0)
(0.0541567587075 0.0694762818981 0)
(0.0495789831236 0.0591694619752 0)
(0.0446870076959 0.0503450501306 0)
(0.0401146574247 0.0428668357202 0)
(0.0361372420721 0.0362534628813 0)
(0.0323919962634 0.0301413697805 0)
(0.0284661663187 0.0246836031795 0)
(0.024591589506 0.020129370536 0)
(0.0210044672369 0.0164319060276 0)
(0.0177819334885 0.0134406882423 0)
(0.0149106543779 0.0110387532964 0)
(0.0123773615889 0.00916345380838 0)
(0.010228511096 0.00775033156566 0)
(0.00852783668722 0.00665644962744 0)
(0.00719544422603 0.00572065256948 0)
(0.00607741602677 0.00488385112419 0)
(0.00509880228701 0.00416555929652 0)
(0.00425352798314 0.00358387211418 0)
(0.00356434578201 0.00311068127525 0)
(0.00299573652096 0.00270594640395 0)
(0.00251118798231 0.00236076568477 0)
(0.0021043327052 0.00206725303537 0)
(0.00175871813844 0.00177000774172 0)
(0.00158335251165 0.00157266105421 0)
(0.00139830663185 0.00131494628724 0)
(0.0012729138569 0.00111410940677 0)
(0.00117484193934 0.000909703912511 0)
(0.00110701414912 0.000717833631405 0)
(0.000982107351716 0.000496841248289 0)
(0.000967529872972 0.000351597254495 0)
(0.00103787436377 0.000269704645842 0)
(0.00102488660949 0.000172750285916 0)
(0.000997953673403 9.12050625789e-05 0)
(0.000975452915925 2.98895687107e-05 0)
(-0.0945413093193 0.00728413202125 0)
(-0.0999187991048 0.0235024810351 0)
(-0.0994932993783 0.0394903545591 2.46272284909e-27)
(-0.0985991028486 0.0555110486264 0)
(-0.0974083498718 0.0713356199326 0)
(-0.0959376485209 0.0869277911037 0)
(-0.0942012931266 0.102240171786 0)
(-0.092215448889 0.117229084003 0)
(-0.0899979035673 0.131854255627 0)
(-0.0875676351578 0.146079161475 0)
(-0.0849443708587 0.159871181593 0)
(-0.0821481349105 0.173201684389 0)
(-0.0791988099112 0.186046021642 0)
(-0.0761157014425 0.198383436829 0)
(-0.0729171322232 0.210196888074 0)
(-0.0696200562435 0.221472787214 0)
(-0.0662397247408 0.232200659268 0)
(-0.0627893968568 0.24237272962 0)
(-0.0592801303471 0.251983451409 0)
(-0.0557206424475 0.261028990404 0)
(-0.0521172714701 0.269506689421 0)
(-0.0484740176984 0.277414536766 0)
(-0.0447926812361 0.284750663049 0)
(-0.0410730601161 0.29151288677 0)
(-0.0373132152006 0.297698322489 0)
(-0.0335097590625 0.303303057012 0)
(-0.0296581783046 0.308321891457 0)
(-0.0257531568034 0.312748141909 0)
(-0.0217889251531 0.316573492247 0)
(-0.0177596192953 0.319787880145 0)
(-0.0136596980791 0.322379486516 0)
(-0.00948434609658 0.324334724257 0)
(-0.0052299859096 0.325638313444 0)
(-0.000894811335244 0.326273518816 0)
(0.0035206579136 0.326222479882 0)
(0.00801302799902 0.325466691917 0)
(0.0125755125119 0.323987652298 0)
(0.017197515844 0.32176766724 0)
(0.0218643527506 0.318790801378 0)
(0.0265571855766 0.315043930344 0)
(0.0312532123158 0.310517829279 0)
(0.035926164023 0.305208201429 0)
(0.0405470969131 0.299116523819 0)
(0.0450854537431 0.292250569571 0)
(0.0495102619179 0.284624467503 0)
(0.0537912937736 0.276258191306 0)
(0.0578999013846 0.267176440683 0)
(0.0618092132775 0.257406989763 0)
(0.0654933181445 0.246978719882 0)
(0.0689251128272 0.235919763925 0)
(0.0720725132901 0.224256405674 0)
(0.0748929426919 0.212013821235 0)
(0.0773264649045 0.19922014794 0)
(0.0792891427346 0.185915939295 0)
(0.0806706580265 0.172170660825 0)
(0.0813442826961 0.158104830895 0)
(0.0812003667124 0.143908126838 0)
(0.0802137200006 0.12982602266 0)
(0.0785155092221 0.116032683011 0)
(0.0761455173332 0.102648849678 0)
(0.0732818904587 0.0896614645584 0)
(0.0696878485324 0.0771410035436 0)
(0.0656013899807 0.0648801786707 0)
(0.0593369949611 0.0537405613119 0)
(0.0526083056184 0.0449712533188 0)
(0.0467574191882 0.0381568737987 0)
(0.0423782898677 0.0321068685476 0)
(0.0383055858919 0.0259700071324 0)
(0.0334078240608 0.0203569491795 0)
(0.02849763621 0.0159873028241 0)
(0.0240911283962 0.0126795610525 0)
(0.0202432747978 0.0101015305088 0)
(0.0168363749173 0.00807850660558 0)
(0.0137886170168 0.00659936947701 0)
(0.0112092594631 0.00566612557928 0)
(0.00931920213234 0.00505232081338 0)
(0.0079677207274 0.0044401592625 0)
(0.00678916580205 0.0037764830287 0)
(0.00568314812947 0.00318900902856 0)
(0.00469429649174 0.00276319730629 0)
(0.00393462373063 0.0024453914074 0)
(0.00332625303951 0.00214960755012 0)
(0.0027890231553 0.00188902268666 0)
(0.00234794036887 0.00165798523173 0)
(0.00200915465056 0.00142767195675 0)
(0.00180969320384 0.00123126598923 0)
(0.00162785513843 0.00101971981218 0)
(0.00146094074482 0.000810069121462 0)
(0.00136432980584 0.00063608673794 0)
(0.00124503071004 0.000461121208578 0)
(0.00118728934241 0.000329270427709 0)
(0.00107923721434 0.000188584087321 0)
(0.00106573820652 0.000119026256416 0)
(0.00108828976756 8.28143351325e-05 0)
(0.00104491378873 4.11749114067e-05 0)
(0.00102018191127 1.31860761453e-05 0)
(-0.109985138711 0.00741713028868 0)
(-0.116235386523 0.023996121855 0)
(-0.115730045655 0.0403039702829 -2.46234296377e-27)
(-0.114674256509 0.0566470676045 0)
(-0.113268893518 0.0727818925149 0)
(-0.111533993183 0.0886700719986 0)
(-0.109487005162 0.104261771927 0)
(-0.107147630399 0.119511322953 0)
(-0.10453750419 0.134376915222 0)
(-0.101679673999 0.148820966738 0)
(-0.0985980629606 0.162810290064 0)
(-0.0953169289557 0.176316174951 0)
(-0.0918603320972 0.189314374411 0)
(-0.088251612309 0.201784996933 0)
(-0.084512890033 0.213712303273 0)
(-0.0806645954249 0.225084408053 0)
(-0.0767250466856 0.235892886727 0)
(-0.0727100901559 0.246132294602 0)
(-0.0686328284693 0.255799610071 0)
(-0.0645034490935 0.264893623422 0)
(-0.0603291724645 0.27341429892 0)
(-0.0561143168265 0.28136214346 0)
(-0.0518604781606 0.288737614547 0)
(-0.0475667992008 0.295540595652 0)
(-0.043230306634 0.301769956096 0)
(-0.038846280553 0.307423199452 0)
(-0.0344086392324 0.312496191533 0)
(-0.0299103209691 0.316982950823 0)
(-0.0253436730748 0.320875485225 0)
(-0.0207008568427 0.324163645064 0)
(-0.0159743138065 0.326835079383 0)
(-0.0111572360774 0.328875157226 0)
(-0.00624417889953 0.330266992238 0)
(-0.00123172222978 0.330991634445 0)
(0.00388082311683 0.331028380485 0)
(0.00909068495344 0.330355269712 0)
(0.0143909254879 0.32894979749 0)
(0.0197698348086 0.326789849978 0)
(0.0252104949526 0.323854851347 0)
(0.0306906088348 0.320127083814 0)
(0.0361826777887 0.315593104284 0)
(0.041654608591 0.310245135319 0)
(0.0470707843725 0.30408226179 0)
(0.0523935782351 0.297111222501 0)
(0.0575851824074 0.28934656978 0)
(0.0626095162571 0.280809991765 0)
(0.0674338372906 0.271528672553 0)
(0.0720295842194 0.261532696506 0)
(0.0763719004669 0.250851699491 0)
(0.0804372663907 0.239511171686 0)
(0.0841985695734 0.22752916519 0)
(0.087616893983 0.214914708098 0)
(0.0906294215397 0.201670432122 0)
(0.0931340843174 0.187803662015 0)
(0.0949751088656 0.173352426142 0)
(0.095944080075 0.158431003432 0)
(0.0958236578894 0.143290823884 0)
(0.0945433320904 0.128344829208 0)
(0.0924709230055 0.11380373463 0)
(0.0895729682325 0.0998289148262 0)
(0.0864441902886 0.0862108699901 0)
(0.0822863251124 0.0731031271669 0)
(0.0786786328526 0.0591332179889 0)
(0.0694541633341 0.0461869705551 0)
(0.0596950113358 0.0377778676893 0)
(0.0522276530384 0.0326541544558 0)
(0.04891445808 0.0278568110412 0)
(0.0461171875446 0.0213135439186 0)
(0.0397987852001 0.0150770423862 0)
(0.0332048277274 0.0110401437284 0)
(0.0276967582746 0.00840694209918 0)
(0.0231454185651 0.00639788359541 0)
(0.0190870108994 0.00476183558594 0)
(0.0152132878606 0.00366495050124 0)
(0.0117989882288 0.00334736998684 0)
(0.00965550993977 0.00343599858159 0)
(0.00853552306814 0.00320103008327 0)
(0.00738799240166 0.00260621513935 0)
(0.00612567069456 0.00207543044366 0)
(0.0049262288437 0.00183747252263 0)
(0.00414988517405 0.00174308803309 0)
(0.00357519314274 0.0015604332916 0)
(0.00298297860091 0.00138039228768 0)
(0.00253754317761 0.00121774065702 0)
(0.00223123731599 0.00103707577051 0)
(0.00200193542536 0.000851310297284 0)
(0.00183876202402 0.000684496599907 0)
(0.00166473480097 0.000507910829635 0)
(0.00151464065375 0.000356085149532 0)
(0.00136746663903 0.000220774323411 0)
(0.00126373870698 0.000120148340634 0)
(0.00119886099811 5.00757563902e-05 0)
(0.00109830618022 -3.2372106288e-07 0)
(0.00111689904467 -1.13908654162e-05 0)
(0.00105830538406 -7.12461580271e-06 0)
(0.00102826138699 -3.68580452802e-06 0)
(-0.12577329516 0.0075725115888 0)
(-0.132912772909 0.0245745188575 0)
(-0.132320723598 0.0412568978941 0)
(-0.13109230628 0.0579772154717 0)
(-0.1294580468 0.0744745149506 0)
(-0.127441797813 0.0907078787567 0)
(-0.125064605406 0.106624539988 0)
(-0.122350195851 0.122176460451 0)
(-0.119324572471 0.137320012976 0)
(-0.116015386236 0.152016378681 0)
(-0.11245129414 0.166231719819 0)
(-0.108661319323 0.179937259602 0)
(-0.104674219522 0.193109259454 0)
(-0.100517867333 0.2057288947 0)
(-0.0962186485316 0.217782026314 0)
(-0.0918008891245 0.229258862591 0)
(-0.087286330116 0.240153507794 0)
(-0.0826936749501 0.250463399469 0)
(-0.0780382398174 0.260188647245 0)
(-0.0733317349874 0.269331297553 0)
(-0.0685821990446 0.277894561533 0)
(-0.0637940929539 0.285882051503 0)
(-0.0589685437851 0.293297073432 0)
(-0.0541037081222 0.30014201513 0)
(-0.0491952124109 0.306417853904 0)
(-0.0442366225813 0.312123785118 0)
(-0.0392199052646 0.317256951854 0)
(-0.0341358624186 0.321812241356 0)
(-0.0289745478796 0.325782114998 0)
(-0.0237256950053 0.329156425165 0)