/*--------------------------------*- C++ -*----------------------------------*\
| =========                 |                                                 |
| \\      /  F ield         | OpenFOAM: The Open Source CFD Toolbox           |
|  \\    /   O peration     | Version:  v1906                                 |
|   \\  /    A nd           | Web:      www.OpenFOAM.com                      |
|    \\/     M anipulation  |                                                 |
\*---------------------------------------------------------------------------*/
FoamFile
{
    version     2.0;
    format      ascii;
    class       volVectorField;
    location    "46";
    object      Ua;
}
// * * * * * * * * * * * * * * * * * * * * * * * * * * * * * * * * * * * * * //

dimensions      [0 1 -1 0 0 0 0];


internalField   nonuniform List<vector> 
9216
(
(-0.0955126660129 0.0958956117296 0)
(-0.0968697317541 0.298429849549 4.52606560074e-26)
(-0.0921509976787 0.503409394006 -6.01581250459e-30)
(-0.0847968949467 0.707180088966 0)
(-0.0750905222971 0.907803630312 0)
(-0.0632191566783 1.10447859941 0)
(-0.0493850220607 1.29640045494 0)
(-0.0338138994391 1.48284368807 0)
(-0.0167395674725 1.66316236756 0)
(0.00158545479246 1.83678805875 0)
(0.0209122930901 2.00323623064 0)
(0.0409830139681 2.16210169577 0)
(0.0615549671192 2.31306158706 0)
(0.0823846323969 2.455868157 0)
(0.103252782389 2.59034863638 0)
(0.123944766229 2.71639632412 0)
(0.144276093778 2.83396843355 0)
(0.164069450591 2.94307658856 0)
(0.183180602744 3.0437836527 0)
(0.201472666926 3.13619450608 0)
(0.218842427699 3.22045266061 0)
(0.235192427879 3.29673193791 0)
(0.250457808972 3.36523332943 0)
(0.264576785615 3.42617787668 0)
(0.277518131011 3.4798040555 0)
(0.289250495223 3.52636198584 0)
(0.299770569984 3.56611138275 0)
(0.309071640003 3.59931704583 0)
(0.317172423938 3.62624739885 0)
(0.32408510178 3.64717121873 0)
(0.329844671477 3.66235678843 0)
(0.334476408747 3.67207008586 0)
(0.338024279818 3.6765753765 0)
(0.340510923545 3.67613345733 0)
(0.341934875624 3.6710028322 0)
(0.342410030587 3.66139004691 0)
(0.342003747872 3.6475360651 0)
(0.34076118878 3.62966713379 0)
(0.338743337656 3.6080015916 0)
(0.33599554391 3.58274958277 0)
(0.332578403152 3.55411290145 0)
(0.328536235692 3.52228540193 0)
(0.323927872696 3.48745257946 0)
(0.318795501683 3.44979228758 0)
(0.313195232954 3.40947418046 0)
(0.307166394176 3.36666071696 0)
(0.300761734985 3.32150642286 0)
(0.294017271133 3.2741591252 0)
(0.286982020502 3.22475905723 0)
(0.279688469893 3.17344030718 0)
(0.272181716599 3.12032973419 0)
(0.264490652369 3.06554858726 0)
(0.256656419603 3.00921126545 0)
(0.248704380851 2.9514271003 0)
(0.240671781933 2.89229894004 0)
(0.232580594027 2.83192506074 0)
(0.224464307767 2.77039761242 0)
(0.216341709368 2.70780465679 0)
(0.208242715028 2.64422846179 0)
(0.200183158507 2.57974763743 0)
(0.192189603257 2.51443531648 0)
(0.184275194675 2.44836138867 0)
(0.176463374593 2.38159055753 0)
(0.168764865267 2.31418464923 0)
(0.161200234785 2.2462005802 0)
(0.153778058157 2.17769274266 0)
(0.146516270954 2.10871087378 0)
(0.139421565353 2.03930249922 0)
(0.132509488566 1.96951073347 0)
(0.12578511328 1.8993767843 0)
(0.119261827774 1.82893767577 0)
(0.112943331203 1.75822879873 0)
(0.106841077493 1.68728158171 0)
(0.100957630126 1.61612608904 0)
(0.0953027152803 1.54478863448 0)
(0.0898779784867 1.47329441212 0)
(0.0846916159126 1.40166507757 0)
(0.0797445597675 1.32992140722 0)
(0.0750436556333 1.25808084902 0)
(0.0705893054697 1.18616019223 0)
(0.0663871725483 1.1141731135 0)
(0.0624372951403 1.04213284986 0)
(0.0587443035535 0.970049742911 0)
(0.0553080188846 0.897933909992 0)
(0.05213216993 0.825792793064 0)
(0.0492164892583 0.753633840309 0)
(0.046563906121 0.68146204238 0)
(0.0441741587226 0.609282638154 0)
(0.0420494195512 0.537098682078 0)
(0.0401893952072 0.464913831766 0)
(0.0385952565988 0.392730256694 0)
(0.0372657840792 0.320552174023 0)
(0.0361981118638 0.248385753983 0)
(0.0353864649077 0.176212660084 0)
(0.0347503402938 0.104540552847 0)
(0.033567565628 0.0335262295079 0)
(-0.297957041126 0.100551813875 0)
(-0.317288388015 0.314493634526 0)
(-0.316652837277 0.532017988726 -4.58245708305e-26)
(-0.314859509934 0.747628118507 0)
(-0.312384223723 0.959821242514 0)
(-0.309317542708 1.16783058463 0)
(-0.305704203068 1.37084504668 0)
(-0.301596960773 1.56811625227 0)
(-0.297037198051 1.75897109454 0)
(-0.292077203957 1.94281603128 0)
(-0.286755692207 2.11914200102 0)
(-0.281122526857 2.2875229924 0)
(-0.275210779672 2.44761655748 0)
(-0.269064979705 2.5991590913 0)
(-0.262710531523 2.74196333539 0)
(-0.256185237185 2.87591163209 0)
(-0.249506413012 3.00095162283 0)
(-0.242705229872 3.11708860733 0)
(-0.235791749795 3.22438047367 0)
(-0.228791588233 3.32293006402 0)
(-0.221709048596 3.41288010929 0)
(-0.214565676601 3.49440620983 0)
(-0.207361697455 3.5677122576 0)
(-0.200116079712 3.63302436984 0)
(-0.192826484992 3.69058704363 0)
(-0.185510547287 3.7406581673 0)
(-0.178164578348 3.78350596912 0)
(-0.170805809167 3.81940508372 0)
(-0.163430098515 3.84863423827 0)
(-0.156054984422 3.87147323796 0)
(-0.148676708787 3.88820119025 0)
(-0.141313937561 3.8990938255 0)
(-0.133963767126 3.9044210193 0)
(-0.126637764481 3.90444521807 0)
(-0.119245828143 3.89941646499 0)
(-0.111891185869 3.88961748384 0)
(-0.10458042692 3.87528913184 0)
(-0.0973318299919 3.8566708141 0)
(-0.0901415182979 3.83399353205 0)
(-0.0830278710163 3.80748014817 0)
(-0.0759868873855 3.77734504579 0)
(-0.0690365393101 3.74379429491 0)
(-0.062172463983 3.70702545494 0)
(-0.0554120033243 3.66722793715 0)
(-0.0487503357193 3.62458281806 0)
(-0.0422040252527 3.57926336261 0)
(-0.0357677474402 3.53143480835 0)
(-0.0294571827549 3.48125501153 0)
(-0.0232664769354 3.42887418626 0)
(-0.017210342655 3.37443564773 0)
(-0.0112824020909 3.31807548963 0)
(-0.00549634908366 3.25992340289 0)
(0.000154699532591 3.20010228997 0)
(0.00565810264082 3.13872914534 0)
(0.0110212035936 3.07591460026 0)
(0.0162324207876 3.0117638521 0)
(0.0212995059809 2.94637614551 0)
(0.0262119322745 2.87984574338 0)
(0.0309777881247 2.81226134313 0)
(0.0355875760848 2.74370708101 0)
(0.040049648102 2.67426189273 0)
(0.0443555045978 2.60400054746 0)
(0.0485136740689 2.53299295338 0)
(0.0525166088509 2.46130521591 0)
(0.0563729293558 2.38899889801 0)
(0.0600759919501 2.31613210104 0)
(0.0636344154668 2.24275868069 0)
(0.0670424032991 2.16892934669 0)
(0.0703084839805 2.09469084327 0)
(0.0734276524108 2.02008706773 0)
(0.0764082531328 1.94515821562 0)
(0.0792460120946 1.86994191522 0)
(0.0819490027301 1.7944723458 0)
(0.0845136250774 1.71878138787 0)
(0.086947593086 1.64289771529 0)
(0.08924792161 1.56684795763 0)
(0.0914218852485 1.49065577497 0)
(0.093467058183 1.41434303039 0)
(0.0953901984897 1.33792885021 0)
(0.0971893829542 1.26143080065 0)
(0.098870785937 1.18486394343 0)
(0.10043293339 1.10824201476 0)
(0.101881352134 1.03157647895 0)
(0.103214964935 0.954877708266 0)
(0.104438589522 0.878154037816 0)
(0.105551495887 0.801412949772 0)
(0.106557716754 0.72466011576 0)
(0.107456793861 0.647900577816 0)
(0.108251836642 0.571137772196 0)
(0.10894240873 0.494374672435 0)
(0.109530179738 0.417612695546 0)
(0.110013562371 0.340852370135 0)
(0.11038955277 0.264090340015 0)
(0.110641766188 0.187259375016 0)
(0.110518611026 0.11112982995 0)
(0.104686096656 0.0343907514591 0)
(-0.503041476489 0.105786300029 0)
(-0.534706431483 0.31676076029 0)
(-0.530625611564 0.538055188969 -4.55313580872e-26)
(-0.523572708654 0.755930848037 0)
(-0.514194782108 0.970400606156 0)
(-0.502670902013 1.18055295992 0)
(-0.489156849985 1.38555806962 0)
(-0.47383850039 1.58464835829 0)
(-0.456912130265 1.7771375042 0)
(-0.438588726166 1.96242390227 0)
(-0.419078263392 2.13999424788 0)
(-0.398595772693 2.30942308922 0)
(-0.377345338792 2.47037165233 0)
(-0.355528743206 2.62258375879 0)
(-0.333329673679 2.76588159078 0)
(-0.310924981011 2.90015940962 0)
(-0.288469265537 3.02537765745 0)
(-0.266108439277 3.14155574822 0)
(-0.243964579969 3.2487656262 0)
(-0.222151322283 3.34712458642 0)
(-0.200758757524 3.43678909856 0)
(-0.179870159952 3.5179482812 0)
(-0.159546715864 3.5908184492 0)
(-0.139845151013 3.6556375576 0)
(-0.12080212981 3.71266069243 0)
(-0.102452447994 3.76215558655 0)
(-0.0848130201649 3.8043990657 0)
(-0.0679013916038 3.83967358233 0)
(-0.0517192927556 3.86826453444 0)
(-0.0362712949365 3.89045767966 0)
(-0.0215479248071 3.906537128 0)
(-0.00754429469636 3.91678309492 0)
(0.00575692419539 3.92147003408 0)
(0.0183643311551 3.92086949954 0)
(0.0302693152235 3.91525218578 0)
(0.0415207443056 3.90487550513 0)
(0.0521480308033 3.88998382613 0)
(0.0621687136126 3.8708166344 0)
(0.0716100158341 3.84760549757 0)
(0.0804904572293 3.82057372699 0)
(0.0888376768909 3.78993605628 0)
(0.0966702307073 3.75589867349 0)
(0.104015382892 3.71865919692 0)
(0.110891122399 3.6784068724 0)
(0.11732383044 3.6353226281 0)
(0.123330555939 3.58957937231 0)
(0.128936480785 3.54134206631 0)
(0.134157502304 3.49076808463 0)
(0.139017428055 3.43800729433 0)
(0.14353090949 3.38320245897 0)
(0.147720300285 3.32648929698 0)
(0.151598989218 3.26799691061 0)
(0.155187864407 3.20784782602 0)
(0.158499088496 3.14615844019 0)
(0.161552112828 3.08303902636 0)
(0.164357940584 3.01859418876 0)
(0.166934642495 2.95292284239 0)
(0.169292147798 2.88611867431 0)
(0.171447214246 2.81827008716 0)
(0.173408788401 2.74946066144 0)
(0.175192389517 2.67976907422 0)
(0.17680607456 2.60926956379 0)
(0.178264196301 2.53803181591 0)
(0.179574009749 2.4661214278 0)
(0.180748770621 2.39359977349 0)
(0.18179501414 2.32052446951 0)
(0.182724960206 2.24694921342 0)
(0.183544496947 2.17292424934 0)
(0.184264863578 2.0984961902 0)
(0.184891366213 2.02370848577 0)
(0.185434308913 1.94860122353 0)
(0.185898470894 1.87321159802 0)
(0.186293260103 1.79757369959 0)
(0.186622976502 1.72171898725 0)
(0.186896162307 1.64567606139 0)
(0.187116676764 1.56947113884 0)
(0.187292221561 1.49312781796 0)
(0.187426247047 1.41666755675 0)
(0.187525632988 1.34010942764 0)
(0.187593444527 1.26347059719 0)
(0.187635754461 1.18676607786 0)
(0.187655260341 1.11000920984 0)
(0.187657236647 1.03321140916 0)
(0.18764402364 0.956382651256 0)
(0.187620098572 0.879531220096 0)
(0.187587446707 0.802664190151 0)
(0.18754973199 0.725787162482 0)
(0.187508562874 0.648904735639 0)
(0.187466736748 0.572020197539 0)
(0.187425398838 0.495135955 0)
(0.187386363342 0.41825317003 0)
(0.187350253618 0.34137182562 0)
(0.187317770053 0.26449016992 0)
(0.187280626085 0.187535410259 0)
(0.186887298005 0.111581475956 0)
(0.176776910482 0.0339612325888 0)
(-0.711967686052 0.113328211295 0)
(-0.757195825901 0.318738143374 0)
(-0.751428639926 0.54527900188 4.51855685767e-26)
(-0.741506175183 0.76576740725 0)
(-0.728334532501 0.982873628009 0)
(-0.7121825661 1.19547063596 0)
(-0.693277233497 1.4027133957 0)
(-0.671883543844 1.60380995568 0)
(-0.64828484251 1.79806001748 0)
(-0.622778565281 1.98485491422 0)
(-0.595664377402 2.16368040489 0)
(-0.567241062921 2.33411586448 0)
(-0.537796219274 2.49583182166 0)
(-0.507605697592 2.64858536051 0)
(-0.476925155688 2.79221457923 0)
(-0.44599209819 2.92663179172 0)
(-0.415019202815 3.05181648482 0)
(-0.384198569207 3.16780772846 0)
(-0.353696405828 3.27469685748 0)
(-0.323658889359 3.37262010518 0)
(-0.294207694527 3.46175181437 0)
(-0.265446872944 3.54229789481 0)
(-0.237458763386 3.61448999371 0)
(-0.210311397509 3.6785800528 0)
(-0.18405444577 3.73483558718 0)
(-0.158726806802 3.78353538372 0)
(-0.134352376285 3.82496585909 0)
(-0.110947595949 3.85941781153 0)
(-0.0885169332558 3.88718372989 0)
(-0.0670602628387 3.90855545594 0)
(-0.0465679853377 3.92382231612 0)
(-0.0270280957581 3.93326936973 0)
(-0.00842077284185 3.93717643496 0)
(0.00927590668465 3.93582085884 0)
(0.0260962272721 3.92947011825 0)
(0.0420547210719 3.9183749869 0)
(0.0571783574998 3.90278570336 0)
(0.0714932841879 3.88294392849 0)
(0.085029707477 3.85908215031 0)
(0.0978152461714 3.83142402582 0)
(0.109880717608 3.80018435268 0)
(0.12125376948 3.76556916086 0)
(0.131964787238 3.72777579218 0)
(0.142040675525 3.68699307286 0)
(0.151510784438 3.64340146233 0)
(0.160400818521 3.5971732908 0)
(0.168738735026 3.54847294276 0)
(0.176548784494 3.49745713442 0)
(0.183857347521 3.44427510992 0)
(0.190687107514 3.3890689374 0)
(0.197062795132 3.33197370263 0)
(0.203005505199 3.27311781298 0)
(0.208538324353 3.21262317971 0)
(0.213680797896 3.15060552 0)
(0.218454416934 3.08717452197 0)
(0.222877250116 3.02243414143 0)
(0.226969271498 2.95648274784 0)
(0.230747165167 2.88941341174 0)
(0.234229475054 2.82131402992 0)
(0.23743159804 2.75226760408 0)
(0.240370740841 2.68235234659 0)
(0.243061110233 2.61164194897 0)
(0.245518661707 2.54020566869 0)
(0.247756501827 2.46810858933 0)
(0.249789416495 2.39541169101 0)
(0.251629493955 2.32217210227 0)
(0.253290419765 2.24844315499 0)
(0.254783334511 2.17427463025 0)
(0.256120884999 2.0997128006 0)
(0.257313325014 2.02480067041 0)
(0.258372311334 1.94957800634 0)
(0.259307260655 1.87408157411 0)
(0.260128880931 1.79834515998 0)
(0.260845792562 1.72239980469 0)
(0.261467784884 1.6462738165 0)
(0.262002713426 1.56999300378 0)
(0.262459473219 1.4935806823 0)
(0.262845179156 1.41705790693 0)
(0.263167847981 1.34044347342 0)
(0.263433870849 1.26375415 0)
(0.263650398034 1.18700467616 0)
(0.263823108121 1.11020799493 0)
(0.263958289982 1.03337525005 0)
(0.264060914727 0.956516018771 0)
(0.264136409528 0.879638309946 0)
(0.264189037392 0.80274879263 0)
(0.264223354328 0.725852783078 0)
(0.264242905436 0.648954455843 0)
(0.264251361958 0.572056798772 0)
(0.26425154574 0.495161801979 0)
(0.264246282288 0.418270389045 0)
(0.264237889721 0.34138243656 0)
(0.264228229286 0.264497486759 0)
(0.264204810798 0.187529100283 0)
(0.263665440519 0.111906487305 0)
(0.249291224888 0.0331786246554 0)
(-0.924038164207 0.123544638119 0)
(-0.982897812995 0.321290143727 0)
(-0.975281561043 0.555035665002 0)
(-0.9622474242 0.779045481514 0)
(-0.944941673089 0.999709932258 0)
(-0.92373157257 1.21559856246 0)
(-0.898921276607 1.42585171535 0)
(-0.870863362331 1.62964444109 0)
(-0.839935438747 1.82625773492 0)
(-0.806531226321 2.01507335862 0)
(-0.771048345313 2.19557618122 0)
(-0.73388020402 2.36735235222 0)
(-0.69540648967 2.53008547431 0)
(-0.6559881699 2.68355083896 0)
(-0.61596099608 2.82760847534 0)
(-0.575633672384 2.962195257 0)
(-0.535284105233 3.08731666519 0)
(-0.49516018501 3.2030383618 0)
(-0.455478106207 3.30947800172 0)
(-0.416424973438 3.40679733533 0)
(-0.378158427246 3.49519487976 0)
(-0.340810314373 3.57489912286 0)
(-0.304486956586 3.64616241982 0)
(-0.269273284517 3.70925549903 0)
(-0.235233269359 3.7644626591 0)
(-0.202414111216 3.81207754771 0)
(-0.170846532218 3.85239955384 0)
(-0.140548777994 3.88573070538 0)
(-0.111526616306 3.91237307759 0)
(-0.0837770319857 3.93262663039 0)
(-0.0572878613735 3.94678744483 0)
(-0.0320411775812 3.95514600012 0)
(-0.00801280141028 3.95798614304 0)
(0.0148248077398 3.95558923229 0)
(0.0365046250145 3.94822633459 0)
(0.0570618986857 3.93615178665 0)
(0.0765330215788 3.91961530446 0)
(0.0949547684079 3.89885944626 0)
(0.112365652522 3.87411727994 0)
(0.128803652547 3.84561275097 0)
(0.14430778604 3.81356064553 0)
(0.158915884839 3.77816673217 0)
(0.172666287319 3.73962790454 0)
(0.185595735207 3.69813237793 0)
(0.197741139868 3.65385989577 0)
(0.209137577064 3.60698197305 0)
(0.219820093845 3.55766213088 0)
(0.229821783665 3.50605616311 0)
(0.239175607544 3.45231238298 0)
(0.247912537356 3.39657189771 0)
(0.256063371603 3.33896885054 0)
(0.263656940034 3.2796306917 0)
(0.270721897601 3.21867841157 0)
(0.277284986033 3.15622680268 0)
(0.283372793697 3.09238467574 0)
(0.289010073086 3.0272551084 0)
(0.294221455898 2.96093564561 0)
(0.299029826302 2.89351853446 0)
(0.303457983267 2.8250909051 0)
(0.307527071568 2.75573499086 0)
(0.31125818415 2.68552829349 0)
(0.314670852799 2.61454379005 0)
(0.31778458508 2.54285008081 0)
(0.32061741809 2.47051158346 0)
(0.323187384763 2.39758866817 0)
(0.325511133579 2.32413784136 0)
(0.327605320156 2.25021186696 0)
(0.329485296961 2.17585994084 0)
(0.331166426111 2.10112780258 0)
(0.332662842369 2.02605790274 0)
(0.333988683747 1.95068950449 0)
(0.335156932077 1.87505884476 0)
(0.336180557937 1.7991992296 0)
(0.337071442192 1.72314119108 0)
(0.337841432194 1.64691257584 0)
(0.33850134847 1.57053869867 0)
(0.339061949218 1.49404242742 0)
(0.339533025219 1.41744433468 0)
(0.339924270067 1.34076277831 0)
(0.340244466796 1.26401405195 0)
(0.340502261668 1.18721246358 0)
(0.340705444621 1.11037048631 0)
(0.340861624716 1.03349883571 0)
(0.340977607196 0.956606620639 0)
(0.341059968759 0.879701422895 0)
(0.341114533967 0.802789441773 0)
(0.341146848411 0.725875565256 0)
(0.341161760634 0.648963504016 0)
(0.341163796424 0.572055826452 0)
(0.341156863787 0.495154092924 0)
(0.341144558094 0.418258990543 0)
(0.341130056036 0.341370185325 0)
(0.341115458054 0.264487776579 0)
(0.341083287416 0.187504223355 0)
(0.340380467262 0.112306887584 0)
(0.321797065595 0.032111776147 0)
(-1.14030310126 0.136617714282 0)
(-1.2130764974 0.324513397586 0)
(-1.20345608548 0.567532583535 0)
(-1.18710877071 0.796036208003 0)
(-1.16540479737 1.02124734514 0)
(-1.13882405353 1.24132752327 0)
(-1.10775955058 1.45540313572 0)
(-1.07266479384 1.66260755903 0)
(-1.03402379885 1.86219909326 0)
(-0.99233853089 2.05354862684 0)
(-0.948114352577 2.23614161845 0)
(-0.901848353532 2.4095746963 0)
(-0.854018688245 2.57355008886 0)
(-0.805077020809 2.72786811692 0)
(-0.755442049075 2.87241846973 0)
(-0.705496029622 3.00717073991 0)
(-0.655581975051 3.1321647307 0)
(-0.606003427993 3.24750085213 0)
(-0.557024334011 3.3533309261 0)
(-0.508870984975 3.44984955478 0)
(-0.461733515737 3.5372862095 0)
(-0.41576903163 3.61589807655 0)
(-0.371103862866 3.6859637082 0)
(-0.327837129152 3.74777744401 0)
(-0.286043145784 3.80164458594 0)
(-0.245774941826 3.84787726043 0)
(-0.207066454524 3.88679092243 0)
(-0.169935731171 3.91870142533 0)
(-0.134386732276 3.94392260397 0)
(-0.100412098688 3.96276432254 0)
(-0.0679944874698 3.97553088708 0)
(-0.0371089361049 3.98251942578 0)
(-0.00772392586322 3.98401930873 0)
(0.0201979377673 3.98031770787 0)
(0.0466995739453 3.97168680584 0)
(0.0718229327766 3.95838349704 0)
(0.0956131247239 3.94065916239 0)
(0.11811659734 3.91875759081 0)
(0.139380916031 3.89291249233 0)
(0.159453716252 3.86334804147 0)
(0.178382871919 3.83027889899 0)
(0.196215578982 3.79391042038 0)
(0.212998669463 3.75443886155 0)
(0.228777823339 3.71205162085 0)
(0.243597983769 3.66692749275 0)
(0.257502664166 3.61923693902 0)
(0.270534431116 3.56914236146 0)
(0.282734282335 3.5167983845 0)
(0.294142172362 3.46235213006 0)
(0.304796441173 3.40594349743 0)
(0.314734363346 3.34770543009 0)
(0.323991615342 3.28776418553 0)
(0.332602834337 3.22623958761 0)
(0.34060111362 3.16324528097 0)
(0.348018560334 3.09888896599 0)
(0.354885814159 3.03327263639 0)
(0.361232596525 2.96649279565 0)
(0.367087247554 2.89864067667 0)
(0.372477260797 2.82980243996 0)
(0.377428837481 2.76005937678 0)
(0.381967402886 2.68948809017 0)
(0.386117175842 2.61816068235 0)
(0.389901663458 2.54614492017 0)
(0.393343246884 2.473504409 0)
(0.396463652392 2.40029874467 0)
(0.399283552933 2.32658367518 0)
(0.401823013674 2.25241124083 0)
(0.404101111293 2.17782992621 0)
(0.406136352898 2.10288479063 0)
(0.407946313421 2.0276176116 0)
(0.409548026711 1.95206700719 0)
(0.410957643338 1.87626857316 0)
(0.412190793172 1.80025499897 0)
(0.413262264367 1.72405619979 0)
(0.414186336573 1.64769942748 0)
(0.414976483397 1.57120939911 0)
(0.415645675716 1.49460840439 0)
(0.41620610852 1.41791643161 0)
(0.416669473673 1.34115127216 0)
(0.417046713156 1.26432864518 0)
(0.417348260884 1.1874623001 0)
(0.417583823059 1.11056414125 0)
(0.417762588715 1.03364433036 0)
(0.417893038952 0.956711411053 0)
(0.417983126083 0.879772413841 0)
(0.418040113488 0.802832975712 0)
(0.418070723659 0.725897438857 0)
(0.41808101325 0.648968957414 0)
(0.418076495692 0.572049580293 0)
(0.418062059092 0.495140368488 0)
(0.41804207514 0.418241549858 0)
(0.418020398047 0.341352341041 0)
(0.417999208143 0.264473119576 0)
(0.417956259976 0.187467847524 0)
(0.41708816518 0.112797608706 0)
(0.394310668097 0.0307667636438 0)
(-1.36181763747 0.152768846398 0)
(-1.4489018882 0.328460784616 0)
(-1.43708074895 0.582972803249 4.43876789844e-26)
(-1.41716334618 0.816998871312 0)
(-1.3907262077 1.04780710008 0)
(-1.35837893223 1.27302795115 0)
(-1.32061667184 1.49177515148 0)
(-1.278008924 1.70313122012 0)
(-1.23116046704 1.90632836233 0)
(-1.18069507847 2.1007264059 0)
(-1.1272375427 2.28581430205 0)
(-1.07139872293 2.46120450679 0)
(-1.01376298072 2.62662509637 0)
(-0.954878747834 2.7819098998 0)
(-0.895251500306 2.92698749681 0)
(-0.835339566744 3.06186970348 0)
(-0.775551770068 3.18664008564 0)
(-0.71624722743 3.30144288052 0)
(-0.657736239267 3.40647261784 0)
(-0.600282622066 3.50196460544 0)
(-0.544106457514 3.58818638487 0)
(-0.489387701611 3.66543017692 0)
(-0.436269710612 3.73400630887 0)
(-0.38486322514 3.79423756699 0)
(-0.335249954096 3.84645441183 0)
(-0.287486378822 3.89099096919 0)
(-0.241606987446 3.92818171649 0)
(-0.197627615234 3.95835877476 0)
(-0.155548149514 3.98184973528 0)
(-0.115355297339 3.99897596757 0)
(-0.0770246990165 4.01005123552 0)
(-0.0405232243012 4.01538020279 0)
(-0.0058106727195 4.01525869653 0)
(0.0271607764823 4.00998072938 0)
(0.058442655538 3.99981890582 0)
(0.0880871994975 3.98503378517 0)
(0.116149475827 3.96587824253 0)
(0.142686065986 3.9425972854 0)
(0.167754366943 3.91542519215 0)
(0.191411895171 3.88458623375 0)
(0.213715999176 3.85029476865 0)
(0.234723323163 3.81275553069 0)
(0.254489685861 3.7721639019 0)
(0.273069684779 3.72870620968 0)
(0.290516692728 3.68256003086 0)
(0.306882564383 3.63389450132 0)
(0.322217714907 3.58287062426 0)
(0.336570898237 3.52964157731 0)
(0.349989340209 3.47435301307 0)
(0.362518565909 3.41714335418 0)
(0.374202567388 3.35814407764 0)
(0.385083663627 3.29747999193 0)
(0.39520268787 3.2352695022 0)
(0.404598868561 3.17162486719 0)
(0.413310026009 3.10665244277 0)
(0.421372466249 3.0404529179 0)
(0.428821179352 2.97312153759 0)
(0.435689740753 2.90474831879 0)
(0.442010506307 2.83541825314 0)
(0.44781451765 2.76521150409 0)
(0.453131690276 2.69420359201 0)
(0.457990720846 2.62246557471 0)
(0.462419266217 2.55006421628 0)
(0.466443851694 2.47706215291 0)
(0.47009003942 2.4035180484 0)
(0.47338233719 2.32948674771 0)
(0.476344355554 2.25501942056 0)
(0.478998717443 2.18016370458 0)
(0.481367203452 2.10496383976 0)
(0.48347066271 2.0294608034 0)
(0.485329146355 1.95369243647 0)
(0.48696182048 1.87769357197 0)
(0.488387087758 1.80149615569 0)
(0.489622503229 1.72512936957 0)
(0.490684884318 1.64861974773 0)
(0.491590230526 1.57199129632 0)
(0.492353821968 1.49526560648 0)
(0.492990143798 1.41846197194 0)
(0.493512973569 1.34159749929 0)
(0.493935311412 1.26468722438 0)
(0.494269456453 1.18774422102 0)
(0.494526943476 1.11077971759 0)
(0.494718608754 1.03380320602 0)
(0.494854534339 0.956822558612 0)
(0.494944103846 0.879844140749 0)
(0.49499595567 0.802872922151 0)
(0.495018029965 0.725912585212 0)
(0.495017533751 0.648965631831 0)
(0.495000981469 0.572033462957 0)
(0.494974177912 0.495116499704 0)
(0.494942251975 0.418214437442 0)
(0.494909654733 0.341325774045 0)
(0.494878700454 0.264450827259 0)
(0.494822825746 0.187418373987 0)
(0.493788479933 0.113382402551 0)
(0.466822473938 0.029148001649 0)
(-1.58972239133 0.172271122963 0)
(-1.69161289996 0.333190907448 0)
(-1.67734287799 0.601614429954 -4.4021657902e-26)
(-1.65352787922 0.842263929202 0)
(-1.62193202683 1.07979644165 0)
(-1.58331762865 1.3111665944 0)
(-1.53829965026 1.53547808954 0)
(-1.48758306219 1.75175279026 0)
(-1.43191203797 1.95919425976 0)
(-1.37204935989 2.15715258197 0)
(-1.30875410137 2.3451250856 0)
(-1.2427632804 2.52274764308 0)
(-1.17477701282 2.68978369397 0)
(-1.10544750813 2.84611127039 0)
(-1.03537146576 2.9917090897 0)
(-0.965085709967 3.12664246749 0)
(-0.895065368897 3.25104964651 0)
(-0.825724313846 3.36512895644 0)
(-0.757417142445 3.46912707241 0)
(-0.690442477282 3.56332851413 0)
(-0.62504696359 3.64804643246 0)
(-0.561429860437 3.72361466214 0)
(-0.499747739895 3.79038097061 0)
(-0.440119311719 3.84870140601 0)
(-0.382630004097 3.89893562944 0)
(-0.327336413694 3.9414431159 0)
(-0.274270339984 3.97658010555 0)
(-0.223442580313 4.00469719729 0)
(-0.174846256622 4.02613749334 0)
(-0.128459874069 4.04123523347 0)
(-0.084249908767 4.05031465169 0)
(-0.042173309592 4.05368867693 0)
(-0.00217944618083 4.05166049063 0)
(0.0357918615078 4.04453169397 0)
(0.0718011311114 4.03257381107 0)
(0.105911812762 4.01605219841 0)
(0.138189788499 3.99522113146 0)
(0.16870236971 3.97032672584 0)
(0.197517411882 3.94160365429 0)
(0.224702692461 3.90927606375 0)
(0.250325472788 3.87355775724 0)
(0.274452061799 3.83465256999 0)
(0.297147560424 3.79275471685 0)
(0.318475580045 3.74804915263 0)
(0.338498116723 3.70071192929 0)
(0.357275379245 3.65091054934 0)
(0.374865753425 3.59880431145 0)
(0.391325705809 3.54454464726 0)
(0.406709808364 3.48827544646 0)
(0.4210706921 3.43013337063 0)
(0.434459110219 3.3702481538 0)
(0.446923923681 3.30874289106 0)
(0.458512187227 3.24573431302 0)
(0.46926915351 3.18133304851 0)
(0.479238370782 3.11564387365 0)
(0.488461696912 3.04876594988 0)
(0.496979401144 2.98079304912 0)
(0.504830181522 2.91181376886 0)
(0.512051265466 2.84191173565 0)
(0.518678426938 2.77116579992 0)
(0.524746082547 2.69965022024 0)
(0.530287305714 2.62743484029 0)
(0.535333916161 2.5545852566 0)
(0.539916490045 2.48116298036 0)
(0.544064441783 2.40722559128 0)
(0.547806029307 2.33282688658 0)
(0.551168427697 2.25801702333 0)
(0.55417772981 2.18284265717 0)
(0.556859011747 2.10734707534 0)
(0.559236328966 2.031570327 0)
(0.561332773796 1.95554934896 0)
(0.563170467848 1.87931808962 0)
(0.564770612079 1.80290762913 0)
(0.566153476018 1.72634629852 0)
(0.567338440864 1.64965979577 0)
(0.568343986547 1.57287130168 0)
(0.569187728479 1.49600159315 0)
(0.569886403069 1.4190691569 0)
(0.570455898708 1.34209030073 0)
(0.570911240713 1.26507926624 0)
(0.571266617168 1.18804833882 0)
(0.571535363902 1.11100796078 0)
(0.571729985829 1.03396684228 0)
(0.571862142982 0.956932075058 0)
(0.571942668118 0.879909247034 0)
(0.571981554895 0.802902552461 0)
(0.571987972666 0.725914903114 0)
(0.571970258534 0.64894802815 0)
(0.571935931643 0.572002575163 0)
(0.571891687752 0.495078222559 0)
(0.571843406067 0.418173894792 0)
(0.571796157996 0.341287205205 0)
(0.571752456311 0.264418658742 0)
(0.57168168934 0.187354551696 0)
(0.570479841489 0.11406206685 0)
(0.53932764808 0.0272569501052 0)
(-1.82526826061 0.195463125799 0)
(-1.94256308638 0.338775339549 0)
(-1.92553456347 0.623780989938 0)
(-1.89741183173 0.872246636062 0)
(-1.86012572482 1.117725412 0)
(-1.81462163709 1.35632537455 0)
(-1.76165759741 1.58714497492 0)
(-1.70209911096 1.80913521942 0)
(-1.63685340343 2.02146986377 0)
(-1.56684363157 2.22349275758 0)
(-1.49298135497 2.41471724648 0)
(-1.4161444488 2.59481322132 0)
(-1.3371598528 2.76359201585 0)
(-1.25679124304 2.92098939919 0)
(-1.17573112465 3.06704800419 0)
(-1.09459681551 3.20190007698 0)
(-1.01392956702 3.32575120393 0)
(-0.934196199358 3.43886543252 0)
(-0.855792537205 3.54155201803 0)
(-0.779048144747 3.6341538749 0)
(-0.704231813607 3.71703771089 0)
(-0.631557485019 3.79058574472 0)
(-0.561190241065 3.85518887051 0)
(-0.493252210132 3.91124110517 0)
(-0.427828165851 3.95913515487 0)
(-0.364970782395 3.99925893571 0)
(-0.304705422607 4.03199289903 0)
(-0.247034496166 4.05770802101 0)
(-0.191941322512 4.07676435569 0)
(-0.139393559001 4.08951007104 0)
(-0.0893461605079 4.09628058098 0)
(-0.0417441773792 4.09739751585 0)
(0.00347521319889 4.09317217848 0)
(0.0463866330633 4.08391425555 0)
(0.0870597312518 4.06989231375 0)
(0.12557077355 4.05137769005 0)
(0.161997358577 4.02862571555 0)
(0.196418235509 4.00188337728 0)
(0.228912344602 3.97138545332 0)
(0.25955819436 3.93735564591 0)
(0.288433374502 3.90000686302 0)
(0.315614146747 3.85954169033 0)
(0.341175154192 3.81615281994 0)
(0.365189178724 3.77002347838 0)
(0.387726988675 3.72132784129 0)
(0.40885721169 3.67023143365 0)
(0.428646277395 3.61689151455 0)
(0.447158368165 3.56145744497 0)
(0.464455424635 3.50407103879 0)
(0.480597147143 3.44486689647 0)
(0.495641040952 3.3839727217 0)
(0.50964244873 3.32150962141 0)
(0.522654618841 3.25759238974 0)
(0.534728755091 3.19232977656 0)
(0.545914096604 3.12582474119 0)
(0.556257975251 3.05817469205 0)
(0.565805899095 2.98947171347 0)
(0.574601611133 2.91980277996 0)
(0.582687171127 2.84924995903 0)
(0.590103011485 2.77789060347 0)
(0.596888014091 2.70579753374 0)
(0.603079560822 2.63303921154 0)
(0.608713603506 2.55967990484 0)
(0.613824707725 2.48577984574 0)
(0.61844611487 2.41139538134 0)
(0.622609778708 2.33657911875 0)
(0.626346419312 2.26138006435 0)
(0.629685552435 2.18584375847 0)
(0.632655535438 2.11001240554 0)
(0.635283589877 2.0339250008 0)
(0.637595839965 1.95761745324 0)
(0.639617329042 1.88112270621 0)
(0.64137205117 1.80447085521 0)
(0.64288296229 1.72768926406 0)
(0.64417200574 1.65080267903 0)
(0.645260118951 1.57383334198 0)
(0.646167253675 1.49680110216 0)
(0.646912379072 1.41972352767 0)
(0.647513497442 1.34261601549 0)
(0.647987644601 1.26549190244 0)
(0.648350901874 1.1883625742 0)
(0.648618394535 1.11123757712 0)
(0.648804300847 1.03412472853 0)
(0.648921849485 0.957030229655 0)
(0.648983326417 0.87995878058 0)
(0.649000072141 0.802913688592 0)
(0.64898248736 0.725896980535 0)
(0.648940030982 0.648909508953 0)
(0.648881224316 0.571951034525 0)
(0.648813650939 0.495020342065 0)
(0.648743950854 0.418115559853 0)
(0.648677817891 0.341233219467 0)
(0.648618024966 0.264373920589 0)
(0.648530132232 0.1872744064 0)
(0.647159051185 0.114836422045 0)
(0.611821889292 0.025094499356 0)
(-2.06984011219 0.222762332335 0)
(-2.20325027089 0.345303937828 0)
(-2.18307792797 0.649874918328 0)
(-2.15013730434 0.907463290653 0)