/*--------------------------------*- C++ -*----------------------------------*\
| =========                 |                                                 |
| \\      /  F ield         | OpenFOAM: The Open Source CFD Toolbox           |
|  \\    /   O peration     | Version:  v1906                                 |
|   \\  /    A nd           | Web:      www.OpenFOAM.com                      |
|    \\/     M anipulation  |                                                 |
\*---------------------------------------------------------------------------*/
FoamFile
{
    version     2.0;
    format      ascii;
    class       surfaceScalarField;
    location    "684";
    object      phia;
}
// * * * * * * * * * * * * * * * * * * * * * * * * * * * * * * * * * * * * * //

dimensions      [0 3 -1 0 0 0 0];
oriented        oriented;


internalField   nonuniform List<scalar> 
18240
(
0.00134691795377
-0.00134690543775
0.00282147486971
-0.00147454511061
0.00429497370399
-0.00147348453231
0.0057497190203
-0.00145473385244
0.00717770901339
-0.00142797477343
0.00857218214689
-0.00139446193645
0.00992709563585
-0.00135489751092
0.0112369775831
-0.00130987090731
0.0124969584949
-0.00125996420554
0.0137027426201
-0.00120577313428
0.0148506620749
-0.00114790203485
0.0159376314274
-0.00108695832953
0.0169611889882
-0.00102353948119
0.0179194266523
-0.00095822655336
0.0188110183707
-0.000891573046111
0.0196351307368
-0.000824101135788
0.0203914439516
-0.000756294050746
0.0210800506022
-0.000688595289018
0.0217014747771
-0.000621404623499
0.0222565659618
-0.00055507970152
0.0227465209131
-0.000489935144161
0.023172778022
-0.000426245532245
0.0235370447176
-0.000364246760956
0.0238411956058
-0.000304139265277
0.0240873062714
-0.000246090751321
0.0242775565844
-0.000190238704959
0.0244142702432
-0.000136693902178
0.0244998234346
-8.55416723151e-05
0.0245366889462
-3.68460601604e-05
0.0245273503726
9.34992304502e-06
0.0244743515055
5.30178841027e-05
0.0243802079127
9.41546890893e-05
0.0242474518862
0.000132774478665
0.0240785635121
0.000168899137488
0.0238760226859
0.000202558607314
0.0236422345524
0.000233798487068
0.0233795798123
0.00026267174639
0.0230903464566
0.000289243227771
0.0227767807281
0.000313581879909
0.0224410234753
0.000335766576739
0.0220851609101
0.00035587778644
0.0217111653413
0.000374004285727
0.0213209453424
0.000390234238167
0.0209162907494
0.000404662651523
0.0204989220272
0.000417381933658
0.0200704394235
0.000428489961417
0.0196323713725
0.000438080210912
0.019186127671
0.000446250324239
0.0187330468214
0.000453091940175
0.0182743530304
0.000458699654907
0.0178112023566
0.000463160696882
0.0173446432544
0.000466564192255
0.0168756613768
0.00046899084072
0.0164051432916
0.000470522397094
0.0159339197199
0.000471231500003
0.0154627319798
0.000471191278837
0.0149922734298
0.000470465473501
0.0145231581503
0.000469118061453
0.0140559603351
0.000467203779087
0.0135911847351
0.000464777651151
0.0131293037921
0.000461885996073
0.0126707294235
0.000458575726136
0.0122158477392
0.000454885888014
0.0117649918503
0.000450856599671
0.0113184741129
0.000446521155046
0.0108765597662
0.000441914467545
0.0104394967211
0.000437065749281
0.0100074899676
0.00043200634894
0.00958072902182
0.00042676300805
0.00915936315925
0.000421365004093
0.0087435266752
0.000415837980808
0.00833331509856
0.000410210339038
0.00792880846162
0.000404507639083
0.00753004870937
0.000398758211318
0.00713706115874
0.000392988127856
0.0067498333521
0.000387226034689
0.00636833487323
0.000381498691249
0.00599249789065
0.000375835046481
0.00562223545098
0.000370262342247
0.00525742394051
0.000364809469688
0.00489791995163
0.000359503627806
0.00454354486816
0.000354372993832
0.00419410038255
0.000349443907371
0.00384935545226
0.000344742853745
0.00350906065611
0.000340294055487
0.00317293809916
0.00033612058242
0.0028406955021
0.000332241774999
0.00251202151058
0.000328672218832
0.00218660504305
0.000325415603799
0.00186415059945
0.00032245287358
0.00154444116932
0.000319708537591
0.00122747512644
0.000316964709015
0.00091385960978
0.000313614598242
0.00060632155578
0.000307537318502
0.000315815053868
0.000290505894046
0.000315814661009
0.00148906455919
-0.00283595731756
0.0031512512197
-0.00313671935876
0.00480433879778
-0.00312655819983
0.00643362293212
-0.00308400498485
0.00803168571492
-0.00302602330882
0.00959157818998
-0.00295434119552
0.0111067156049
-0.00287002029915
0.0125710364431
-0.00277417831609
0.0139791021755
-0.00266801486354
0.0153261275848
-0.00255278483967
0.0166080177273
-0.00242977662417
0.0178213555123
-0.0023002820948
0.0189634096597
-0.00216557759611
0.0200320949892
-0.00202689753348
0.0210259607943
-0.00188542237119
0.0219441326485
-0.00174225832238
0.0227862891277
-0.00159843365281
0.0235525935026
-0.00145488471093
0.0242436661691
-0.00131246009013
0.024860513596
-0.00117191194355
0.0254045023837
-0.00103390649736
0.0258772909431
-0.000899018745919
0.0262808089069
-0.00076774716209
0.0266171946119
-0.000640509551354
0.0268887812286
-0.000517659791478
0.0270980408806
-0.000399482963649
0.0272475770231
-0.00028621257913
0.0273400746105
-0.000178024000082
0.0273782973211
-7.50515405852e-05
0.0273650422353
2.26200244097e-05
0.0273031379399
0.000114939049338
0.0271954107937
0.000201896497266
0.027044695499
0.000283506167359
0.0268537895373
0.000359819306131
0.0266254576712
0.000430906284217
0.0263624021608
0.000496867655366
0.0260672722338
0.00055781680639
0.0257426356666
0.000613892818378
0.0253909894023
0.000665242513725
0.0250147343247
0.000712033967301
0.0246161872011
0.000754438444795
0.0241975585444
0.000792644479801
0.0237609656621
0.000826839759751
0.0233084134279
0.000857225593285
0.02284180827
0.000883998789191
0.0223629416968
0.000907366369859
0.0218735050972
0.000927527531562
0.0213750758657
0.000944688487065
0.020869132903
0.000959044626488
0.0203570451397
0.000970795425946
0.0198400875802
0.000980126972207
0.0193194319527
0.000987226895401
0.0187961630763
0.000992267428678
0.0182712712733
0.00099542034658
0.0177456687623
0.000996840731741
0.0172201833931
0.000996681879426
0.0166955747199
0.000995079902724
0.0161725285797
0.000992168543367
0.0156516724811
0.000988064704768
0.0151335705606
0.000982883059681
0.0146187379641
0.000976722537626
0.0141076357799
0.000969680591314
0.013600684164
0.000961840622242
0.0130982569593
0.000953285734389
0.01260069343
0.000944087040709
0.0121082924071
0.000934316734556
0.0116213226119
0.000924037209427
0.0111400163058
0.000913313285079
0.0106645782945
0.000902202069481
0.0101951791775
0.000890764214282
0.00973196320409
0.00087905446797
0.00927504130872
0.000867131870186
0.00882449804015
0.000855050963608
0.00838038462158
0.000842870886588
0.00794272518385
0.000830647238299
0.00751151010589
0.00081844006407
0.00708670177074
0.000806306384408
0.00666822842746
0.000794307102924
0.00625598964995
0.000782500223527
0.00584985092985
0.000770946723892
0.00544964897817
0.000759704482634
0.00505518722009
0.00074883316166
0.00466624104124
0.000738388841576
0.00428255433439
0.000728427906368
0.00390384477784
0.000719002284866
0.00352980158239
0.000710162145645
0.00316009078432
0.000701951260783
0.00279435388338
0.000694407595794
0.00243221131367
0.000687556922366
0.00207325486664
0.000681407936672
0.00171702337773
0.000675938797176
0.00136290354293
0.000671083276767
0.00100980946063
0.000666707749855
0.000654805662667
0.000662540365827
0.000289663555068
0.000655647366475
0.000605477977121
0.00151537219623
-0.0043513177184
0.00319884389962
-0.0048201782166
0.00487567348645
-0.00480337522036
0.0065285868034
-0.00473690553766
0.00814942221018
-0.00464684570301
0.00973090975316
-0.00453581577595
0.0112662864527
-0.00440538361292
0.0127493703876
-0.00425724897762
0.0141746301994
-0.00409326088558
0.0155372245775
-0.0039153655606
0.0168330249371
-0.00372556274869
0.0180586153145
-0.00352585839486
0.0192112826471
-0.0033182302379
0.0202889893797
-0.00310458976238
0.0212903416609
-0.00288675951755
0.0222145443687
-0.00266644612117
0.0230613563812
-0.00244523012742
0.0238310369285
-0.00222454998636
0.0245242961755
-0.00200570345317
0.0251422405477
-0.00178984074583
0.0256863251887
-0.00157797499023
0.0261583037731
-0.00137098154424
0.0265601869087
-0.00116961397879
0.0268941992251
-0.00097450596478
0.0271627450596
-0.000786189248248
0.0273683730748
-0.000605095068788
0.0275137485067
-0.000431571690936
0.0276016241094
-0.000265883804598
0.0276348174682
-0.000108228762669
0.0276161868992
4.12661597704e-05
0.0275486129546
0.00018252882738
0.0274349778241
0.00031554684422
0.0272781513315
0.000440348071094
0.0270809738457
0.00055701154956
0.0268462435601
0.000665651454884
0.0265767034146
0.000766421999382
0.026275031219
0.000859503262474
0.0259438298231
0.000945107763724
0.0255856194942
0.00102346639475
0.0252028307554
0.00109483552664
0.0247977987489
0.00115948321914
0.0243727584755
0.00121769677719
0.0239298409404
0.00126976921818
0.0234710705833
0.00131600712142
0.0229983630742
0.00135671732591
0.0225135247756
0.00139221494287
0.0220182520975
0.00142281030576
0.0215141328479
0.00144881708192
0.0210026470544
0.00147053955788
0.0204851700207
0.00148828085597
0.0199629744634
0.00150233069751
0.0194372350198
0.00151297377782
0.0189090314628
0.00152047818132
0.0183793543077
0.00152510398699
0.0178491087746
0.00152709249986
0.0173191210623
0.00152667513819
0.0167901426619
0.00152406359868
0.0162628568187
0.00151945902125
0.0157378827821
0.00151304313183
0.0152157819929
0.0015049876093
0.0146970618907
0.00149544616818
0.0141821814335
0.00148456398331
0.013671554172
0.00147247060519
0.0131655528243
0.00145928924903
0.0126645114511
0.0014451303906
0.0121687289456
0.00143010070618
0.0116784702753
0.00141429718321
0.0111939688896
0.00139781550923
0.0107154271181
0.00138074454695
0.0102430176144
0.00136317400743
0.00977688309442
0.00134518917649
0.00931713702377
0.00132687776117
0.00886386293471
0.00130832480262
0.00841711460819
0.00128961864301
0.00797691522611
0.00127084600833
0.00754325730695
0.00125209709605
0.00711610193541
0.00123346085102
0.00669537868679
0.00121502921385
0.0062809851356
0.00119689263904
0.00587278696238
0.00117914356704
0.0054706178912
0.00116187224159
0.00507428011559
0.00114516946854
0.00468354474951
0.00112912277301
0.00429815263329
0.00111381847428
0.003917815269
0.00109933816007
0.00354221586188
0.00108576000793
0.00317101026474
0.00107315541139
0.00280382708319
0.00106158932451
0.00244026577434
0.00105111685938
0.0020798891585
0.00104178320593
0.00172220333703
0.00103362338009
0.001366611904
0.00102667346165
0.00101232347159
0.00102099508686
0.000658295057691
0.00101656811514
0.000305083510685
0.00100885838701
0.000910561168903
0.00153871154952
-0.0058900184456
0.00324521424467
-0.00652667024139
0.0049451987788
-0.00650334810198
0.00662058932163
-0.00641228459013
0.00826275463574
-0.00628899915561
0.00986410151687
-0.00613715076098
0.0114176427489
-0.00595891266251
0.0129170402509
-0.00575663419348
0.0143566595751
-0.00553286760636
0.0157316057004
-0.00529029895329
0.0170377384628
-0.00503168242829
0.0182716705837
-0.00475977729841
0.0194307496948
-0.00447729576241
0.0205130283653
-0.00418685472153
0.0215172231626
-0.00389094023287
0.0224426671079
-0.00359187587976
0.0232892559056
-0.00329180437945
0.024057392548
-0.00299267200899
0.024747929804
-0.00269622575698
0.0253621152643
-0.00240401121864
0.0259015372809
-0.00211738172436
0.0263680763142
-0.00183750530727
0.0267638586063
-0.00156538075509
0.0270912164387
-0.00130184834669
0.0273526505023
-0.00104760767279
0.0275507986289
-0.000803227680166
0.0276884054011
-0.000569162823599
0.0277682973552
-0.000345760303144
0.0277933577519
-0.000133273645848
0.0277665064609
6.81327204374e-05
0.0276906787466
0.000258371802393
0.0275688076681
0.000437432882372
0.0274038071823
0.00060536344476
0.0271985582712
0.000762274996166
0.0269558942694
0.000908329861324
0.0266785907143
0.00104373956108
0.0263693528912
0.00116875490799
0.0260308087678
0.00128366527098
0.0256654990703
0.0013887892426
0.0252758727087
0.00148447456623
0.0248642790018
0.00157108932795
0.0244329652702
0.00164902240995
0.023984070987
0.00171867508916
0.0235196273366
0.00178046183711
0.0230415531717
0.00183480221241
0.0225516564141
0.00188212188327
0.0220516317522
0.00192284478167
0.0215430637861
0.00195739431349
0.0210274263863
0.00198618583626
0.020506087444
0.0020096281239
0.019980309748
0.00202811631992
0.0194512571101
0.0020420337909
0.0189199965096
0.00205174575218
0.0183875052501
0.00205760167289
0.017854674009
0.00205992976292
0.0173223145827
0.00205904005562
0.0167911633959
0.00205521987944
0.0162618893374
0.00204873766121
0.0157350972591
0.00203983940734
0.0152113354173
0.00202875315985
0.0146910985335
0.0020156863961
0.0141748344307
0.00200083097032
0.0136629463311
0.00198436124892
0.0131557984056
0.00196643929245
0.0126537171209
0.00194721348315
0.0121569955725
0.00192682367338
0.0116658938468
0.00190540005118
0.0111806421592
0.00188306799081
0.0107014403322
0.0018599469281
0.0102284598871
0.00183615470073
0.00976184284367
0.0018118062661
0.0093017029996
0.00178701738833
0.00884812431795
0.00176190310287
0.00840116167013
0.00173658068788
0.00796083909234
0.00171116785365
0.0075271502688
0.00168578500431
0.00710005691872
0.00166055318777
0.00667948926314
0.00163559570814
0.00626534475698
0.00161103591274
0.00585748872997
0.00158699824466
0.00545575361461
0.0015636059599
0.00505993988007
0.00154098171866
0.00466981582304
0.00151924532234
0.00428511880937
0.00149851392748
0.00390555554643
0.00147889987269
0.00353080341051
0.00146051058979
0.00316051070549
0.00144344661941
0.00279429709461
0.00142780146632
0.00243175209798
0.0014136604582
0.00207243174849
0.00140110221543
0.00171585136081
0.00139020243306
0.00136147812121
0.00138104544668
0.00100874135863
0.00137373091717
0.00065722831315
0.00136808037375
0.000308683362333
0.00135740269249
0.00121924430578
0.0015686751406
-0.00745868440625
0.00330704616047
-0.00826503089438
0.00503830535875
-0.00823459757609
0.00674374744537
-0.00811771645376
0.00841429704369
-0.00795953851016
0.0100419909204
-0.00776483413665
0.0116195537403
-0.00753646479852
0.013140437907
-0.00727750743623
0.0145988724176
-0.00699129095004
0.0159898932811
-0.00668130838104
0.0173093523263
-0.00635112976566
0.0185539083302
-0.00600432130541
0.0197210009353
-0.00564437608931
0.0208088126336
-0.00527465384679
0.0218162191549
-0.00489833390456
0.0227427338395
-0.00451837742973
0.0235884457523
-0.00413750289982
0.0243539572033
-0.00375816980483
0.0250403197003
-0.00338257437092
0.025648973842
-0.00301265124999
0.0261816911495
-0.00265008473547
0.0266405227936
-0.00229632247333
0.0270277518574
-0.00195259520552
0.0273458533152
-0.00161993506549
0.0275974570565
-0.00129919659912
0.0277853176462
-0.000991073390976
0.0279122854296
-0.000696115716141
0.0279812828565
-0.000414742842482
0.0279952806039
-0.000147256560593
0.0279572780029
0.000106150084421
0.0278702826608
0.000345381787834
0.0277372927598
0.000570437291784
0.027561281845
0.000781388686151
0.0273451838746
0.000978387100149
0.027091879448
0.0011616481842
0.0268041855647
0.00133144709358
0.0264848440925
0.0014881097413
0.0261365143934
0.00163200803631
0.0257617643539
0.00176355201559
0.0253630653838
0.00188318593236
0.0249427855961
0.00199138114017
0.0245031868351
0.00208863282191
0.024046419769
0.00217545340252
0.0235745227699
0.0022523696792
0.0230894188214
0.00231991657382
0.0225929161807
0.00237863450862
0.0220867070725
0.00242906342437
0.0215723700936
0.00247174037991
0.0210513706522
0.00250719390094
0.0205250650237
0.00253594191636
0.0199947024134
0.00255848662274
0.0194614304597
0.00257531297093
0.0189262986646
0.00258688430059
0.0183902650022
0.00259364162268
0.0178542003149
0.00259600026961
0.017318895559
0.00259435017102
0.0167850666662
0.00258905367468
0.0162533618845
0.00258044689817
0.0157243665703
0.0025688387371
0.0151986100947
0.0025545132224
0.0146765700795
0.00253772958157
0.0141586784257
0.00251872539054
0.0136453246264
0.00249771742647
0.0131368606212
0.00247490530198
0.0126336029797
0.00245047277369
0.0121358364597
0.00242459150354
0.0116438150295
0.00239742247328
0.0111577641766
0.00236911953469
0.010677880894
0.00233983062309
0.0102043349226
0.00230970082428
0.00973726794009
0.00227887316286
0.00927679401376
0.00224749100954
0.00882299829243
0.00221569832134
0.00837593698177
0.00218364131593
0.00793563585397
0.00215146813898
0.00750209004933
0.00211932982303
0.00707526268855
0.00208737943674
0.00665508476072
0.002055772413
0.00624145406674
0.00202466528752
0.00583423538815
0.00199421552087
0.0054332599152
0.00196457996034
0.00503832580979
0.00193591429486
0.00464919817921
0.00190837138079
0.00426561003761
0.00188210047144
0.00388726275387
0.00185724555332
0.00351382723549
0.00183394452249
0.00314494453967
0.00181232777212
0.00278022680281
0.00179251771677
0.00241925745038
0.00177462836452
0.00206159168071
0.00175876660708
0.00170675769924
0.00174503514381
0.00135426405682
0.0017335378224
0.00100362905558
0.0017243647529
0.000654550020561
0.0017171587331
0.0003086957383
0.00170325645279
0.001527939703
0.00160656386859
-0.00906524058023
0.00338612864477
-0.0100445885169
0.00515763032954
-0.0100060909499
0.00690158982984
-0.00986166780475
0.00860840943981
-0.00966634956827
0.0102696814366
-0.00942609745989
0.0118777761811
-0.00914455058249
0.0134258862324
-0.00882560830177
0.014908074231
-0.00847346944785
0.0163192973318
-0.00809252170805
0.0176554083596
-0.00768723066935
0.0189131367876
-0.007262039314
0.020090052442
-0.00682128095385
0.0211845158097
-0.00636910612589
0.0221956177309
-0.00590942436421
0.0231231121929
-0.0054458601422
0.0239673446226
-0.00498172321996
0.0247291791754
-0.00451999198467
0.025409926976
-0.00406330946652
0.0260112783971
-0.0036139897392
0.026535240474
-0.00317403358936
0.0269840815768
-0.00274515017453
0.0273602829997
-0.00232878298895
0.0276664982313
-0.00192613653647
0.0279055180913
-0.00153820252285
0.0280802415711
-0.0011657828786
0.028193649941
-0.000809509987419
0.0282487841016
-0.000469862917529
0.0282487231286
-0.000147181467512
0.0281965647773
0.000158322473616
0.0280954068426
0.000446553725028
0.0279483289991
0.000717528988114
0.0277583787042
0.000971352732419
0.0275285558073
0.00120822353865
0.0272617998573
0.00142841751399
0.0269609793187
0.00163228074785
0.0266288814964
0.00182022046273
0.0262682045825
0.00199269753622
0.0258815501033
0.00215021881514
0.0254714172479
0.00229333075255
0.0250401973609
0.00242261268334
0.0245901701838
0.00253867126334
0.0241235001487
0.00264213435612
0.0236422343913
0.00273364593317
0.0231483007936
0.00281386029111
0.022643507767
0.0028834372086
0.0221295440779
0.00294303638455
0.0216079804333
0.00299331283137
0.0210802711082
0.00303491161142
0.0205477573047
0.00306846362906
0.0200116704934
0.00309458090849
0.0194731373755
0.00311385308164
0.0189331846823
0.00312684354549
0.0183927453852
0.00313408699046
0.0178526645192
0.00313608676538
0.0173137061224
0.00313331372407
0.0167765595112
0.00312620500829
0.0162418463429
0.00311516432908
0.0157101267292
0.00310056219348
0.0151819058184
0.0030827375363
0.0146576391929
0.00306199921074
0.0141377384735
0.00303862870014
0.0136225755871
0.00301288253026
0.0131124870682
0.00298499565639
0.0126077769768
0.00295518435992
0.0121087197758
0.00292364985359
0.011615561882
0.00289058121188
0.0111285231938
0.00285615876155
0.0106477974366
0.00282055665436
0.0101735525701
0.00278394570034
0.00970593021592
0.00274649530278
0.00924504527132
0.00270837551735
0.00879098477046
0.00266975820199
0.00834380706419
0.00263081821977
0.0079035404721
0.00259173378296
0.00747018236845
0.0025526868334
0.00704369793978
0.00251386266021
0.00662401946103
0.00247544957406
0.00621104540305
0.00243763794485
0.00580464010376
0.00240061933544
0.00540463338512
0.00236458513663
0.00501082073323
0.00232972534696
0.00462296348914
0.0022962269938
0.00424078955173
0.002264272752
0.0038639941006
0.00223403935188
0.00349224072602
0.00220569626293
0.00312516255325
0.00217940436205
0.00276236367636
0.002155315059
0.00240342080441
0.00213356977947
0.00204788577824
0.00211430025173
0.00169528992001
0.00209762960945
0.0013451536908
0.0020836727595
0.000997010538747
0.00207250696138
0.000650535879562
0.0020636325484
0.000307243233145
0.00204654840649
0.00183518270879
0.00165320532298
-0.0107184405738
0.00348374557841
-0.011875122296
0.00530498828344
-0.0118273280298
0.00709645513873
-0.0116531284055
0.0088478935183
-0.0114177816788
0.0105503528768
-0.0111285502001
0.0121957744252
-0.0107899652904
0.0137770414253
-0.0104068681222
0.0152880250584
-0.00998444560184
0.016723601784
-0.00952809057123
0.0180796435669
-0.00904326425088
0.0193529860267
-0.00853537315501
0.0205413780019
-0.00800966395458
0.0216434175172
-0.00747113623407
0.0226584769778
-0.00692447406209
0.0235866220785
-0.00637399505141
0.0244285267051
-0.00582361731524
0.0251853881192
-0.00527684245907
0.025858844384
-0.00473675448158
0.0264508979742
-0.00420603170735
0.0269638466863
-0.00368697041282
0.0274002245454
-0.00318151582252
0.0277627520169
-0.00269129803791
0.0280542962091
-0.00221766804558
0.0282778383903
-0.00176173187454
0.0284364480822
-0.00132437955088
0.0285332604014
-0.000906309212202
0.0285714561858
-0.000508045493417
0.0285542425106
-0.000129954583216
0.028484834278
0.000227743954254
0.0283664360794
0.000564965100471
0.0282022264211
0.000881751788801
0.0279953397271
0.00117825242976
0.0277488548152
0.00145472135434
0.027465781145
0.00171150388825
0.0271490485931
0.00194902584431
0.0268014980406
0.00216778330507
0.0264258739155
0.00236833373744
0.0260248172439
0.00255128725983
0.0256008603284
0.00271729917916
0.0251564216936
0.00286706248381
0.024693802488
0.00300130133044
0.0242151830893
0.00312076423482
0.0237226211428
0.00322621801875
0.0232180498499
0.00331844131127
0.0227032777315
0.00339821868237
0.0221799887263
0.00346633430933
0.0216497438048
0.00352356627506
0.021113982982
0.00357068050238
0.0205740288295
0.00360842543326
0.0200310903719
0.00363752655235
0.0194862683624
0.00365868184801
0.0189405608155
0.00367255737872
0.0183948696751
0.00367978398227
0.0178500074974
0.00368095432592
0.0173067049275
0.0036766212432
0.016765617874
0.00366729655141
0.0162273350888
0.0036534511792
0.0156923851169
0.00363551578675
0.0151612432831
0.00361388258281
0.0146343377705
0.00358890751513
0.0141120554449
0.00356091343206
0.0135947465893
0.00353019340009
0.0130827292072
0.00349701469683
0.0125762921724
0.00346162269509
0.012075697896
0.00342424510941
0.0115811838938
0.00338509587404
0.0110929639305
0.00334437910282
0.010611228214
0.00330229247087
0.0101361433074
0.00325903046635
0.00966785130171
0.0032147869324
0.00920646889095
0.00316975735325
0.00875208593807
0.00312414038634
0.00830476413428
0.00307813909625
0.00786453536955
0.00303196146581
0.00743140036215
0.0029858206365
0.00700532718625
0.00293993451211
0.00658625018268
0.00289452516284
0.0061740689097
0.00284981771337
0.00576864755266
0.00280603912419
0.00536981446501
0.00276341659251
0.00497736219535
0.00272217594601
0.00459104768806
0.0026825397942
0.00421059295148
0.00264472577252
0.00383568590458
0.00260894468433
0.003465981642
0.00257539884199
0.00310110389983
0.00254428046814
0.00274064696887
0.00251577042805
0.00238417803605
0.00249003719865
0.002031240538
0.00246723631246
0.00168135902153
0.00244750982179
0.00133404690337
0.00243098356888
0.000988822825513
0.00241772979011
0.000645318072463
0.00240713659844
0.000304931369257
0.00238693457059
0.00214011370614
0.00170941498086
-0.0124278522617
0.00360144114698
-0.0137671462176
0.00548262081972
-0.0137085040757
0.00733121573052
-0.0135017198885
0.00913616095527
-0.0132227229729
0.0108878454052
-0.0128802305468
0.0125776997413
-0.0124798151474
0.0141982491868
-0.0120274127789
0.0157431553772
-0.0115293465852
0.0172072224303
-0.0109921520406
0.0185863724884
-0.0104224082566
0.0198775963463
-0.00982659054929
0.0210788852522
-0.00921094589791
0.022189148309
-0.00858139190494
0.0232081201425
-0.00794343800231
0.0241362620971
-0.00730212869584
0.0249746610501
-0.00666200746163
0.0257249289224
-0.00602710113105
0.026389107059
-0.00540092295035
0.0269695784069
-0.00478649303206
0.027468990974
-0.00418637253448
0.0278901939465
-0.00360270804676
0.0282361875354
-0.00303728051598
0.0285100849703
-0.00249155413138
0.0287150847813
-0.00196672004482
0.0288544496427
-0.00146373260705
0.028931489093
-0.000983336644546
0.0289495430939
-0.000526087390133
0.0289119655063
-9.2364760267e-05
0.0288221066389
0.000317615065541
0.0286832934861
0.000703790550613
0.0284988186515
0.0010662388538
0.0282719193164
0.00140516397596
0.0280057649977
0.00172088775074
0.0277034457037
0.00201383517474
0.0273679617567
0.00228452159024
0.0270022155081
0.00253354120724
0.0266090041992
0.00276155645245
0.0261910140896
0.00296928857587
0.0257508152737
0.0031575089064
0.0252908574354
0.00332703098549
0.0248134661476
0.0034787029449
0.0243208400533
0.00361340036479
0.0238150486511
0.00373201908403
0.0232980310391
0.00383546825784
0.0227715954004
0.00392466325255
0.0222374195592
0.0040005187212
0.021697052416
0.00406394156141
0.0211519165322
0.00411582414247
0.0206033116643
0.00415703761138
0.0200524194267
0.00418842569349
0.0195003088405
0.00421079888015
0.018947942838
0.00422492940777
0.0183961854315
0.00423154695325
0.0178458095123
0.00423133538522
0.0172975049612
0.00422493047537
0.0167518869687
0.0042129188035
0.0162095042512
0.00419583770798
0.0156708470435
0.00417417639504
0.0151363545972
0.0041483779998
0.0146064220849
0.00411884260628
0.0140814067154
0.0040859309757
0.0135616330086
0.0040499689156
0.0130473971191
0.00401125202191
0.0125389702255
0.00397005069151
0.0120366009522
0.00392661514954
0.0115405169055
0.00388118039257
0.0110509253568
0.00383397082826
0.0105680132033
0.00378520454751
0.0100919462795
0.00373509706143
0.00962286817911
0.00368386449296
0.00916089867456
0.00363172610951
0.00870613190014
0.00357890624317
0.00825863437659
0.00352563553516
0.00781844303195
0.00347215159524
0.00738556327429
0.00341869904951
0.00695996724722
0.00336552909808
0.00654159229552
0.00331289857665
0.006130339744
0.00326106865925
0.00572607398843
0.00321030320518
0.00532862197224
0.00316086689098
0.00493777302443
0.00311302313285
0.00455327910458
0.00306703193543
0.00417485541456
0.00302314767141
0.00380218140552
0.00298161691912
0.00343490214012
0.00294267636344
0.0030726300579
0.00290655086877
0.00271494713574
0.00287345172878
0.00236140764146
0.0028435751674
0.00201154157642
0.00281710093985
0.00166485902883
0.00279419090806
0.00132085618731
0.00277498506559
0.000979026946163
0.00275955807053
0.000638960523072
0.00274720211324
0.000301976525548
0.00272391781864
0.00244209000182
0.00177614287745
-0.0142039950041
0.00374113141569
-0.0157321335968
0.0056933330665
-0.0156607056256
0.0076094621733
-0.0154178481253
0.00947745676627
-0.015090716658
0.0112869134747
-0.0146896858897
0.0130286653216
-0.0142215653242
0.0146948350247
-0.0136935803505
0.0162788666567
-0.0131133756781
0.0177755151331
-0.0124887974529
0.0191808003951
-0.0118276899916
0.0204919355707
-0.0111377216242
0.0217072354895
-0.0104262412261
0.0228260119678
-0.00970016319671
0.0238484594376
-0.00896587979024
0.0247755355424
-0.00822919852448
0.0256088394968
-0.00749530465843
0.026350493093
-0.00676874739801
0.0270030278469
-0.00605344992474
0.0275692836897
-0.00535274056495
0.0280523223283
-0.00466940246091
0.028455358868
-0.00400573540168
0.0287817114915
-0.00336362361483
0.0290347683153
-0.0027446010298
0.0292179666791
-0.00214990821714
0.0293347805861
-0.00158053600367
0.0293887104593
-0.00103725582274
0.0293832723179
-0.000520638321863
0.0293219838112
-3.10652258671e-05
0.0292083478821
0.00043126217014
0.0290458320883
0.000866317540515
0.0288378580369
0.00127422416893
0.028587778892
0.00165525433077
0.0282988672553
0.00200981059393
0.0279743036244
0.00233840989194
0.0276171673929
0.00264166883924
0.0272304293051
0.00292029013251
0.0268169455952
0.00317505087166
0.0263794527045
0.00340679194244
0.0259205630231
0.00361640888168
0.0254427608485
0.00380484317287
0.0249483992216
0.00397307435382
0.0244396970237
0.00412211202137
0.0239187370649
0.0042529882268
0.0233874646282
0.00436674951804
0.0228476871905
0.00446444919988
0.022301074824
0.00454713920508
0.0217491619536
0.00461586220141
0.0211933499823
0.00467164346541
0.0206349113682
0.0047154832016
0.0200749946315
0.0047483489693
0.0195146307361
0.00477116891814
0.0189547402636
0.00478482557434
0.0183961416705
0.00479015083094
0.0178395599994
0.00478792188859
0.0172856362113
0.00477885868177
0.0167349365025
0.00476362248293
0.0161879617076
0.00474281606386
0.0156451561983
0.00471698503065
0.0151069163688
0.00468662055908
0.0145735982093
0.00465216308205
0.0140455240908
0.0046140070358
0.0135229883798
0.00457250618325
0.0130062620644
0.00452797954877
0.0124955961294
0.00448071748785
0.011991223928
0.00443098790326
0.0114933623901
0.00437904217281
0.0110022123715
0.00432512082083
0.0105179580593
0.00426945856687
0.0100407657689
0.00421228883409
0.00957078208998
0.00415384743188
0.00910813172153
0.00409437555659
0.00865291496152
0.00403412190294
0.00820520517214
0.00397334408433
0.0077650461716
0.00391230921684
0.0073324498384
0.00385129390088
0.00690739385394
0.00379058349726
0.00648981982749
0.00373047094641
0.00607963170365
0.00367125505274
0.0056766946533
0.00361323847992
0.00528083432655
0.00355672539392
0.00489183662956
0.00350201898447
0.00450944788798
0.00344941880976
0.00413337552689
0.00339921817189
0.00376328912956
0.00335170147102
0.0033988219789
0.00330714171368
0.00303957298214
0.00326579812432
0.00268510908034
0.00322791398009
0.00233496807738
0.00319371457837
0.00198866209019
0.0031634054194
0.00164568151435
0.00313717013802
0.00130549955893
0.00311516566009
0.000967581724331
0.00309747456662
0.000631480488412
0.00308330262125
0.000298452111753
0.00305694564201
0.00274054171239
0.0018545492615
-0.0160585467986
0.00390518462694
-0.0177827731522
0.00594060466748
-0.0176961282248
0.0079356358498
-0.0174128820905
0.00987700947786
-0.0170320924314