/*--------------------------------*- C++ -*----------------------------------*\
| =========                 |                                                 |
| \\      /  F ield         | OpenFOAM: The Open Source CFD Toolbox           |
|  \\    /   O peration     | Version:  v1906                                 |
|   \\  /    A nd           | Web:      www.OpenFOAM.com                      |
|    \\/     M anipulation  |                                                 |
\*---------------------------------------------------------------------------*/
FoamFile
{
    version     2.0;
    format      ascii;
    class       volScalarField;
    location    "424";
    object      p;
}
// * * * * * * * * * * * * * * * * * * * * * * * * * * * * * * * * * * * * * //

dimensions      [0 2 -2 0 0 0 0];


internalField   nonuniform List<scalar> 
9216
(
273.749479824
273.829350787
273.994621697
274.246700254
274.584168298
275.005439698
275.508550018
276.09119046
276.750753689
277.484366027
278.288933735
279.161172652
280.097654398
281.094830861
282.149077878
283.256712331
284.414032052
285.617324605
286.862903418
288.147108368
289.466338985
290.817047565
292.195770671
293.599115696
295.023791915
296.466591367
297.924420491
299.394276008
300.873277931
302.358640893
303.847709102
305.337922989
306.826856224
308.312179188
309.791698091
311.263313623
312.725062564
314.175072961
315.611607849
317.033016892
318.437782166
319.824466626
321.191761748
322.538433281
323.863370531
325.165529894
326.443985477
327.697871033
328.926431556
330.128964263
331.304870721
332.453597584
333.574688776
334.667726672
335.732383781
336.76836509
337.775458677
338.753479851
339.702320106
340.621893668
341.512184205
342.373194277
343.204989278
344.00765019
344.781314301
345.526131543
346.242301635
346.930034179
347.589581996
348.22120504
348.825199822
349.401867115
349.951537484
350.474542686
350.971237425
351.441974299
351.887121993
352.307043584
352.702111462
353.072688772
353.419141396
353.741822319
354.04108102
354.317250554
354.570654712
354.801597669
355.010369297
355.197237364
355.362451664
355.506239463
355.628810822
355.730361992
355.811095337
355.871284778
355.912070959
355.927957092
273.669661474
273.749894309
273.915507778
274.168587165
274.507489257
274.930553628
275.435770467
276.020794484
276.682981453
277.419423366
278.226990422
279.102366247
280.042089118
281.042583057
282.100195098
283.211219914
284.371931754
285.578601835
286.827524935
288.115029896
289.437501695
290.791385988
292.17320786
293.579571505
295.00717685
296.452815355
297.913385496
299.385885445
300.867428104
302.355231144
303.846631981
305.339075702
306.830130394
308.317472286
309.798901499
311.272325709
312.73577609
314.187388854
315.625421648
317.048233315
318.454300696
319.842196782
321.210607915
322.558310581
323.884188985
325.187210769
326.466444932
327.721036792
328.950226182
330.153321997
331.329720585
332.478880208
333.60033951
334.693692234
335.75860559
336.794795551
337.802044934
338.780179543
339.729085741
340.64868768
341.538964133
342.399926976
343.231637056
344.034184053
344.807701162
345.552346407
346.268315962
346.955826941
347.615129231
348.246489751
348.85020272
349.42657536
349.975936586
350.498624107
350.994991585
351.465397083
351.910208791
352.329794765
352.724527359
353.094774204
353.440901507
353.763266227
354.062218411
354.338094541
354.59121908
354.821898973
355.030424582
355.217065336
355.382070199
355.525664309
355.648048434
355.749393847
355.829832525
355.889416981
355.927987244
355.943847136
273.503650411
273.585031342
273.752176013
274.007557981
274.349501932
274.776302857
275.285889414
275.875848825
276.543465005
277.285757688
278.099524511
278.981380023
279.927795975
280.935135992
281.999690713
283.117705807
284.285410647
285.499039136
286.754852059
288.049151336
289.378297066
290.738716372
292.126916453
293.5394893
294.973122
296.424598419
297.890807733
299.36874388
300.855512985
302.348331069
303.844530752
305.34155754
306.836976069
308.328464906
309.813822351
311.290960142
312.757908827
314.212810235
315.653922514
317.079611513
318.488355533
319.878735749
321.249440722
322.599256041
323.92706868
325.231856026
326.512690173
327.76872654
328.999208174
330.203454164
331.380864003
332.530906001
333.653121742
334.747114677
335.812554664
336.849166906
337.856736555
338.83509809
339.784139928
340.703794333
341.594041932
342.454902194
343.286437745
344.088745418
344.861960247
345.606247071
346.321804096
347.008855015
347.667652046
348.298468531
348.901601388
349.477364152
350.026088826
350.548119337
351.043812789
351.513533341
351.957652905
352.376545456
352.770587235
353.140151526
353.485608456
353.807320262
354.105640787
354.38091128
354.633459686
354.863597001
355.071616427
355.257790263
355.42236885
355.56557764
355.687615098
355.788647893
355.868803528
355.928150457
355.966614305
355.984586285
273.248416542
273.331083482
273.500623237
273.759606075
274.106295394
274.538910608
275.055286403
275.652905244
276.328939619
277.08029589
277.903659022
278.795535295
279.752293868
280.770204093
281.845470516
282.974262605
284.152742101
285.37708496
286.643501557
287.948251856
289.28765982
290.658123311
292.056124267
293.478234822
294.921124625
296.381564385
297.85643135
299.34271109
300.837501781
302.338014688
303.841577599
305.345634162
306.847746658
308.345594453
309.836975982
311.319806189
312.792117888
314.252058292
315.697889762
317.12798547
318.540829604
319.935012286
321.309229319
322.662276495
323.993049011
325.300535319
326.583816339
327.842059019
329.074515464
330.280516379
331.459470221
332.610856681
333.73422595
334.829192365
335.89543386
336.932685867
337.940740987
338.91944321
339.868687784
340.788415796
341.678614177
342.539310638
343.37057374
344.172508139
344.94525463
345.688985636
346.40390514
347.090244355
347.748261451
348.378237357
348.980475225
349.55529632
350.103039196
350.624055658
351.118709646
351.587373286
352.030425513
352.44824824
352.84122477
353.209736139
353.554159388
353.874864129
354.172210768
354.446547338
354.698207752
354.927508951
355.134749206
355.320205564
355.484132103
355.626757408
355.748282276
355.848876406
355.928674719
355.987771238
356.026146136
356.044564386
272.902880395
272.987194704
273.160020759
273.423952561
273.777160093
274.217752041
274.743431003
275.351532935
276.039075332
276.802806959
277.639257158
278.544782872
279.51561293
280.54788789
281.637695893
282.781103365
283.974181766
285.213029469
286.493790469
287.81266903
289.165942206
290.549969203
291.961199632
293.396179351
294.851556017
296.324082725
297.810621923
299.308147673
300.813748535
302.324628854
303.838110874
305.351635056
306.862761564
308.369170032
309.86866007
311.359150027
312.838676867
314.305394108
315.757570958
317.193589468
318.611943009
320.011232737
321.390165514
322.747549832
324.082293314
325.393398242
326.679958792
327.941156332
329.17625654
330.384604632
331.56562249
332.718803972
333.843712172
334.939974919
336.007282261
337.045382243
338.054078659
339.033227153
339.982733253
340.902548795
341.792670199
342.653135185
343.484021231
344.285442497
345.05754838
345.800520576
346.514571622
347.199942009
347.85689864
348.485731916
349.086754044
349.66029606
350.206705949
350.726345584
351.219588674
351.686817627
352.128421345
352.54479207
352.936323074
353.303405545
353.646426242
353.965764498
354.261789912
354.534859533
354.785315662
355.013483267
355.219667932
355.404153499
355.567200115
355.709042008
355.829885497
355.929906941
356.009251274
356.068030744
356.10624914
356.12474827
272.465260975
272.55166498
272.728722758
272.999035303
273.360643529
273.811505264
274.3491465
274.970708868
275.673005656
276.452579051
277.305755738
278.22869929
279.217458203
280.268008544
281.37629106
282.53824252
283.749821856
285.007031293
286.305933412
287.642664435
289.013444755
290.414586907
291.842501948
293.293704217
294.76481535
296.252567279
297.753804995
299.265488596
300.784695321
302.308620955
303.8345813
305.360012751
306.882473271
308.399642675
309.909322462
311.409435064
312.898023122
314.37324789
315.833387711
317.276835627
318.702097136
320.107787105
321.492626938
322.855440927
324.195152979
325.510782581
326.801441248
328.066328269
329.304727044
330.516000776
331.699588857
332.85500265
333.98182205
335.079691487
336.148316761
337.187461352
338.196943581
339.176633276
340.126449272
341.046356418
341.936363389
342.796519979
343.626915144
344.427674508
345.198958522
345.940960086
346.653902716
347.338038182
347.993644586
348.621023923
349.220500015
349.792415942
350.337131785
350.855021921
351.346472577
351.811879
352.251642866
352.666169373
353.055864556
353.421132383
353.762372054
354.079975171
354.37432311
354.645784339
354.894711943
355.121441149
355.326287053
355.509542389
355.67147547
355.812328219
355.932314395
356.031618194
356.110393599
356.168763895
356.206742187
356.22517814
271.933283235
272.022275671
272.204592919
272.482836125
272.854877304
273.318477053
273.870932591
274.509135609
275.229638651
276.028721986
276.902457399
277.846767148
278.857476729
279.930360556
281.0611805
282.245717415
283.479796381
284.759306296
286.080214858
287.438579629
288.830556213
290.252404068
291.70049081
293.171295271
294.661409967
296.16754298
297.686519722
299.215284386
300.750901424
302.290556729
303.8315588
305.37133929
306.907453832
308.437582512
309.959529369
311.471221792
312.970709577
314.456163387
315.925872954
317.378244709
318.811799209
320.225168042
321.61709061
322.986410475
324.332071659
325.653114613
326.948672222
328.217965576
329.46029987
330.67506015
331.861707277
333.019773812
334.148860184
335.248630855
336.318810799
337.359182034
338.369580485
339.349892925
340.300054233
341.220044729
342.109887787
342.969647501
343.799426555
344.599364116
345.36963385
346.110441905
346.822024955
347.50464814
348.158603036
348.784205455
349.381793253
349.951723936
350.49437227
351.010127669
351.499391614
351.962574855
352.400094671
352.812371942
353.199828329
353.562883295
353.901951287
354.217438808
354.509741681
354.779242269
355.026306913
355.251283368
355.454498484
355.636255922
355.796834131
355.936484417
356.055429343
356.153861533
356.23194304
356.289804419
356.327463359
356.345762437
271.304127216
271.396265353
271.584976912
271.872855773
272.257557664
272.736590534
273.306960447
273.965243333
274.707664966
275.530180219
276.428547177
277.398394114
278.435277763
279.534732258
280.692308854
281.903607077
283.164298307
284.470142979
285.817002604
287.200847809
288.61776341
290.063951451
291.535732909
293.029548673
294.541960168
296.069649934
297.609422293
299.158204158
300.713045969
302.27112268
303.829734647
305.386308255
306.938396691
308.483680489
310.019966858
311.545189172
313.057405873
314.554798901
316.035671695
317.498446717
318.941662616
320.363970977
321.764132805
323.14101467
324.493584701
325.820908334
327.122144019
328.396538774
329.643423806
330.862210063
332.05238396
333.213503103
334.345192281
335.447139507
336.519092399
337.560854646
338.572282848
339.553283456
340.503810079
341.42386088
342.313476305
343.172736842
344.001761062
344.800703624
345.569753469
346.309131924
347.019090897
347.699910932
348.351899268
348.97538774
349.570730605
350.138302216
350.678494578
351.191714776
351.678382275
352.138926119
352.573782038
352.983389486
353.368188629
353.72861733
354.06510811
354.378085183
354.667961518
354.935136008
355.179990732
355.402888368
355.604169725
355.784151476
355.943124041
356.081349729
356.199061098
356.29645975
356.373715565
356.430965269
356.468230249
356.486343855
270.574365713
270.670277121
270.866654845
271.166073452
271.565914026
272.063363692
272.655061319
273.337187811
274.105563954
274.955745457
275.883109944
276.882933449
277.950454904
279.080928222
280.269662634
281.512052453
282.803597893
284.139918613
285.516761699
286.930005547
288.375661032
289.849870935
291.348908584
292.869176225
294.407203632
295.959647124
297.523289173
299.095038496
300.671930608
302.251128626
303.829923931
305.40573718
306.976119071
308.53875069
310.091443115
311.632136793
313.158900406
314.669929185
316.163542751
317.638182447
319.092408253
320.524895288
321.934429983
323.319905951
324.680319638
326.014765795
327.322432833
328.602598119
329.854623257
331.07794943
332.272092809
333.436640126
334.571244398
335.675620899
336.749543331
337.792840312
338.805392084
339.787127568
340.738021619
341.658092623
342.547400237
343.406043422
344.234158537
345.03191764
345.799526765
346.537224306
347.245279287
347.923989649
348.573680362
349.194701472
349.787425956
350.352247441
350.88957776
351.399844331
351.883487421
352.340957227
352.772710908
353.179209459
353.560914602
353.918285569
354.251775972
354.561830618
354.848882481
355.113349681
355.355632664
355.576111447
355.775143107
355.95305939
356.110164578
356.246733535
356.363010061
356.459205602
356.53549821
356.592030718
356.628829108
356.646717577
269.739888625
269.840289201
270.04577945
270.358895577
270.776670222
271.295884096
271.912714502
272.622850474
273.42161395
274.304074945
275.265154298
276.299711308
277.402614777
278.568797751
279.793297264
281.071281212
282.398064698
283.769118312
285.180070516
286.626706128
288.104962434
289.610924244
291.140818754
292.691010963
294.25799994
295.838416243
297.429020417
299.026702518
300.628482377
302.231510443
303.833068367
305.43057049
307.021564782
308.603733136
310.17489114
311.732987501
313.276102813
314.80244779
316.31036089
317.798305436
319.264866232
320.708745758
322.128759996
323.523833941
324.892996893
326.235377538
327.550198963
328.836773571
330.094498051
331.322848361
332.521374893
333.689697729
334.827502197
335.934534592
337.010598284
338.055550036
339.069296766
340.051792524
341.003035919
341.92306773
342.811968906
343.669858696
344.496893051
345.293263072
346.059193599
346.794941746
347.500795447
348.177071865
348.824115706
349.442297339
350.032010745
350.593671274
351.127713175
351.634586962
352.114756562
352.568696341
352.996887937
353.399817051
353.777970095
354.131830864
354.461877154
354.768577464
355.052387717
355.31374814
355.553080227
355.770783908
355.967234864
356.142782081
356.29774559
356.432414488
356.547045163
356.641859878
356.717045642
356.772752192
356.809011011
356.826637075
268.795807769
268.901525874
269.11779793
269.447092233
269.885998118
270.430780508
271.077036318
271.819842837
272.65390944
273.573718172
274.573645644
275.64806318
276.791414358
277.998271075
279.263370754
280.581637951
281.948193912
283.358357319
284.80763922
286.291734449
287.806511501
289.348002184
290.912392138
292.496012779
294.095335119
295.706965474
297.327643045
298.954239008
300.583756826
302.213333308
303.840239462
305.461882511
307.075807409
308.679696947
310.271371893
311.848790415
313.410046843
314.953369725
316.477119264
317.97978413
319.459977762
320.916434169
322.348003363
323.753646439
325.132430431
326.483522976
327.806186876
329.099774629
330.36372297
331.597547522
332.800837566
333.973251045
335.114509792
336.224395102
337.302743596
338.349443529
339.364431412
340.34768912
341.2992413
342.219153245
343.107528977
343.96450974
344.790272554
345.585029071
346.349024336
347.082535713
347.785871588
348.459370082
349.103397482
349.718346542
350.304634498
350.862700856
351.39300494
351.896023161
352.372246121
352.82217544
353.246320506
353.64519499
354.019313376
354.36918733
354.695322182
354.998213325
355.278342806
355.536175933
355.772158128
355.986711869
356.180233923
356.353092731
356.505626091
356.638139031
356.75090199
356.84414932
356.918077951
356.972845238
357.008489499
357.025816035
267.736335495
267.848344182
268.077353159
268.425718558
268.889462234
269.464191577
270.144771496
270.925517613
271.800387815
272.763154865
273.807551009
274.927381712
276.116608592
277.369404437
278.680184626
280.043620116
281.454636863
282.908406238
284.400330019
285.926022936
287.481294802
289.062133839
290.664692088
292.285273618
293.920325681
295.566432902
297.220314116
298.878821472
300.538941108
302.197794912
303.852641917
305.500881151
307.140053981
308.767844059
310.382077912
311.980724459
313.561893688
315.123834578
316.664932239
318.183704409
319.678797333
321.148981132
322.59314474
324.0102905
325.399528505
326.760070761
328.091225265
329.392390032
330.663047218
331.90275729
333.11115345
334.287936219
335.432868415
336.545770394
337.626515807
338.675027686
339.691275132
340.675270341
341.627066251
342.546754475
343.434463769
344.290358692
345.114638641
345.907536925
346.669320027
347.400286742
348.100767305
348.771122292
349.411741323
350.023041495
350.6054655
351.159479474
351.685570484
352.184243786
352.656019738
353.10143054
353.521016702
353.915323417
354.284896754
354.630279864
354.952009091
355.250610218
355.526594711
355.780456185
356.012666961
356.223674902
356.413900417
356.583733764
356.733532565
356.86361964
356.974281046
357.06576447
357.138277898
357.191987454
357.226939125
357.243927723
266.554628769
266.67408857
266.918159013
267.289017831
267.781954601
268.391732852
269.112289864
269.936990349
270.858870102
271.870848492
272.965899497
274.137179029
275.378110732
276.682435662
278.044233102
279.457919955
280.918235721
282.420218806
283.959178776
285.530667774
287.130453475
288.754494952
290.398922475
292.060021593
293.734221758
295.418089152
297.10832335
298.801756909
300.495357134
302.186228933
303.871617441
305.548911913
307.215649182
308.869513453
310.508337541
312.130102419
313.732935857
315.315110088
316.875038655
318.411272466
319.922495204
321.407518148
322.865274551
324.294813653
325.695294427
327.065979173
328.406227013
329.715487396
330.993293658
332.239256742
333.453059103
334.634448933
335.7832347
336.89928016
337.982499794
339.032854849
340.050349862
341.035029859
341.986978006
342.906313926
343.793192333
344.647802225
345.470366189
346.261140083
347.020412584
347.748504905
348.445770169
349.112592752
349.749387158
350.356596696
350.93469169
351.484167356
352.0055413
352.499350622
352.966148754
353.406501911
353.820985414
354.210179686
354.574666249
354.915023509
355.231822667
355.525623544
355.796970639
356.046389225
356.274381758
356.481424419
356.667964003
356.834415018
356.981157128
357.108532826
357.216845434
357.30635746
357.377289098
357.429816028
357.463993178
357.480603855
265.24258729
265.370904494
265.632842477
266.03030241
266.557619162
267.208464436
267.975592763
268.851177377
269.827121717
270.895321108
272.047863272
273.277167503
274.576068112
275.937851968
277.356261295
278.825472732
280.340061997
281.894961625
283.485417038
285.106944606
286.755293788
288.42641471
290.116431741
291.821623441
293.538408718
295.263338917
296.993094921
298.724488239
300.454464637
302.180108763
303.898648887
305.607462494
307.304080151
308.986186078
310.651619771
312.298375667
313.924601611
315.528596272
317.108805541
318.663818097
320.192360206
321.693289928
323.165590808
324.608365213
326.020827405
327.402296454
328.752189109
330.070012656
331.355357913
332.607892338
333.827353454
335.013542515
336.166318687
337.285593602
338.371326619
339.423520575
340.44221837
341.427500087
342.379480975
343.298309891
344.184168513
345.037270821
345.857863127
346.646224123
347.402665173
348.127530379
348.821196577
349.484072946
350.116600288
350.719249863
351.292521744
351.836942749
352.353063842
352.841457194
353.302712735
353.737434472
354.146236396
354.529738266
354.888561126
355.223322835
355.534633489
355.823090987
356.089276647
356.333751087
356.557050263
356.759681852
356.94212188
357.104811713
357.248155316
357.372516892
357.478218761
357.565539612
357.634713097
357.685925666
357.719241893
357.73543235
263.790589509
263.929496116
264.212742853
264.641807552
265.209765858
265.908863383
266.730336168
267.664858359
268.702941834
269.835257248
271.052865521
272.347363615
273.710956502
275.136471611
276.617333026
278.147510821
279.721458096
281.334044656
282.980493341
284.656322331
286.357295253
288.079379657
289.818714192
291.571584346
293.334406682
295.103720832
296.87618829
298.648596167
300.41786417
302.181051292
303.935364994
305.678168043
307.406982096
309.119490534
310.813539897
312.487139572
314.138460094
315.765830127
317.367732358
318.942798396
320.489802894
322.007656962
323.495401096
324.952197699
326.377323384
327.770161129
329.13019241
330.45698938
331.750207167
333.009576368
334.234895817
335.426025729
336.582881291
337.705426862
338.793670794
339.847661071
340.867481692
341.853249998
342.805114717
343.723254953
344.607879697
345.459228121
346.277570051
347.063206944
347.816472644
348.537734311
349.227392792
349.885882866
350.513672767
351.111263341
351.679186503
352.218003186
352.728300729
353.210689682
353.66580026
354.094278202
354.496780485
354.873970543
355.226513506
355.555071135
355.860296932
356.142831155
356.403296137
356.642291709
356.860391011
357.058136533
357.236036592
357.394562096
357.534143735
357.65516946
357.757982353
357.842878891
357.910107373
357.959865777
357.992229583
358.007955277
262.187143303
262.338809656
262.647654641
263.114512509
263.730775717
264.486807949
265.371881172
266.374775735
267.484293254
268.689647274
269.980723358
271.34822055
272.783696201
274.279540769
275.828908106
277.42562279
279.064080337
280.739150853
282.446091921
284.180473407
285.938114598
287.715033433
289.507407153
291.311544217
293.123867067
294.940905318
296.759297707
298.575800562
300.387299752
302.190821693
303.983546508
305.76281751
307.526144843
309.271209748
310.995866045
312.698139796
314.376227192
316.02849101
317.65345578
319.249801936
320.816359048
322.352098355
323.856124737
325.327668329
326.766075914
328.170802231
329.541401302
330.877517823
332.178878739
333.44528498
334.676603563
335.872760002
337.033731356
338.159539797
339.250247114
340.30594995
341.326776212
342.312882319
343.264451695
344.181694015
345.064845557
345.914170014
346.729960051
347.512538919
348.262262304
348.979519842
349.664736374
350.318372601
350.940925143
351.532925903
352.094940682
352.627567166
353.131432138
353.607188197
354.055509775
354.477088796
354.872629782
355.242844759
355.588447809
355.910149623
356.208651928
356.484642127
356.738788027
356.971732948
357.184091085
357.376443339
357.549333491
357.703264857
357.838697302
357.956044707
358.055672746
358.137897075
358.202981924
358.25113802
358.282452374
358.29766586
260.41841731
260.585613011
260.925496255
261.437922358
262.112001213
262.935585687
263.895388439
264.977788868
266.169489459
267.457983804
268.831835726
270.280795643
271.795792938
273.368846093
274.992928011
276.661815295
278.369941061
280.112262296
281.884146557
283.681278367
285.499583727
287.335170411
289.184282578
291.043269032
292.908565385
294.776689779
296.644250484
298.507961736
300.364663463
302.211338779
304.045131882
305.863360777
307.663520555
309.443288742
311.200526809
312.933279518
314.639772273
316.318406729
317.967755119
319.586553416
321.173693567
322.72821492
324.249295112
325.736240588
327.188476981
328.605539456
329.98706316
331.332773779
332.64247828
333.916055865
335.153449218
336.354656182
337.51972198
338.648732202
339.741806679
340.799094461
341.820769946
342.807030357
343.758094385
344.674202207
345.55561638
346.40262387
347.215538391
347.994703414
348.740494809
349.453323625
350.133637944
350.781924417
351.398708649
351.984554956
352.540065079
353.065876113
353.562657674
354.031108205
354.471950828
354.88592835
355.273798059
355.636325835
355.974280274
356.288426403
356.579519642
356.848299671
357.095484754
357.321766236
357.527803616
357.714219963
357.881597929
358.030476176
358.161346337
358.274650365
358.370778341
358.450066746
358.512796901
358.559192963
358.589354744
358.604005862
258.467601973
258.653932243
259.031880088
259.599804598
260.343671151
261.247945494
262.295981977
263.471108936
264.757461737
266.140529098
267.607428159
269.146959254
270.749505511
272.406841925
274.111906955
275.858574139
277.641445879
279.455679424
281.296846349
283.160821993
285.043699186
286.94172125
288.851231052
290.768635837
292.690389077
294.612990737
296.533003703
298.447081495
300.351999356
302.244681566
304.122225939
305.981917769
307.821233004
309.637843889
311.429620124
313.194627816
314.931125861
316.637560483
318.312558386
319.954918852
321.563604715
323.137732529
324.676562116
326.179485844
327.646017813
329.075783178
330.468507638
331.824007118
333.142177648
334.422985411
335.666457088
336.872670547
338.04174621
339.173839122
340.269132228
341.327830752
342.350158244
343.336353946
344.286672045
345.201382135
346.080771383
346.92514745
347.734842509
348.510217328
349.251665596
349.959617635
350.634543545
351.276955327
351.887407949
352.46649934
353.014869203
353.533196941
354.022198488
354.482622469
354.9152454
355.320866398
355.700301111
356.054375356
356.383918265
356.689755414
356.972701829
357.233555293
357.473089867
357.692049964
357.891144865
358.071043881
358.232372054
358.375706485
358.501573163
358.610444357
358.702736402
358.778807936
358.838958603
358.883427182
358.912326815
358.926362017
256.314022346
256.524283058
256.949551583
257.585876439
258.414819116
259.416226727
260.56902124
261.852652162
263.248137939
264.738676106
266.309868149
267.949650695
269.648040104
271.396788204
273.189022728
275.018918318
276.881420608
278.772028567
280.686629789
282.62137793
284.572600554
286.536727679
288.510236034
290.489609325
292.471319269
294.451832297
296.427639939
298.395305114
300.351509357
302.293098088
304.217110338
306.120789483
308.001588755
309.857173794
311.685423662
313.484429261
315.252488408
316.988098645
318.689949095
320.356911292
321.988028782
323.58250569
325.139694729
326.659084946
328.140289598
329.583034329
330.987145709
332.352540035
333.679212323
334.967225393
336.216699143
337.427800131
338.600731758
339.735725326
340.833032339
341.892918309
342.915658359
343.901534779
344.850836553
345.763860917
346.640916489
347.482328043
348.288441907
349.059632221
349.796306599
350.498911757
351.16793757
351.803920405
352.407444572
352.97914271
353.519694631
354.029825008
354.510300088
354.961923211
355.385529771
355.781980992
356.152157417
356.49695141
356.817259646
357.113975046
357.387979044
357.64013385
357.871275341
358.082206387
358.273690958
358.446448859
358.601151248
358.738416801
358.858808537
358.962831185
359.050929077
359.123484584
359.180816713
359.223179386
359.250700329
359.264062959
253.931879901
254.172608841
254.657654782
255.379446534
256.313271722
257.432619863
258.710540757
260.121565578
261.642975319
263.255431436
264.943065368
266.693184449
268.495766693
270.342890547
272.228197309
274.14643782
276.093120034
278.064252015
280.056162725
282.065378646
284.088534777
286.122303783
288.163335215
290.208207574
292.25340462
294.295330714
296.330362326
298.354924079
300.365564146
302.359020527
304.332257655
306.282471772
308.207090553
310.103772224
311.970406857
313.805114954
315.606240172
317.372339552
319.102173806
320.79469712
322.449045073
324.064521313
325.640583608
327.176829794
328.67298408
330.128884095
331.544468492
332.919764974
334.254878434
335.549979029
336.805290242
338.021077062
339.19763476
340.335278506
341.434334542
342.495132982
343.518003053
344.503270465
345.451257693
346.362286324
347.23668209
348.074781242
348.876938583
349.643535617
350.374988847
351.071756931
351.734346621
352.363316888
352.959281149
353.522907801
354.054918944
354.556087936
355.027235496
355.469225001
355.882956539
356.269360271
356.629388733
356.964008618
357.274191869
357.560906678
357.825108388
358.067730866
358.289678346
358.491818132
358.674974079
358.839921032
358.987380084
359.118014697
359.232427517
359.331157887
359.414679846
359.483400629
359.537659666
359.577727079
359.603745544
359.616375142
251.28842413
251.568786327
252.130772874
252.961032507
254.025764359
255.289646853
256.717946849
258.279002263
259.945704023
261.69605358
263.512969483
265.383603795
267.298445534
269.250426391
271.234151326
273.24530143
275.28020835
277.335573656
279.408296116
281.495367792
283.593803962
285.700580343
287.812565226
289.926453139
292.038725248
294.145674958
296.243492336
298.328388898
300.396719954
302.44508075
304.470348387
306.469671647
308.440453171
310.380343216
312.287244878
314.159314959
315.99495233
317.792783258
319.551650512
321.270602891
322.948881251
324.585902567
326.181243653
327.734624734
329.245893982
330.715013423
332.142045844
333.527142248
334.87052932
336.172496471
337.433382475
338.653561941
339.833432211
340.973401177
342.073876791
343.135258674
344.157932539
345.142267557
346.088617079
346.997322518
347.868720095
348.703150108
349.500967463
350.262553304
350.988325653
351.678749539
352.334344317
352.955689382
353.5434267
354.098261492
354.620960709
355.112349961
355.573309376
356.004767958
356.407697378
356.783104107
357.132021088
357.455497963
357.754591073
358.030352749
358.283820963
358.516009241
358.727897545
358.920424058
359.094478144
359.250894406
359.390447801
359.513849758
359.6217451
359.71470973
359.793248862
359.857795918
359.9087115
359.946282176
359.970666702
359.982499405
248.341218062
248.674491347
249.337689628
250.308017886
251.538306766
252.981002479
254.591104595
256.329254143
258.163354266
260.068883191
262.02817157
264.029067349
266.063438644
268.125829939
270.212407746
272.320215618
274.446698382
276.589433101
278.746000341
280.913933899
283.090694885
285.273628723
287.459883804
289.646303852
291.829342726
294.005102903
296.169471245
298.31832671
300.447744967
302.554138449
304.634293386
306.685326568
308.704621814
310.689818958
312.638834654
314.549872235
316.421399187
318.252122438
320.0409779
321.787122811
323.489918912
325.148912728
326.763816311
328.334487699
329.860913157
331.343192325
332.781524771
334.176197429
335.527571727
336.836069646
338.102158647
339.326335953
340.509112993
341.651000769
342.7524972
343.814076943
344.836184802
345.819232671
346.763601109
347.669644547
348.537700953
349.368103971
350.161197779
350.917352131
351.636977313
352.32053685
352.96855758
353.581636335
354.16044305
354.705721145
355.218285218
355.69901749
356.148862646
356.568821981
356.959946063
357.323326431
357.660085727
357.971366818
358.258320785
358.522094582
358.763818661