/*--------------------------------*- C++ -*----------------------------------*\
| =========                 |                                                 |
| \\      /  F ield         | OpenFOAM: The Open Source CFD Toolbox           |
|  \\    /   O peration     | Version:  v1906                                 |
|   \\  /    A nd           | Web:      www.OpenFOAM.com                      |
|    \\/     M anipulation  |                                                 |
\*---------------------------------------------------------------------------*/
FoamFile
{
    version     2.0;
    format      ascii;
    class       volVectorField;
    location    "203";
    object      U;
}
// * * * * * * * * * * * * * * * * * * * * * * * * * * * * * * * * * * * * * //

dimensions      [0 1 -1 0 0 0 0];


internalField   nonuniform List<vector> 
9216
(
(0.00178967057728 -0.00179039194765 0)
(0.00157493835521 -0.00491054321534 6.6219960181e-28)
(0.00159093717011 -0.00832180326345 1.13055463849e-31)
(0.00157697096588 -0.0116244543395 0)
(0.00154710942895 -0.0148842239445 0)
(0.00150745668545 -0.0180697669118 0)
(0.00146027431264 -0.0211640721571 0)
(0.00140691190034 -0.0241530497309 0)
(0.00134843139757 -0.0270250524739 0)
(0.00128577676186 -0.029770378475 0)
(0.00121979402521 -0.0323812931881 0)
(0.0011513277798 -0.0348516882353 0)
(0.00108105058136 -0.0371771991346 0)
(0.00100970434115 -0.0393547577185 0)
(0.000937748820676 -0.0413827544101 0)
(0.000865815227156 -0.0432604924939 0)
(0.000794131394028 -0.0449884151958 0)
(0.000723233150101 -0.0465674977808 0)
(0.000653122269961 -0.0479995550095 0)
(0.000584272363018 -0.0492865976317 0)
(0.000516478503361 -0.0504312248225 0)
(0.000450190160243 -0.0514359658885 0)
(0.000385021371083 -0.0523037477491 0)
(0.000321435192307 -0.0530372319411 0)
(0.000258889074481 -0.0536393441518 0)
(0.000197890556452 -0.0541126188944 0)
(0.000137764732579 -0.0544597704687 0)
(7.90902697226e-05 -0.054683053534 0)
(2.10825304342e-05 -0.0547848579448 0)
(-3.55904383689e-05 -0.0547671093324 0)
(-9.18028843063e-05 -0.0546318520946 0)
(-0.000146776748745 -0.0543806966374 0)
(-0.000201443764778 -0.0540154125811 0)
(-0.00025490355703 -0.0535374322972 0)
(-0.000308118009174 -0.0529484059669 0)
(-0.0003600520325 -0.052249794824 0)
(-0.000411665222841 -0.0514433737604 0)
(-0.000461782121597 -0.0505309347374 0)
(-0.000511326006215 -0.0495147073012 0)
(-0.00055898231964 -0.0483971853011 0)
(-0.000605609551069 -0.047181441075 0)
(-0.000649769082696 -0.0458710902734 0)
(-0.000692231735012 -0.0444704647631 0)
(-0.000731463250818 -0.0429847165877 0)
(-0.000768137411284 -0.0414198254438 0)
(-0.000800672417442 -0.0397828379008 0)
(-0.000829652850734 -0.0380816801918 0)
(-0.000853519925201 -0.0363255028416 0)
(-0.000872808931654 -0.0345242821621 0)
(-0.00088608719699 -0.0326892184838 0)
(-0.000893920359175 -0.0308321117063 0)
(-0.000895132689795 -0.028965736894 0)
(-0.000890431851406 -0.0271030171878 0)
(-0.000879024484103 -0.0252573206826 0)
(-0.000861853572532 -0.0234415140264 0)
(-0.000838564561856 -0.0216681821641 0)
(-0.000810352620897 -0.0199487118616 0)
(-0.000777251013348 -0.0182934950632 0)
(-0.000740627422104 -0.0167111857509 0)
(-0.000700756778807 -0.0152089544593 0)
(-0.000659032866755 -0.013792006263 0)
(-0.000615786484494 -0.0124639271691 0)
(-0.000572285218367 -0.0112264634681 0)
(-0.000528761090568 -0.0100799339622 0)
(-0.000486261522822 -0.00902319959927 0)
(-0.000444840643884 -0.00805407811323 0)
(-0.000405303052085 -0.00716940627194 0)
(-0.000367516105903 -0.00636540308237 0)
(-0.000332072922875 -0.00563774382848 0)
(-0.000298693656373 -0.00498184806114 0)
(-0.000267816531378 -0.00439291363273 0)
(-0.00023906831191 -0.00386613383896 0)
(-0.000212784749603 -0.00339668338995 0)
(-0.000188542412825 -0.00297989162071 0)
(-0.00016660860006 -0.00261118868471 0)
(-0.000146538056561 -0.00228625563267 0)
(-0.000128550709736 -0.00200094099995 0)
(-0.000112196472987 -0.00175140086616 0)
(-9.76515919675e-05 -0.00153400164626 0)
(-8.44386430558e-05 -0.00134547835125 0)
(-7.25956685648e-05 -0.00118288410406 0)
(-6.11963689026e-05 -0.0010446813316 0)
(-4.87904653148e-05 -0.000921827956759 0)
(-4.15177327912e-05 -0.000830070634853 0)
(-4.1122657831e-05 -0.000756242436534 0)
(-3.82112607432e-05 -0.00067341959918 0)
(-3.28243099696e-05 -0.000598682734537 0)
(-2.73993098838e-05 -0.000540795566792 0)
(-2.72413764735e-05 -0.000493452801443 0)
(-2.93365219529e-05 -0.00043851519199 0)
(-2.91987862423e-05 -0.000384132849863 0)
(-2.9212517488e-05 -0.00032689741174 0)
(-3.27816992462e-05 -0.000265888578723 0)
(-3.66194511869e-05 -0.000200438672126 0)
(-4.01902096201e-05 -0.000122542205618 0)
(-4.15357823565e-05 -3.89216864787e-05 0)
(0.0049260651644 -0.00159332336146 0)
(0.00514564691617 -0.00518560444956 0)
(0.00514070528481 -0.00881405743615 -6.80921595407e-28)
(0.00507103518725 -0.0123721725223 0)
(0.00496790996902 -0.0158547665137 0)
(0.00483778190849 -0.0192507793785 0)
(0.0046849591374 -0.0225460783123 0)
(0.00451281705925 -0.0257271098439 0)
(0.00432444777166 -0.0287819637254 0)
(0.00412277914651 -0.0317005875299 0)
(0.00391054313561 -0.0344748884014 0)
(0.0036903792013 -0.0370985757962 0)
(0.00346455670216 -0.039567133846 0)
(0.00323530843963 -0.0418775366447 0)
(0.00300430710415 -0.0440281984859 0)
(0.00277332310704 -0.0460186276675 0)
(0.00254339078055 -0.0478493991522 0)
(0.00231585134756 -0.0495217870801 0)
(0.00209113897474 -0.0510377855767 0)
(0.00187025688257 -0.0523997453888 0)
(0.00165311974748 -0.0536104518841 0)
(0.00144050482355 -0.0546727777046 0)
(0.00123190141944 -0.0555898156773 0)
(0.00102797065353 -0.0563645520398 0)
(0.000827865325971 -0.0570000453785 0)
(0.000632224866643 -0.0574991211115 0)
(0.000439945641333 -0.057864585385 0)
(0.000251725246526 -0.0580989424549 0)
(6.62759352213e-05 -0.0582046341924 0)
(-0.000115580874809 -0.0581837778464 0)
(-0.000295248843763 -0.0580384346793 0)
(-0.0004717185906 -0.0577703809828 0)
(-0.000646429447336 -0.057381366577 0)
(-0.000818127015759 -0.0568729396167 0)
(-0.000988206559274 -0.0562467092961 0)
(-0.00115511289583 -0.0555042200178 0)
(-0.00132011212447 -0.0546472067138 0)
(-0.00148130394672 -0.0536775286124 0)
(-0.00163974455828 -0.0525974035845 0)
(-0.00179316415629 -0.0514094051313 0)
(-0.00194234712751 -0.0501166600293 0)
(-0.00208466422399 -0.048722907486 0)
(-0.00222059394843 -0.0472326393252 0)
(-0.00234719930126 -0.0456512144464 0)
(-0.00246466158782 -0.043984922127 0)
(-0.00256984327765 -0.0422411391331 0)
(-0.00266269691677 -0.0404282929695 0)
(-0.00274006618063 -0.0385560343838 0)
(-0.00280184042679 -0.0366350734324 0)
(-0.00284513468226 -0.0346773196501 0)
(-0.00287006965807 -0.0326955551744 0)
(-0.00287443108984 -0.0307034782664 0)
(-0.00285896193849 -0.0287151949271 0)
(-0.00282252288243 -0.0267451313122 0)
(-0.00276679770666 -0.0248073933499 0)
(-0.00269191896925 -0.0229155942042 0)
(-0.00260055650254 -0.0210822165303 0)
(-0.00249396568359 -0.019318462828 0)
(-0.00237551726345 -0.0176337630284 0)
(-0.00224713304633 -0.0160357474502 0)
(-0.00211237563109 -0.0145299917052 0)
(-0.00197323998689 -0.0131201626846 0)
(-0.00183295620659 -0.0118080042376 0)
(-0.00169310779071 -0.0105936183879 0)
(-0.00155626466906 -0.00947560581685 0)
(-0.00142336707707 -0.0084513927018 0)
(-0.00129623912912 -0.00751742502716 0)
(-0.00117517125462 -0.00666946803549 0)
(-0.00106133847945 -0.00590277937618 0)
(-0.000954523011024 -0.00521233777773 0)
(-0.000855436975912 -0.00459295261903 0)
(-0.000763537261913 -0.00403941895697 0)
(-0.000679241583059 -0.00354656772228 0)
(-0.000601820530549 -0.00310937462104 0)
(-0.000531506123575 -0.00272297154513 0)
(-0.000467471926798 -0.00238272960181 0)
(-0.000409834043357 -0.00208424211638 0)
(-0.000357728721861 -0.00182338755423 0)
(-0.000311194365334 -0.00159628363734 0)
(-0.000269331955407 -0.00139931347539 0)
(-0.000232009408261 -0.00122898026772 0)
(-0.00019795751978 -0.00108182527904 0)
(-0.000165332359558 -0.000952745745216 0)
(-0.000139203798505 -0.000827590317193 0)
(-0.000127404668942 -0.000737326929052 0)
(-0.000116244500592 -0.000656330480998 0)
(-9.68916723047e-05 -0.000577333566251 0)
(-8.17482154384e-05 -0.000524185052228 0)
(-7.91674569121e-05 -0.000468800599688 0)
(-8.43150955132e-05 -0.000426194628621 0)
(-8.66719881121e-05 -0.000381176072594 0)
(-8.98438650515e-05 -0.00032137388065 0)
(-9.71245850644e-05 -0.000259800945687 0)
(-0.00011808706943 -0.000206391176257 0)
(-0.000140649913077 -0.000131793187743 0)
(-0.00012251040616 -3.56279648009e-05 0)
(0.00840840173292 -0.00164433119198 0)
(0.00881090004143 -0.00529286063063 0)
(0.00872881725636 -0.00892092512019 -6.7996274608e-28)
(0.00858877084209 -0.0125191988638 0)
(0.00840478436676 -0.0160417191139 0)
(0.00817981332961 -0.0194747859963 0)
(0.00791813194979 -0.0228032118874 0)
(0.00762446014662 -0.0260132651037 0)
(0.00730369952037 -0.0290930289606 0)
(0.00696069911614 -0.0320325643033 0)
(0.00660012948605 -0.0348239459263 0)
(0.00622639106802 -0.0374611530152 0)
(0.00584346415382 -0.0399399579743 0)
(0.00545496360696 -0.0422577036572 0)
(0.00506393503773 -0.0444131442568 0)
(0.00467308210198 -0.046406183269 0)
(0.0042844698416 -0.0482377216391 0)
(0.00389993605755 -0.0499094003816 0)
(0.00352065775818 -0.0514234852933 0)
(0.00314775276014 -0.0527826361796 0)
(0.00278167068851 -0.0539898392764 0)
(0.00242299158547 -0.0550482105589 0)
(0.00207161291733 -0.0559609739361 0)
(0.00172775384378 -0.0567312965793 0)
(0.00139092034175 -0.0573623061303 0)
(0.00106112427273 -0.0578569543781 0)
(0.00073761819787 -0.0582180642641 0)
(0.000420336206527 -0.0584482176124 0)
(0.000108397445279 -0.0585498264305 0)
(-0.000198227430811 -0.058525045271 0)
(-0.000500437777414 -0.0583758592935 0)
(-0.000798117014611 -0.058104022969 0)
(-0.00109206708111 -0.0577111690614 0)
(-0.00138191322794 -0.0571987766543 0)
(-0.00166823537928 -0.0565682956535 0)
(-0.00195028719683 -0.0558211501578 0)
(-0.0022283023016 -0.0549588784455 0)
(-0.00250105947515 -0.0539831743735 0)
(-0.00276833585774 -0.052896035093 0)
(-0.00302836077493 -0.0516998372807 0)
(-0.00328038073658 -0.0503974838031 0)
(-0.0035220511293 -0.0489925079321 0)
(-0.00375206848254 -0.0474892026229 0)
(-0.00396755635597 -0.0458927409275 0)
(-0.00416671460044 -0.0442092739793 0)
(-0.0043462627544 -0.0424460547638 0)
(-0.00450405728344 -0.0406114844483 0)
(-0.00463666561813 -0.0387152159005 0)
(-0.00474191333764 -0.0367681188442 0)
(-0.0048166621941 -0.0347823178859 0)
(-0.00485924941773 -0.0327710200082 0)
(-0.00486750428452 -0.0307484137876 0)
(-0.00484100340848 -0.0287293043685 0)
(-0.00477926868487 -0.0267288292704 0)
(-0.0046837167843 -0.0247619307126 0)
(-0.00455593699067 -0.0228429597101 0)
(-0.00439926651581 -0.0209851367776 0)
(-0.00421711539475 -0.0192001979927 0)
(-0.00401421038498 -0.0174980032954 0)
(-0.00379499231356 -0.0158863570943 0)
(-0.00356463050076 -0.0143708609294 0)
(-0.00332755677444 -0.0129549865055 0)
(-0.00308841080354 -0.0116401754632 0)
(-0.00285078563882 -0.0104261012352 0)
(-0.00261820489349 -0.00931090849858 0)
(-0.00239305946752 -0.00829152921444 0)
(-0.00217761423446 -0.00736395216865 0)
(-0.00197308235071 -0.00652350942142 0)
(-0.00178064527809 -0.00576509890808 0)
(-0.00160061552657 -0.00508339122478 0)
(-0.00143342990532 -0.00447296115804 0)
(-0.00127883621062 -0.0039284083978 0)
(-0.00113682142179 -0.00344442273142 0)
(-0.00100680265926 -0.00301585741333 0)
(-0.000888496476849 -0.00263776299016 0)
(-0.000781132765805 -0.00230543619169 0)
(-0.00068427610623 -0.00201443159916 0)
(-0.000597076243653 -0.00176058856676 0)
(-0.000519045528725 -0.00154001314221 0)
(-0.000449354958586 -0.00134906480863 0)
(-0.000387585149868 -0.00118423944492 0)
(-0.00033313013348 -0.00104211228382 0)
(-0.000286527150995 -0.000918269117644 0)
(-0.000244068074029 -0.000797308415363 0)
(-0.00021659611746 -0.000712958694004 0)
(-0.000192874562382 -0.000631145768899 0)
(-0.000169200597013 -0.00057007052249 0)
(-0.000142309464514 -0.000492292407134 0)
(-0.000126210361523 -0.000427391258561 0)
(-0.000129525902911 -0.000390217511229 0)
(-0.000147931017015 -0.000363591821407 0)
(-0.000147710262495 -0.00028554425647 0)
(-0.000165573455158 -0.000235464861925 0)
(-0.000189590625614 -0.000172094416543 0)
(-0.000208914255658 -0.000104360422052 0)
(-0.00019830639164 -3.21645422511e-05 0)
(0.0118739768425 -0.00168350131698 0)
(0.0125027031332 -0.00539331387483 0)
(0.0123834164088 -0.00906737636587 6.79871174385e-28)
(0.0121789242061 -0.0127184865516 0)
(0.0119119741155 -0.0162916682201 0)
(0.0115875115616 -0.0197713367683 0)
(0.0112114343456 -0.0231411355718 0)
(0.0107903610162 -0.0263868449287 0)
(0.0103312536647 -0.0294964033118 0)
(0.00984106287797 -0.0324599713063 0)
(0.00932651066292 -0.0352698902479 0)
(0.00879388789365 -0.0379205486999 0)
(0.00824892190696 -0.0404082083592 0)
(0.00769670388876 -0.0427307726809 0)
(0.00714161153416 -0.0448875643435 0)
(0.00658735672453 -0.0468790713907 0)
(0.00603692726124 -0.0487067356726 0)
(0.00549273551121 -0.050372721672 0)
(0.00495654002152 -0.0518797470369 0)
(0.00442967543627 -0.0532308941465 0)
(0.00391292133831 -0.0544294910957 0)
(0.00340680102647 -0.0554789678542 0)
(0.00291137667377 -0.0563827836018 0)
(0.00242661244646 -0.0571443215071 0)
(0.00195208546495 -0.0577668528601 0)
(0.00148741531068 -0.0582534616365 0)
(0.00103188875239 -0.0586070367212 0)
(0.000584959851491 -0.0588302203693 0)
(0.00014579102541 -0.0589254220921 0)
(-0.000286171423497 -0.058894789598 0)
(-0.000711733574088 -0.0587402382288 0)
(-0.001131301453 -0.0584634457082 0)
(-0.00154548939608 -0.0580659068336 0)
(-0.00195439341877 -0.0575489504799 0)
(-0.00235826462174 -0.0569138173677 0)
(-0.00275671852874 -0.0561617083399 0)
(-0.00314946976428 -0.0552938868719 0)
(-0.00353549244114 -0.0543117589646 0)
(-0.00391381191228 -0.0532169973894 0)
(-0.00428263772165 -0.0520116495515 0)
(-0.00464020656252 -0.0506982743038 0)
(-0.00498390977435 -0.0492800673858 0)
(-0.00531117590385 -0.0477609971881 0)
(-0.00561861617075 -0.0461459352898 0)
(-0.0059029322979 -0.0444407785003 0)
(-0.00616010639645 -0.0426525730703 0)
(-0.00638632517099 -0.0407896095631 0)
(-0.00657725727472 -0.0388615246095 0)
(-0.00672900625282 -0.0368793415903 0)
(-0.00683753246629 -0.0348555022583 0)
(-0.00689965060494 -0.0328037786838 0)
(-0.00691261183284 -0.0307391319443 0)
(-0.00687508201791 -0.0286773851333 0)
(-0.00678675961142 -0.026634829028 0)
(-0.00664914503813 -0.0246276612434 0)
(-0.00646500626719 -0.0226714386042 0)
(-0.00623881966207 -0.0207804859696 0)
(-0.0059760544047 -0.0189674144282 0)
(-0.00568333596839 -0.017242700998 0)
(-0.00536763208848 -0.0156144316482 0)
(-0.00503623872155 -0.0140881827914 0)
(-0.00469600329788 -0.012667098042 0)
(-0.00435337169315 -0.0113520857772 0)
(-0.00401382184194 -0.0101421322824 0)
(-0.00368209540199 -0.00903463398815 0)
(-0.00336182682388 -0.00802575404193 0)
(-0.00305588803762 -0.00711075483421 0)
(-0.00276615341745 -0.00628431100034 0)
(-0.00249392195317 -0.00554077155322 0)
(-0.00223976428742 -0.00487436195002 0)
(-0.0020039541604 -0.00427931799487 0)
(-0.00178629057973 -0.0037499758972 0)
(-0.00158646128836 -0.00328082702159 0)
(-0.0014038205375 -0.00286656788673 0)
(-0.00123770635376 -0.00250213473616 0)
(-0.00108721254308 -0.00218273861301 0)
(-0.000951484508554 -0.00190388501891 0)
(-0.000829502912908 -0.00166139298846 0)
(-0.000720369975862 -0.0014513947586 0)
(-0.00062312320807 -0.00127033547591 0)
(-0.00053704073925 -0.00111493501083 0)
(-0.000461596813153 -0.000982668475061 0)
(-0.000397611507131 -0.000865017793619 0)
(-0.000345935275472 -0.000767374099695 0)
(-0.000302601238935 -0.000678385088465 0)
(-0.000268795798244 -0.000601470259812 0)
(-0.000236708623015 -0.000529883411437 0)
(-0.000204910165497 -0.000453264056263 0)
(-0.000190327069348 -0.000403862254197 0)
(-0.000178404497083 -0.000339044630999 0)
(-0.000186838190247 -0.000288556953049 0)
(-0.000217893736468 -0.000257859447617 0)
(-0.000221515305184 -0.000184632093389 0)
(-0.000245857530697 -0.000129126146433 0)
(-0.00027206694206 -7.99593714523e-05 0)
(-0.000266789113032 -2.64618147366e-05 0)
(0.0154262791666 -0.00172489678181 0)
(0.016256171002 -0.00551828742958 0)
(0.0160993730078 -0.00926727449128 0)
(0.0158281224758 -0.012991965774 0)
(0.0154739203727 -0.0166339966969 0)
(0.015044274864 -0.0201763521509 0)
(0.0145473320004 -0.0236015636828 0)
(0.0139920532783 -0.0268948162468 0)
(0.0133877825429 -0.0300438599135 0)
(0.0127438241946 -0.0330389950454 0)
(0.012069127632 -0.0358729557307 0)
(0.0113720235688 -0.0385407154988 0)
(0.0106600522533 -0.0410392462286 0)
(0.00993985229471 -0.0433672402406 0)
(0.00921710753469 -0.0455248309542 0)
(0.0084965589371 -0.0475133118068 0)
(0.00778202545387 -0.0493348832613 0)
(0.00707649696572 -0.050992415689 0)
(0.006382181566 -0.0524892527194 0)
(0.00570064209152 -0.0538290332882 0)
(0.00503283350769 -0.0550155551042 0)
(0.0043792589378 -0.0560526517458 0)
(0.00373997611636 -0.056944106427 0)
(0.00311476281554 -0.0576935715374 0)
(0.00250308488348 -0.0583045194888 0)
(0.00190427085046 -0.0587801925407 0)
(0.00131744257086 -0.0591235793512 0)
(0.000741704191741 -0.0593373862039 0)
(0.000176041256423 -0.0594240324916 0)
(-0.000380469723738 -0.0593856426516 0)
(-0.000928785616398 -0.0592240534928 0)
(-0.00146966045764 -0.0589408279215 0)
(-0.00200378984445 -0.0585372886821 0)
(-0.00253154695968 -0.05801455169 0)
(-0.00305314328925 -0.0573735864779 0)
(-0.00356834248778 -0.0566152807326 0)
(-0.00407664061844 -0.0557405314638 0)
(-0.00457696929814 -0.0547503433478 0)
(-0.00506790244946 -0.0536459491555 0)
(-0.00554736441002 -0.052428936949 0)
(-0.00601287025278 -0.0511013916368 0)
(-0.0064612531885 -0.0496660385263 0)
(-0.00688894006109 -0.0481263907703 0)
(-0.00729170831548 -0.0464868948571 0)
(-0.00766499237792 -0.0447530732368 0)
(-0.00800368055148 -0.0429316641956 0)
(-0.00830245735137 -0.041030755985 0)
(-0.00855567544044 -0.0390599187896 0)
(-0.00875777733779 -0.0370303146728 0)
(-0.00890332140231 -0.03495477994 0)
(-0.00898755173748 -0.0328478131605 0)
(-0.00900662021247 -0.0307254546929 0)
(-0.0089582478392 -0.0286049577721 0)
(-0.00884194509194 -0.0265042950874 0)
(-0.00865945346237 -0.0244414791667 0)
(-0.00841463156007 -0.0224338375718 0)
(-0.00811347259641 -0.0204972926999 0)
(-0.00776364460018 -0.0186457302297 0)
(-0.00737420092821 -0.0168905091591 0)
(-0.00695489804901 -0.0152401047341 0)
(-0.00651568486415 -0.0136999985035 0)
(-0.00606600417221 -0.0122728122382 0)
(-0.00561444271936 -0.0109586181943 0)
(-0.00516835751637 -0.00975538555086 0)
(-0.00473386144936 -0.00865941546219 0)
(-0.00431569782642 -0.00766577002148 0)
(-0.00391738293748 -0.00676867778079 0)
(-0.00354122908734 -0.00596189763925 0)
(-0.00318861840583 -0.00523902358988 0)
(-0.00286014340895 -0.00459370071159 0)
(-0.00255590226374 -0.00401973191466 0)
(-0.00227556740674 -0.00351113062641 0)
(-0.00201856329342 -0.00306214161949 0)
(-0.00178404257533 -0.0026672681784 0)
(-0.00157101587348 -0.00232130012734 0)
(-0.00137831641205 -0.00201934134629 0)
(-0.0012047191199 -0.00175683304443 0)
(-0.00104891027345 -0.00152957118444 0)
(-0.000909609108792 -0.00133371844201 0)
(-0.000785556940787 -0.00116580961487 0)
(-0.000675661980823 -0.00102276576911 0)
(-0.00057928364081 -0.00090236048995 0)
(-0.0004947495675 -0.000791571291716 0)
(-0.000435654052682 -0.000710008210102 0)
(-0.000388331850024 -0.000633267133967 0)
(-0.000349786511541 -0.000562393981403 0)
(-0.000317599211031 -0.000495575612613 0)
(-0.000279703602539 -0.000422045931305 0)
(-0.000242699205441 -0.000340405248306 0)
(-0.000235933076959 -0.000289426083756 0)
(-0.000231782314273 -0.000228142143898 0)
(-0.000261345517586 -0.000196563429089 0)
(-0.000295536450962 -0.000155959510999 0)
(-0.000297065525074 -9.74138451018e-05 0)
(-0.000309608097936 -5.70125901204e-05 0)
(-0.000304756497726 -1.92505279658e-05 0)
(0.0190719406489 -0.00177482885667 0)
(0.0201001406858 -0.00567476730177 0)
(0.019902304251 -0.00952415270948 0)
(0.0195592376911 -0.0133448201311 0)
(0.019111105114 -0.0170755640402 0)
(0.0185682541525 -0.0206979533793 0)
(0.01794157051 -0.0241933897305 0)
(0.0172428231167 -0.0275464318399 0)
(0.0164841442421 -0.0307446745538 0)
(0.015677519667 -0.033778672874 0)
(0.0148343798721 -0.0366417418151 0)
(0.0139652762589 -0.0393296790877 0)
(0.0130796696743 -0.0418404384826 0)
(0.0121858027003 -0.0441737798363 0)
(0.0112906582764 -0.0463309235074 0)
(0.0103999805518 -0.0483142224178 0)
(0.00951834091693 -0.0501268695004 0)
(0.00864924315586 -0.0517726401118 0)
(0.00779523355785 -0.0532556789277 0)
(0.00695803657958 -0.0545803214714 0)
(0.00613866395193 -0.0557509555526 0)
(0.00533754851538 -0.0567719083919 0)
(0.00455462938765 -0.0576473645242 0)
(0.00378947137114 -0.0583812989977 0)
(0.00304132029884 -0.0589774323392 0)
(0.00230920878654 -0.0594391925238 0)
(0.00159198614067 -0.0597696928351 0)
(0.000888417883271 -0.0599717118385 0)
(0.000197199186399 -0.0600476858603 0)
(-0.000482942817744 -0.0599997059958 0)
(-0.00115324013671 -0.0598295176009 0)
(-0.00181476980769 -0.0595385376121 0)
(-0.00246844670169 -0.0591278798138 0)
(-0.00311489254508 -0.0585983889708 0)
(-0.00375442671485 -0.057950696285 0)
(-0.00438692384156 -0.057185287201 0)
(-0.00501180947785 -0.0563025931577 0)
(-0.00562791827353 -0.0553030979726 0)
(-0.00623350813156 -0.0541874672304 0)
(-0.00682613658151 -0.0529566894318 0)
(-0.00740270853551 -0.0516122323178 0)
(-0.00795938543023 -0.0501562034646 0)
(-0.00849167394984 -0.0485915155473 0)
(-0.00899437127737 -0.0469220476979 0)
(-0.00946168918208 -0.0451528076482 0)
(-0.00988723225429 -0.0432900917441 0)
(-0.0102641574541 -0.0413416549608 0)
(-0.0105852190041 -0.0393168919723 0)
(-0.0108430324315 -0.0372270318633 0)
(-0.0110303159694 -0.0350853180021 0)
(-0.0111404085537 -0.032907115999 0)
(-0.0111678305409 -0.0307098638641 0)
(-0.0111090385101 -0.0285127433397 0)
(-0.0109630346031 -0.0263360656158 0)
(-0.0107318046998 -0.0242003764721 0)
(-0.0104203747077 -0.0221254844484 0)
(-0.0100366164937 -0.0201295237941 0)
(-0.00959076799827 -0.018228165745 0)
(-0.00909491450154 -0.0164339757236 0)
(-0.00856216602636 -0.0147559352532 0)
(-0.00800574796993 -0.0131993071161 0)
(-0.00743809843756 -0.0117658726947 0)
(-0.006870260654 -0.0104544545863 0)
(-0.00631154826399 -0.00926156519934 0)
(-0.00576951316193 -0.00818198725553 0)
(-0.00524992433856 -0.00720928730584 0)
(-0.00475686769823 -0.00633629676162 0)
(-0.00429287937193 -0.00555555605996 0)
(-0.00385924785645 -0.00485969446221 0)
(-0.00345634426514 -0.00424165346446 0)
(-0.00308397515983 -0.00369474879823 0)
(-0.00274155142133 -0.00321264295202 0)
(-0.00242820406636 -0.0027893075082 0)
(-0.00214280086331 -0.00241902516419 0)
(-0.00188401300677 -0.00209641270149 0)
(-0.00165033764629 -0.00181644548271 0)
(-0.00144016601247 -0.00157448206062 0)
(-0.00125180986263 -0.0013662857639 0)
(-0.0010835720385 -0.00118804381946 0)
(-0.000933789082165 -0.00103638925001 0)
(-0.000800931411035 -0.000908632290707 0)
(-0.000684349828507 -0.000800957277383 0)
(-0.0005847030725 -0.000703304734623 0)
(-0.000513569794574 -0.000624985673831 0)
(-0.000459288761248 -0.000551276282895 0)
(-0.000417538770294 -0.000487453291806 0)
(-0.000370565649923 -0.000414139605744 0)
(-0.000343618867297 -0.000361685715719 0)
(-0.000322884033191 -0.00030520407932 0)
(-0.00031167693572 -0.000251285826573 0)
(-0.000280582883805 -0.000179676767012 0)
(-0.000289201436574 -0.000135174790973 0)
(-0.000333586722991 -0.000112939967264 0)
(-0.000344480037248 -7.67643510006e-05 0)
(-0.000343537077508 -4.25498061664e-05 0)
(-0.000339680984526 -1.43285800981e-05 0)
(0.0228324012908 -0.00183589544969 0)
(0.024060773389 -0.00586806931353 0)
(0.0238164586603 -0.00984367731376 6.75055352369e-28)
(0.0233940615103 -0.0137842298519 0)
(0.0228426846867 -0.0176250089251 0)
(0.0221758774887 -0.0213458842 0)
(0.0214077900005 -0.0249269911495 0)
(0.0205535418963 -0.0283522388405 0)
(0.0196285501472 -0.0316091596317 0)
(0.018647895298 -0.0346887556492 0)
(0.0176258052593 -0.0375851953675 0)
(0.0165752710533 -0.0402954219582 0)
(0.0155077987391 -0.042818716085 0)
(0.0144332834609 -0.0451562480092 0)
(0.013359986576 -0.0473106495845 0)
(0.012294593657 -0.0492856257761 0)
(0.0112423263709 -0.0510856174214 0)
(0.010207092227 -0.0527155199901 0)
(0.00919164578084 -0.0541804564384 0)
(0.00819775878371 -0.0554856002559 0)
(0.00722637496327 -0.0566360407876 0)
(0.00627776141188 -0.0576366842458 0)
(0.00535163202859 -0.0584921818299 0)
(0.00444726789563 -0.0592068792244 0)
(0.00356360626918 -0.0597847810089 0)
(0.00269933378358 -0.0602295260259 0)
(0.00185294924504 -0.0605443699821 0)
(0.00102284113973 -0.0607321733065 0)
(0.000207337385747 -0.0607953926719 0)
(-0.000595220457227 -0.0607360810234 0)
(-0.00138642364372 -0.0605558787751 0)
(-0.00216771299319 -0.0602560322482 0)
(-0.00294031798993 -0.0598374085799 0)
(-0.00370515494657 -0.0593005282497 0)
(-0.00446275413328 -0.0586456136354 0)
(-0.0052131456662 -0.0578726586713 0)
(-0.0059557834587 -0.0569815203277 0)
(-0.00668943416683 -0.0559720356009 0)
(-0.00741211781921 -0.0548441601808 0)
(-0.00812102323324 -0.0535981291995 0)
(-0.00881248868062 -0.0522346315209 0)
(-0.00948196362822 -0.0507549941428 0)
(-0.0101240408005 -0.0491613660252 0)
(-0.0107324634726 -0.0474568987551 0)
(-0.011300192449 -0.045645922209 0)
(-0.0118194331391 -0.043734119877 0)
(-0.0122817177287 -0.0417287296721 0)
(-0.0126779716046 -0.0396387803804 0)
(-0.0129987000853 -0.0374753981074 0)
(-0.0132342948327 -0.0352521425902 0)
(-0.0133756128677 -0.0329853144893 0)
(-0.0134148377957 -0.0306940718105 0)
(-0.013346565835 -0.0284001495827 0)
(-0.0131688679429 -0.0261270497594 0)
(-0.0128839085886 -0.023898808616 0)
(-0.012498076745 -0.0217386396465 0)
(-0.0120215550243 -0.0196676772847 0)
(-0.0114677140579 -0.0177040205432 0)
(-0.0108524698594 -0.0158619005494 0)
(-0.0101931836474 -0.0141509325665 0)
(-0.00950722808824 -0.0125759261712 0)
(-0.00881064115983 -0.0111373210585 0)
(-0.00811723811195 -0.00983206491498 0)
(-0.00743836004639 -0.00865463562431 0)
(-0.00678299521076 -0.00759778969219 0)
(-0.00615785535989 -0.00665312315552 0)
(-0.0055674553079 -0.00581163176797 0)
(-0.00501427835679 -0.00506427702207 0)
(-0.00449919467764 -0.00440248790109 0)
(-0.00402203552439 -0.00381842756356 0)
(-0.00358211680679 -0.00330493872151 0)
(-0.00317847921351 -0.00285535926779 0)
(-0.0028099192331 -0.00246339085599 0)
(-0.00247496483662 -0.0021230769642 0)
(-0.00217191206738 -0.00182883680256 0)
(-0.00189886708267 -0.00157549426511 0)
(-0.00165379845101 -0.00135830519415 0)
(-0.00143458260885 -0.00117297715609 0)
(-0.0012390501022 -0.00101569738312 0)
(-0.00106502070172 -0.00088316148693 0)
(-0.000910342912942 -0.000773096431054 0)
(-0.000773764764575 -0.000679069060309 0)
(-0.000671723073507 -0.000602608304285 0)
(-0.000596109860119 -0.000533587866911 0)
(-0.000531010330167 -0.000464189936015 0)
(-0.000481972002929 -0.000405146181876 0)
(-0.000436255943557 -0.00034713887375 0)
(-0.00039518174989 -0.000287469801947 0)
(-0.000378379789654 -0.000240365657533 0)
(-0.000353866542424 -0.000185900927622 0)
(-0.000350573823193 -0.000146097489875 0)
(-0.00032808992126 -9.49286248867e-05 0)
(-0.000342816941545 -6.93563090137e-05 0)
(-0.00037312452883 -5.35431983291e-05 0)
(-0.000368249139352 -2.97815579876e-05 0)
(-0.000364871621829 -1.00520275039e-05 0)
(0.026733058935 -0.00191009412525 0)
(0.0281656335895 -0.00610349186026 0)
(0.0278679015601 -0.0102333614537 -6.74949179937e-28)
(0.0273562164461 -0.0143198684115 0)
(0.0266893226032 -0.0182937817337 0)
(0.0258845815902 -0.0221328441927 0)
(0.0249601079605 -0.025815720099 0)
(0.0239350654785 -0.0293256662289 0)
(0.0228287829694 -0.0326503155059 0)
(0.0216599474271 -0.0357814119715 0)
(0.0204459689577 -0.0387143601767 0)
(0.0192025272172 -0.0414476796609 0)
(0.0179433041899 -0.0439824200904 0)
(0.0166798733298 -0.0463215860339 0)
(0.0154217223559 -0.0484696073869 0)
(0.0141763687196 -0.0504318767668 0)
(0.0129495400122 -0.0522143651736 0)
(0.0117453865637 -0.0538233150635 0)
(0.0105667056093 -0.0552650068886 0)
(0.00941515959422 -0.0565455869928 0)
(0.00829147688804 -0.057670947864 0)
(0.00719563159065 -0.0586466465331 0)
(0.00612699627361 -0.0594778535376 0)
(0.00508447407247 -0.0601693205364 0)
(0.00406660535909 -0.0607253625519 0)
(0.00307166132963 -0.0611498460239 0)
(0.00209771868839 -0.0614461823615 0)
(0.00114273142007 -0.0616173210035 0)
(0.000204591655967 -0.0616657436454 0)
(-0.000718803581693 -0.0615934625581 0)
(-0.0016294819031 -0.061402004826 0)
(-0.00252931762993 -0.061092426134 0)
(-0.00341994706983 -0.0606653154003 0)
(-0.00430266351436 -0.0601208181314 0)
(-0.00517831139097 -0.0594586794025 0)
(-0.00604716209368 -0.0586783082087 0)
(-0.00690879729731 -0.0577788725296 0)
(-0.0077619852413 -0.0567594224085 0)
(-0.00860458045065 -0.0556190455527 0)
(-0.00943343348987 -0.0543570487069 0)
(-0.0102443423099 -0.0529731602895 0)
(-0.0110320254031 -0.0514677423421 0)
(-0.0117901443803 -0.0498420013265 0)
(-0.0125113347678 -0.0480981845567 0)
(-0.013187266977 -0.0462397618426 0)
(-0.0138086706708 -0.0442716009666 0)
(-0.0143653670651 -0.0422001768969 0)
(-0.0148462598252 -0.0400338574849 0)
(-0.0152394170268 -0.0377833381128 0)
(-0.0155323174028 -0.0354622139014 0)
(-0.01571250763 -0.0330876424432 0)
(-0.0157687760614 -0.0306808008454 0)
(-0.0156928601007 -0.0282667582395 0)
(-0.0154812980043 -0.0258733940217 0)
(-0.0151362848801 -0.023529571992 0)
(-0.0146659746186 -0.0212631187445 0)
(-0.0140834120819 -0.019099150221 0)
(-0.0134058015827 -0.0170590710411 0)
(-0.0126540068498 -0.0151594369615 0)
(-0.0118510042938 -0.0134106863408 0)
(-0.0110196370073 -0.0118167585674 0)
(-0.0101803851753 -0.0103758776939 0)
(-0.00935009340231 -0.00908216940591 0)
(-0.00854207035195 -0.00792731907587 0)
(-0.0077666314631 -0.00690148007881 0)
(-0.00703136422703 -0.00599374555077 0)
(-0.00634103387324 -0.00519271834957 0)
(-0.00569768732508 -0.00448729435615 0)
(-0.00510124075398 -0.00386745078752 0)
(-0.00455048784502 -0.00332457492682 0)