/*--------------------------------*- C++ -*----------------------------------*\
| =========                 |                                                 |
| \\      /  F ield         | OpenFOAM: The Open Source CFD Toolbox           |
|  \\    /   O peration     | Version:  v1906                                 |
|   \\  /    A nd           | Web:      www.OpenFOAM.com                      |
|    \\/     M anipulation  |                                                 |
\*---------------------------------------------------------------------------*/
FoamFile
{
    version     2.0;
    format      ascii;
    class       surfaceScalarField;
    location    "866";
    object      phia;
}
// * * * * * * * * * * * * * * * * * * * * * * * * * * * * * * * * * * * * * //

dimensions      [0 3 -1 0 0 0 0];
oriented        oriented;


internalField   nonuniform List<scalar> 
18240
(
0.00134666203183
-0.00134653202961
0.00282096084283
-0.00147414960381
0.004294184647
-0.00147308941991
0.00574867028483
-0.00145433342524
0.00717637490544
-0.00142757454731
0.00857058302802
-0.00139405403675
0.00992519820501
-0.0013544898695
0.0112348075477
-0.00130945396974
0.0124944759731
-0.00125954826456
0.0136999791679
-0.00120534714809
0.0148475723097
-0.0011474785734
0.015934253334
-0.00108652491208
0.0169574728124
-0.00102311081824
0.0179154171881
-0.000957788803801
0.0188066624549
-0.000891142878904
0.0196304802309
-0.000823663338287
0.0203864431656
-0.000755867038363
0.0210747584166
-0.000688162540716
0.0216958336149
-0.000620986075288
0.02225064154
-0.000554657516474
0.0227402543207
-0.000489530551793
0.0231662413371
-0.00042583947186
0.0235301780189
-0.000363861535014
0.0238340767871
-0.000303754615779
0.0240798746865
-0.000245729846651
0.0242698951685
-0.000189880225029
0.0244063177331
-0.000136361689233
0.0244916670498
-8.52134095822e-05
0.0245282669369
-3.65460894598e-05
0.024518753328
9.64474742278e-06
0.0244655171805
5.32828877411e-05
0.0243712294701
9.44137163408e-05
0.0242382667634
0.000133002591481
0.0240692666071
0.000169120697753
0.0238665511381
0.000202748613385
0.0236326842199
0.000233981725521
0.0233698876581
0.000262823259288
0.0230806084852
0.000289388018208
0.0227669337987
0.000313695138568
0.0224311631055
0.000335873409171
0.0220752240507
0.000355953628821
0.0217012463566
0.000374074152534
0.0213109814154
0.000390273904917
0.0209063746028
0.000404696941789
0.0204889913258
0.000417387048862
0.020060584726
0.000428490362482
0.0196225310108
0.000438052609958
0.0191763896812
0.0004462187392
0.0187233504755
0.000453033672191
0.0182647834409
0.000458638133965
0.0178016999328
0.000463073890166
0.0173352899261
0.000466474882902
0.0168663989522
0.000468877732206
0.0163960502082
0.000470407508253
0.0159249393612
0.000471094338639
0.0154539391021
0.000471053059845
0.0149836132147
0.000470306568792
0.0145147014304
0.000468958788914
0.0140476542267
0.000467025430446
0.01358309601
0.000464599622033
0.0131213816742
0.000461690543704
0.0126630364391
0.000458381250324
0.0122083353154
0.000454675651454
0.0117577181796
0.000450647990358
0.0113113929556
0.000446298470164
0.0108697248581
0.000441694025149
0.0104328642245
0.000436832903949
0.0100011091313
0.000431776338791
0.00957455851571
0.000426522257673
0.00915344769535
0.000421127627119
0.00873782749476
0.000415591479505
0.00832787241581
0.000409967697994
0.00792358619187
0.000404257437868
0.00752508260139
0.00039851227521
0.00713231787846
0.000392736111319
0.00674534429059
0.000386978606926
0.0063640695534
0.000381246575836
0.00598848344201
0.000375587745601
0.00561844432732
0.000370011648346
0.00525387913492
0.000364563740493
0.00489459690107
0.000359255737783
0.0045404624641
0.000354130194924
0.0041912369507
0.000349200219222
0.00384672561101
0.000344504558676
0.00350664513971
0.000340056539125
0.00317074635129
0.000335889594058
0.00283870885735
0.000332014919775
0.00251024074423
0.000328456515849
0.00218500461331
0.000325214866857
0.00186270615527
0.000322284773051
0.0015430805877
0.000319606045615
0.00122605020667
0.000317015345141
0.000911996655104
0.00031403690096
0.000602969048764
0.000309011605921
0.000307751690295
0.000295198974722
0.000307742257115
0.00148879555055
-0.00283518658585
0.00315070362806
-0.00313590441548
0.00480350423482
-0.00312574096549
0.00643250556157
-0.00308318109685
0.00803027214658
-0.00302519398524
0.00958987300715
-0.00295350190275
0.0111047015302
-0.00286917373727
0.012568719356
-0.00277331997701
0.0139764618177
-0.00266714910461
0.0153231719945
-0.00255190724693
0.0166047247304
-0.00242889321231
0.0178177361566
-0.00229938855262
0.0189594408818
-0.00216468147094
0.0200277915588
-0.0020259945223
0.0210212996457
-0.0018845213437
0.0219391327865
-0.00174135485582
0.0227809281665
-0.00159753768457
0.0235468949522
-0.00145399153005
0.0242376087953
-0.00131158043388
0.0248541254613
-0.00117104067215
0.0253977636686
-0.00103305489136
0.0258702340876
-0.000898181098996
0.0262734155909
-0.000766935067467
0.0266095013154
-0.000639716654527
0.0268807710675
-0.000516897802327
0.0270897538877
-0.000398744815488
0.02723899758
-0.000285509941885
0.0273312457407
-0.000177349091629
0.0273692044321
-7.44158711707e-05
0.0273557307131
2.3224942009e-05
0.0272935939538
0.000115501947807
0.0271856814866
0.000202426460976
0.0270347675503
0.00028399214584
0.026843711253
0.000360270918731
0.0266152160145
0.000431312808892
0.0263520460275
0.00049723919058
0.026056788645
0.000558142970311
0.0257320735685
0.000614184079686
0.0253803357018
0.000665488823562
0.0250040375672
0.000712246042616
0.0246054340642
0.000754606563113
0.024186796768
0.000792779507281
0.0237501816237
0.000826932291239
0.0232976537427
0.000857286534237
0.0228310589947
0.000884019046815
0.0223522480411
0.000907356805558
0.021862852807
0.000927479361658
0.0213645085375
0.000944612440784
0.0208586360158
0.000958932233582
0.0203466604908
0.000970657223016
0.0198298004373
0.000979954809949
0.0193092821817
0.000987031055235
0.0187861358049
0.000992040097269
0.0182614043092
0.000995171512322
0.0177359471582
0.000996562933495
0.0172106428092
0.000996384771616
0.0166862002018
0.000994756396816
0.0161633535447
0.000991827937447
0.0156426820201
0.00098770030022
0.0151247957823
0.000982503769848
0.0146101640564
0.000976322070775
0.01409929147
0.00096926745936
0.0135925547739
0.000961408950132
0.0130903687921
0.000952843607704
0.0125930319832
0.000943629007392
0.0121008815171
0.000933850435674
0.0116141479872
0.000923557613457
0.0111330993101
0.000912827562599
0.0106579048969
0.000901705603346
0.0101887682732
0.000890263683404
0.00972580107773
0.000878545656188
0.00926914443405
0.000866620939162
0.00881885309632
0.000854534083857
0.00837500572629
0.000842353682852
0.00793759950046
0.000830126250958
0.00750664950245
0.000817920363626
0.0070820940062
0.000805784870431
0.00666388323472
0.000793788286842
0.00625189549041
0.000781981363722
0.00584601552471
0.000770431789176
0.00544606157785
0.000759191123213
0.00505185359617
0.000748324871972
0.00466315121389
0.000737883777062
0.00427971203393
0.000727929293786
0.00390124052767
0.000718509137203
0.00352743659778
0.000709678046868
0.00315795532953
0.000701477202619
0.00279244573425
0.000693949598239
0.00243051971815
0.000687121804854
0.00207177561152
0.00068101146465
0.001715756169
0.000675607198437
0.00136188949238
0.000670864929576
0.00100922590674
0.000666682588359
0.000655406466271
0.000662813698024
0.000294366829954
0.00065622143308
0.000602100345095
0.00151510569819
-0.00435014940943
0.0031982982206
-0.00481894438743
0.00487484510873
-0.00480213575474
0.00652747398803
-0.00473565724753
0.00814801745297
-0.00464558671909
0.00972921015306
-0.00453454312907
0.0112642821186
-0.00440409690568
0.0127470580103
-0.00425594620026
0.0141719985253
-0.00409194325537
0.0155342708198
-0.00391403223023
0.0168297375469
-0.00372421655292
0.0180549930126
-0.00352449959769
0.0192073145955
-0.00331686313442
0.0202846766369
-0.00310321554728
0.021285674914
-0.00288538366867
0.0222095276548
-0.00266507046759
0.0230559825154
-0.00244386099337
0.0238253132968
-0.00222318953404
0.0245182180704
-0.00200435850249
0.0251358188684
-0.00178851347045
0.0256795578501
-0.00157667238113
0.0261512051064
-0.00136970553192
0.0265527573869
-0.00116837144201
0.0268864563891
-0.000973298356841
0.0271546917411
-0.000785023112724
0.0273600296323
-0.00060397124055
0.0275051198021
-0.000430496213454
0.027592732875
-0.000264856781636
0.0276256702201
-0.000107255636935
0.0276068082135
4.21860388575e-05
0.0275390105759
0.000183390668586
0.0274251777034
0.000316351982456
0.0272681620905
0.000441092267757
0.0270708222879
0.000557696817392
0.0268359387662
0.000666274192802
0.0265662725956
0.000766984865231
0.026264483588
0.000860003227411
0.0259331925681
0.000945548010614
0.0255749016635
0.00102384439421
0.0251920591851
0.00109515489732
0.024786982104
0.00115974185251
0.0243619229343
0.00121789860825
0.0239189946034
0.00126991248806
0.0234602387643
0.00131609600079
0.0229875531997
0.00135675033667
0.0225027611037
0.00139219639032
0.0220075412966
0.00142273893865
0.0215034980132
0.0014486972828
0.0209920940653
0.00147037025637
0.0204747207007
0.00148806644038
0.0199526338798
0.00150207024985
0.0194270236778
0.00151267166339
0.0188989536271
0.00152013361395
0.0183694291008
0.0015247212667
0.0178393396589
0.00152667096599
0.0173095257566
0.00152621901897
0.0167807238434
0.00152357235533
0.0162536307544
0.0015189367864
0.0157288513644
0.00151248949198
0.015206960022
0.00150440660322
0.0146884504861
0.00149483750663
0.0141737938881
0.00148393159113
0.0136633908297
0.00147181431636
0.0131576254636
0.00145861287079
0.0126568196529
0.00144443386986
0.0121612829509
0.00142938770576
0.0116712689111
0.00141356774928
0.0111870208756
0.00139707314475
0.0107087305594
0.00137998937428
0.0102365797236
0.00136240933454
0.0097707012965
0.00134441517685
0.00931121708375
0.00132609752366
0.00885820167019
0.00130753852172
0.00841171640551
0.00128882915257
0.00797177638559
0.0012700534976
0.00753838094906
0.00125130412331
0.00711148396161
0.0012326675788
0.00669102107035
0.00121423790735
0.00627688350524
0.00119610343214
0.00586894228389
0.00117835844851
0.00546702564612
0.00116109135167
0.00507094037128
0.00114439458909
0.00468045292282
0.00112835417728
0.004295307957
0.00111305795123
0.00391521312649
0.00109858646235
0.00353985471438
0.00108501949697
0.00316888573415
0.00107242823488
0.00280193780314
0.00106087987037
0.00243861032458
0.00105043093515
0.00207847336343
0.00104113040023
0.00172104564472
0.00103301654005
0.00136576494965
0.00102612814841
0.00101191291206
0.00102051779275
0.000658597000483
0.00101611140757
0.000306567710721
0.00100823254817
0.000908659773882
0.00153844798953
-0.00588845351077
0.00324467465983
-0.00652501742072
0.00494437993093
-0.00650168767209
0.00661948788726
-0.00641061191197
0.00826136431772
-0.00628731093132
0.00986241671911
-0.00613544372239
0.0114156553215
-0.00595718505704
0.0129147434967
-0.00575488453584
0.0143540444669
-0.00553109609135
0.0157286655693
-0.00528850599857
0.0170344645282
-0.00502987022361
0.0182680572957
-0.00475794806701
0.0194267895518
-0.00447545347822
0.0205087178623
-0.00418500310608
0.0215125569128
-0.00388908466426
0.022437644332
-0.00359002116484
0.0232838739014
-0.00328995684522
0.0240516536818
-0.00299083708222
0.0247418343793
-0.00269441024605
0.0253556689606
-0.0024022207347
0.025894743483
-0.00211562312975
0.0263609439629
-0.0018357840018
0.0267563940529
-0.00156370328882
0.0270834316529
-0.00130021959872
0.0273445545201
-0.00104603359741
0.0275424060819
-0.000801712397053
0.0276797276268
-0.000567711490784
0.0277593511938
-0.000344376141441
0.027784156386
-0.000131960903337
0.0277570684397
6.93717949619e-05
0.0276810186281
0.000259533911752
0.02755894525
0.000438516628522
0.027393757975
0.000606366348561
0.0271883428214
0.000763196597681
0.0269455285751
0.000909168576104
0.0266680956334
0.00104449576226
0.0263587445266
0.0011694277901
0.0260201079108
0.00128425592602
0.0256547216113
0.00138929752875
0.0252650390584
0.0014849021616
0.024853404574
0.00157143663335
0.0244220698418
0.00164929157001
0.0239731692999
0.00171886693365
0.0235087383443
0.00178057885469
0.0230306907976
0.00183484555611
0.0225408386487
0.00188209428778
0.0220408716083
0.0019227476355
0.0215323782
0.00195723050695
0.0210168273993
0.0019859569214
0.0204955908768
0.00200933708547
0.0199699266426
0.00202776482316
0.0194410021378
0.00204162486417
0.0189098796965
0.00205128113939
0.0183775400935
0.0020570844209
0.0178448695153
0.00205936167665
0.0173126830609
0.00205842418067
0.0167817128262
0.00205455807257
0.016252630823
0.00204803296253
0.0157260377493
0.0020390937231
0.0152024847951
0.00202796951654
0.014682462707
0.00201486674535
0.014166422044
0.00199997832104
0.0136547622436
0.00198347759109
0.0131478500107
0.0019655276021
0.0126460082232
0.00194627577285
0.0121495323072
0.00192586286804
0.011658678969
0.00190441816281
0.0111736805556
0.00188206786223
0.0106947337278
0.00185893053825
0.0102220119452
0.00183512477598
0.00975565430091
0.00181076471448
0.00929577635008
0.00178596677758
0.00884245937668
0.00176084522833
0.00839575984072
0.00173551791837
0.00795569936399
0.00171010183219
0.00752227306648
0.00168471786301
0.00709544052888
0.00165948638523
0.0066751332662
0.00163453111646
0.00626124688252
0.00160997479316
0.00585364787224
0.00158594221215
0.00545216710885
0.00156255610336
0.00505660610246
0.00153993945353
0.00466673188974
0.0015182116674
0.00428228278071
0.00149749026577
0.0039029645807
0.00147788740904
0.00352845567531
0.00145951104929
0.00315840421302
0.00144246191504
0.00279243182011
0.00142683433629
0.00243013030287
0.00141271415498
0.00207106166212
0.00140018066286
0.00171475167131
0.00138930870832
0.0013606850252
0.0013801772968
0.00100831373854
0.00137287090069
0.000657234474686
0.00136717312216
0.000309117048234
0.00135633245463
0.00121776782453
0.00156841603312
-0.00745672445811
0.00330651483805
-0.00826296203825
0.00503749965401
-0.00823251770803
0.00674266247046
-0.00811562047835
0.0084129265279
-0.00795742143748
0.0100403276928
-0.00776269209385
0.0116175894468
-0.00753429504922
0.0131381640929
-0.00727530839363
0.0145962799107
-0.00698906244387
0.0159869735438
-0.00667905139338
0.017306096637
-0.00634884669294
0.0185503092724
-0.0060020155512
0.0197170513682
-0.00564205230865
0.0208045072611
-0.00527231744884
0.0218115532868
-0.00489599129123
0.0227377050239
-0.0045160354437
0.0235830523306
-0.00413516908848
0.024348199991
-0.00375585184004
0.0250342003605
-0.00338028034292
0.0256424966169
-0.00301038907652
0.0261748610677
-0.0026478625026
0.0266333474438
-0.00229414784514
0.0270202394615
-0.00195047580351
0.0273380145508
-0.00161787788682
0.0275893030112
-0.00129720844526
0.0277768616821
-0.000989160299467
0.0279035410552
-0.00069428342488
0.0279722656404
-0.00041299623827
0.0279860059766
-0.000145600185376
0.0279477632111
0.000107712570507
0.0278605445396
0.000346847071824
0.0277273497702
0.000571802781359
0.0275511517778
0.00078265214709
0.0273348858732
0.000979547163054
0.0270814317487
0.00116270375766
0.0267936075583
0.00133239786384
0.0264741540677
0.00148895559773
0.0261257316122
0.00163274956635
0.0257509068208
0.00176418993676
0.0253521519316
0.00188372158141
0.0249318336803
0.00199181590509
0.0244922146144
0.00208896862711
0.0240354439442
0.00217569215592
0.0235635606543
0.00225251375246
0.0230784862203
0.00231996825728
0.0225820294347
0.00237859648799
0.0220758809951
0.00242893825659
0.0215616199816
0.00247153096441
0.0210407102751
0.00250690296847
0.0205145085864
0.00253557249519
0.0199842626109
0.00255804155132
0.0194511203888
0.00257479535593
0.0189161299375
0.00258629704469
0.0183802495921
0.00259298787358
0.0178443487435
0.00259528297159
0.0173092186737
0.00259357250097
0.0167755738952
0.00258821860829
0.0162440629352
0.00257955763169
0.0157152697658
0.00256789827532
0.0151897239932
0.00255352478192
0.0146679018874
0.00253669619244
0.0141502355315
0.00251765028035
0.0136371131032
0.0024966036419
0.0131288866766
0.00247375607074
0.0126258715442
0.00244929113952
0.0121283525478
0.00242338066641
0.0116365824262
0.00239618544405
0.0111507867126
0.00236785945196
0.0106711612254
0.00233855042293
0.0101978757182
0.00230840353535
0.00973107076444
0.00227756159713
0.0092708604285
0.00224616803508
0.00881732883861
0.00221436657124
0.00837053219347
0.00218230344097
0.0079304953465
0.00215012654033
0.00749721344669
0.00211798688505
0.00707064881237
0.00208603728261
0.0066507324696
0.00205443312079
0.00623736155093
0.00202333067499
0.00583040092168
0.00199288734686
0.00542968125317
0.00196325974167
0.00503500085529
0.00193460349903
0.00464612449393
0.00190707128403
0.00426278544516
0.00188081234701
0.00388468500001
0.00185597057263
0.00351149462311
0.00183268393319
0.00314285592374
0.00181108280695
0.00277838253042
0.00179128964751
0.00241766019671
0.00177341822315
0.00206024811525
0.00175757450185
0.0017056798142
0.00174385854956
0.00135347046526
0.00173236901146
0.00100314007838
0.00172318459779
0.000654366811176
0.00171592791123
0.000308759298367
0.00170192142492
0.00152651882197
0.00160630992754
-0.00906288806914
0.00338560921846
-0.0100421052158
0.00515684179945
-0.0100035942519
0.00690052702164
-0.00985914998739
0.00860706500912
-0.00966380449166
0.0102680470529
-0.00942351997973
0.0118758423704
-0.00914193719078
0.0134236430905
-0.00882295699283
0.0149055114662
-0.00847077994886
0.0163164049497
-0.00808979533139
0.0176521766677
-0.00768447039044
0.0189095570658
-0.00725924951891
0.0200861168361
-0.00681846744513
0.0211802179701
-0.00636627578859
0.0221909525732
-0.00590658515231
0.0231180764925
-0.00544302070227
0.02396193665
-0.00497889288609
0.0247233992533
-0.00451718038834
0.0254037770012
-0.0040605265645
0.0260047623638
-0.00361124542873
0.0265283639016
-0.00317133777326
0.026976852012
-0.00274251239084
0.0273527093651
-0.00232621252199
0.0276585913109
-0.0019236420688
0.0278972898202
-0.00153579228847
0.0280717055178
-0.00116346434086
0.0281848205553
-0.000807290038711
0.0282396771999
-0.000467747585868
0.0282393551192
-0.000145176152912
0.0281869531582
0.000160213266325
0.0280855694354
0.000448326102904
0.0279382844894
0.000719179747059
0.027748145832
0.000972879332689
0.0275181538839
0.0012096243179
0.0272512480039
0.00142969133504
0.0269502970167
0.00163342722014
0.0266180878426
0.00182123963563
0.0262573188544
0.00199359011257
0.0258705910359
0.00215098584284
0.0254604036091
0.00229397383131
0.0250291472554
0.00242313366493
0.0245791016366
0.00253907245417
0.0241124304375
0.00264241822605
0.023631180631
0.00273381531409
0.0231372792981
0.0028139181022
0.0226325346318
0.00288338665253
0.0221186345709
0.00294288068782
0.021597149568
0.00299305543734
0.0210695330622
0.00303455594153
0.0205371259799
0.00306801327305
0.0200011589621
0.00309403940328
0.0194627584197
0.00311322409697
0.0189229502654
0.00312613068352
0.0183826671695
0.00313329396578
0.0178427533618
0.00313521722065
0.0173039725656
0.0031323714016
0.0167670133028
0.00312519358271
0.016232496899
0.00311408756878
0.0157009826794
0.0030994238052
0.0151729754391
0.00308154131365
0.0146489299785
0.00306074889121
0.0141292575412
0.00303732809948
0.0136143292765
0.00301153540781
0.013104481318
0.00298360583384
0.0126000169541
0.00295375559612
0.0121012102268
0.00292218594771
0.0116083067946
0.0028890858855
0.0111215261228
0.00285463574621
0.0106410612003
0.00281900958305
0.0101670795534
0.00278237818053
0.00969972210369
0.00274491081681
0.00923910332924
0.00270677748205
0.00878530961571
0.00266814988027
0.00833839892664
0.00262920276875
0.00789839900307
0.00259011417728
0.00746530688254
0.00255106590363
0.00703908726082
0.00251224303024
0.00661967214552
0.00247383369259
0.00620695962439
0.00243602803807
0.00580081385869
0.00239901743469
0.00540106441642
0.00236299304856
0.00500750672371
0.00232814468035
0.00461990202849
0.00229465914687
0.00423797833598
0.00226271893669
0.00386143096937
0.00223250058739
0.00348992392793
0.00220417336953
0.00312309095186
0.00217789790659
0.00276053725861
0.00215382521926
0.00240184112855
0.00213209596455
0.0020465565224
0.00211284057038
0.00169421743684
0.00209617984464
0.00134434497195
0.00208222391539
0.000996467363528
0.00207104375856
0.000650244570639
0.00206213315301
0.000307157056558
0.00204499139978
0.00183366676772
0.00165295881284
-0.0107156989269
0.00348324070335
-0.0118722299466
0.0053042220967
-0.0118244177944
0.00709542080264
-0.0116501914539
0.00884658272761
-0.0114148098109
0.0105487556606
-0.0111255371616
0.0121938798208
-0.0107869065543
0.0137748377856
-0.010403761251
0.0152855005198
-0.00998129021122
0.0167207446723
-0.0095248883742
0.0180764427906
-0.00904001891181
0.0193494314261
-0.00853209019043
0.0205374606512
-0.00800635048411
0.0216391299697
-0.00746780081805
0.0226538134681
-0.00692112639576
0.0235815786633
-0.00637064579154
0.0244231013713
-0.00582027776247
0.0251795808313
-0.00527352440664
0.0258526571154
-0.00473346990833
0.0264443346795
-0.00420279266416
0.0269569132702
-0.00368378874151
0.0273929287734
-0.00317840308662
0.0277551034373
-0.00268826527046
0.0280463060189
-0.00221472572726
0.0282695193223
-0.00175888971873
0.0284278142398
-0.00132164653169
0.0285243271296
-0.000903693386215
0.0285622398932
-0.000505554076097
0.0285447605329
-0.000127593808727
0.0284751046967
0.000229968715607
0.0283564776474
0.00056704939195
0.0281920584084
0.00088369177787
0.0279849817315
0.00118004537011
0.0277383266325
0.00145636529087
0.0274551026804
0.00171299771028
0.0271382397278
0.00195036910561
0.0267905785625
0.00216897629384
0.0264148634059
0.0023693772922
0.0260137350278
0.00255218283673
0.0255897253839
0.00271804866902
0.0251452526185
0.00286766827586
0.0246826174287
0.00300176613538
0.0242039997245
0.00312109115039
0.0237114566325
0.00322641036293
0.0232069208303
0.00331850268819
0.0226922002803
0.00339815282902
0.0221689783671
0.00346614516609
0.0216388154878
0.00352325784795
0.0211031510914
0.00357025693557
0.0205633071741
0.00360789088813
0.020020492194
0.00363688528421
0.0194758063372
0.00365793810163
0.0189302470551
0.00367171546495
0.0183847157314
0.00367884818884
0.0178400243624
0.00367992899438
0.0172969030387
0.00367551069223
0.0167560071067
0.00366610514885
0.0162179247616
0.00365218327529
0.0156831839787
0.00363417578077
0.0151522595199
0.00361247486304
0.0146255789856
0.00358743651542
0.0141035286668
0.00355938357642
0.0135864582491
0.00352860914944
0.0130746851503
0.00349538049634
0.0125684976336
0.00345994300827
0.0120681575159
0.00342252436779
0.0115739016959
0.00338333850034
0.0110859433452
0.00334258946293
0.0106044720582
0.00330047488514
0.0101296538173
0.00325718916513
0.00966163011901
0.00321292605813
0.00920051710622
0.00316788092065
0.00874640408339
0.00312225227565
0.00829935223815
0.00307624301989
0.00785939295825
0.00303006095587
0.0074265265271
0.00298391901899
0.00700072059335
0.00293803489005
0.00658190915188
0.00289263039978
0.00616999143504
0.00284793041517
0.00576483139436
0.00280416163253
0.00536625718136
0.00276155096641
0.0049740612481
0.00272032396439
0.00458800048999
0.00268070293624
0.00420779699271
0.00264290522068
0.00383313882389
0.00260714128855
0.00346368140574
0.00257361309656
0.00309904894767
0.00254251240786
0.00273883644361
0.0025140194786
0.00238261209526
0.00248830194491
0.00202992041185
0.00246551394674
0.00168028625605
0.00244579537598
0.00133322251556
0.00242926992807
0.000988243210556
0.00241600651346
0.000644967707406
0.00240539003047
0.000304781043031
0.00238515936335
0.00213843956906
0.00170917709953
-0.0124247264723
0.00360095569152
-0.0137638489748
0.00548188276838
-0.0137051853665
0.00733021767197
-0.0134983671944
0.00913489269479
-0.0132193264442
0.0108862952521
-0.0128767821417
0.012575854656
-0.0124763093568
0.0141960954703
-0.0120238465625
0.0157406790763
-0.0115257195569
0.0172044099146
-0.0109884663308
0.018583210817
-0.0104186684531
0.0198740737453
-0.00982280341097
0.0210749913542
-0.00920712018062
0.0221848745171
-0.0085775379849
0.0232034597275
-0.0079395676699
0.0241312104547
-0.00729825475165
0.0249692156728
-0.00665814352777
0.0257190895718
-0.00602326125938
0.0263828756362
-0.00539712147789
0.0269629590589
-0.0047827442195
0.0274619898858
-0.00418269047183
0.027882819398
-0.00359910632783
0.0282284496309
-0.0030337721982
0.0285019956585
-0.00248815145141
0.0287066575399
-0.00196343443412
0.028845699478
-0.00146057445414
0.0289224321985
-0.000980315370699
0.0289401968454
-0.000523211260024
0.0289023481151
-8.96410101038e-05
0.0288122371536
0.000320180373873
0.0286731915121
0.000706192244576
0.0284885043839
0.0010684726664
0.0282614131313
0.00140722683254
0.027995087522
0.00172277762557
0.0276926175183
0.00201555087051
0.0273570034631
0.0022860628294
0.0269911474562
0.00253490840968
0.0265978465731
0.00276275082082
0.026179786661
0.00297031187232
0.0257395375044
0.00315836353382
0.0252795482566
0.0033277197703
0.0248021440782
0.00347922921712
0.0243095230042
0.00361376775056
0.0238037540541
0.00373223158658
0.0232867756752
0.00383553006552
0.0227603955366
0.00392457882287
0.0222262907969
0.0040002926062
0.0216860098296
0.00406357849545
0.0211409745349
0.0041153288883
0.0205924841455
0.00415641505193
0.0200417196296
0.00418768069776
0.0194897494932
0.00420993639762
0.0189375360405
0.00422395435421
0.0183859427767
0.00423046430571
0.0178357419797
0.00423015008399
0.0172876230249
0.00422364751629
0.0167422004962
0.00421154315371
0.0162000225979
0.00419437439215
0.0156615789569
0.00417263042017
0.0151273082967
0.00414675443199
0.0145976051732
0.00411714650205
0.0140728262465
0.00408416744677
0.0135532954063
0.00404814306347
0.0130393082366
0.00400936898888
0.012531135274
0.00396811559782
0.0120290245536
0.00392463313031
0.0115332030344
0.00387915653663
0.0110438773892
0.0038319102014
0.0105612338737
0.00378311213439
0.0100854377284
0.00373297777638
0.00961663192776
0.00368172312606
0.00915493567222
0.00362956732657
0.00870044251796
0.00357673453805
0.00825321845695
0.00352345522103
0.0078132999016
0.00346996676452
0.00738069179674
0.00341651355841
0.00695536585509
0.00336334653589
0.00653725904702
0.00331072224575
0.00612627237456
0.00325890155439
0.0057222699721
0.00320814799043
0.00532507859161
0.00315872588851
0.00493448743746
0.00311089829647
0.0045502484286
0.00306492484389
0.00417207679936
0.00302105949235
0.00379965212735
0.00297954839258
0.00343261968687
0.00294062773121
0.00307059223615
0.00290452181474
0.00271315221029
0.00287144124148
0.00235985434272
0.00284158129639
0.00201022896625
0.00281512065589
0.00166378660035
0.00279221996535
0.00132002193913
0.00277301698167
0.000978424565084
0.00275758519326
0.000638579006785
0.00274521810391
0.00030179849051
0.00272192243662
0.00244022888994
0.00177591678467
-0.0142004916676
0.00374066941621
-0.0157284406017
0.00569263059572
-0.0156569848418
0.00760850945038
-0.0154140849636
0.00947624185742
-0.0150868984142
0.0112854221734
-0.0146858028942
0.013026882133
-0.0142176107238
0.0146927436048
-0.0136895505555
0.016276450544
-0.0131092702722
0.0177727582411
-0.0124846191943
0.0191776876124
-0.0118234445286
0.0204884531202
-0.0111334172928
0.0217033713784
-0.0104218886247
0.0228217561743
-0.00969577491098
0.0238438042145
-0.00896146991681
0.0247704754511
-0.00822478240445
0.0256033715926
-0.00749089841285
0.0263446168399
-0.00676436771232
0.0269967452164
-0.0060491136227
0.0275625989884
-0.00534846445556
0.0280452422329
-0.00466520295725
0.0284478921848
-0.00400162842901
0.0287738691424
-0.00335962427429
0.029026563045
-0.00274072356874
0.0292094130061
-0.00214616574545
0.0293258944757
-0.00157694053316
0.0293795092616
-0.00103381804202
0.0293737744309
-0.000517367706055
0.0293122086251
-2.79698685695e-05
0.0291983154455
0.000434175388735
0.0290355631677
0.0008690428762
0.0288273737533
0.00127675684656
0.0285771006721
0.00165759113819
0.0282880165498
0.0020119493464
0.0279633019372
0.00234034952282
0.0276060360182
0.00264340915944
0.0272191893782
0.00292183191447
0.026805617855
0.00317639560543
0.0263680575661
0.00340794191505
0.0259091203669
0.00361736693604
0.0254312901121
0.00380561278453
0.0249369192153
0.0039736593987
0.0244282260386
0.00412251685383
0.0239072927132
0.00425321746171
0.0233760639635
0.00436680811208
0.0228363465697
0.00446434225236
0.0222898100342
0.004546872045
0.0217379880933
0.00461544021015
0.0211822815884
0.00467107216958
0.0206239623115
0.00471476811905
0.0200641782393
0.00474749570796
0.0195039596983
0.00477018304481
0.0189442267445
0.00478371271678
0.0183857972216
0.00478891656714
0.0178293956587
0.00478657184941
0.0172756624193
0.00477739845682
0.0167251631868
0.00476205771886
0.0161783982011
0.00474115238231
0.0156358113095
0.00471522811858
0.0150977983032
0.00468477609423
0.0145647146263
0.00465023681091
0.0140368820298
0.00461200470301
0.0135145943072
0.00457043359519
0.0129981218072
0.0045258425046
0.0124877149155
0.00447852182677
0.0119836063292
0.00442873943657
0.0114860123599
0.00437674671535
0.0109951332016
0.00432278412455
0.0105111524161
0.00426708633714
0.010034235666
0.00420988666647
0.00956452892644
0.00415142081537
0.0091021562727
0.00409192981563
0.00864721742017
0.00403166218944
0.00819978515838
0.00397087532693
0.00775990277836
0.00390983610426
0.00732758166122
0.0038488208401
0.00690279904086
0.00378811459009
0.00648549612837
0.0037280099578
0.00607557652536
0.00366880538249
0.00567290512716
0.00361080314103
0.00527730736809
0.00355430698006
0.00488856901989
0.00349961965611
0.00450643633235
0.00344704025561
0.00413061674267
0.00339686159518
0.00376077988886
0.00334936753563
0.00339655920104
0.00330483051851
0.00303755376628
0.0032635091139
0.00268333074022
0.00322564586771
0.00233342826412
0.00319146529538
0.00198735867955
0.00316117187655
0.0016446118623
0.00313494800095
0.00130466068978
0.00311295034693
0.000966968711491
0.00309526076968
0.000631083701352
0.00308108439728
0.000298261119637
0.00305472624461
0.00273848185791
0.00185433698263
-0.0160546751572
0.00390475302003
-0.0177786929171
0.00593994639161
-0.0176920145035
0.00793473985441
-0.0174087150822
0.00987586090669