/*--------------------------------*- C++ -*----------------------------------*\
| =========                 |                                                 |
| \\      /  F ield         | OpenFOAM: The Open Source CFD Toolbox           |
|  \\    /   O peration     | Version:  v1906                                 |
|   \\  /    A nd           | Web:      www.OpenFOAM.com                      |
|    \\/     M anipulation  |                                                 |
\*---------------------------------------------------------------------------*/
FoamFile
{
    version     2.0;
    format      ascii;
    class       surfaceScalarField;
    location    "59";
    object      phi;
}
// * * * * * * * * * * * * * * * * * * * * * * * * * * * * * * * * * * * * * //

dimensions      [0 3 -1 0 0 0 0];
oriented        oriented;


internalField   nonuniform List<scalar> 
18240
(
-0.00039925936378
0.000396941765434
-0.000837100757233
0.000435003349911
-0.00127493826518
0.000435483267194
-0.00170880781944
0.000430916277901
-0.00213543022939
0.000424378330914
-0.00255415083406
0.000415654591878
-0.00296235846215
0.000406078869423
-0.00336071620776
0.000395172995293
-0.00374635091284
0.000383626427137
-0.00412046973662
0.000370811834579
-0.00448021481182
0.000357867506371
-0.00482710510685
0.000343458008493
-0.00515698668684
0.000328142197511
-0.00547155866149
0.000311017196936
-0.00576852673658
0.000295383579141
-0.00605183521761
0.000279631400363
-0.00631775163255
0.000264502874487
-0.00656921055522
0.000247669148844
-0.00680145319347
0.000231018462031
-0.00701894215841
0.000213602216851
-0.00721693415216
0.000196971545453
-0.00740057280242
0.000179676329772
-0.00756521669618
0.000163853934632
-0.00771613523961
0.000146905836719
-0.00784763387703
0.000130960162644
-0.00796578123427
0.000114113834939
-0.0080630762546
9.70270210974e-05
-0.00814554388545
7.84502754261e-05
-0.00820794376057
6.24201303251e-05
-0.00825754413184
4.56472919758e-05
-0.00829028982396
3.30731068929e-05
-0.0083088158737
1.46851843733e-05
-0.00829997088284
-8.20399642741e-06
-0.00827420107819
-2.94393183764e-05
-0.00822769981484
-4.55435177593e-05
-0.0081681635178
-6.29867699283e-05
-0.0080870612041
-7.98411773356e-05
-0.00799139473268
-9.88470040863e-05
-0.00787304416462
-0.000116800483403
-0.00774050176374
-0.000135410464426
-0.00758841171062
-0.000150276042705
-0.00742357457748
-0.000167357684647
-0.0072379580676
-0.000183569785898
-0.00704078848087
-0.000199316268969
-0.00682587086273
-0.000212681923896
-0.00660248297359
-0.000225148061171
-0.00636549908242
-0.000234588406726
-0.00612245541993
-0.000244416097722
-0.0058694226485
-0.000250517005622
-0.00561410019032
-0.000256312307981
-0.00535201855053
-0.000259490546067
-0.00509132553898
-0.000261311756519
-0.00482866003409
-0.000260049187593
-0.00457060567444
-0.000258321516162
-0.00431426164207
-0.000253750615443
-0.00406563189166
-0.000248581362785
-0.0038213881867
-0.000241723460157
-0.00358688516431
-0.000234184925748
-0.00336060415695
-0.000223872544023
-0.00314691391352
-0.000213156792849
-0.00294285821968
-0.000201791305224
-0.00275153266381
-0.000190626818648
-0.00257069389521
-0.000178736758771
-0.00240294142379
-0.000166939115622
-0.00224511304801
-0.000155907768018
-0.00209778751854
-0.00014644274022
-0.00196015039547
-0.000135905533691
-0.00183379465947
-0.000125451056463
-0.0017174742468
-0.000114784217595
-0.00161132274098
-0.000105259279609
-0.00151277239706
-9.71996912634e-05
-0.00142165819942
-9.0256502476e-05
-0.00133692949952
-8.354470054e-05
-0.00125795957354
-7.81617869535e-05
-0.00118293842856
-7.39833227323e-05
-0.0011120036255
-7.01867566299e-05
-0.00104445042692
-6.66407715267e-05
-0.00098054741857
-6.32164834021e-05
-0.000919863410754
-5.98748258787e-05
-0.000861691343395
-5.75432751772e-05
-0.000805639892282
-5.53202953734e-05
-0.000751836852225
-5.32241734007e-05
-0.000699492124127
-5.16685004782e-05
-0.00064930293068
-4.96489186623e-05
-0.000600967342728
-4.76979348555e-05
-0.000554451565907
-4.59995709083e-05
-0.000513338725067
-4.05041572727e-05
-0.000485627265351
-2.71805275052e-05
-0.000461288087422
-2.36633499498e-05
-0.000427484626724
-3.30519886385e-05
-0.000381780399849
-4.47601535982e-05
-0.000326966303529
-5.37146919393e-05
-0.000262568003281
-6.31668016039e-05
-0.000179732874318
-8.15833368117e-05
-8.30380740399e-05
-9.54410919812e-05
-8.24178999447e-05
-0.00044129489276
0.000835678830124
-0.00093488231063
0.000925758254982
-0.00142619051869
0.000924083179732
-0.00191184812428
0.000913703487212
-0.00238959551145
0.000899446752473
-0.0028585445271
0.000881703967969
-0.00331636802211
0.000861251440699
-0.003762112238
0.000837985302127
-0.00419369465746
0.000812589378983
-0.00461076938272
0.000784924922742
-0.00501156105021
0.000756075317265
-0.00539653307975
0.000725440853828
-0.00576453417205
0.000693603284758
-0.00611763032405
0.000661100235582
-0.00645245896638
0.000627721338849
-0.00676820426167
0.000592347361139
-0.00706271140998
0.000556583449007
-0.00733959194474
0.000521521118792
-0.00759942612141
0.000488506512635
-0.0078429969667
0.000454157892042
-0.00806836609464
0.000420096291873
-0.00827616799175
0.000384496958086
-0.00846304608227
0.000348611590302
-0.00863132535273
0.000312264479775
-0.00877945592012
0.000277120413666
-0.00890945110748
0.000241278931788
-0.00902133949067
0.000207115997912
-0.00911841615616
0.000172818248979
-0.00919504617865
0.00013745694626
-0.00925424294839
0.000102298081986
-0.00929011326666
6.75847853652e-05
-0.00930712217315
2.93513678845e-05
-0.00930501728648
-1.14041021717e-05
-0.00928240949035
-5.41496673694e-05
-0.00923591984331
-9.28446072487e-05
-0.0091695138005
-0.000131222652213
-0.00907992165946
-0.000169939747786
-0.00897126088756
-0.000209037450784
-0.00884269994335
-0.000245554968823
-0.00869662513476
-0.000282697013849
-0.008527389942
-0.000319395635177
-0.00833885196364
-0.000356781824946
-0.00813091615425
-0.0003910887751
-0.00790852941986
-0.000422263961543
-0.00767120925901
-0.000449301396436
-0.00742197948335
-0.000474610163553
-0.00715712320624
-0.000498488725293
-0.00688208594442
-0.000519357057776
-0.00659798462291
-0.000533434952424
-0.00630904955648
-0.000544844543417
-0.00601417477824
-0.000552984777133
-0.00571869751705
-0.000556112293322
-0.00542288332052
-0.000554316843639
-0.00513023344039
-0.000550062235941
-0.00484144795024
-0.000540868070788
-0.00456037300595
-0.00052856224766
-0.00428747109153
-0.000512885938113
-0.00402562559314
-0.000494800482256
-0.00377285959615
-0.000474873700256
-0.00353113371741
-0.000453563370171
-0.00330088674036
-0.00043028999064
-0.0030838838474
-0.000406263212925
-0.00287920615604
-0.000381719181675
-0.00268654292009
-0.000358232699251
-0.00250692492418
-0.000333922970669
-0.00234159061177
-0.000310441373495
-0.00218872305497
-0.000287279337468
-0.0020482374917
-0.000264667277898
-0.00191825542097
-0.000243395246242
-0.00179905085734
-0.000223282090767
-0.00168935819212
-0.00020565021583
-0.00158753608136
-0.00019099475154
-0.00149317070056
-0.000176791802007
-0.00140500112181
-0.000165349413524
-0.00132100251057
-0.000156983392493
-0.00124123226356
-0.000149072014582
-0.00116530107033
-0.00014167954812
-0.00109249877232
-0.000135222784034
-0.00102366510641
-0.000127905870317
-0.000958572643437
-0.000121919580965
-0.000894041567552
-0.000119125356314
-0.000831569621395
-0.000115039352006
-0.000770893410402
-0.000111677072776
-0.000712549679876
-0.000107375526043
-0.000656916960073
-0.000102706163048
-0.000602714843351
-9.96106575374e-05
-0.00055178567831
-9.08315054946e-05
-0.000506317337557
-7.20557977872e-05
-0.000472859041448
-5.64822022644e-05
-0.000440970621393
-6.42072620964e-05
-0.000397265966666
-8.75345631708e-05
-0.000343036131354
-0.000106845528304
-0.000281450080794
-0.000123585284401
-0.000204581669013
-0.000157180165683
-9.99059982065e-05
-0.00019883564079
-0.000181748486051
-0.000448441246615
0.00128152976141
-0.000947697372833
0.00142221811119
-0.00144587019138
0.00141948239498
-0.00193816837876
0.00140318718416
-0.00242228657958
0.00138079721551
-0.00289663464783
0.00135323120095
-0.00335972364814
0.00132157858803
-0.00381029904008
0.00128573091265
-0.00424676502112
0.00124629974368
-0.00466855991299
0.00120388330516
-0.00507404839286
0.00115881816032
-0.00546246928055
0.00111102181287
-0.00583330434807
0.00106170728595
-0.00618662647962
0.00101158500601
-0.00652267693754
0.000961063205925
-0.00684190688705
0.00090874969714
-0.00714353408502
0.000855535833143
-0.00742701193048
0.000802194419474
-0.00769007454611
0.000748944160067
-0.00793414983357
0.000695471109143
-0.00815875085743
0.000642142090386
-0.00836459568308
0.0005876448621
-0.00855143475909
0.000532987693987
-0.00872023344918
0.000478453498796
-0.00887101756146
0.000425557958798
-0.00900772771651
0.00037549188253
-0.0091277865982
0.000324971541
-0.00922818757821
0.000270866485575
-0.00930916196005
0.000216410226193
-0.00936895106577
0.000159922452113
-0.00940648073664
0.000103308899439
-0.00942443340582
4.5359642154e-05
-0.00942159632916
-1.57973911064e-05
-0.00940123676937
-7.62006775074e-05
-0.00935880336883
-0.000136555025987
-0.00929247595184
-0.000198954758734
-0.00920252637691
-0.000260868149662
-0.00909095776181
-0.000321701005957
-0.008958102151
-0.000379076171705
-0.00880488156639
-0.000436696121214
-0.0086314446399
-0.000493184185532
-0.00843921123526
-0.000549467446219
-0.00822832782865
-0.000602014979209
-0.00800471868688
-0.000645996644233
-0.00776469216986
-0.000689066883214
-0.00750948399154
-0.000729626802143
-0.0072448790873
-0.000762531153445
-0.0069720419388
-0.000791707771231
-0.00668801950698
-0.00081661593632
-0.00639724847153
-0.00083485555873
-0.00610328133619
-0.000845866524705
-0.00580506662551
-0.00085332493965
-0.00550295203452
-0.000855146079204
-0.00520183851468
-0.000849972202239
-0.00490528769916
-0.000835979575663
-0.0046162548677
-0.000816243572292
-0.00433541501824
-0.000792185087897
-0.00406435355617
-0.00076440842911
-0.00380426366508
-0.000733365481137
-0.00355703266991
-0.000699282794859
-0.00332266515774
-0.000663044382284
-0.00310219659488
-0.000625205184554
-0.00289569118552
-0.000586642298805
-0.00270397077546
-0.000548460031956
-0.00252695664436
-0.000509427791565
-0.00236426283084
-0.000471707869315
-0.00221480663374
-0.000435311253246
-0.00207690829246
-0.000401220668647
-0.00194951666286
-0.000369465204065
-0.00182969264456
-0.000341857573358
-0.00171759432324
-0.00031654305021
-0.00161442733684
-0.000293024463355
-0.00151677791821
-0.000273353895127
-0.00142517485978
-0.000255929934379
-0.00134127076022
-0.000239914945327
-0.00126264342829
-0.000226781395284
-0.00118781306555
-0.000215636376245
-0.00111581244022
-0.000206397220911
-0.00104293134867
-0.000200002809715
-0.000972569352627
-0.000191540809012
-0.0009077056062
-0.000183277419983
-0.000846295810406
-0.000175769152241
-0.000788341119327
-0.0001689657423
-0.000732428113023
-0.000162645260346
-0.0006774133553
-0.000157088154829
-0.000622452923644
-0.000153948187215
-0.000569918275508
-0.000142734008091
-0.000512902412019
-0.000128452466447
-0.000452487676177
-0.00011627306856
-0.000413300842393
-0.000102687233457
-0.000381132689087
-0.000118800114472
-0.000324682345457
-0.000162210978918
-0.000247149583558
-0.000199984723815
-0.000171130419041
-0.000232117791785
-8.9979244996e-05
-0.000278892462484
-0.000271159637453
-0.000454350866245
0.00173328554243
-0.000959582567185
0.00192466853529
-0.00146358631433
0.00192069907557
-0.0019613072309
0.00189811177507
-0.00245074071187
0.00186744534273
-0.00293024666319
0.00182993882561
-0.00339772459003
0.00178627053225
-0.00385212540233
0.0017373291555
-0.0042922170848
0.00168360518292
-0.00471638376139
0.00162524526574
-0.00512376407991
0.00156341468637
-0.00551408466832
0.00149853906072
-0.00588757469745
0.00143242072793
-0.00624436739789
0.00136557938542
-0.00658253972173
0.00129647128973
-0.00690167595493
0.00122510278075
-0.0072021767572
0.00115329828772
-0.00748397300257
0.00108123641035
-0.00774708557603
0.00100935946743
-0.00799140493945
0.000937083586317
-0.00821725662567
0.000865357898928
-0.00842597515816
0.000793723538715
-0.00861593901982
0.000720395793131
-0.00878866336616
0.000648625937605
-0.00894587760702
0.000580320890869
-0.00908524023011
0.000512417094631
-0.0092045126225
0.00044192735031
-0.00930420050013
0.000368269204599
-0.00938384622851
0.000293917523617
-0.00944491867714
0.00021889989605
-0.00948465529059
0.000141116687975
-0.00950186745987
6.07006800584e-05
-0.00949821377338
-2.11358050263e-05
-0.00947350185595
-0.000102523131899
-0.00942778509276
-0.000183681133681
-0.00936123464114
-0.000266829174649
-0.00927511361902
-0.000348099486588
-0.00916663676227
-0.000431197294655
-0.00903423912739
-0.000512273997184
-0.00888089452344
-0.000590740305125
-0.00870854975127
-0.000666006918878
-0.00852460750005
-0.000733781358257
-0.00832404922794
-0.000802719672567
-0.00810041128386
-0.000869679387751
-0.00785852438105
-0.000930771203765
-0.00760077862728
-0.000987091907463
-0.0073244322245
-0.00103838799296
-0.00703507544726
-0.00108047668928
-0.0067374478326
-0.00111346606978
-0.00643289547809
-0.0011385469246
-0.006123975557
-0.00115375880073
-0.00581483615967
-0.00116137263482
-0.00550938117096
-0.00115936930153
-0.00520563954113
-0.00115243403704
-0.00490337101809
-0.00113686088742
-0.00460892756184
-0.00110927226606
-0.00432327091625
-0.00107634701102
-0.00404771696054
-0.00103845515404
-0.00378364841631
-0.000995870224072
-0.00353330816297
-0.00094806808603
-0.0032965890764
-0.000898184868152
-0.00307458069448
-0.000845665104879
-0.0028673549097
-0.000792330086251
-0.00267444294177
-0.000739889931006
-0.00249877379726
-0.000683625100119
-0.00233999852686
-0.000629068577231
-0.00219505899828
-0.000578853647099
-0.00206085171528
-0.00053409626578
-0.00193768568124
-0.000491322651792
-0.00182338621367
-0.00045491798682
-0.00171467527366
-0.000424054481139
-0.00161143458581
-0.000395136778805
-0.00151667912908
-0.000367027016434
-0.00142920812177
-0.000342383669604
-0.00134622596128
-0.000321927329936
-0.00126767572037
-0.000304418603515
-0.00119369803316
-0.000288749113241
-0.00112463715753
-0.000274637137156
-0.00106071180034
-0.000263149106464
-0.00100002002544
-0.000251487459366
-0.000942074585212
-0.000240508000735
-0.000883103050858
-0.000234049469712
-0.000823885196849
-0.000227509279865
-0.000763963975419
-0.000221906235377
-0.000706163303838
-0.000214234524626
-0.000651403136023
-0.000208051022279
-0.000584355530627
-0.000209117361367
-0.000516388368512
-0.000195781424813
-0.000450904238222
-0.00018110044165
-0.000386443912182
-0.000166424026934
-0.000337044842147
-0.000167337090035
-0.000291824765087
-0.000206442987037
-0.000226405785802
-0.000264371396418
-0.00014561732734
-0.00031187728888
-7.97851841295e-05
-0.000343691726588
-0.000350421029011
-0.000461854066986
0.00219254928255
-0.000975045729081
0.00243508407804
-0.00148680743123
0.00242967644681
-0.00199194673989
0.0024004625235
-0.00248822565056
0.00236093911614
-0.00297379114152
0.00231271499921
-0.00344733861405
0.00225703072335
-0.00390684880792
0.00219404567703
-0.00435073519812
0.00212470114251
-0.00477833373259
0.00205004757696
-0.00518876642406
0.00197105709387
-0.00558209527562
0.00188907224262
-0.00595864543577
0.00180618283085
-0.00631634756511
0.00172048984313
-0.00665445618557
0.0016318023271
-0.00697392409106
0.00154179380761
-0.00727457912823
0.00145119701346
-0.0075564631051
0.00136037136948
-0.00782032150783
0.00127049882442
-0.00806696436246
0.00118102278608
-0.00829499837675
0.00109072856879
-0.00850323822471
0.000999323038217
-0.00869395604813
0.000908525627864
-0.00886944626234
0.000821559083185
-0.00902968037692
0.000738064394417
-0.00916999686008
0.000650290312898
-0.00929014667339
0.00055971981427
-0.00939155151436
0.000467382563369
-0.009471507489
0.000371687178196
-0.0095300822928
0.000275373512141
-0.00956762502237
0.000176679003586
-0.009586386716
7.7585369819e-05
-0.00958793726699
-2.13240218601e-05
-0.00956827769859
-0.000123803304601
-0.00952398290026
-0.000229441758202
-0.00945651942738
-0.000335629022946
-0.00936703087428
-0.000438759905443
-0.0092588337658
-0.000540425161381
-0.00913155343889
-0.000640410874463
-0.00898796573196
-0.000735032955923
-0.00882256791974
-0.000831926491549
-0.00863217050745
-0.00092454216894
-0.00841905040071
-0.00101601761066
-0.00818328128886
-0.00110546506626
-0.00792801151153
-0.00118587929892
-0.00765863945721
-0.0012561497613
-0.00737871036757
-0.00131782917266
-0.00708677083764
-0.00137178864613
-0.0067812832187
-0.00141817313828
-0.00646689059061
-0.00145203268507
-0.00614827214883
-0.00147134640445
-0.00582836208904
-0.00148015356958
-0.00551032274322
-0.00147617840057
-0.00519831253259
-0.00146314145391
-0.00489126738256
-0.00144252454951
-0.00459061765521
-0.00140849276494
-0.00429917219623
-0.00136630060885
-0.00401844032144
-0.00131766518638
-0.00374925242556
-0.00126350346849
-0.00349584746351
-0.00119992748987
-0.00325651486467
-0.00113597056033
-0.00303366740715
-0.00106701878774
-0.00282890522491
-0.000995605262559
-0.00264005929377
-0.000927292074351
-0.0024765465027
-0.000845701155443
-0.00233037540081
-0.000773835976055
-0.00219298650687
-0.000714869330696
-0.00206287245549
-0.000662876600008
-0.00194265182476
-0.000610245165607
-0.00182899534825
-0.000567328935805
-0.00171945274304
-0.000532403133269
-0.00161708603431
-0.000496365118265
-0.00152316272798
-0.00045986592473
-0.00143443177053
-0.000430091371023
-0.00134775046114
-0.000407639384503
-0.00126430681375
-0.000386952574304
-0.00118718495887
-0.000365005149373
-0.00111621948187
-0.000344794470978
-0.00104865077586
-0.000329946468662
-0.000983765859162
-0.000315644721492
-0.000922372459056
-0.000301202477564
-0.000866004211609
-0.000289744404735
-0.000814612195387
-0.000278237146586
-0.000767779257948
-0.000268076265956
-0.000720398630129
-0.000260953129457
-0.000670540426265
-0.000257230333508
-0.000617709554008
-0.000261265266005
-0.000549436318572
-0.000263367223567
-0.000473959002007
-0.00025585485961
-0.000383589963811
-0.000255991257799
-0.00030323633067
-0.000246878132635
-0.000248532730744
-0.000260262817434
-0.000205107254524
-0.000306831028045
-0.000129762341393
-0.000386246641409
-6.6992327739e-05
-0.000405532954975
-0.000416898089652
-0.00047137246791
0.00266133587641
-0.000994955211949
0.0029559020831
-0.00151676062508
0.00294870169497
-0.00203138578938
0.00291230731378
-0.00253643052088
0.00286320300248
-0.00303039164759
0.00280389358686
-0.00351087242498
0.00273472721686
-0.00397588268516
0.00265626924438
-0.00442527472432
0.00257130433429
-0.00485719271521
0.00247917475106
-0.00527111178985
0.00238218486841
-0.00566845563753
0.0022836235189
-0.0060470451536
0.00218198003917
-0.00640529548371
0.00207595069111
-0.00674446710692
0.00196818941672
-0.00706462770358
0.00185917717952
-0.00736593688906
0.001749740024
-0.00764990471809
0.00164158652046
-0.00791539065307
0.00153325137195
-0.00816082355736
0.00142374535623
-0.00838714983524
0.00131437218362
-0.00859524623262
0.0012047690324
-0.00878886684199
0.00109953138924
-0.00896838140246
0.00099850095233
-0.0091278958605
0.000895057389061
-0.00926825869172
0.000788192551342
-0.00938909371273
0.000678164193379
-0.0094885667793
0.000564542373909
-0.00956930253525
0.000450200562879
-0.00963038217358
0.000334324619487
-0.00967400406488
0.000218280882824
-0.00969789065538
9.95624917109e-05
-0.00969757163008
-2.34235597297e-05
-0.00967551060177
-0.000147518444791
-0.00963232829464
-0.000274136466369
-0.0095695399552
-0.000399789374308
-0.00948596178587
-0.000523555866872
-0.0093839466154
-0.000643503811246
-0.00926076112092
-0.000764488969506
-0.00911119296781
-0.000885326518926
-0.00893724358907
-0.00100641689127
-0.00873614326316
-0.00112601075784
-0.00851290248871
-0.00123944119461
-0.00827465112183
-0.00134372666893
-0.00801722391762
-0.00144313422803
-0.00773874711339
-0.00153428551422
-0.00744298186076
-0.00161308705916
-0.00713677426098
-0.00167733478035
-0.00682456517483
-0.00172957062732
-0.00650426390306
-0.00177139762543
-0.0061752625026
-0.00179928963722
-0.00584303232317
-0.00181123123077
-0.00551379174462
-0.00180417210475
-0.00519069377957
-0.00178492328885
-0.00487435817853
-0.00175747095881
-0.00456554781181
-0.00171585671082
-0.00426718762696
-0.00166317060305
-0.00398387299103
-0.00159946350532
-0.00371313542292
-0.00153272455769
-0.00346169257917
-0.00144987889634
-0.00322808906066
-0.00136811664023
-0.00300792583415
-0.00128573118526
-0.00282697530277
-0.00117513736133
-0.00266901127822
-0.00108381426716
-0.00251842422355
-0.000994862339488
-0.00237750061922
-0.000913348565819
-0.00224481478856
-0.000846182744903
-0.00212156881236
-0.000784764023187
-0.00200738423724
-0.000723116570466
-0.00189873970721
-0.000674698733537
-0.0017939602035
-0.000635959969369
-0.00169055038449
-0.000598597067305
-0.00158687071655
-0.000562430309776
-0.00148991601108
-0.000525990423908
-0.00140213203426
-0.000494431562088
-0.00131370621175
-0.000474435902601
-0.00122436234534
-0.000453469371829
-0.00114025950774
-0.000428068451491
-0.0010647630148
-0.000404667151936
-0.000992652219205
-0.000387018867295
-0.000927115370689
-0.000366037179653
-0.000865476067459
-0.000350707449103
-0.000804752787748
-0.000338289399259
-0.000748348175194
-0.000323827759927
-0.000696295696853
-0.000312347075724
-0.000644044300988
-0.000308820369107
-0.000594962364226
-0.000309676952619
-0.000548648259164
-0.000308969233175
-0.000488419829919
-0.00031529400007
-0.00040995649143
-0.00033361119299
-0.000308714599321
-0.000347248321769
-0.000226545171583
-0.000341598202398
-0.000181306636836
-0.000351215833828
-0.000130598246175
-0.000435987976459
-6.06771473931e-05
-0.000474511743997
-0.000477091173544
-0.000483373535666
0.00314213273187
-0.00101979578863
0.00348956300394
-0.00155405687891
0.00348019256054
-0.00208046729832
0.00343594423137
-0.00259665509723
0.00337661760049
-0.00310049319407
0.00330495550755
-0.00358923506772
0.00322069141021
-0.00406181036087
0.00312606357115
-0.00451733039175
0.00302404050655
-0.00495438359818
0.00291344099603
-0.00537387461883
0.00279888706335
-0.00577430179692
0.00268125803423
-0.00615341404541
0.00255830117675
-0.00651311351986
0.00243285873802
-0.00685347797733
0.00230576777999
-0.00717446075538
0.00217737790288
-0.0074776012185
0.00205010859676
-0.00776169953906
0.00192292388594
-0.00802557218167
0.00179438183619
-0.00827061988805
0.00166606954566
-0.00849715453727
0.0015382102308
-0.00870736523942
0.00141230961551
-0.00890611889214
0.00129564954633
-0.00908764805095
0.00117743199282
-0.00924684612823
0.00105171017882
-0.00938507353258
0.000923931379989
-0.00950366953733
0.000794340741919
-0.00960389383105
0.000662421544614
-0.00968684497211
0.000530893532403
-0.00975358514062
0.00039889867781
-0.00979957765812
0.000262212679832
-0.00982216409487
0.000120201064682
-0.00982320624718
-2.42073130543e-05
-0.00980384261689
-0.000168580254884
-0.00976676807994
-0.000312771062631
-0.00971043333362
-0.00045753965233
-0.00963298587283
-0.000602265035143
-0.00953185266211
-0.0007457332682
-0.00940322960564
-0.000894036397285
-0.00924435866219
-0.00104493675229
-0.00906128054575
-0.00119005361695
-0.00886019137971
-0.0013274676369
-0.00863577336062
-0.00146404156522
-0.00838416128107
-0.00159532639362
-0.00811249505708
-0.00171460640539
-0.00782816393996
-0.00181823949713
-0.0075267641455
-0.00191394103347
-0.00720720997834
-0.00199618193084
-0.00687535124408
-0.00206058342395
-0.00653611658723
-0.00210965273386
-0.0061969624882
-0.00213736154799
-0.00585572993844
-0.00215127721659
-0.00551405823821
-0.00214458485495
-0.00517804122979
-0.00211959916068
-0.00485219601991
-0.00208191299581
-0.00453686207276
-0.00202975076426
-0.0042345004097
-0.00196406264224
-0.00394426698044
-0.00188824655516
-0.0036689366305
-0.00180662768405
-0.00341625290435
-0.00170116721629
-0.00321169489703
-0.0015712886566
-0.0030434875823
-0.00145254046283
-0.00288066120485
-0.00133655700497
-0.00272661027253
-0.00123643627032
-0.00257447732605
-0.00114557301699
-0.00243776184272
-0.001048654683
-0.00231716446992
-0.000965392789928
-0.00219709780021
-0.000903461469182
-0.00208466080328
-0.000834219692287
-0.00197896253391
-0.000779101621484
-0.00187614081872
-0.000737531339729
-0.00178123564247
-0.000692286756694
-0.00168523995141
-0.000657271012991
-0.0015826739881
-0.00062746023838
-0.00148197496064
-0.000594102862183
-0.00138952972493
-0.000565904779757
-0.00130126013853
-0.000540821414795
-0.00121280965215
-0.000515656329986
-0.00112429461927
-0.000492380361923
-0.00104268679637
-0.000467859092069
-0.000966197852167
-0.00044180744037
-0.000895041330953
-0.000421162327801
-0.00082723350684
-0.000405419324886
-0.00075879549242
-0.000391597264359
-0.000690713544741
-0.000379769977839
-0.000628290666235
-0.000370577292144
-0.000568392382622
-0.000368883315146
-0.00051431874975
-0.000362316534755
-0.000453901148466
-0.000374930154546
-0.000393848234457
-0.000392833299495
-0.000319727781892
-0.00042051052625
-0.000224301008149
-0.000436165676859
-0.000151402276542
-0.000423259584922
-0.000126659950155
-0.000459842382477
-5.94862873144e-05
-0.000540754875889
-0.000536082945379
-0.000497837361526
0.0036373999283
-0.00104994194111
0.00403892296185
-0.00159930821971
0.00402679603004
-0.00213982954115
0.00397370307475
-0.00266938002318
0.0039034028516
-0.00318466176206
0.00381747019996
-0.00368367978605
0.00371693918086
-0.00416505314847
0.0036046637139
-0.00462788923704
0.00348409849333
-0.00507141441948
0.00335418489279
-0.00549529755626
0.00321998360569
-0.00589761367362
0.00308078549411
-0.00627895674866
0.00293685286681
-0.00664053142014
0.00279164304206
-0.00698234732825
0.00264479352576
-0.0073052629846
0.00249750904177
-0.00760836232051
0.00235042883935
-0.0078906824272
0.00220247750437
-0.00815401315399
0.00205495914266
-0.00839863113762
0.00190795338967
-0.0086250497039
0.00176191513857
-0.00884112010698
0.00162569172976
-0.00904004005356
0.001491909267
-0.00921678338959
0.00135155749957
-0.00937597726518
0.00120833137845
-0.0095155098494
0.0010609486555
-0.00963675775554
0.000913135216074
-0.00974320106791
0.000766485425337
-0.00983182101375
0.000617213871761
-0.00989783896708
0.000462711183372
-0.00994276961109
0.000305038254921
-0.00996804345859
0.000143481238496
-0.00997606618677
-1.80610487365e-05
-0.00996356826902
-0.000182828139661
-0.00992900616624
-0.00034894275449
-0.00987447361393
-0.000513535908786
-0.00979716856269
-0.000680868757178
-0.00969157244525
-0.000852462287622
-0.00955747241942
-0.00102907985963
-0.00940091240213
-0.00120225676213
-0.009218831771
-0.00137269296251
-0.00900663925957
-0.00154002642154
-0.00877028247493
-0.00170055481518
-0.00851398392433
-0.00185158699066
-0.00823596189962
-0.00199238681426
-0.00793279695811
-0.00212098494247
-0.0076118551676
-0.00223428315945
-0.00727583266646
-0.00233145225399
-0.00693318787943
-0.00240233007221
-0.00658293910253
-0.00245888661084
-0.00622609399306
-0.00249308257471
-0.0058704166262
-0.00250575222252
-0.00551588749272
-0.00249782505589
-0.00516637997777
-0.00246775320204
-0.00482560074136
-0.00242131090727
-0.00449755917013
-0.00235638098186
-0.00418155874121
-0.00227869688474
-0.00388729338195
-0.00218116519245
-0.0036227787857
-0.0020698225066
-0.00341459570642
-0.00190802892791
-0.00322206023065
-0.00176248730138
-0.0030428906347
-0.001630362565
-0.00287571953503
-0.00150234736147
-0.00272700465478
-0.00138376987171
-0.00259748800872
-0.00127367615145
-0.00247620459724
-0.00116854983582
-0.00235651945842
-0.00108370240372
-0.00224682976625
-0.00101178155859
-0.00214284450729
-0.000936865587181
-0.00205057888863
-0.000870065850922
-0.0019540104036
-0.000832807395043
-0.0018580521847
-0.000787005639512
-0.00176417437405
-0.000749959641415
-0.00167176391641
-0.000718741174178
-0.00157706021413
-0.000687735883723
-0.00148025307865
-0.000661697698437
-0.00137760528294
-0.000642511927352
-0.00127765094881
-0.000614720934961
-0.0011841521747
-0.000585030049711
-0.0010933414285
-0.000557879131052
-0.00100344131437
-0.000530957666943
-0.000920099210242
-0.000503792337079
-0.000843102835977
-0.000481723666055
-0.000774225890204
-0.000459800509913
-0.000709870364898
-0.00044343913037
-0.000648223847725
-0.000431526043204
-0.000577214729534
-0.00043916257658
-0.000495282777965
-0.000443502297796
-0.000421707551998
-0.000447729735715
-0.000359838082339
-0.000453884365266
-0.000306203077302
-0.000473276055409
-0.000239391728125
-0.000502086761055
-0.000140663727726
-0.000521122586553
-0.000107855659556
-0.000491801785812
-5.84416336709e-05
-0.000589230000086
-0.000594053224902
-0.000515151371472
0.00414999430731
-0.0010861068841
0.00460713746545
-0.00165361416821
0.0045915551316
-0.00221120946774
0.0045285452708
-0.00275623382963
0.00444567335103
-0.00328491384429
0.00434339300297
-0.00379570422861
0.00422496956302
-0.00428697361264
0.00409316826915
-0.00475778242055
0.00395213771467
-0.00520769575425
0.0038013231038
-0.00563601262283
0.00364552005895
-0.00604197708002
0.00348396436321
-0.00642762779723
0.00331971493287
-0.00679211383026
0.00315333687072
-0.00713461661403
0.00298450564225
-0.00745605504739
0.00281615845789
-0.00775685779175
0.00264844937237
-0.00803839468397
0.00248123980996
-0.00830123175547
0.00231503450573
-0.00854584532614
0.00214981896085
-0.00877739626448
0.0019907359822
-0.00899352403821
0.00183910942594
-0.00918928456163
0.0016849896617
-0.00936651322187
0.00152614196878
-0.00952395895209
0.00136317883894
-0.00966468685304
0.00119912876717
-0.00979118721942
0.00103714896227
-0.00989999642221
0.000872874947954
-0.00998784991797
0.000702729383015
-0.010056455824
0.000529065850177
-0.010105395102
0.000351825949003
-0.0101378536868
0.000173892467999
-0.0101498638236
-7.98083013309e-06
-0.0101411803733
-0.000193314886784
-0.0101135440724
-0.000378241112328
-0.0100620284073
-0.000566558414586
-0.00998112365718
-0.000763114776349
-0.00987146325386
-0.000963281190089
-0.00974069839547