/*--------------------------------*- C++ -*----------------------------------*\
| =========                 |                                                 |
| \\      /  F ield         | OpenFOAM: The Open Source CFD Toolbox           |
|  \\    /   O peration     | Version:  v1906                                 |
|   \\  /    A nd           | Web:      www.OpenFOAM.com                      |
|    \\/     M anipulation  |                                                 |
\*---------------------------------------------------------------------------*/
FoamFile
{
    version     2.0;
    format      ascii;
    class       surfaceScalarField;
    location    "884";
    object      phi;
}
// * * * * * * * * * * * * * * * * * * * * * * * * * * * * * * * * * * * * * //

dimensions      [0 3 -1 0 0 0 0];
oriented        oriented;


internalField   nonuniform List<scalar> 
18240
(
-0.000199995679745
0.000199953506831
-0.000409472701572
0.000209429047366
-0.000617560128129
0.000208044383679
-0.000822636808341
0.000205027089007
-0.00102363837482
0.000200959511411
-0.00121965129229
0.000195961724989
-0.00140983713283
0.000190144693989
-0.00159349553006
0.000183605436808
-0.00176998933639
0.000176453530387
-0.00193882910702
0.000168784890809
-0.00209957574061
0.000160707267685
-0.00225193959808
0.000152306918456
-0.00239565871691
0.000143680696841
-0.00253061513033
0.000134897296287
-0.00265668951226
0.000126037015749
-0.00277389820023
0.000117147301895
-0.00288222489518
0.000108290484624
-0.00298178144724
9.94928436368e-05
-0.00307261666012
9.08003482337e-05
-0.00315490317661
8.22204668549e-05
-0.00322872259899
7.37860594726e-05
-0.00329428013485
6.548916212e-05
-0.00335166494949
5.735319212e-05
-0.00340109377149
4.93581634921e-05
-0.00344264505689
4.15215659384e-05
-0.00347653246366
3.38145229612e-05
-0.00350281170557
2.6251650424e-05
-0.00352168464601
1.87978949148e-05
-0.00353317780218
1.14677968838e-05
-0.00353747770927
4.22277732225e-06
-0.00353458057027
-2.92010532763e-06
-0.00352465893972
-1.00007542749e-05
-0.00350768258663
-1.69969027364e-05
-0.0034838172603
-2.3946310088e-05
-0.00345301672956
-3.08185576984e-05
-0.00341545250442
-3.7646882725e-05
-0.00337107780828
-4.43902182395e-05
-0.00332008707605
-5.107478123e-05
-0.00326245270927
-5.76472781855e-05
-0.00319841184162
-6.41259195879e-05
-0.003127976612
-7.04455233506e-05
-0.00305144456239
-7.66175601847e-05
-0.00296888391699
-8.25681431481e-05
-0.0028806631544
-8.83060203023e-05
-0.00278691361951
-9.375411427e-05
-0.00268807400779
-9.89236973163e-05
-0.00258433542446
-0.000103739903112
-0.00247619801645
-0.000108219222947
-0.00236390677798
-0.000112289011171
-0.00224801978401
-0.000115965289443
-0.00212884623675
-0.000119167352556
-0.00200702557545
-0.000121894249368
-0.00188297648993
-0.000124038831643
-0.00175747856349
-0.000125565990505
-0.0016311283839
-0.000126336040369
-0.00150489879365
-0.000126291824319
-0.00137958168332
-0.000125299747114
-0.00125629677944
-0.000123341329027
-0.00113592109103
-0.000120355593534
-0.00101957411617
-0.000116397804789
-0.000908082205173
-0.000111469969094
-0.000802473653618
-0.000105655071584
-0.000703468542263
-9.89825039921e-05
-0.000611937967341
-9.15742840187e-05
-0.000528328922718
-8.35866571166e-05
-0.000453009630956
-7.53609503093e-05
-0.000385776833452
-6.72104963081e-05
-0.000326359255571
-5.9457718555e-05
-0.000274128425173
-5.22084901486e-05
-0.000228645650097
-4.55199883502e-05
-0.00018928135495
-3.93409497295e-05
-0.000155629157028
-3.3685570012e-05
-0.000127100349277
-2.85047644714e-05
-0.000103319485246
-2.3811451994e-05
-8.37215300653e-05
-1.95744888849e-05
-6.78892688283e-05
-1.58604145329e-05
-5.51772525407e-05
-1.2689317637e-05
-4.51085984265e-05
-1.00940521713e-05
-3.70941069044e-05
-7.99238633494e-06
-3.08005770664e-05
-6.31629131875e-06
-2.58274197958e-05
-4.95193328735e-06
-2.19855942635e-05
-3.86173720912e-06
-1.89924894535e-05
-2.97288188047e-06
-1.67542470754e-05
-2.2562814239e-06
-1.51343116589e-05
-1.60165692901e-06
-1.39029082722e-05
-1.24585660313e-06
-1.28000480642e-05
-1.08730610516e-06
-1.19093483629e-05
-9.02453920179e-07
-1.10041506514e-05
-8.92393938757e-07
-9.99682905837e-06
-1.01586960203e-06
-8.89881002492e-06
-1.0871383436e-06
-7.70662198738e-06
-1.19561324849e-06
-6.24168416884e-06
-1.46297008105e-06
-4.38108406482e-06
-1.85348311725e-06
-2.13503054314e-06
-2.22760636351e-06
-2.12831175836e-06
-0.000211591225649
0.000411499728544
-0.000435797228159
0.000433586640325
-0.000657789268947
0.000429989338649
-0.000876321671537
0.000423510519253
-0.00109038807734
0.00041497880953
-0.00129904665615
0.000404570699559
-0.0015014266979
0.00039247751831
-0.00169677352882
0.000378901878355
-0.00188442687664
0.000364059490935
-0.00206385482093
0.000348161559365
-0.00223461482856
0.000331419664627
-0.00239638772999
0.000314027581147
-0.00254892578547
0.00029617091305
-0.00269209059796
0.000278008858927
-0.00282579069271
0.000259689045151
-0.00295002652662
0.000241328858695
-0.00306481938281
0.000223035115578
-0.00317026587514
0.000204884054625
-0.00326645906862
0.000186945229639
-0.00335355399211
0.00016925916087
-0.00343168110042
0.000151864904082
-0.00350102360379
0.000134774575233
-0.00356172283943
0.000118004333121
-0.00361396777337
0.000101545248222
-0.00365789163105
8.53976605101e-05
-0.00369367374524
6.95381390402e-05
-0.00372142680537
5.39573942282e-05
-0.00374131117718
3.86232205873e-05
-0.0037534123056
2.35221933133e-05
-0.00375786762454
8.61859938789e-06
-0.00375473402347
-6.09977587437e-06
-0.00374412793149
-2.06667008498e-05
-0.0037260825497
-3.50875789479e-05
-0.00370070043852
-4.93885204064e-05
-0.00366800122518
-6.35622149582e-05
-0.00362808718497
-7.76211218459e-05
-0.00358098122673
-9.15396207618e-05
-0.00352680450566
-0.000105311586361
-0.003465604718
-0.000118889351968
-0.00339754422526
-0.000132246081789
-0.0033227182214
-0.000145312373224
-0.00324135099098
-0.000158043615568
-0.0031536033439
-0.000170354845442
-0.00305977412711
-0.000182192643688
-0.00296009686903
-0.00019346811194
-0.00285494432347
-0.000204131476824
-0.00274461636333
-0.000214101656518
-0.00262954764095
-0.000223340092571
-0.00251009243592
-0.000231774267814
-0.00238673912514
-0.00023936669127
-0.00225990136834
-0.000246030761607
-0.0021301447122
-0.000251694235705
-0.00199799193497
-0.00025621258851
-0.00186415961869
-0.000259436664187
-0.00172937022128
-0.00026114200865
-0.00159457296694
-0.000261122604569
-0.00146072822963
-0.000259157012272
-0.00132897202816
-0.000255126309329
-0.00120035719526
-0.000248979184158
-0.00107600963046
-0.000240769917136
-0.000956899468412
-0.000230585910136
-0.000844055994107
-0.000218520285678
-0.000738354366677
-0.000204688238784
-0.000640736750141
-0.000189212197515
-0.000551857143229
-0.000172469397328
-0.000472067464557
-0.000155169691762
-0.000401168806213
-0.00013811181829
-0.000338666463722
-0.000121977897745
-0.000283856975149
-0.000107019566285
-0.0002361566973
-9.32355282623e-05
-0.000194961337702
-8.0535412356e-05
-0.000159770823416
-6.88880420531e-05
-0.000130029775489
-5.82429403103e-05
-0.000105290929442
-4.85604107918e-05
-8.5050199562e-05
-3.98117834957e-05
-6.8811401169e-05
-3.21081241087e-05
-5.59125980109e-05
-2.55839794692e-05
-4.57343358423e-05
-2.0279402032e-05
-3.76723986302e-05
-1.60493606433e-05
-3.13202079647e-05
-1.26741272412e-05
-2.63276393918e-05
-9.93897635283e-06
-2.24552770325e-05
-7.73787590134e-06
-1.94485358936e-05
-5.97382283271e-06
-1.71249280423e-05
-4.58273477919e-06
-1.52087027467e-05
-3.51278957618e-06
-1.36880877037e-05
-2.76737243504e-06
-1.25571449565e-05
-2.2136372389e-06
-1.16730260629e-05
-1.78762151694e-06
-1.08563081991e-05
-1.70599428638e-06
-1.00008439163e-05
-1.87069799115e-06
-8.97340292691e-06
-2.11208387757e-06
-7.7730121219e-06
-2.39596059689e-06
-6.36867529747e-06
-2.86228335626e-06
-4.58450503557e-06
-3.6313823596e-06
-2.2715517284e-06
-4.52948258822e-06
-4.39057703731e-06
-0.000214451260293
0.000625905493588
-0.000440939243314
0.000660026783349
-0.000665398017539
0.000654400105061
-0.000886318312492
0.000644382336145
-0.00110261755341
0.000631229854924
-0.00131331292458
0.000615217147931
-0.00151751859713
0.000596634670383
-0.00171446481827
0.000575798626251
-0.00190349477717
0.000553040491223
-0.00208407471846
0.000528691392129
-0.00225577927788
0.000503074768415
-0.00241829625326
0.000476493752309
-0.00257140406708
0.0004492287289
-0.00271497496706
0.000421528227955
-0.00284894786764
0.000393611410283
-0.00297333311626
0.00036566185165
-0.00308818305942
0.000337834006825
-0.00319360049423
0.000310248549096
-0.00328970825512
0.000283001500893
-0.0033766624321
0.000256159784224
-0.00345462131509
0.000229771942903
-0.0035237636966
0.000203862888963
-0.00358425697835
0.000178445545313
-0.00363628046043
0.000153514257597
-0.00367999213555
0.000129057145011
-0.00371555674981
0.000105047989022
-0.0037431108828
8.14593455279e-05
-0.00376279562108
5.8253002879e-05
-0.0037747196293
3.5394110062e-05
-0.00377899644434
1.28403619606e-05
-0.0037757055353
-9.44257575275e-06
-0.00376493430842
-3.14929870504e-05
-0.00374673727127
-5.33362332338e-05
-0.00372118302005
-7.49977259287e-05
-0.00368831174249
-9.64846980507e-05
-0.00364818718082
-0.000117800388979
-0.00360085254958
-0.000138924902839
-0.00354638714516
-0.000159831224897
-0.00348486035067
-0.000180465973099
-0.00341639180063
-0.000200768079651
-0.00334110237557
-0.000220650464736
-0.00325917596426
-0.000240022227167
-0.00317080578423
-0.000258772004056
-0.0030762551581
-0.000276793609341
-0.00297579744731
-0.000293970470373
-0.00286977390048
-0.000310202704957
-0.00275852739331
-0.000325389602807
-0.00264245826372
-0.000339453283538
-0.002521956295
-0.00035231361353
-0.00239746069113
-0.000363901928815
-0.00226940080816
-0.000374123445489
-0.00213827128661
-0.000382858710032
-0.00200459382
-0.000389918438177
-0.0018690133185
-0.000395047754827
-0.00173227572799
-0.0003979039432
-0.00159531684963
-0.000398108059338
-0.00145919923661
-0.00039529492034
-0.00132511799331
-0.000389230010499
-0.00119423543496
-0.000379878201907
-0.00106770176257
-0.00036732237877
-0.000946517675693
-0.000351783849908
-0.00083172076959
-0.000333333332884
-0.000724243408516
-0.000312178144474
-0.00062524445584
-0.000288226202197
-0.000535678411656
-0.000262047241259
-0.00045596983392
-0.000234891515826
-0.000385808582575
-0.000208283359608
-0.000324319757516
-0.000183479386772
-0.000270570225037
-0.000160777359774
-0.000223871480292
-0.000139943894857
-0.000183659584599
-0.000120752169862
-0.000149411807374
-0.000103141962956
-0.00012059180047
-8.70651845128e-05
-9.67609132513e-05
-7.23962710832e-05
-7.75315373888e-05
-5.90427527617e-05
-6.24200120269e-05
-4.72227610495e-05
-5.0689741172e-05
-3.73145567238e-05
-4.15520830957e-05
-2.94185634142e-05
-3.43352922824e-05
-2.32649736092e-05
-2.86252909633e-05
-1.83847342247e-05
-2.41629161494e-05
-1.43992062942e-05
-2.07232764798e-05
-1.11764947709e-05
-1.80891955124e-05
-8.60467674914e-06
-1.60866725755e-05
-6.58445075781e-06
-1.45141142307e-05
-5.08208345589e-06
-1.326295287e-05
-4.01667340457e-06
-1.21633081839e-05
-3.30980942336e-06
-1.11345698394e-05
-2.81442740877e-06
-1.03214955422e-05
-2.51660451259e-06
-9.65511054722e-06
-2.53501240228e-06
-8.6337381397e-06
-3.1292780098e-06
-7.27310627692e-06
-3.75477529258e-06
-5.72427275753e-06
-4.41219506296e-06
-3.88789008218e-06
-5.45903388281e-06
-1.98492324838e-06
-6.41833427627e-06
-6.37137915498e-06
-0.000217872040342
0.000843731908122
-0.000447713540122
0.000889820090478
-0.00067544974491
0.000882088160999
-0.000899471692503
0.000868355803911
-0.00111863262965
0.000850342317675
-0.00133190309364
0.000828438795786
-0.00153837011836
0.000803052802011
-0.00173724816365
0.000774627364335
-0.0019278805481
0.000743623471533
-0.00210974063093
0.000710501583696
-0.00228242311356
0.000675707261066
-0.0024456379197
0.000639658022633
-0.00259919515648
0.000602735353956
-0.00274299587322
0.000565277735112
-0.00287701454864
0.000527578835485
-0.00300129018567
0.000489885609349
-0.00311590905537
0.000452401020488
-0.00322099823255
0.000415285217553
-0.00331670992754
0.000378660784795
-0.00340321829041
0.000342615078838
-0.00348070560312
0.000307206383867
-0.00354936234392
0.000272466095171
-0.00360937489316
0.000238404853917
-0.00366092845986
0.000205013924204
-0.00370419578477
0.000172270974616
-0.00373934249318
0.000140140532163
-0.00376651633201
0.000108579520397
-0.00378585465106
7.75369798286e-05
-0.00379747394743
4.69596709716e-05
-0.00380147942364
1.67914026419e-05
-0.00379795484881
-1.30208848769e-05
-0.00378697433433
-4.25279433397e-05
-0.00376859277814
-7.17714126382e-05
-0.00374286025456
-0.000100784583426
-0.0037098133599
-0.000129584983247
-0.00366949243706
-0.000158175373568
-0.00362193404507
-0.000186536236401
-0.00356719096282
-0.000214627839344
-0.00350532541939
-0.000242383710506
-0.00343643098754
-0.000269715133138
-0.00336062527192
-0.00029650715995
-0.00327807164828
-0.000322627015022
-0.00318896891379
-0.000347923886903
-0.00309356973618
-0.000372241774114
-0.00299216417839
-0.000395422523132
-0.00288509191113
-0.000417320834028
-0.00277271806319
-0.000437806288602
-0.00265543942581
-0.000456773708958
-0.00253365631922
-0.000474135133648
-0.00240778064039
-0.000489814883408
-0.00227821708018
-0.000503720982846
-0.00214539137566
-0.000515717604221
-0.00200976320825
-0.000525576828206
-0.00187189507484
-0.000532945702635
-0.00173250393109
-0.000537321957254
-0.00159254294711
-0.00053809515987
-0.00145320215885
-0.000534658932383
-0.00131584933605
-0.000526605127935
-0.0011817780301
-0.000513969134797
-0.0010522365893
-0.000496883014244
-0.000928150369697
-0.000475886819031
-0.000810615051735
-0.000450886429954
-0.000700438492232
-0.000422370113326
-0.000599320620765
-0.000389361139962
-0.000508823569826
-0.000352558191081
-0.000429613227007
-0.000314117009791
-0.000361105474621
-0.000276804105202
-0.000301609814592
-0.000242987224416
-0.000249708167292
-0.000212689106919
-0.000204667056363
-0.000184992880318
-0.000166042033115
-0.000159382849215
-0.000133323077429
-0.000135864546775
-0.000105928295429
-0.000114463003564
-8.34591705441e-05
-9.48676826236e-05
-6.57754947821e-05
-7.67272745525e-05
-5.25223402166e-05
-6.04776013609e-05
-4.27433457561e-05
-4.70927685013e-05
-3.53177035628e-05
-3.68441934181e-05
-2.93924449018e-05
-2.91884323545e-05
-2.46146708651e-05
-2.3161748231e-05
-2.09210407839e-05
-1.80901891575e-05
-1.8134698045e-05
-1.3959859435e-05
-1.60603774752e-05
-1.06755971109e-05
-1.45572579772e-05
-8.08464766751e-06
-1.34539849552e-05
-6.18250584323e-06
-1.24350791985e-05
-5.03174898812e-06
-1.15179464833e-05
-4.22257783438e-06
-1.06999211964e-05
-3.62867443133e-06
-9.78912074232e-06
-3.42289380793e-06
-8.75350560972e-06
-3.56576856922e-06
-7.903412216e-06
-3.97666438191e-06
-6.56976408236e-06
-5.086707525e-06
-4.84222994822e-06
-6.13351544648e-06
-3.24869132503e-06
-7.04858152486e-06
-1.68331244247e-06
-7.9764101742e-06
-8.04669972205e-06
-0.000222437858392
0.00106612399279
-0.00045694791348
0.00112428230419
-0.000689177539634
0.00111426939031
-0.000917422403689
0.00109655220541
-0.00114046136257
0.00107333263234
-0.00135720739486
0.00104513597227
-0.00156671069594
0.00101250704982
-0.00176816734763
0.000976034657147
-0.00196092079889
0.00093632733261
-0.00214445866623
0.000893989499052
-0.00231840317745
0.000849601569466
-0.00248249960285
0.000803703842839
-0.00263660061754
0.000756785503404
-0.0027806515121
0.000709277340366
-0.00291467323233
0.000661549017786
-0.00303874838013
0.000613908787551
-0.00315300599587
0.000566606441902
-0.00325761048262
0.000519837090467
-0.0033527493861
0.00047374689364
-0.00343862578775
0.00042843828747
-0.00351544905374
0.000383976324869
-0.00358343031079
0.000340393661794
-0.00364277554302
0.000297696322845
-0.00369368344113
0.000255867722985
-0.00373634010849
0.000214873520877
-0.00377091862807
0.000174664626175
-0.00379757482567
0.000135181323798
-0.0038164481465
9.63556233657e-05
-0.00382765820411
5.81151248734e-05
-0.0038313068784
2.0385219166e-05
-0.00382747573808
-1.69067544043e-05
-0.00381622959189
-5.38290390289e-05
-0.00379761514924
-9.04406153386e-05
-0.00377166654837
-0.000126788099553
-0.00373840584366
-0.000162900314702
-0.00369785102072
-0.00019878487765
-0.00365001875981
-0.000234422747715
-0.00359493516796
-0.000269765560649
-0.00353264070223
-0.000304731652483
-0.00346320291288
-0.000339206026183
-0.00338672212641
-0.000373040091077
-0.00330334390214
-0.000406056654229
-0.00321326225703
-0.00043805558341
-0.00311672762369
-0.000468825272199
-0.00301404279107
-0.000498154318185
-0.00290556148258
-0.000525847378813
-0.0027916729919
-0.000551737656464
-0.00267278949112
-0.000575698057242
-0.00254932164233
-0.00059764145082
-0.00242166288619
-0.000617510298133
-0.00229017292965
-0.000635245813453
-0.00215518605639
-0.000650738045293
-0.00201704152708
-0.000663753756284
-0.00187616208587
-0.000673856026397
-0.00173317130186
-0.000680342359447
-0.00158903767598
-0.000682256854981
-0.00144515100609
-0.000678571615597
-0.00130324373867
-0.000668536599002
-0.00116477529827
-0.00065246034332
-0.00103124397625
-0.000630436212274
-0.000903209139589
-0.000603942709471
-0.000781989268278
-0.00057212503183
-0.000667560681131
-0.000536818697898
-0.000562893582363
-0.000494046586735
-0.000470870004185
-0.000444601291075
-0.000392715741304
-0.000392287334893
-0.000327358501098
-0.000342174525157
-0.000271184307316
-0.000299174753829
-0.000221904978721
-0.000261974688712
-0.000179024355542
-0.000227881603843
-0.000142504723387
-0.000195903583538
-0.000111871940596
-0.000166501104451
-8.63069310073e-05
-0.000140027213165
-6.54180733737e-05
-0.000115758651211
-4.96759205435e-05
-9.24709975222e-05
-3.91616224232e-05
-7.09910776792e-05
-3.2388407566e-05
-5.38670331689e-05
-2.74960686348e-05
-4.17340743917e-05
-2.3255254774e-05
-3.34291891134e-05
-1.95320067866e-05
-2.68837141291e-05
-1.6771704768e-05
-2.08481421901e-05
-1.48252262743e-05
-1.59026903126e-05
-1.34615253375e-05
-1.20344302436e-05
-1.26162117109e-05
-8.92592805272e-06
-1.21067479075e-05
-6.68750844687e-06
-1.16008156279e-05
-5.53273116417e-06
-1.09770725179e-05
-4.84058280696e-06
-1.00368805036e-05
-4.56230734717e-06
-9.04103889594e-06
-4.41234035907e-06
-8.00722941967e-06
-4.59380194941e-06
-7.02064449162e-06
-4.95719050425e-06
-5.9953221745e-06
-6.10890573445e-06
-4.42775292576e-06
-7.70243203965e-06
-2.82586389481e-06
-8.64212460476e-06
-1.43465260184e-06
-9.3552241363e-06
-9.47844168514e-06
-0.000228292450333
0.00129437064622
-0.000468852386137
0.00136479388387
-0.000706882034754
0.0013522506875
-0.000940555191907
0.00133017674898
-0.00116855578142
0.00130128450304
-0.0013897252246
0.0012662564666
-0.00160306808516
0.00122580072916
-0.00180776022555
0.00118067734275
-0.00200314858183
0.00113166593927
-0.00218874394747
0.00107953480137
-0.00236420785133
0.00102501507549
-0.00252933582033
0.000968781074493
-0.00268403823543
0.000911436826448
-0.00282832086117
0.000853508521282
-0.00296226563694
0.000795441988199
-0.00308601324656
0.000737604244122
-0.00319974726424
0.000680287959949
-0.00330368088866
0.000623717884376
-0.00339804543087
0.000568058283338
-0.00348308133333
0.00051342073668
-0.00355903049599
0.000459871749308
-0.00362613070122
0.000407439859672
-0.00368461070237
0.000356122067685
-0.00373468695975
0.000305889488697
-0.00377656046313
0.000256692321842
-0.00381041489147
0.000208464142115
-0.00383641443933
0.000161125778863
-0.00385470288067
0.000114588787264
-0.0038654020833
6.87589049918e-05
-0.00386861188182
2.35394357793e-05
-0.00386440939689
-2.11649228716e-05
-0.00385285005726
-6.54441756616e-05
-0.0038339682451
-0.000109378252655
-0.00380778021396
-0.000153031996547
-0.00377428692227
-0.000196449387263
-0.00373347972705
-0.000239647761028
-0.00368534625493
-0.000282611634234
-0.00362987954245
-0.000325287387118
-0.00356708720278
-0.000367578557712
-0.00349700364451
-0.000409343537614
-0.00341970125577
-0.000450395503373
-0.00333530318993
-0.000490506727681
-0.00324399255603
-0.000529416802246
-0.00314602018028
-0.000566846662785
-0.00304170479849
-0.000602516722701
-0.00293142781963
-0.000636169361551
-0.00281561670098
-0.000667591484238
-0.00269472101924
-0.000696634482836
-0.00256917772758
-0.000723223562422
-0.00243937509882
-0.000747350577834
-0.00230561825563
-0.00076903915588
-0.00216811695101
-0.000788275401237
-0.00202701133902
-0.000804894304775
-0.00188247338613
-0.000818428781421
-0.00173490298585
-0.000827945718204
-0.00158522736168
-0.000831963730565
-0.00143515091095
-0.000828677367726
-0.00128720918647
-0.000816507708592
-0.00114296003574
-0.000796736728677
-0.00100467175085
-0.000768750010396
-0.000871583102397
-0.000737052262005
-0.000746174882369
-0.000697555574187
-0.000624913298528
-0.000658097445726
-0.00051409285456
-0.000604889778669
-0.000419434550359
-0.00053927676963
-0.000343410288234
-0.000468324456585
-0.000284288437025
-0.000401309645479
-0.000233566176037
-0.000349905948977
-0.00018758040796
-0.000307958422085
-0.000147044534776
-0.000268422008583
-0.000113112186872
-0.000229831936479
-8.52744122689e-05
-0.000194345513213
-6.19118702152e-05
-0.000163387096263
-4.23389725111e-05
-0.000135344375064
-2.8578748198e-05
-0.00010623366066
-2.20961704548e-05
-7.74816274902e-05
-2.00318980297e-05
-5.59322782184e-05
-1.88460875934e-05
-4.2926041722e-05
-1.65171776627e-05
-3.576036774e-05
-1.35721117385e-05
-2.98315028989e-05
-1.18190131789e-05
-2.26019315085e-05
-1.09096322578e-05
-1.68080284087e-05
-1.03555095198e-05
-1.25834191729e-05
-1.03316050699e-05
-8.944800785e-06
-1.0384503597e-05
-6.62887182565e-06
-1.02979347776e-05
-5.61323539026e-06
-1.00698538488e-05
-5.06079987199e-06
-9.66766193545e-06
-4.95653133253e-06
-8.86943427135e-06
-5.20140176736e-06
-7.72099763066e-06
-5.73325253542e-06
-6.33108243293e-06
-6.34208186877e-06
-5.2565335148e-06
-7.17931144524e-06
-4.16744302284e-06
-8.78263838906e-06
-2.6886859534e-06
-1.01158396805e-05
-1.35843083972e-06
-1.0679216061e-05
-1.08289320317e-05
-0.000235582399614
0.00152990709152
-0.000483687213622
0.0016128507413
-0.000728933377827
0.00159744826634
-0.000969333674154
0.00157052842218
-0.00120345089146
0.00153535286787
-0.00143003753435
0.00149279406078
-0.00164804407072
0.00144375796524
-0.00185662610464
0.00138920978448
-0.00205514097687
0.00133013092362
-0.002243135473
0.00126747906288
-0.00242032679436
0.00120215583468
-0.00258657963327
0.00113498296933
-0.00274188126499
0.00106668716742
-0.00288631702867
0.000997892594989
-0.00302004712621
0.000929120046725
-0.0031432861949
0.000860790872949
-0.00325628554326
0.000793234529756
-0.00335931875941
0.000726697934652
-0.00345266988659
0.000661355929045
-0.00353662451016
0.000597321513287
-0.00361146264535
0.000534655748492
-0.00367745372856
0.000473376467927
-0.00373485255649
0.000413466159934
-0.00378389659783
0.000354878478899
-0.00382480358321
0.000297544017095
-0.00385776997014
0.000241374944828
-0.00388296927824
0.000186269284266
-0.0039005510601
0.000132114491742
-0.0039106395983
7.87911676733e-05
-0.00391333326638
2.61765857832e-05
-0.00390870376851
-2.58510954247e-05
-0.00389679633904
-7.74084640219e-05
-0.00387763022711
-0.000128601308761
-0.00385120073849
-0.000179518506388
-0.00381748221859
-0.000230224881022
-0.00377643326768
-0.000280753582635
-0.0037280036164
-0.000331097895475
-0.00367214379497
-0.000381203433103
-0.00360881683348
-0.000430961161782
-0.00353801261125
-0.000480202631104
-0.00345976350079
-0.000528698483346
-0.00337416088735
-0.000576161931751
-0.00328137013235
-0.000622258574368
-0.00318164214189
-0.000666623825294
-0.00307531774533
-0.000708888256039
-0.00296282211822
-0.000748710002024
-0.00284464532227
-0.000785811345233
-0.0027213073535
-0.000820013919628
-0.0025933067939
-0.000851264589351
-0.00246105699624
-0.000879640260204
-0.00232481791756
-0.000905318116274
-0.00218464173845
-0.000928491319115
-0.00204036694308
-0.00094920930198
-0.00189171746083
-0.000967116446356
-0.00173860110665
-0.000981099736055
-0.00158169476859
-0.000988907617623
-0.00142313788751
-0.000987270671395
-0.00126743750822
-0.000972240182678
-0.0011155755088
-0.000948628472886
-0.000972544020633
-0.000911801718635
-0.000832915639798
-0.000876700757199
-0.000704871491513
-0.000825606385121
-0.000571797869811
-0.00079117059452
-0.000449648222971
-0.000727057313574
-0.000350109911173
-0.000638817643785
-0.000278239843579
-0.000540209382666
-0.000232300387764
-0.000447281439752
-0.000190374448391
-0.000391799949012
-0.00014740865581
-0.000350978668893
-0.000108373936937
-0.000307406638333
-7.75004157394e-05
-0.000260766123108
-5.37762924551e-05
-0.000218020318474
-3.32360690289e-05
-0.000183982865046
-1.35843003634e-05
-0.000154971085364
-8.11116097725e-07
-0.000119029768707
-6.41344700392e-07
-7.76535213059e-05
-6.51893115777e-06
-5.00607946328e-05
-1.09161483982e-05
-3.85433257662e-05
-1.02229936529e-05
-3.64585208773e-05
-6.73331240183e-06
-3.33360518919e-05
-6.03507945511e-06
-2.3306186732e-05
-6.55393725219e-06
-1.62913344623e-05
-6.79246327042e-06
-1.23427948514e-05
-7.90791927032e-06
-7.82399876681e-06
-8.83614733624e-06
-5.69636111992e-06
-9.3777076608e-06
-5.0647149362e-06
-9.48432319574e-06
-4.9458858767e-06
-9.1658980029e-06
-5.26464390504e-06
-8.40052074822e-06
-5.95575184253e-06
-7.47626933311e-06
-6.64644700415e-06
-6.2243857619e-06
-7.58252165717e-06
-4.85086692348e-06
-8.54455318921e-06
-3.91368832685e-06
-9.71736474447e-06
-2.64231353294e-06
-1.13760155911e-05
-1.33668817587e-06
-1.19712061739e-05
-1.21618367897e-05
-0.000244481846297
0.0017743429995
-0.000501791393645
0.00187011175848
-0.000755816155919
0.00185142452335
-0.00100436251085
0.00181902598469
-0.00124583963486
0.0017767810749
-0.00147889153898
0.00172579680211
-0.00170240673147
0.00166722372892
-0.00191552357346
0.00160227690615
-0.00211762173247
0.00153217902364
-0.00230830243787
0.00145810937608
-0.00248736118861
0.00138116380862
-0.00265475623367
0.00130232687669
-0.00281057615664
0.00122245554082
-0.00295500871523
0.00114227322952
-0.00308831290193
0.00106237188577
-0.00321079484497
0.000983220095427
-0.00332278821801
0.000905174762209
-0.00342463866479
0.000828494879969
-0.00351669217695
0.000753355532227
-0.00359928644175
0.000679861527312
-0.00367274491109
0.000608059577431
-0.00373737256465
0.000537949157548
-0.00379345323099
0.000469491488066
-0.00384124759323
0.000402617194535
-0.00388099193427
0.000337232350356
-0.00391289692854
0.000273223632445
-0.0039371466997
0.000210462398503
-0.00395389762782
0.000148808476204
-0.00396327726271
8.81135296397e-05
-0.00396538301806
2.82248081392e-05
-0.00396028115472
-3.10107716381e-05
-0.00394800593583
-8.97416913203e-05
-0.00392855957878
-0.000148105853958
-0.00390191320346
-0.000206223142639
-0.00386800943113
-0.000264186917676
-0.00382676703376
-0.000322054103375
-0.00377808828112
-0.000379834491176
-0.00372186945091
-0.00043747964285
-0.00365801481986
-0.000494872498778
-0.00358645428319
-0.000551818979712
-0.00350716399765
-0.000608043390048
-0.00342018913474
-0.000663189949246
-0.00332566634679
-0.000716832756677
-0.00322384295274
-0.000768496690819
-0.0031150880462
-0.000817690599951
-0.00299989058971
-0.000863953127305
-0.00287883807812
-0.000906908076081
-0.0027525716535
-0.000946323903001
-0.00262171310932
-0.000982166431742
-0.00248676574876
-0.00101463156663
-0.0023479911593
-0.00104413723909
-0.00220528018841
-0.00107124751685
-0.00205805183352
-0.00109648209371
-0.00190527968003
-0.0011199353748
-0.00174582552768
-0.00114060009311
-0.00157948970232
-0.00115528532306
-0.0014086924749
-0.00115810511916
-0.00124344507038
-0.00113751856036
-0.0010806328882
-0.00111145999599
-0.000935490479259
-0.00105695255112
-0.000785631486098
-0.00102655395961
-0.000664568417799
-0.000946623603849
-0.000507805286967
-0.000947985859142
-0.000363159275402
-0.000871657436233
-0.000253619008245
-0.000748428182606
-0.000188518975544
-0.000605320172467
-0.000171073429226
-0.00046472799607
-0.000141174382048
-0.000421787037476
-9.63322652071e-05
-0.000395772465155
-5.50565543124e-05
-0.000348789255888
-2.79233586771e-05
-0.000287827697161
-1.24566281818e-05
-0.000233563510697
2.29054523788e-06
-0.00019867529236
2.4508815028e-05
-0.000177192086984
3.91582878486e-05
-0.000133691483793
2.74247688396e-05
-6.58666865754e-05
6.46109940732e-06
-2.91577018869e-05
-6.9152064426e-06
-2.51258638518e-05
-6.27803445934e-06
-3.71393869046e-05
1.8398204936e-06
-4.14501628382e-05
1.01304309109e-06
-2.24897126438e-05
-2.12408500615e-06
-1.31634746718e-05
-2.61465493052e-06
-1.18530684264e-05
-5.44311958533e-06
-4.99895004389e-06
-7.68078788554e-06
-3.45880052895e-06
-8.83247877488e-06
-3.90852535074e-06
-9.43904186542e-06
-4.33189769591e-06
-9.14757067301e-06
-5.54529367196e-06
-8.29508790131e-06
-6.79437149437e-06
-7.20069041431e-06
-7.72621246328e-06
-6.25083546003e-06
-8.52019174458e-06
-5.03358728727e-06
-9.7505039302e-06
-3.84952314357e-06
-1.0886186388e-05
-2.75557250034e-06
-1.24612088079e-05
-1.37982468879e-06
-1.33376249739e-05
-1.35311530668e-05
-0.000255212015431
0.00202950890455
-0.000523601592381
0.00213845326882
-0.000788156518689
0.00211593070536
-0.00104641944275
0.00207724012021
-0.00129660795027
0.00202692053449
-0.00153723542823
0.00196637501214
-0.00176712243017
0.0018970611793
-0.00198539807058
0.00182050266949
-0.00219148335391
0.00173821409702
-0.00238506070096
0.00165163612609
-0.00256603471088
0.00156208685175
-0.00273448929749
0.00147073006992
-0.00289064502666
0.00137855948417
-0.00303482000832
0.00128639597684
-0.00316739586597
0.00119489510861
-0.00328879003019
0.00110456116904
-0.00339943398449
0.0010157652285
-0.00349975737658
0.000928764332037
-0.00359017669633
0.000843720524986
-0.00367108801104
0.000760718071537
-0.00374286231771
0.000679778737285
-0.00380584314119
0.000600874398859
-0.00386034516678
0.000523937562474
-0.00390665384042
0.000448869485439
-0.0039450250028
0.000375546762688
-0.00397568474405
0.000303826194067
-0.00399882875624
0.000233548866701
-0.00401462155085
0.000164543305441