/*--------------------------------*- C++ -*----------------------------------*\
| =========                 |                                                 |
| \\      /  F ield         | OpenFOAM: The Open Source CFD Toolbox           |
|  \\    /   O peration     | Version:  v1906                                 |
|   \\  /    A nd           | Web:      www.OpenFOAM.com                      |
|    \\/     M anipulation  |                                                 |
\*---------------------------------------------------------------------------*/
FoamFile
{
    version     2.0;
    format      ascii;
    class       volScalarField;
    location    "58";
    object      pa;
}
// * * * * * * * * * * * * * * * * * * * * * * * * * * * * * * * * * * * * * //

dimensions      [0 2 -2 0 0 0 0];


internalField   nonuniform List<scalar> 
9216
(
936.551712113
936.191488026
935.442698006
934.302018445
932.773397442
930.867655543
928.589618052
925.955582608
922.972149014
919.658097581
916.022223083
912.087863527
907.865114447
903.377269735
898.633527507
893.660172701
888.464833845
883.072950791
877.492619403
871.752048215
865.858688929
859.840296178
853.703160762
847.473202756
841.155049319
834.773854706
828.337862642
821.874372045
815.379413069
808.873892094
802.362054026
795.88149444
789.436844741
783.033968756
776.673655951
770.386674748
764.176226718
758.065762799
752.057471222
746.171837541
740.410987473
734.79788089
729.333067864
724.031671105
718.894338067
713.938419807
709.161909778
704.577394916
700.182122383
695.985906961
691.983207131
688.181749329
684.573866666
681.16290282
677.939989077
674.90543911
672.049184851
669.367629978
666.850390541
664.493990181
662.286903038
660.222662117
658.291181926
656.485031018
654.796037192
653.220075055
651.751668103
650.379759116
649.097458688
647.896572602
646.771527461
645.715698493
644.726432069
643.797246585
642.926515728
642.109994079
641.34744623
640.634952769
639.972332966
639.355433993
638.784814916
638.257684286
637.774510372
637.33336179
636.934966147
636.577909674
636.259389836
635.972278297
635.727308951
635.534066514
635.395113039
635.300187594
635.235748891
635.194347654
635.17052201
635.160820267
936.904398343
936.541847107
935.791611384
934.645171624
933.10916653
931.192621478
928.903714258
926.256272143
923.260030434
919.93035468
916.280182115
912.328149504
908.08805631
903.578733214
898.817685111
893.826235809
888.615827847
883.204711522
877.606676869
871.846193466
865.93629381
859.89943218
853.74856713
847.502105231
841.170919614
834.774576497
828.324716465
821.84395295
815.338102685
808.819207678
802.302617189
795.808750794
789.34636263
782.92828736
776.560865441
770.263685842
764.04549441
757.92362929
751.906104537
746.009698471
740.244588837
734.62339328
729.151754267
723.842688653
718.700510824
713.739846729
708.962859155
704.375358384
699.980991389
695.784384557
691.784240652
687.984819375
684.382197646
680.975461837
677.759505755
674.731055711
671.882145414
669.207461977
666.700283129
664.353340612
662.155647374
660.100000151
658.177411679
656.380190346
654.69823703
653.128146871
651.666219511
650.301152254
649.025603257
647.83075957
646.710017029
645.658409842
644.672636661
643.746750892
642.877761786
642.063447429
641.302357389
640.59217549
639.931103944
639.315907225
638.746823819
638.22148386
637.739417451
637.300238031
636.903577706
636.548641878
636.23388573
635.956311904
635.714900838
635.520543702
635.381694963
635.288156601
635.224980604
635.18391438
635.161035844
635.15118957
937.640106595
937.271581998
936.514517902
935.357300615
933.807636457
931.873714677
929.564872369
926.893927636
923.873069799
920.51581601
916.837490356
912.855356089
908.584770919
904.044224626
899.250788654
894.224135614
888.979316508
883.535224491
877.908624864
872.117445774
866.178565858
860.110716884
853.929754975
847.652794206
841.293916643
834.868227438
828.39309699
821.888333547
815.357995926
808.815574031
802.276673148
795.757448009
789.269571817
782.822382785
776.431553278
770.111978437
763.87151611
757.726693557
751.689610344
745.772688578
739.987152322
734.344352573
728.854185498
723.527880381
718.373689745
713.401439797
708.611857838
704.014376889
699.617018827
695.417525954
691.416370097
687.620409306
684.02442564
680.624185245
677.417977598
674.400656526
671.56516113
668.905059058
666.41286281
664.080629255
661.89883326
659.859026585
657.952037377
656.1687036
654.501282711
652.94625541
651.498421758
650.147091753
648.883774864
647.700754804
646.589160733
645.54490382
644.566832175
643.645958287
642.77969684
641.968981355
641.211317732
640.504570599
639.848072429
639.235815058
638.667593952
638.144820351
637.665638306
637.230693745
636.83923082
636.488195168
636.18115358
635.917423605
635.68620308
635.492445184
635.354142658
635.265002135
635.203261005
635.16187078
635.137944888
635.126084927
938.772239768
938.397024249
937.629183601
936.455320912
934.883735357
932.922628964
930.58254314
927.876043149
924.816049304
921.417089985
917.694225294
913.664738571
909.345533055
904.755256247
899.912917703
894.836113015
889.541074571
884.04655658
878.370515096
872.530661446
866.544552158
860.428919489
854.201722071
847.879666599
841.478055181
835.015005054
828.503459277
821.958956639
815.390835131
808.808712341
802.232037525
795.675871767
789.148541486
782.664170347
776.236464529
769.877798847
763.599433808
757.419180802
751.350699441
745.40149128
739.584297629
733.908320284
728.390173224
723.045717128
717.871464074
712.880335638
708.079274978
703.471616066
699.064928243
694.860319152
690.860098473
687.065358834
683.472345008
680.081873135
676.891087545
673.891678897
671.076238927
668.437860858
665.968758538
663.660796006
661.503834841
659.489096384
657.606932369
655.847483307
654.203953202
652.672499199
651.247481951
649.916556475
648.67147401
647.503018387
646.404228239
645.372803386
644.403140653
643.489588099
642.631739907
641.827567619
641.075176289
640.372866562
639.718814888
639.110871305
638.549487138
638.033467057
637.560303308
637.132564117
636.745848893
636.400488205
636.10655518
635.850877695
635.627631654
635.446412047
635.315807963
635.226009621
635.163873824
635.121060675
635.096806911
635.084215786
940.30572837
939.921825108
939.1390963
937.942621329
936.341110603
934.34333736
931.959768219
929.204228052
926.091219139
922.634540676
918.850637408
914.756889367
910.372173542
905.715932375
900.806007397
895.660021558
890.296500382
884.734155539
878.991569165
873.085575458
867.035518091
860.858705326
854.568924177
848.187069568
841.731084192
835.216177723
828.652405699
822.053885489
815.434110025
808.801842406
802.173270053
795.563328461
788.982371019
782.44710718
775.970971642
769.562488496
763.237158961
757.007542928
750.891555781
744.897159883
739.040361362
733.333152916
727.782906048
722.404390712
717.19978993
712.181904231
707.354504479
702.729958812
698.312745217
694.101258752
690.100420052
686.309590452
682.727287334
679.349266454
676.176075659
673.202292427
670.414332195
667.805545794
665.367778126
663.093639787
660.970504121
658.990455182
657.141887558
655.411931973
653.802974803
652.309684848
650.91773472
649.613475593
648.393076222
647.243489455
646.159144536
645.1408112
644.184456802
643.283574342
642.435307838
641.638340553
640.892851391
640.198047021
639.550698799
638.950974412
638.398004573
637.88685343
637.420541898
637.000913025
636.623029639
636.289661587
636.003987453
635.756734713
635.545408354
635.3795839
635.257023398
635.167181874
635.104145241
635.059414844
635.035493351
635.02318142
942.249038504
941.854051236
941.052083891
939.826431803
938.186378119
936.141426449
933.702964244
930.884423237
927.702279963
924.171932889
920.309885922
916.134728836
911.666842284
906.925962818
901.92914435
896.695943377
891.245590392
885.596992344
879.770485943
873.783896512
867.65325619
861.396586171
855.029219899
848.574661221
842.053739389
835.471031405
828.839476667
822.175019067
815.487228638
808.788898736
802.093435135
795.419271185
788.777916154
782.179190652
775.637086797
769.163142951
762.777197314
756.488789844
750.318362312
744.275494436
738.368762858
732.613007729
727.014729354
721.586613137
716.342700738
711.293108758
706.439385045
701.793209066
697.355527787
693.135503202
689.135361445
685.350044331
681.781231031
678.42178385
675.274277289
672.331375131
669.577842936
667.006028126
664.609817936
662.38104422
660.302615771
658.36439889
656.554718493
654.875360559
653.330310645
651.889534369
650.530384201
649.256112448
648.065382128
646.935062723
645.865461257
644.865767898
643.926405852
643.035181031
642.194583435
641.405488593
640.669839471
639.982240854
639.341035609
638.749956316
638.205203363
637.703399528
637.250038412
636.841753063
636.47531514
636.154190681
635.875572588
635.637068574
635.440577547
635.290148066
635.172786269
635.083882285
635.021020222
634.978612421
634.951452189
634.939919082
944.612615793
944.203694302
943.377815563
942.115918842
940.427989007
938.324680053
935.818026106
932.922285675
929.655069328
926.03349019
922.074858203
917.800878257
913.231475519
908.385479508
903.282831476
897.943483528
892.387413448
886.635888293
880.708233083
874.621183812
868.392845916
862.040003751
855.582558382
849.044269475
842.441318053
835.77763522
829.064196001
822.316821113
815.548631621
808.770463603
801.999162767
795.249460123
788.529206403
781.852979279
775.232392098
768.683444053
762.226188817
755.872051979
749.637918643
743.529391541
737.556675796
731.733314726
726.076213103
720.597859921
715.305121489
710.208365002
705.320176083
700.649344528
696.194541596
691.963418551
687.956936543
684.179292933
680.629764936
677.29528312
674.181150014
671.274708246
668.56751812
666.046868406
663.70414999
661.530706259
659.497811749
657.628864102
655.908587445
654.311006285
652.829062977
651.431322387
650.108336673
648.872844066
647.712228027
646.599455026
645.544976068
644.56308977
643.635432327
642.758679202
641.926888859
641.140205612
640.409535297
639.732239415
639.099527416
638.5168934
637.982814885
637.49172013
637.05029673
636.653452338
636.298998175
635.986885232
635.717868883
635.496656891
635.317568396
635.175324468
635.061963492
634.974681615
634.913128502
634.877136634
634.847812795
634.836369651
947.408657975
946.983117337
946.128289974
944.822577884
943.077113491
940.902715078
938.313685447
935.324920017
931.955576706
928.224091995
924.150792396
919.757853862
915.065921036
910.095522396
904.867389172
899.401894117
893.722113459
887.848941753
881.800467033
875.595628012
869.252521423
862.787928216
856.23083188
849.596642028
842.891459418
836.12968324
829.319970859
822.476589227
815.616697481
808.75158824
801.890333456
795.047643753
788.234678496
781.469548196
774.76316492
768.129709214
761.590157017
755.158271282
748.841594604
742.645573576
736.594594247
730.701320501
724.973306707
719.423238447
714.072190889
708.929651818
703.999600266
699.291374377
694.811133267
690.568098084
686.562479345
682.797886942
679.267606919
675.968909399
672.895698655
670.039776363
667.390521673
664.926242507
662.63663405
660.546300888
658.634687678
656.882293933
655.246760351
653.717234613
652.288208036
650.949433213
649.670787602
648.467732047
647.334925992
646.237733794
645.204643843
644.243528281
643.324103154
642.452902213
641.627569593
640.850556742
640.128516994
639.452734998
638.823224704
638.254661255
637.730061091
637.251760364
636.821342675
636.434264759
636.09168827
635.792114903
635.541753452
635.334711456
635.164112584
635.029480445
634.92473376
634.843965362
634.782918198
634.751527536
634.726256279
634.714493916
950.652700285
950.207331833
949.317996782
947.959907949
946.145883593
943.887549897
941.200423318
938.101422338
934.611429768
930.750831117
926.541528473
922.008146325
917.17194777
912.055540662
906.681967295
901.071760116
895.24780908
889.232127249
883.044450883
876.703785879
870.227301003
863.642979393
856.970953948
850.220316119
843.402071786
836.526626487
829.606440621
822.658852598
815.696417193
808.726215208
801.761009842
794.813382756
787.900565532
781.034656375
774.227968121
767.500588488
760.868243248
754.339622662
747.92022925
741.630884876
735.489774428
729.504244419
723.689231262
718.064754554
712.646621036
707.439466723
702.455061955
697.707948804
693.20626422
688.949324655
684.945028714
681.19498579
677.691980792
674.434090902
671.410818939
668.616154621
666.031079362
663.624981066
661.470941678
659.543073501
657.757039092
656.095664481
654.544733522
653.091941925
651.737738767
650.449528791
649.208011813
648.051965387
646.945968016
645.867759674
644.854623412
643.908292809
642.998002943
642.132584462
641.312924881
640.537596711
639.812275139
639.139589341
638.526525398
637.961387816
637.447035515
636.978515901
636.560070444
636.184186165
635.857291837
635.575156308
635.338055444
635.140795597
634.983516127
634.860468781
634.7634708
634.691787857
634.637598577
634.602385961
634.585188931
634.572495264
954.363135959
953.894414752
952.964324264
951.544578264
949.649304661
947.292318867
944.49017076
941.262043845
937.631038953
933.620457238
929.252777179
924.555282095
919.552999183
914.268701312
908.725929107
902.948509084
896.959866909
890.782356716
884.436799416
877.941976433
871.320256579
864.598531044
857.795257981
850.914235365
843.966261152
836.964487763
829.925553148
822.861864254
815.780990543
808.693944058
801.611710021
794.552008493
787.526275325
780.546727156
773.632549941
766.798754875
760.052331662
753.409430921
746.883081694
740.482844026
734.22622824
728.137566998
722.231031392
716.516134159
711.007364441
705.729193811
700.690795337
695.895519893
691.362746382
687.092477381
683.093482544
679.359317154
675.892124079
672.679465012
669.72004891
666.993164621
664.480323015
662.250543619
660.293887233
658.495021147
656.828286346
655.276383377
653.827337204
652.46506666
651.186143392
649.955901193
648.777863144
647.64419434
646.555090814
645.506576311
644.508973795
643.572251564
642.67136156
641.805820628
640.987068377
640.208949877
639.480088486
638.812649247
638.204660929
637.648323201
637.143228878
636.679723734
636.272675188
635.903835309
635.594738313
635.327147927
635.102739093
634.925021613
634.783684574
634.670950444
634.581552153
634.516292976
634.472168724
634.435423959
634.421889245
634.410072778
958.561410786
958.065529741
957.08770738
955.59584543
953.605688527
951.133153672
948.196830775
944.81838679
941.023238952
936.839274282
932.290466702
927.404797371
922.21044867
916.73367531
910.998563816
905.031037546
898.855699455
892.495859218
885.973171319
879.306489899
872.526244144
865.653642807
858.698118495
851.670883404
844.58039495
837.444372325
830.275009463
823.079369062
815.869540844
808.653848613
801.447545861
794.263225873
787.112072848
780.012728953
772.979516842
766.018711775
759.146062909
752.377867294
745.719686553
739.187999548
732.811233173
726.606226743
720.582264525
714.757777447
709.1558078
703.796854368
698.683811063
693.837741812
689.271922695
684.98710408
680.992093713
677.279874063
673.852666183
670.695840749
667.802654699
665.165755456
662.863703145
660.87147351
659.067529524
657.407826347
655.885666562
654.466790305
653.143981175
651.870658161
650.646488444
649.496004278
648.364172315
647.265329937
646.190246042
645.163475231
644.197834637
643.247022023
642.316015267
641.455791625
640.653573982
639.878620898
639.149433496
638.49501267
637.873488161
637.29542376
636.804251484
636.363056634
635.958466358
635.602184127
635.30079469
635.045664292
634.835742495
634.678907491
634.556294161
634.45651906
634.381051442
634.324187626
634.284653355
634.257001395
634.239635292
634.231342817
963.274760359
962.745587377
961.71169019
960.136043634
958.035366934
955.428350217
952.336325306
948.783944157
944.799717894
940.414523875
935.657169569
930.558329933
925.146652172
919.450334683
913.497568218
907.315742674
900.930846834
894.367360881
887.64737378
880.794747059
873.837359769
866.796744095
859.676071443
852.4864132
845.24475101
837.962887651
830.647376665
823.308289133
815.960536174
808.612228266
801.268438039
793.947469304
786.665459517
779.435563128
772.26317852
765.163051587
758.150428546
751.233285011
744.42651936
737.755347561
731.241050821
724.890087689
718.736088605
712.795634233
707.079337882
701.619775378
696.427853034
691.52469229
686.916943058
682.618163799
678.625137386
674.943313635
671.56048448
668.467493297
665.670209835
663.271872998
661.220372366
659.417560743
657.778442651
656.309354258
654.976833088
653.693388724
652.465001946
651.287929085
650.179110765
649.080973139
647.999103351
646.924099698
645.872207085
644.866705138
643.860074863
642.867980453
641.983662514
641.163942874
640.334589303
639.53590007
638.78946097
638.107799249
637.48218843
636.948479435
636.465706206
636.016326532
635.618523199
635.262325745
634.971473375
634.733331538
634.546938091
634.413928357
634.305221406
634.2195518
634.160708494
634.118024329
634.084637325
634.064314713
634.050347852
634.043652205
968.53433804
967.965760183
966.866083835
965.19147199
962.962059021
960.198851161
956.926624628
953.173668833
948.972373168
944.357319293
939.361003447
934.018001403
928.360059482
922.416728898
916.219477335
909.79778271
903.179223024
896.389230283
889.450501358
882.3990033
875.251962651
868.020235161
860.717572768
853.357966702
845.954278476
838.511672136
831.039884333
823.553360346
816.060022267
808.561570078
801.073126914
793.611992564
786.1896734
778.809978501
771.487170857
764.234366478
757.055645425
749.977950229
743.016036847
736.18397975
729.502314247
722.997215713
716.696238297
710.609030027
704.766740443
699.193648068
693.910739757
688.935046449
684.282347433
679.962605196
675.977999586
672.327672235
668.996864009
665.981643123
663.442462188
661.308874387
659.467619577
657.896133352
656.4973072
655.254625866
654.075856859
652.934282316
651.869117476
650.817506627
649.759378943
648.726212141
647.685557965
646.652550656
645.61529317
644.526320564
643.454348541
642.542230421
641.716414734
640.848135246
639.984775351
639.167102335
638.410399252
637.71951728
637.092614305
636.545555848
636.088356316
635.668990335
635.255122142
634.889037824
634.613450839
634.403730844
634.231136316
634.114312975
634.021624821
633.961734964
633.922995745
633.897069645
633.878549901
633.863161413
633.858742534
633.852053225
974.37415747
973.7613934
972.583496153
970.792073742
968.412756289
965.46832434
961.987783729
958.003865812
953.55383486
948.676357371
943.408252824
937.788194873
931.85149839
925.630491132
919.159716511
912.470986198
905.593609747
898.55652239
891.383433457
884.105764262
876.75017198
869.317796424
861.821050647
854.277829861
846.698725065
839.085902314
831.454161877
823.812517562
816.159728661
808.507539542
800.870495604
793.260857528
785.680448829
778.140607548
770.656163554
763.226770615
755.877698536
748.625049976
741.474807518
734.462351892
727.606418725
720.919850032
714.44336445
708.198676021
702.204842544
696.497532673
691.105817829
686.044957997
681.336261333
676.995018692
673.01946626
669.405703397
666.131895673
663.390679592
661.148679346
659.219604034
657.648263403
656.365645728
655.234531037
654.255614986
653.265299913
652.279728217
651.417867425
650.397296178
649.38735474
648.431682501
647.468930184
646.485993909
645.315121306
644.096541454
643.130818203
642.311104141
641.422739899
640.504926503
639.616153031
638.788819177
638.032098129
637.344114135
636.72064306
636.166836994
635.701182053
635.327876748
634.923252283
634.488503413
634.23848154
634.072434849
633.898366531
633.814341283
633.737923776
633.698261881
633.683877363
633.673384162
633.670789641
633.666314356
633.663484121
633.662032041
980.834821097
980.171347019
978.902320263
976.973585794
974.417787233
971.2633516
967.542080908
963.2923233
958.558035042
953.381244262
947.804143454
941.870403363
935.619594488
929.087402153
922.311681373
915.326627049
908.165114457
900.855831217
893.429489023
885.913112277
878.325211866
870.673910997
862.974445111
855.239674187
847.472471406
839.685405757
831.884974454
824.077559546
816.266640004
808.459502536
800.664240185
792.889844213
785.141678739
777.430022469
769.764196521
762.156105414
754.621444597
747.163879697
739.817077818
732.605688377
725.539445789
718.654239041
711.979827717
705.545424945
699.378139032
693.518795169
687.994186032
682.826180336
678.048260597
673.685208458
669.716144154
666.135013956
663.138367248
660.74758889
658.730375332
657.017518662
655.774263027
654.838473861
653.986532124
653.367003934
652.585225257
651.699881221
650.995697813
650.026627066
649.015310807
648.266755349
647.415655755
646.33372835
644.974817237
643.829791893
642.970937633
642.066141972
641.109017884
640.157752174
639.261233273
638.443783765
637.708101926
637.042701997
636.438349933
635.887787703
635.411743843
635.033139259
634.527219828
634.062734841
633.86037595
633.720344581
633.560129766
633.502279864
633.424654639
633.418003774
633.432249476
633.449294926
633.462059947
633.471204911
633.473605772
633.480040212
987.966306695
987.241506631
985.867247053
983.779240064
981.014830128
977.613600905
973.613869538
969.057106346
963.996410433
958.479982874
952.553930481
946.265303569
939.661294151
932.781171482
925.666412665
918.35537894
910.880897295
903.275546994
895.572477242
887.799353998
879.966496221
872.083529945
864.167416663
856.228660432
848.271906961
840.304030546
832.330329978
824.353850083
816.378180446
808.407253571
800.446764028
792.502073024
784.579320209
776.685796767
768.831564792
761.0302524
753.281815109
745.611725068
738.043706974
730.60290211
723.314490722
716.199676601
709.30005359
702.647976231
696.278860601
690.23043147
684.541171029
679.244726019
674.392492437
670.000664416
666.022251161
662.729080337
660.046537981
657.953584424
656.191800172
654.622899806
653.744462273
653.216087005
652.797869186
652.535169443
651.929378501
651.291435573
650.7786762
649.933488354
648.786442324
648.008486467
647.300564189
646.225744771
645.008196041
643.856772799
642.836425689
641.827256498
640.825412998
639.868100502
638.990036103
638.210019444
637.524970781
636.903971996
636.331253858
635.770396952
635.221579207
634.649642943
634.005151167
633.632532419
633.503220924
633.367974843
633.21541781
633.178036929
633.123693712
633.159628941
633.193213317
633.228180497
633.25824401
633.278672282
633.292445596
633.303752804
995.825396296
995.026655084
993.527146898
991.253176588
988.246926217
984.555856632
980.230814192
975.320526712
969.884080842
963.978390509
957.657607571
950.971656736
943.971126228
936.702385481
929.213630139
921.544138257
913.726770227
905.802000749
897.800483427
889.74569371
881.651510198
873.529090127
865.38861999
857.240814001
849.088112816
840.93559463
832.785563376
824.637948875
816.49390792
808.355565097
800.224744704
792.105351604
784.000726305
775.917411378
767.862532064
759.848538354
751.885046485
743.977476086
736.16531167
728.470580282
720.922607067
713.555195356
706.396378154
699.493203407
692.884152417
686.612765244
680.724160113
675.270634026
670.30847762
665.874696765
662.141043879
659.215874477
656.644398911
654.920859663
653.608535704
652.263717801
652.029696724
652.256537805
652.295341235
652.129543391
651.708615653
651.146233284
650.560997383
649.819413575
648.98255402
648.291232546
647.43784755
646.155825098
644.916797557
643.761619105
642.686785857
641.649141056
640.651416483
639.719813513
638.882700817
638.161331366
637.552326406
636.967707633
636.383198231
635.654603881
634.790176521
634.103296696
633.613780508
633.368119069
633.269759458
633.048905679
632.902839821
632.889392803
632.864278952
632.918939455
632.968155635
633.017609936
633.06962791
633.100588403
633.120676394
633.133014506
1004.47705029
1003.59044184
1001.94149544
999.446045781
996.156071861
992.126773195
987.422390137
982.10427915
976.237817605
969.888467006
963.117952531
955.984395957
948.541263019
940.842267574
932.937698909
924.873099027
916.683923592
908.4144078
900.092284115
891.734648485
883.368071873
874.997077486
866.624743922
858.26286218
849.912038289
841.570904552
833.246419586
824.927236874
816.614724892
808.307228944
800.004540405
791.706902384
783.416439293
775.136042235
766.87265659
758.638265016
750.428419844
742.270570816
734.190502292
726.216031068
718.376220035
710.712058207
703.265645478
696.071144664
689.181818761
682.640947348
676.504015285
670.833978258
665.682328124
661.4957022
658.049840225
655.401787514
652.938813253
652.739393354
653.076124824
652.790692124
652.530962263
652.463263433
652.343225928
652.078293174
651.634255227
651.056684029
650.408413642
649.661327659
648.850194977
648.039690923
647.091538142
645.951462848
644.789579321
643.667541045
642.59973114
641.578684634
640.611843937
639.717849459
638.920118895
638.24374611
637.692609777
637.007762254
636.125720347
635.268743685
634.499634786
633.916644033
633.547317287
633.35672436
633.07556641
632.728691553
632.657615348
632.664037961
632.665581303
632.70302414
632.760326721
632.828646823
632.895949123
632.935865753
632.959745765
632.970815763
1014.00220025
1013.0093571
1011.18036441
1008.41981655
1004.79320149
1000.36785206
995.2210686
989.430065929
983.071160861
976.215945773
968.936427257
961.298084283
953.359159323
945.182661606
936.821111898
928.322732762
919.731974562
911.085609231
902.418947241
893.748255034
885.09230026
876.460813613
867.856142636
859.280646165
850.731566327
842.212095736
833.710138874
825.22104451
816.7415546
808.267141788
799.792554685
791.316873534
782.83744024
774.355485733
765.873391142
757.399590506
748.944031161
740.509070494
732.134651887
723.850029461
715.683260937
707.681646731
699.896895375
692.376706272
685.159502911
678.296070767
671.864032509
665.87443859
660.523855798
656.812717198
653.520227408
653.162348214
653.538382043
653.655235657
653.849823962
653.665522032
653.347464463
653.021291885
652.638955031
652.167654111
651.58767206
650.917874637
650.190080856
649.399262479
648.559122298
647.686088244
646.732539852
645.681197377
644.598415998
643.530889503
642.501364403
641.517258566
640.587162904
639.722520593
638.934468972
638.224623687
637.558078681
636.801746837
635.992557656
635.221141997
634.549407149
634.033060439
633.685367698
633.333429992
632.881595422
632.619926468
632.588253018
632.536809289
632.519339135
632.511818844
632.576651411
632.665848974
632.737011517
632.779845138
632.810081726
632.820379381
1024.49787316
1023.37465257
1021.32619477
1018.24496729
1014.21527553
1009.32287318
1003.66011866
997.320744807
990.394811233
982.96448327
975.108951332
966.903311275
958.412814809
949.702515357
940.836596276
931.865722551
922.838854524
913.790111976
904.74994041
895.749918295
886.798616433
877.90361413
869.064575854
860.277664736
851.542470485
842.843341627
834.171109351
825.516607746
816.876478971
808.240034842
799.597631737
790.946184188
782.279439616
773.593217504
764.888017711
756.166539425
747.438255318
738.712392508
730.022273863
721.395253614
712.854233169
704.467918408
696.29897579
688.398252344
680.817970384
673.609261376
666.802635445
660.2620352
654.388305884
653.874858965
654.303850552
654.623012035
655.105288439
655.187941222
655.018660175
654.544089557
653.9267252
653.265557736
652.585886345
651.891956246
651.172557257
650.427888164
649.664455739
648.873066701
648.050587283
647.195376281
646.288548322
645.324090597
644.329570797
643.335594411
642.363904695
641.426693926
640.53308727
639.69112607
638.905384807
638.170307262
637.460101603
636.727917677
635.991551631
635.296154616
634.6802914
634.167165426
633.7415238
633.31807066
632.945968845
632.723718483
632.572150291
632.429464134
632.388006349
632.393946975
632.443176789
632.552421583
632.599124157
632.640366919
632.675034321
632.686180444
1036.08274089
1034.79697807
1032.47666456
1029.00251302
1024.48558054
1019.03621325
1012.76761611
1005.79430009
998.217392783
990.132262889
981.626839037
972.783962818
963.680126146
954.384536958
944.961389874
935.471883873
925.966427744
916.48621766
907.057961282
897.706217667
888.454185436
879.296198029
870.227148209
861.244283966
852.325483366
843.458073905
834.624066649
825.809858669
817.020709449
808.235531434
799.429124406
790.609109253
781.759195307
772.871006908
763.940052091
754.965497941
745.954907048
736.915045288
727.875481387
718.857512293
709.903662892
701.087633949
692.475946376
684.144230672
676.166332844
668.589210088
661.300951129
654.677704974
653.796792962
654.983365146
656.125577106
656.714641284
656.833473802
656.422807354
655.67304452
654.70513893
653.691703814
652.727123226
651.844381613
651.039056649
650.287016904
649.567705388
648.86296733
648.1495048
647.411000892
646.63693765
645.816528579
644.948065501
644.046135856
643.131563625
642.222998214
641.333967518
640.474630821
639.652506589
638.871129462
638.127212258
637.409004887
636.70218764
636.015679674
635.371230038
634.789118589
634.278793959
633.830290022
633.418054596
633.064701441
632.794985532
632.570615375
632.434425016
632.336571697
632.295908217
632.33041319
632.409111856
632.442857681
632.510227474
632.552299672
632.567743794
1048.90398298
1047.41146031
1044.74833657
1040.78510424
1035.67325486
1029.55658941
1022.57532179
1014.8645773
1006.54337144
997.714689865
988.477347374
978.922523819
969.132128776
959.187654688
949.155692158
939.100599143
929.079956238
919.132702479
909.292809443
899.584694978
890.021017795
880.606094385
871.325713942
862.154324811
853.066482015
844.047934833
835.068363678
826.113794105
817.177438506
808.244428087
799.294419704
790.320360643
781.297715263
772.214229609
763.058927969
753.828685976
744.526105344
735.155160562
725.741660918
716.290275509
706.865965217
697.541351143
688.395542247
679.581800525
671.18499061
663.115254795
655.887127986
654.99188869
656.274378214
657.720070887
658.478296839
658.469794476
657.785146524
656.609076194
655.228163079
653.834791238
652.573942793
651.500061103
650.608491348
649.860243637
649.208677799
648.613333253
648.03596714
647.444704989
646.818794051
646.14623128
645.420510602
644.642855267
643.823993179
642.979945022
642.127003507
641.279065998
640.447450822
639.640830583
638.864518906
638.119578732
637.403287154
636.713188676
636.055160926
635.440244736
634.878730395