/*--------------------------------*- C++ -*----------------------------------*\
| =========                 |                                                 |
| \\      /  F ield         | OpenFOAM: The Open Source CFD Toolbox           |
|  \\    /   O peration     | Version:  v1906                                 |
|   \\  /    A nd           | Web:      www.OpenFOAM.com                      |
|    \\/     M anipulation  |                                                 |
\*---------------------------------------------------------------------------*/
FoamFile
{
    version     2.0;
    format      ascii;
    class       surfaceScalarField;
    location    "250";
    object      phi;
}
// * * * * * * * * * * * * * * * * * * * * * * * * * * * * * * * * * * * * * //

dimensions      [0 3 -1 0 0 0 0];
oriented        oriented;


internalField   nonuniform List<scalar> 
18240
(
0.0119448548636
-0.0119448565199
0.0244857025038
-0.0125408498606
0.0369774296614
-0.0124917286317
0.0493302383732
-0.0123528109752
0.0614914984052
-0.0121612612816
0.0734144762482
-0.0119229801536
0.0850563500244
-0.0116418748128
0.096377903801
-0.0113215561181
0.107343622802
-0.0109657198345
0.117921830987
-0.0105782105413
0.12808481471
-0.0101629843623
0.137808862554
-0.00972405020355
0.147074259358
-0.00926539726246
0.155865191854
-0.00879093484677
0.164169622422
-0.00830443085925
0.171979089309
-0.00780946922048
0.179288496644
-0.00730940747461
0.186095848813
-0.00680735447674
0.19240199566
-0.00630614684858
0.198210337996
-0.00580834461041
0.203526561146
-0.00531622302901
0.208358340849
-0.0048317819387
0.212715089575
-0.0043567484925
0.216607682921
-0.00389259553684
0.220048234186
-0.00344055093387
0.22304985297
-0.00300162092504
0.225626455913
-0.00257660252346
0.227792562686
-0.00216610885894
0.22956314565
-0.00177058246946
0.230953465224
-0.00139032160135
0.231978961791
-0.00102549600289
0.232655142598
-0.000676182771345
0.232997557285
-0.00034241406496
0.233021952024
-2.43966350468e-05
0.232743430696
0.000278522007743
0.232176256364
0.000567172507755
0.231334643706
0.000841613379199
0.230232593143
0.00110204881034
0.228883774403
0.00134881949881
0.227301452535
0.00158232018671
0.225498474506
0.00180297881724
0.223487235033
0.00201123786655
0.221279683158
0.00220755268786
0.218887301282
0.00239238034422
0.21632112049
0.00256618162353
0.21359170688
0.00272941215518
0.210709181995
0.0028825257311
0.207683213968
0.00302596664977
0.20452304105
0.00316017377195
0.201237466
0.00328557375119
0.197834881308
0.00340258555111
0.194323265719
0.00351161436796
0.190710210156
0.00361305642304
0.18700291558
0.00370729343356
0.183208218903
0.00379469753473
0.179332591644
0.00387562619436
0.175382165339
0.00395042715541
0.171362730638
0.0040194337135
0.167279761886
0.00408296959356
0.163138416441
0.00414134453481
0.15894355823
0.0041948590389
0.154699757175
0.00424380022055
0.150411311608
0.00428844637843
0.146082247763
0.00432906308604
0.141716341003
0.00436590755192
0.137317115386
0.00439922493243
0.132887863701
0.00442925245549
0.128431647144
0.00445621594749
0.123951314186
0.00448033370395
0.119449500424
0.00450181322593
0.114928646319
0.00452085482504
0.110390997285
0.00453764857065
0.105838620355
0.00455237762242
0.101273404574
0.0045652153904
0.0966970766469
0.00457632858955
0.0921112017098
0.00458587461837
0.0875171980066
0.0045940043327
0.0829163381103
0.00460085964767
0.078309762677
0.00460657602746
0.0736984821803
0.00461128031563
0.0690833897987
0.00461509293633
0.0644652637308
0.00461812595163
0.0598447792846
0.0046204849583
0.0552225118819
0.00462226734989
0.0505989485042
0.00462356384568
0.0459744916887
0.00462445682842
0.0413494709237
0.00462502119219
0.036724148995
0.00462532201261
0.0320987365738
0.00462541281208
0.0274734091724
0.00462532755241
0.0228483472855
0.00462506223076
0.0182238248659
0.00462452262313
0.0136004818165
0.00462334331403
0.00897998741422
0.00462049469234
0.00437520287777
0.00460478484667
0.00437520303295
0.0126155676243
-0.0245604260055
0.0260058099519
-0.0259310942813
0.0393018096137
-0.0257877301168
0.0524371723156
-0.0254881756807
0.0653636558873
-0.0250877465592
0.0780342738026
-0.0245936000107
0.090404348276
-0.0240119508727
0.102432460622
-0.0233496703408
0.114080955331
-0.0226142160085
0.125316226972
-0.0218134839886
0.136108887883
-0.0209556466187
0.146433829725
-0.0200489937772
0.156270209886
-0.0191017786523
0.165601355797
-0.0181220824146
0.174414616978
-0.0171176931583
0.182701156317
-0.0160960101411
0.19045571237
-0.0150639645416
0.197676322203
-0.0140279658157
0.20436403673
-0.0129938622914
0.210522614954
-0.0119669242675
0.216158227968
-0.010951836865
0.221279155552
-0.00995271088452
0.225895504704
-0.00897309838012
0.230018929574
-0.00801602169762
0.233662380668
-0.00708400268272
0.236839860052
-0.00617910153046
0.239566209204
-0.00530295225393
0.241856904192
-0.00445680500076
0.243727883792
-0.00364156257607
0.245195383137
-0.00285782203353
0.246275795511
-0.00210590881692
0.24698552513
-0.00138591341236
0.247340822536
-0.000697711846547
0.247357349501
-4.09245484901e-05
0.247051011864
0.000584859344226
0.246438084072
0.00118009942444
0.245534161065
0.00174553614097
0.244354277975
0.00228193108543
0.242913004543
0.00279009273585
0.241224445694
0.00327087827977
0.239302239423
0.0037251849415
0.237159541201
0.00415393538955
0.234809023474
0.0045580703121
0.232262866191
0.00493853698447
0.229532762941
0.00529628481274
0.226629917856
0.005632256652
0.223565056947
0.00594738661824
0.220348429594
0.00624259346858
0.216989823317
0.00651878006361
0.213498568297
0.0067768282882
0.209883554196
0.0070175997006
0.206153236533
0.00724193159828
0.202315654539
0.00745063849672
0.198378438554
0.00764450903632
0.194348828182
0.00782430801471
0.19023368014
0.00799077390126
0.186039486219
0.00814462121108
0.181772381191
0.0082865384515
0.177438160266
0.00841719067802
0.173042286813
0.00853721774242
0.168589909121
0.00864723691213
0.164085867811
0.00874784132649
0.159534711797
0.00883960259364
0.154940705331
0.00892306938918
0.150307843132
0.00899876996996
0.145639857069
0.00906721087146
0.140940230462
0.00912887929713
0.136212204437
0.00918424188698
0.131458791433
0.00923374695559
0.126682781294
0.00927782331677
0.121886754026
0.00931688235405
0.117073085689
0.00935131689504
0.112243960478
0.00938150310581
0.107401376476
0.00940779941472
0.102547157119
0.00943054822753
0.0976829568894
0.00945007490429
0.0928102722163
0.00946668929498
0.0879304471759
0.00948068477523
0.0830446838942
0.00949233960302
0.0781540483076
0.0095019160178
0.0732594801234
0.00950966141568
0.0683617987064
0.00951580750935
0.0634617126536
0.00952057130433
0.0585598258785
0.00952415428893
0.0536566468755
0.00952674313935
0.0487525950921
0.00952850880108
0.0438480099401
0.00952960663653
0.0389431573351
0.00953017483696
0.0340382375304
0.0095303329154
0.0291333878777
0.00953017745667
0.024228674591
0.00952977579795
0.0193240400252
0.00952915743762
0.01441908845
0.00952829518239
0.00951273409617
0.00952684934202
0.00460768239637
0.00950983687386
0.00898288563624
0.0127557627233
-0.0373161906669
0.0262518124984
-0.0394271460867
0.0396671717862
-0.0392030913579
0.0529211131042
-0.0387421189489
0.0659615450094
-0.0381281803142
0.0787398606559
-0.0373719175243
0.0912104442654
-0.0364825362294
0.103331200876
-0.0354704287292
0.115063976336
-0.0343469931117
0.126374835476
-0.0331243448136
0.137234223439
-0.0318150361205
0.147617021444
-0.0304317933728
0.157502515966
-0.0289872746115
0.166874288151
-0.0274938560976
0.175720042274
-0.0259634486179
0.184031379575
-0.024407348849
0.191803536456
-0.0228361226643
0.199035091831
-0.0212595225109
0.205727661253
-0.0196864328632
0.211885579884
-0.0181248441342
0.217515589618
-0.0165818476629
0.222626529281
-0.015063651702
0.227229040709
-0.013575610788
0.231335286746
-0.012122268812
0.234958691785
-0.0107074086234
0.238113698548
-0.00933410929483
0.240815550082
-0.00800480461466
0.243080088978
-0.00672134482732
0.244923581564
-0.00548505591701
0.246362557827
-0.00429679915735
0.24741367388
-0.00315702555606
0.248093587392
-0.00206582771888
0.248418856242
-0.0010229813164
0.248405913446
-2.79824669815e-05
0.248070877461
0.00091989479984
0.247429541091
0.00182143515732
0.246497381929
0.00267769483132
0.24528947009
0.00348984234506
0.243820433431
0.00425912897877
0.242104435489
0.00498687569668
0.240155162648
0.00567445741799
0.237985811886
0.00632328568032
0.235609086735
0.00693479514879
0.233037193111
0.00751043018823
0.230281842338
0.00805163531823
0.227354253125
0.0085598454942
0.224265159646
0.00903647987454
0.221024817768
0.00948293502452
0.217643016468
0.00990058118298
0.214129086791
0.0102907576888
0.210491915265
0.0106547710871
0.206739954451
0.0109938921786
0.202881237397
0.011309355451
0.198923388952
0.0116023572892
0.19487364058
0.0118740563236
0.190738841883
0.0121255724469
0.186525475296
0.0123579877681
0.182239667467
0.0125723461671
0.177887203529
0.0127696546192
0.173473538105
0.0129508830894
0.169003808996
0.0131169660543
0.164482847688
0.0132688025921
0.159915192365
0.0134072579777
0.155305097877
0.0135331638669
0.150656548056
0.0136473198786
0.145973265144
0.0137504938039
0.141258721436
0.0138434231178
0.136516148203
0.0139268151696
0.131748546707
0.0140013485878
0.126958696674
0.0140676734265
0.122149166745
0.0141264124416
0.117322322562
0.0141781611827
0.112480336714
0.0142234891317
0.107625196524
0.0142629397358
0.102758713541
0.0142970314078
0.097882531096
0.014326257504
0.092998133417
0.0143510871892
0.0881068530028
0.0143719653656
0.0832098794277
0.014389313408
0.0783082665907
0.01440352905
0.0734029412561
0.0144149869913
0.0684947102334
0.0144240387428
0.063584268691
0.014431013096
0.0586722072963
0.0144362159077
0.0537590203037
0.0144399303891
0.048845112588
0.0144424167565
0.0439308072738
0.0144439122198
0.0390163520318
0.0144446303403
0.0341019246356
0.0144447605955
0.0291876346262
0.0144444677434
0.0242735178503
0.0144438928681
0.0193595155675
0.014443159991
0.0144454307847
0.0144423802252
0.00953114915134
0.0144411313067
0.0046240510085
0.01441693538
0.0136069368086
0.0129136013301
-0.0502297939592
0.0265633955563
-0.0530769423965
0.0401323532653
-0.052772051046
0.053535481261
-0.0521452489038
0.066718051814
-0.0513107527572
0.0796295914732
-0.0502834590459
0.0922231065624
-0.049076053113
0.104455477967
-0.0477028019005
0.116287829539
-0.0461793463772
0.127685784488
-0.0445223014311
0.13861960752
-0.0427488607453
0.149064239564
-0.0408764269866
0.158999239006
-0.0389222755461
0.168408641372
-0.0369032599357
0.177280753858
-0.0348355624997
0.185607897199
-0.0327344935677
0.193386110773
-0.0306143375391
0.200614831627
-0.0284882446519
0.207296560933
-0.0263681633804
0.213436525429
-0.0242648098299
0.219042344155
-0.0221876675133
0.224123704665
-0.0201450133277
0.228692055928
-0.0181439630934
0.232760319099
-0.0161905330193
0.23634262087
-0.0142897113572
0.239454048301
-0.0124455376847
0.242110428044
-0.0106611852457
0.244328127308
-0.00893904497769
0.246123878321
-0.007280807745
0.247514622735
-0.0056875443875
0.248517377299
-0.00415978086687
0.249149117752
-0.00269756891937
0.249426682403
-0.00130054664526
0.249366734682
3.19645946352e-05
0.248985585609
0.00130104329764
0.248299174976
0.00250784521164
0.247323078669
0.00365379062251
0.246072452303
0.00474046819075
0.244561994023
0.00576958679761
0.242805921694
0.0067429475594
0.240817959282
0.007662419422
0.238611327687
0.00852991686024
0.236198741284
0.0093473811936
0.233592407036
0.0101167640713
0.230804027909
0.0108400141356
0.227844807719
0.0115190653677
0.224725459257
0.0121558280723
0.221456212977
0.0127521810331
0.218046828138
0.0133099658025
0.214506603874
0.0138309817251
0.210844392109
0.0143169826745
0.207068609936
0.0147696741666
0.20318725338
0.0151907118688
0.19920791033
0.0155817001945
0.195137774527
0.0159441920259
0.190983658523
0.0162796883435
0.186752007474
0.016589638753
0.182448911789
0.0168754417815
0.178080120468
0.01713844591
0.173651053248
0.0173799502724
0.169166813336
0.0176012059674
0.164632198953
0.017803416971
0.160051715395
0.017987741567
0.155429585949
0.0181552933387
0.15076976328
0.0183071426066
0.146075939729
0.0184443174097
0.141351558056
0.0185678048769
0.136599821168
0.0186785521389
0.131823702278
0.0187774675888
0.12702595412
0.0188654216918
0.122209118587
0.0189432481094
0.117375535511
0.0190117443909
0.112527351849
0.0190716729519
0.107666530096
0.0191237616441
0.102794857095
0.0191687045878
0.0979139521516
0.0192071626251
0.0930252755271
0.0192397640125
0.0881301363229
0.0192671047666
0.0832297007195
0.0192897492269
0.0783249996787
0.0193082303042
0.0734169369765
0.0193230499224
0.0685062967686
0.0193346791772
0.063593751442
0.019343558662
0.0586798690524
0.0193500985349
0.0537651209617
0.0193546787292
0.048849889039
0.0193576489301
0.0439344728366
0.0193593286865
0.0390190960294
0.0193600074166
0.0341039121261
0.0193599447821
0.0291890084488
0.0193593717101
0.0242744081278
0.0193584934641
0.019360071616
0.0193574967753
0.0144459123272
0.0193565398251
0.00953209510928
0.0193549488294
0.00462666328165
0.0193223675413
0.0182336002832
0.0131210165481
-0.0633508125033
0.0269842966812
-0.0669402245824
0.0407626135463
-0.0665503699387
0.0543676428907
-0.0657502802183
0.0677420294751
-0.064685141268
0.0808330602887
-0.0633744917373
0.0935919306179
-0.0618349252692
0.105974135097
-0.06008500816
0.117939822279
-0.0581450352849
0.129454032736
-0.0560365135672
0.14048681522
-0.0537816448542
0.151013228083
-0.051402841427
0.161013239725
-0.048922288712
0.170471543584
-0.0463615652732
0.179377305183
-0.0437413255242
0.187723857547
-0.0410810473128
0.195508361363
-0.0383988426856
0.202731443577
-0.0357113281543
0.209396827326
-0.0330335483676
0.215510962894
-0.0303789465977
0.221082668551
-0.0277593743209
0.226122786909
-0.0251851328003
0.230643862031
-0.0226650392828
0.234659839659
-0.0202065116801
0.238185792999
-0.0178156656855
0.241237674125
-0.0154974197646
0.243832091566
-0.0132556035984
0.24598611272
-0.0110930670112
0.247717090589
-0.00901178645235
0.249042512748
-0.00701296735514
0.249979871723
-0.00509714060928
0.250546554871
-0.00326425280689
0.250759751652
-0.00151374412219
0.250636380846
0.000155334758503
0.250192999499
0.00174442406414
0.249445774963
0.00325506919052
0.248410444791
0.00468912027283
0.247102287333
0.00604862514962
0.245536093939
0.00733577972458
0.243726150671
0.00855289038144
0.241686227505
0.00970234217393
0.239429572578
0.0107865713934
0.236968911068
0.0118080423401
0.234316447284
0.0127692275101
0.231483869944
0.01367259116
0.228482359474
0.0145205755396
0.225322597486
0.0153155897907
0.222014777416
0.0160600008499
0.218568616592
0.0167561264012
0.214993368832
0.0174062292749
0.211297837933
0.0180125133905
0.207490391231
0.0185771206996
0.203578973684
0.0191021292727
0.19957112172
0.019589552029
0.195473977321
0.0200413363198
0.191294301704
0.0204593638683
0.187038489062
0.0208454513259
0.182712579777
0.0212013510095
0.178322273598
0.0215287520545
0.173872942229
0.0218292816173
0.169369641835
0.0221045063592
0.164817124934
0.0223559338796
0.160219852191
0.0225850143372
0.155582003615
0.0227931419519
0.150907489649
0.0229816566295
0.1461999617
0.0231518454233
0.141462822586
0.0233049440742
0.136699236452
0.0234421383643
0.131912138631
0.0235645655186
0.127104245028
0.0236733154111
0.12227806147
0.0237694318008
0.117435892629
0.0238539133725
0.11257985094
0.023927714797
0.107711865144
0.0239917476034
0.102833688843
0.0240468810662
0.0979469087367
0.0240939429165
0.0930529528806
0.024133720066
0.0881530986806
0.0241669591704
0.0832484809204
0.0241943672018
0.0783400995581
0.0242166118863
0.0734288275689
0.02423432214
0.0685154185905
0.0242480883879
0.063600514601
0.0242584628908
0.0586846534138
0.0242659599648
0.0537682761713
0.0242710562216
0.0488517346168
0.02427419074
0.0439352982554
0.0242757653128
0.0390191611776
0.0242761447693
0.034103448606
0.024275657636
0.0291882231823
0.0242745974189
0.0242734918556
0.0242732250901
0.0193592161985
0.0242717727113
0.0144453392378
0.0242704170429
0.00953206015506
0.0242682282507
0.00462740518654
0.0242270228814
0.0228610056357
0.0133834905261
-0.0767343050496
0.027520854504
-0.0810775907044
0.0415671379245
-0.0805966554001
0.0554298667646
-0.079613011069
0.0690485381803
-0.0783038146353
0.0823677043932
-0.0766936598579
0.0953363027086
-0.0748035254386
0.107908088636
-0.0726567958936
0.12004199883
-0.0702789472314
0.131702374348
-0.0676968907881
0.142859044107
-0.0649383162613
0.153487280101
-0.0620310790211
0.163567641778
-0.059002651933
0.173085729394
-0.0558796543882
0.182031867282
-0.0526874648561
0.190400736892
-0.0494499183221
0.198190978189
-0.04618908533
0.205404775249
-0.0429251265189
0.212047439733
-0.0396762141046
0.218127002819
-0.0364585108975
0.223653824104
-0.0332861967712
0.228640223202
-0.0301715330242
0.233100138272
-0.0271249554324
0.237048813561
-0.0241551880121
0.240502517165
-0.0212693702884
0.243478288704
-0.0184731922671
0.245993716285
-0.0157710321007
0.24806674112
-0.0131660927339
0.249715488243
-0.0106605344214
0.250958121152
-0.00825560107919
0.251812718512
-0.00595173874498
0.252297170661
-0.0037487056998
0.25242909155
-0.00164566571084
0.252225730759
0.000358694913645
0.251703952746
0.00226620150321
0.250880174842
0.00407884654832
0.249770330506
0.00579896409371
0.248389847585
0.00742910758039
0.246753628947
0.00897199790254
0.244876040137
0.010430478755
0.242770903125
0.0118074787783
0.240451494706
0.0131059794276
0.237930548871
0.0143289878169
0.235220262214
0.0154795138309
0.232332301941
0.0165605511228
0.229277815776
0.0175750614145
0.226067443511
0.0185259617912
0.22271132963
0.0194161144857
0.219219136896
0.0202483189146
0.215600060431
0.021025305538
0.211862842271
0.021749731371
0.20801578602
0.0224241767892
0.204066771639
0.0230511435139
0.200023270065
0.0236330534817
0.195892357762
0.0241722485204
0.191680730927
0.0246709906186
0.187394719481
0.0251314627055
0.18304030065
0.0255557697902
0.178623112242
0.0259459404312
0.174148465469
0.0263039283729
0.169621357454
0.0266316143738
0.165046483266
0.0269308080813
0.16042824764
0.0272032499932
0.155770776251
0.0274506133841
0.151077926691
0.0276745062479
0.146353299034
0.0278764731514
0.141600246133
0.0280579970597
0.136821883554
0.0282205010398
0.132021099275
0.0283653499089
0.127200563061
0.0284938517465
0.12236273566
0.0286072593366
0.117509877709
0.0287067714688
0.112644058497
0.0287935341663
0.107767164492
0.0288686417769
0.102880907751
0.0289331379869
0.0979868341358
0.0289880167202
0.093086331448
0.029034222953
0.0881806373995
0.0290726534265
0.0832708475232
0.0291041572945
0.0783579229612
0.0291295366716
0.0734426982009
0.0291495471306
0.0685258887092
0.0291648981152
0.0636080985269
0.0291762533143
0.0586898277652
0.0291842309723
0.0537714800541
0.0291894041844
0.0488533698824
0.0291923011701
0.0439357298691
0.0291934055935
0.0390187179405
0.0291931569739
0.0341024245489
0.029191951315
0.0291868801972
0.0291901420669
0.0242720640503
0.0291880415127
0.0193579155084
0.0291859215306
0.0144443574762
0.0291839753991
0.00953154550372
0.0291810405285
0.00462739700476
0.0291311717132
0.0274884028394
0.0137055539353
-0.0904398610506
0.0281803457873
-0.0955523846699
0.0425562929274
-0.0949726046398
0.056735549111
-0.093792269286
0.0706536816354
-0.0922219491524
0.0842518810356
-0.0902918611953
0.0974763260556
-0.0880279723473
0.110278668131
-0.0854591398028
0.122616408575
-0.0826166894592
0.134453103468
-0.0795335874087
0.145758403031
-0.0762436175017
0.156507943935
-0.0727806215458
0.166683118166
-0.069177827736
0.176270744388
-0.0654672821266
0.185262667722
-0.0616793896585
0.193655312235
-0.0578425642503
0.201449207667
-0.0539829821303
0.208648508592
-0.0501244287621
0.215260520671
-0.0462882274572
0.221295245207
-0.0424932366583
0.226764950115
-0.0387559028614
0.231683772642
-0.0350903566863
0.236067356971
-0.0315085408568
0.239932527972
-0.0280203600648
0.24329700099
-0.0246338443189
0.24617912653
-0.0213553187768
0.248597667999
-0.0181895745028
0.2505716102
-0.0151400358276
0.252119996037
-0.0122089211155
0.2532617888
-0.00939739466082
0.254015757407
-0.00670570813736
0.254400381927
-0.00413333096739
0.254433774179
-0.00167905866338
0.254133565278
0.000658903187297
0.253516983911
0.00288278230358
0.25260072716
0.00499510276305
0.251400948049
0.00699874269688
0.249933242461
0.00889681268888
0.248212637025
0.0106926028853
0.246253583284
0.0123895320694
0.24406995699
0.013991104671
0.241675061453
0.0155008745881
0.239081634216
0.0169224147029
0.236301856321
0.0182592913977
0.23334736366
0.01951504348
0.230229259848
0.0206931649455
0.226958130293
0.0217970910872
0.22354405706
0.0228301874818
0.219996634301
0.0237957414575
0.216324983981
0.0246969556632
0.212537771746
0.0255369434325
0.208643222742
0.0263187256385
0.204649137315
0.0270452288062
0.200562906434
0.0277192842474
0.196391526824
0.0283436280334
0.192141615707
0.0289209016559
0.187819425155
0.0294536531962
0.183430855983
0.0299443389179
0.178981471221
0.0303953251648
0.174476509115
0.0308088904676
0.169920895689
0.0311872278036
0.165319256861
0.0315324469278
0.160675930144
0.0318465767442
0.155994975919
0.0321315676571
0.151280188342
0.0323892938861
0.146535105867
0.0326215557018
0.141763021436
0.0328300815789
0.136966992343
0.0330165302338
0.132149849812
0.0331824925535
0.127314208292
0.0333294933915
0.122462474521
0.0334589932452
0.117596856351
0.0335723897881
0.112719371381
0.0336710192973
0.107831855403
0.0337561579264
0.102935970693
0.0338290228783
0.098033214158
0.0338907734476
0.0931249253532
0.0339425119597
0.0882122943923
0.0339852845981
0.0832963697653
0.0340200821405
0.0783780660647
0.0340478405983
0.0734581716475
0.0340694417806
0.0685373562232
0.0340857137778
0.0636161783924
0.0340974313886
0.058695093124
0.0341053164891
0.0537744591901
0.0341100383724
0.0488545465539
0.0341122140671
0.0439355437417
0.0341124086751
0.0390175652396
0.0341111357564
0.034100659038
0.034108857803
0.0291848145649
0.0341059868287
0.0242699714568
0.034102884928
0.0193560299133
0.0340998633588
0.0144428693833
0.0340971361832
0.00953058478768
0.0340933254704
0.00462700154139
0.0340347553391
0.0321154045471
0.014091937329
-0.104531800476
0.0289717979066
-0.110432247478
0.0437432247139
-0.109744033564
0.0583016310967
-0.108350677757
0.0725777210652
-0.106498041145
0.0865085876371
-0.104222729745
0.100037092014
-0.101556478646
0.113112400179
-0.0985344498383
0.125690371371
-0.0951946624642
0.137733733535
-0.0915769513338
0.149212060511
-0.0877219461803
0.160101578382
-0.0836701410681
0.170384833609
-0.0794610845567
0.180050256903
-0.0751327069638
0.189091655668
-0.0707207899106
0.197507664564
-0.0662585745853
0.205301179566
-0.0617764985176
0.212478795991
-0.0573020465258
0.219050266325
-0.0528596990784
0.225027989164
-0.0484709607398
0.230426536828
-0.0441544517193
0.235262225946
-0.039926046956
0.239552732789
-0.0357990488054
0.24331675317
-0.0317843815111
0.246573705374
-0.0278907975433
0.249343473559
-0.024125087944
0.251646188579
-0.0204922904627
0.253502042782
-0.0169958909327
0.25493113536
-0.0136380145562
0.255953344851
-0.0104196049796
0.256588225717
-0.00734058979288
0.256854925825
-0.00440003182966
0.256772121137
-0.00159625467198
0.256357863949
0.00107315975684
0.255629794228
0.00361085146786
0.254604912856
0.0060199836066
0.253299609508
0.00830404554791
0.251729659473
0.010466762252
0.249910218988
0.0125120429272
0.247855826517
0.0144439241217
0.245580408449
0.0162665223467
0.243097288126
0.0179839945422
0.240419197528
0.0196005049579
0.237558290955
0.0211201976507
0.234526160217
0.0225471739227
0.231333850865
0.0238854740224
0.227991879148
0.025139062553
0.224510249358
0.0263118170415
0.220898471377
0.0274075192297
0.217165578199
0.0284298486528
0.2133201433
0.0293823781645
0.209370297719
0.030268571071
0.205323746785
0.0310917796116
0.201187786395
0.0318552445281
0.196969318809
0.032562095528
0.192674867947
0.0332153524439
0.188310594137
0.0338179269499
0.18388230833
0.0343726246855
0.179395485783
0.0348821476893
0.174855279209
0.035349097034
0.170266531427
0.0357759755948
0.165633787504
0.0361651908736
0.16096130645
0.0365190578364
0.15625307245
0.0368398017087
0.151512805699
0.0371295607034
0.146743972833
0.0373903886465
0.141949797019
0.0376242574855
0.137133267697
0.0378330596599
0.132297150037
0.0380186103309
0.127443994109
0.0381826494483
0.122576143812
0.0383268436841
0.117695745568
0.038452788184
0.112804756841
0.0385620081879
0.107904954453
0.0386559604897
0.102997942756
0.03873603476
0.0980851616714
0.0388035547274
0.093167894601
0.0388597792349
0.0882472762408
0.0389059031718
0.0833243003066
0.0389430582963
0.0783998271808
0.038972313953
0.0734745914983
0.0389946776985
0.0685492096744
0.0390110958426
0.0636241873902
0.0390224539188
0.0586999270363
0.0390295770939
0.0537767351348
0.0390332305304
0.0488548297409
0.0390341197243
0.0439343478662
0.0390328908218
0.0390153529589
0.0390301309441
0.0340978425375
0.0390263685168
0.0291817561035
0.0390220735649
0.0242669834895
0.0390176578186
0.0193533740084
0.0390134731211
0.0144407522206
0.0390097583071
0.00952914897912
0.0390049290175
0.00462631394241
0.0389375907078
0.0367417186947
0.0145482050239
-0.119080007656
0.0299063238694
-0.125790368521
0.045144256588
-0.124981968475
0.0601491377499
-0.123355561037
0.0748457316759
-0.121194637148
0.0891661914085
-0.118543191494
0.10304944202
-0.115439731222
0.116441769619
-0.111926779344
0.129297212079
-0.108050106775
0.141577685956
-0.103857427003
0.153252874471
-0.0993971364326
0.164299916265
-0.0947171845392
0.174702939532
-0.0898641094482
0.184452486298
-0.0848822552952
0.193544868289
-0.0798131734155
0.201981490528
-0.0746951982817
0.209768172225
-0.069563181623
0.216914487901
-0.0644483635564
0.22343314528
-0.0593783577646
0.229339410967
-0.0543772276823
0.234650590211
-0.0494656321756
0.23938556342
-0.044661021327
0.243564379218
-0.0399778657246
0.247207901964
-0.0354279053305
0.250337510188
-0.0310204068017
0.252974841758
-0.0267624205034
0.255141581068
-0.0226590307236
0.256859283586
-0.018713594359
0.258149233153
-0.014927964995
0.259032327843
-0.0113027005019
0.259528990901
-0.00783725364771
0.259659103119
-0.0045301448044
0.25944196389
-0.00137911613677
0.258896081222
0.00161904182044
0.258039535693
0.0044673964489
0.256889645929
0.00716987285451
0.255463048058
0.00973064292944
0.253775700769
0.01215410908
0.251842888708
0.0144448545531
0.249679231842
0.0166075805796
0.247298698367
0.0186470554372
0.244714620163
0.0205680723874
0.241939710112
0.0223754146737
0.238986080724
0.0240738267284
0.235865263601
0.0256679907564
0.232588229387
0.0271625079702
0.229165407891
0.0285618838045
0.225606708166
0.0298705165446
0.221921538354
0.0310926888404
0.218118825159
0.0322325616672
0.214207032838
0.0332941703236
0.210194181639
0.0342814221295
0.206087865614
0.0351980955133
0.201895269805
0.0360478402337
0.197623186746
0.0368341785017
0.193278032305
0.0375605068168
0.188865860862
0.0382300983426
0.184392379826
0.0388461056877
0.179862963531
0.0394115639666
0.175282666518
0.0399293940449
0.170656236244
0.0404024058814
0.165988125245
0.0408333019016
0.16128250278
0.0412246803436
0.15654326601
0.0415790385346
0.151774050725
0.0418987760592
0.146978241659
0.0421861977949
0.142158982448
0.0424435167925
0.137319185228
0.0426728569896
0.132461539934
0.0428762557449
0.127588523324
0.0430556661911
0.122702407749
0.0432129594035
0.117805269704
0.0433499263859
0.11289899818
0.0434682798788
0.107985302854
0.0435696559937
0.103065722119
0.0436556156832
0.0981416309908
0.0437276460536
0.0932142489034
0.0437871615299
0.0882846474081
0.0438355048835
0.0833537577961
0.0438739481328
0.0784223786534
0.0439036933274
0.0734911833622
0.0439258732277
0.0685607275584
0.0439415518899
0.0636314565561
0.0439517251697
0.0587037127475
0.0439573211559
0.0537777429908
0.0439592005461
0.0488537060044
0.0439581569764
0.0439316797844
0.0439549173158
0.0390116690865
0.0439501419275
0.0340936130087
0.0439444248852
0.0291773927469
0.0439382941186
0.0242628395518
0.0439322113288
0.0193497429243
0.0439265700384
0.014437865069
0.0439216364133
0.00952717060189
0.0439156238383
0.00462533850504
0.0438394231919
0.0413670573664
0.0150810779589
-0.134161087811
0.0309975114946
-0.141706804399
0.0467794008923
-0.140763860088
0.0623038212847
-0.138879983616
0.0774883490539
-0.136379167034
0.0922592350662
-0.133314079573
0.10655078791
-0.129731286071
0.120306014811
-0.125682008194
0.133476998874
-0.121221092726
0.14602494797
-0.116405377929
0.157919954714
-0.111292144945
0.16914052422
-0.105937755757
0.179672930579
-0.100396517457
0.189510460753
-0.0947197870652
0.198652598278
-0.0889553124762
0.207104190428
-0.0831467919162
0.214874633085
-0.0773336257058
0.221977098204
-0.0715508300519
0.228427820616
-0.0658290814985
0.234245453834
-0.0601948621756
0.239450499117
-0.0546706786826
0.244064807808
-0.049275331197
0.248111154109
-0.0440242131559
0.251612873471
-0.0389296257806
0.254593560723
-0.0340010950946
0.257076821485
-0.0292456822674
0.25908607042
-0.0246682806153
0.260644369984
-0.0202718948416
0.261774303855
-0.0160578997421
0.262497879588
-0.0120262770763
0.262836456483
-0.00817583134257
0.262810691387
-0.0045043804713
0.262440562179
-0.00100898761133
0.261745082613
0.00231452079586
0.26074275779
0.00546972073564
0.259451228389
0.00846140174807
0.257887380863
0.0112944899789
0.256067353412
0.0139741360791
0.25400655013
0.016505657411
0.251719659909
0.0188944704009
0.249220677527
0.0211460374453
0.246522926253
0.0232658233115
0.243639081398
0.0252592592027
0.240581194337
0.0271317134868
0.237360716629
0.0288884681851
0.233988523962
0.030534700378
0.230474939706
0.0320754678258
0.226829757882
0.0335156981532
0.223062265472
0.0348601810565
0.219181263936
0.0361135630287
0.215195089914
0.037280344192
0.211111635058
0.0383648768515
0.206938364993
0.0393713654627
0.202682337407
0.0403038677219
0.198350219276
0.0411662965535
0.193948303252
0.0419624227792
0.189482523245
0.0426958783048
0.184958469235
0.0433701596694
0.180381401347
0.0439886318421