/*--------------------------------*- C++ -*----------------------------------*\
| =========                 |                                                 |
| \\      /  F ield         | OpenFOAM: The Open Source CFD Toolbox           |
|  \\    /   O peration     | Version:  v1906                                 |
|   \\  /    A nd           | Web:      www.OpenFOAM.com                      |
|    \\/     M anipulation  |                                                 |
\*---------------------------------------------------------------------------*/
FoamFile
{
    version     2.0;
    format      ascii;
    class       surfaceScalarField;
    location    "384";
    object      phi;
}
// * * * * * * * * * * * * * * * * * * * * * * * * * * * * * * * * * * * * * //

dimensions      [0 3 -1 0 0 0 0];
oriented        oriented;


internalField   nonuniform List<scalar> 
18240
(
-0.000352556802366
0.000352569487624
-0.000738589959952
0.0003860486493
-0.00112428314177
0.000385705932144
-0.0015050186381
0.000380751582922
-0.00187872524175
0.000373718625646
-0.00224366382127
0.000364955185899
-0.00259831963183
0.000354667115753
-0.00294133673323
0.000343034187971
-0.00327155392552
0.000330227760042
-0.00358795975352
0.000316423339035
-0.00388973811576
0.000301788147563
-0.00417620978302
0.000286489543193
-0.00444688040729
0.000270679602613
-0.00470136841411
0.000254506182806
-0.00493945734087
0.000238097059145
-0.00516101321153
0.000221574277215
-0.00536604387459
0.000205037934572
-0.00555460874256
0.000188583428918
-0.00572688689336
0.000172284529923
-0.00588308114237
0.000156212885966
-0.00602349563485
0.0001404199768
-0.00614843531439
0.000124958311404
-0.00625829275618
0.000109862012268
-0.00635344345556
9.51692476684e-05
-0.00643434112425
8.09013392775e-05
-0.00650140888779
6.70861509959e-05
-0.00655514191591
5.37357947855e-05
-0.0065959945551
4.08707946681e-05
-0.00662448922253
2.84965602843e-05
-0.00664109970165
1.6628334814e-05
-0.00664636568704
5.26701385319e-06
-0.00664077092013
-5.57727204288e-06
-0.00662485983208
-1.5910881374e-05
-0.00659911555832
-2.5727199006e-05
-0.00656408255622
-3.50335981553e-05
-0.00652023935554
-4.38265977488e-05
-0.00646812282515
-5.21178772821e-05
-0.00640819936322
-5.9907378837e-05
-0.00634099144941
-6.72099844421e-05
-0.00626694743949
-7.40284871095e-05
-0.00618656972833
-8.03804472575e-05
-0.00610028376226
-8.62710406758e-05
-0.00600856719155
-9.17199402088e-05
-0.00591181872958
-9.67341640953e-05
-0.00581048777357
-0.000101334897479
-0.00570494369539
-0.000105530435144
-0.00559560533375
-0.000109342840396
-0.00548281126479
-0.000112781101738
-0.00536694865275
-0.00011586756588
-0.00524832499223
-0.000118611388039
-0.0051272957317
-0.000121034653872
-0.00500413794242
-0.000123146225169
-0.00487917621454
-0.000124967499622
-0.00475265865656
-0.000126506714947
-0.00462488050006
-0.000127784271464
-0.0044960628082
-0.000128807578723
-0.0043664733145
-0.000129595893351
-0.00423630818461
-0.000130155756038
-0.00410580956521
-0.000130505269991
-0.0039751507407
-0.000130650197094
-0.00384454996503
-0.000130607622581
-0.0037141593451
-0.000130382748214
-0.00358417449627
-0.000129991860865
-0.00345472750445
-0.000129439884457
-0.00332599204575
-0.000128742586736
-0.00319808078488
-0.000127904929689
-0.00307114557648
-0.000126942424939
-0.00294527968274
-0.00012586035063
-0.0028206127627
-0.000124674182213
-0.00269721829163
-0.00012338973017
-0.00257520301879
-0.000122022555428
-0.00245461998069
-0.000120579110818
-0.00233555217605
-0.000119075066174
-0.00221803154443
-0.000117517525813
-0.00210211657591
-0.000115922176008
-0.00198781761573
-0.000114296673329
-0.00187516817517
-0.000112656540138
-0.00176415688663
-0.000111009806456
-0.00165479225299
-0.000109371570193
-0.0015470415586
-0.000107749987671
-0.00144088883483
-0.000106159422392
-0.00133628100359
-0.000104607861342
-0.00123317883259
-0.000103108562773
-0.0011315106071
-0.000101668961821
-0.0010312159558
-0.000100300692927
-0.000932207474025
-9.90099413951e-05
-0.000834407687371
-9.78055012581e-05
-0.000737719939281
-9.66899934479e-05
-0.000642061116876
-9.56642592674e-05
-0.000547348847368
-9.47152338239e-05
-0.000453548729732
-9.38051448228e-05
-0.000360726564479
-9.28256196485e-05
-0.00026925135632
-9.14793529282e-05
-0.000180527697875
-8.8727483851e-05
-9.89215472803e-05
-8.16115515176e-05
-9.89245125904e-05
-0.000389694347839
0.000742277799662
-0.00082476756003
0.000821137441974
-0.00125737602403
0.000818329070484
-0.00168368742711
0.000807078591661
-0.00210178003849
0.000791825681043
-0.00250987340387
0.000773064194939
-0.00290631507561
0.000751122973353
-0.00328961203196
0.00072634680953
-0.00365846564125
0.000699095248503
-0.00401176161828
0.000669734954615
-0.0043485875409
0.000638627598385
-0.00466820644204
0.00060612400352
-0.00497006806709
0.000572554353845
-0.00525377255752
0.000538226097438
-0.00551908021475
0.000503417398433
-0.00576586955954
0.000468378854158
-0.00599414915865
0.000433329720925
-0.00620401324558
0.000398462495834
-0.00639565790847
0.000363940844961
-0.00656933619947
0.0003299058458
-0.00672537970324
0.000296474551389
-0.00686415393654
0.000263746844212
-0.00698608530606
0.000231803839348
-0.00709161683196
0.000200714650846
-0.00718123988894
0.000170534205355
-0.0072554498849
0.000141309553037
-0.00731478190721
0.00011307695876
-0.00735976588896
8.5867669803e-05
-0.00739096524832
5.9704372481e-05
-0.00740893102743
3.46064578319e-05
-0.00741424213671
1.05858812549e-05
-0.00740746006212
-1.23475817623e-05
-0.00738917328944
-3.41906007342e-05
-0.00735994756467
-5.49417647559e-05
-0.00732036888247
-7.4605927331e-05
-0.00727099564575
-9.31893004296e-05
-0.00721240403856
-0.000110703830997
-0.00714513886173
-0.000127162661902
-0.00706975962782
-0.000142584250207
-0.00698679101459
-0.000156987855863
-0.00689676966216
-0.000170397507431
-0.00680019455984
-0.000182837553759
-0.00669757437762
-0.000194336484757
-0.00658937805138
-0.00020492255699
-0.00647608247145
-0.000214627478394
-0.00635812349122
-0.000223482136299
-0.00623594376911
-0.000231520175877
-0.00610994439704
-0.000238773843006
-0.0059805326888
-0.00024527747933
-0.00584807458452
-0.000251063502384
-0.00571294215349
-0.000256165852696
-0.00557546690439
-0.000260616114476
-0.00543598677215
-0.000264446938998
-0.00529480042975
-0.00026768831664
-0.00515221351038
-0.000270371007077
-0.00500849400129
-0.000272522953067
-0.0048639174645
-0.000274172731493
-0.00471872357604
-0.000275346103415
-0.00457316010505
-0.000276069498318
-0.00442744066778
-0.000276366673984
-0.00428178725523
-0.000276262225745
-0.00413638927879
-0.000275778334082
-0.00399144445171
-0.000274938285981
-0.00384711923124
-0.000273763273987
-0.00370358790352
-0.000272275900532
-0.00356099454993
-0.000270497004739
-0.00341949020672
-0.00026844912145
-0.00327919651447
-0.000266153310812
-0.00314024086413
-0.000263632537643
-0.00300272190416
-0.000260908500627
-0.00286674259423
-0.000258004904774
-0.00273237775842
-0.00025494429423
-0.00259970499015
-0.000251751190819
-0.00246877443468
-0.000248448956569
-0.00233963748066
-0.000245062778062
-0.0022123189475
-0.000241616590475
-0.00208684350526
-0.000238135887306
-0.0019632104217
-0.00023464475139
-0.00184141763462
-0.000231168470532
-0.00172143919649
-0.000227730718567
-0.00160324692661
-0.000224355952324
-0.00148679067259
-0.000221066783652
-0.00137201746109
-0.000217886118545
-0.00125885469098
-0.000214834731013
-0.00114722672346
-0.000211933057844
-0.00103704111334
-0.00020919889072
-0.000928202548861
-0.000206648554736
-0.000820602004934
-0.000204294268899
-0.000714127125666
-0.000202143771948
-0.000608650852136
-0.000200195642426
-0.00050402577163
-0.000198434664673
-0.000400032171993
-0.000196823318954
-0.000296223545352
-0.00019529250316
-0.000191229010477
-0.000193726385907
-8.13484859796e-05
-0.000191496533335
-0.00018027543592
-0.000396651054838
0.00113894306127
-0.000837365144473
0.00126186672376
-0.00127622681402
0.00125720592195
-0.00170872128474
0.00123958836892
-0.00213272195428
0.00121584137812
-0.00254636203252
0.00118671952996
-0.00294794149578
0.00115271730708
-0.00333594335233
0.0011143638308
-0.00370905172072
0.00107221830089
-0.00406615263485
0.00102685089201
-0.00440633643517
0.000978825845897
-0.00472888469092
0.000928687089969
-0.00503326348896
0.00087694731611
-0.00531910258291
0.00082407977598
-0.00558618494681
0.000770513588471
-0.00583442294693
0.000716631138554
-0.00606384819564
0.000662768409439
-0.00627458807953
0.000609216307119
-0.00646685837718
0.000556224139588
-0.00664094194002
0.00050400292504
-0.00679718510301
0.000452730223643
-0.00693597904887
0.00040255384285
-0.00705775997098
0.000353596732942
-0.00716299284158
0.000305960064699
-0.00725217470603
0.000259727469296
-0.00732582018772
0.000214967026651
-0.00738446706609
0.000171734626753
-0.00742866279812
0.000130074809442
-0.00745897160192
9.00233355571e-05
-0.00747596141176
5.16070621771e-05
-0.00748021195199
1.4845925277e-05
-0.00747230180625
-2.02475668945e-05
-0.00745281704603
-5.36665217805e-05
-0.00742233819705
-8.54111055834e-05
-0.00738144917612
-0.000115486788121
-0.00733072417246
-0.000143905457836
-0.00727073694554
-0.000170683574265
-0.00720204779477
-0.000195843635122
-0.00712521315476
-0.000219412087049
-0.0070407726912
-0.000241420810292
-0.00694925922144
-0.000261904843014
-0.00685118605341
-0.000280903879163
-0.00674705723202
-0.00029845983695
-0.00663735521958
-0.000314618385172
-0.00652255146611
-0.000329426409313
-0.00640309449258
-0.000342933575072
-0.00627942073938
-0.000355189742943
-0.0061519430913
-0.000366246591692
-0.00602106195565
-0.00037615504201
-0.00588715423187
-0.000384966948225
-0.00575058452893
-0.000392732581302
-0.0056116945648
-0.000399502404024
-0.00547081443356
-0.000405324668509
-0.00532825239014
-0.000410247272056
-0.00518430604369
-0.000414315507663
-0.00503925247519
-0.000417574000427
-0.0048933592447
-0.000420064645542
-0.00474687477559
-0.000421828600981
-0.00460003904705
-0.000422904423133
-0.00445307419235
-0.000423330087887
-0.00430619477943
-0.000423141323189
-0.00415959858208
-0.000422373606118
-0.00401347635839
-0.000421060668057
-0.00386800279024
-0.000419236416711
-0.00372334571765
-0.000416933585214
-0.00357965726849
-0.000414185517155
-0.00343708252358
-0.000411024921787
-0.00329575089815
-0.00040748547717
-0.00315578425524
-0.000403600664056
-0.0030172886185
-0.000399405148274
-0.00288036175552
-0.000394933671009
-0.00274508532202
-0.000390222198288
-0.00261153195729
-0.000385306862055
-0.00247975795567
-0.000380224875242
-0.00234980990071
-0.000375013524838
-0.00222171795799
-0.000369710872932
-0.00209550207549
-0.000364354813471
-0.00197116597142
-0.00035898358287
-0.00184870290235
-0.000353634891724
-0.00172809040768
-0.000348346277328
-0.00160929564037
-0.000343154320007
-0.00149227090543
-0.000338094859483
-0.00137695852211
-0.000333202290981
-0.00126328717107
-0.00032850965113
-0.00115117622298
-0.000324047956879
-0.00104053280792
-0.000319846112044
-0.000931255330561
-0.000315930182592
-0.000823230704591
-0.000312323003664
-0.000716335593894
-0.000309043259671
-0.000610430488088
-0.000306105068177
-0.000505351225103
-0.000303518451519
-0.000400884267905
-0.000301294498051
-0.000296719484265
-0.000299461306196
-0.000192391817351
-0.000298058847591
-8.79671419836e-05
-0.000295926197359
-0.000268244820277
-0.000402848935793
0.00154180630612
-0.000849673042442
0.00170870631293
-0.00129462899885
0.00170217716264
-0.00173297494636
0.00167794967756
-0.00216244817515
0.00164532982222
-0.00258109167777
0.00160537827988
-0.00298714755772
0.00155878829325
-0.00337906708302
0.00150629848184
-0.00375552127524
0.00144868744409
-0.00411540210009
0.00138674667858
-0.00445781809542
0.00132125658908
-0.00478208235303
0.00125296609519
-0.00508769824031
0.00118257769383
-0.00537434034203
0.00111073635776
-0.00564183628319
0.00103802371098
-0.00589014602131
0.000964955034024
-0.0061193442699
0.000891980472199
-0.00632960168025
0.000819487495253
-0.00652117040674
0.000747806260181
-0.00669436883199
0.000677214693573
-0.00684957111651
0.000607945426708
-0.00698719569385
0.000540191276769
-0.00710769852386
0.000474111960432
-0.00721156475478
0.000409838619495
-0.00729930483028
0.000347479376462
-0.00737144838416
0.000287122331419
-0.00742854222376
0.000228839699816
-0.00747114555176
0.000172689283033
-0.00749982899207
0.000118717380546
-0.0075151704683
6.69590519059e-05
-0.00751775476373
1.7440177223e-05
-0.00750816945305
-2.98230159052e-05
-0.0074870046302
-7.48220560088e-05
-0.00745484910462
-0.000117557437548
-0.00741229026102
-0.000158037018779
-0.00735991023325
-0.000196276967981
-0.00729828575143
-0.000232300126085
-0.00722798452082
-0.000266137027906
-0.00714956525994
-0.000297824098035
-0.00706357431286
-0.000327404597656
-0.00697054593847
-0.000354926645693
-0.00687099923375
-0.000380444097427
-0.00676543873424
-0.000404014432063
-0.00665435170791
-0.000425699588825
-0.00653820909828
-0.000445563772575
-0.00641746321362
-0.000463674289063
-0.00629254901774
-0.000480099333426
-0.00616388221384
-0.000494908861489
-0.00603186085837
-0.000508172418222
-0.00589686380749
-0.000519960084832
-0.00575925260698
-0.000530340407528
-0.00561937024815
-0.000539381449145
-0.005477543263
-0.000547148866221
-0.00533408071063
-0.000553707091907
-0.00518927639029
-0.000559117604556
-0.0050434079674
-0.000563440251396
-0.00489673920418
-0.00056673173033
-0.0047495191247
-0.000569047049612
-0.0046019841637
-0.000570438228745
-0.00445435728012
-0.000570955862291
-0.00430684993788
-0.000570648015703
-0.00415966109517
-0.000569561844201
-0.00401297895751
-0.000567742643004
-0.00386697980626
-0.000565235452071
-0.00372182949962
-0.000562084202593
-0.00357768213897
-0.000558333237951
-0.00343468132968
-0.000554026501582
-0.00329295872347
-0.000549208908511
-0.00315263508206
-0.000543925526323
-0.0030138187582
-0.000538222753234
-0.00287660662388
-0.000532147465621
-0.00274108257016
-0.000525747978636
-0.0026073183688
-0.00051907315131
-0.00247537227011
-0.000512173131508
-0.0023452898601
-0.000505098430305
-0.00221710282862
-0.00049790046873
-0.00209082987142
-0.000490630643464
-0.00196647568217
-0.000483340706413
-0.00184403192772
-0.000476081851062
-0.00172347649939
-0.000468904957808
-0.00160477456991
-0.000461859727721
-0.00148787811345
-0.000454994824009
-0.0013727270235
-0.00044835707224
-0.00125924887404
-0.000441991515742
-0.00114736002069
-0.000435940688633
-0.00103696546673
-0.000430244596969
-0.000927959674406
-0.000424940084451
-0.00082022604179
-0.000420060831099
-0.000713636557873
-0.000415637124503
-0.000608049461006
-0.000411696631134
-0.000503305642087
-0.000408266530046
-0.000399224611942
-0.000405379756546
-0.000295608416407
-0.000403082185809
-0.000192314588521
-0.000401357172385
-8.99385054921e-05
-0.000398307022161
-0.00035818595033
-0.000410839217427
0.00195265997729
-0.000866142969942
0.00216402535716
-0.00131935335365
0.0021554030563
-0.00176553669461
0.00212414842739
-0.00220229523003
0.00208210374154
-0.00262756666186
0.00203066504581
-0.00303951999794
0.00197075689433
-0.00343656467814
0.0019033583799
-0.00381735755081
0.00182949543698
-0.004180801062
0.00175020524469
-0.00452603378105
0.00166650423558
-0.00485241461108
0.00157936176517
-0.00515950299254
0.0014896807586
-0.00544703650167
0.00139828443679
-0.00571490785769
0.00130590944862
-0.00596314217934
0.0012132035976
-0.00619187586402
0.00112072818005
-0.006401337278
0.00102896276431
-0.00659183002229
0.000938312609335
-0.00676371847323
0.000849116555293
-0.00691741593647
0.00076165602275
-0.00705337484156
0.000676163094981
-0.00717207907813
0.000592828805502
-0.00727403782107
0.000511809730528
-0.00735978084673
0.000433234444332
-0.0074298547306
0.000357207998028
-0.00748481991944
0.000283816326253
-0.00752524819162
0.000213128720048
-0.00755172053482
0.000145200529713
-0.00756482510385
8.00741416949e-05
-0.00756515533246
1.77805552243e-05
-0.00755330777033
-4.1660721462e-05
-0.00752988040234
-9.82399471311e-05
-0.00749547047161
-0.000151958191244
-0.0074506725785
-0.000202826120492
-0.00739607665471
-0.000250864401721
-0.00733226598046
-0.000296102697113
-0.00725981530048
-0.000338579907346
-0.00717928899906
-0.00037834298637
-0.0070912394539
-0.000415447029549
-0.00699620547243
-0.000449953897761
-0.00689471097194
-0.000481932165753
-0.00678726375165
-0.000511455600278
-0.00667435455754
-0.000538603021695
-0.00655645623598
-0.000563456705513
-0.00643402320481
-0.0005861022167
-0.00630749099566
-0.000606626804407
-0.00617727612282
-0.000625119272173
-0.00604377599741
-0.000641668436553
-0.00590736915546
-0.000656363087747
-0.00576841549559
-0.000669290573899
-0.00562725680388
-0.00068053690479
-0.00548421724766
-0.000690185520099
-0.00533960411005
-0.000698317575732
-0.00519370844484
-0.000705010939157
-0.00504680591692
-0.000710340686561
-0.0048991575152
-0.00071437835044
-0.00475101038415
-0.000717192628545
-0.00460259848383
-0.000718848877818
-0.00445414330689
-0.000719410008093
-0.00430585439425
-0.000718936187106
-0.0041579298529
-0.000717485857909
-0.00401055666126
-0.000715115588048
-0.00386391094308
-0.000711881130461
-0.0037181580422
-0.000707837335801
-0.00357345254981
-0.000703039165742
-0.00342993816696
-0.000697541585157
-0.00328774752596
-0.000691400449413
-0.00314700189897
-0.000684672311513
-0.00300781088228
-0.000677415125434
-0.00287027202702
-0.000669687928283
-0.00273447047187
-0.000661551334586
-0.00260047858188
-0.000653067084862
-0.00246835561234
-0.000644298332387
-0.00233814743031
-0.000635309073741
-0.00220988628174
-0.000626164254611
-0.00208359065629
-0.000616929116714
-0.00195926520751
-0.000607669160899
-0.00183690079556
-0.000598449452334
-0.00171647458817
-0.000589334486097
-0.00159795029305
-0.000580387493718
-0.0014812784383
-0.000571670251988
-0.00136639677364
-0.000563242428813
-0.00125323069201
-0.000555161373287
-0.00114169373065
-0.00054748153802
-0.00103168801616
-0.000540254299465
-0.000923104682548
-0.000533527540548
-0.000815824115359
-0.00052734566921
-0.000709715945471
-0.000521749662763
-0.00060463898581
-0.00051677799658
-0.000500441741338
-0.000512468358418
-0.000396965279902
-0.000508860510575
-0.000294056812112
-0.000505994611696
-0.00019163337471
-0.00050378561564
-9.02376263967e-05
-0.000499708058933
-0.000448425881211
-0.00042099917697
0.00237367369563
-0.000887317325846
0.00263035924679
-0.00135119460715
0.00261929588978
-0.00180745636003
0.00258042577653
-0.00225354169675
0.00252820458443
-0.0026872604175
0.00246439924612
-0.00310669279454
0.0023902046888
-0.00351019903222
0.0023068799808
-0.00389642346635
0.00221573515638
-0.00426428807065
0.00211808505575
-0.00461297691905
0.00201520818708
-0.00494191404197
0.00190831388651
-0.00525073711405
0.00179851869523
-0.00553926929598
0.00168683135162
-0.00580749106513
0.00157414578535
-0.00605551353283
0.0014612404721
-0.00628355417018
0.00134878302526
-0.00649191557751
0.00123733819025
-0.00668096746231
0.00112737828176
-0.00685113185988
0.00101929452307
-0.00700287130615
0.000913408777132
-0.0071366796982
0.000809984552943
-0.00725307535662
0.000709237241073
-0.00735259594334
0.000611342829786
-0.00743579472059
0.000516445421455
-0.00750323785865
0.000424663053686
-0.00755550234621
0.000336092400334
-0.00759317433626
0.000250811999645
-0.00761684759297
0.000168884729414
-0.00762712202305
9.03592065013e-05
-0.00762460209207
1.52709011738e-05
-0.00760989486976
-5.63579841989e-05
-0.00758360861418
-0.000124516611207
-0.00754635056165
-0.000189206974941
-0.00749872496241
-0.000250442823232
-0.00744133106753
-0.000308249725573
-0.00737476103117
-0.000362664537448
-0.00729959798071
-0.000413735086794
-0.0072164140703
-0.000461519399721
-0.00712576878305
-0.00050608514313
-0.00702820726828
-0.000547508610616
-0.006924258987
-0.000585873964046
-0.00681443642362
-0.000621272046938
-0.00669923414132
-0.000653799500902
-0.0065791279131
-0.000683557490574
-0.00645457421139
-0.000710650781227
-0.00632600976679
-0.000735186462628
-0.00619385148247
-0.000757273068023
-0.00605849639638
-0.000777019375522
-0.00592032198127
-0.00079453364386
-0.00577968646041
-0.000809922565627
-0.00563692942808
-0.000823290686506
-0.00549237244122
-0.0008347395751
-0.00534631986793
-0.000844367485126
-0.00519905965396
-0.00085226879574
-0.00505086428497
-0.000858533956408
-0.00490199160602
-0.000863249225589
-0.00475268577078
-0.000866496908332
-0.00460317798948
-0.000868355387602
-0.00445368734303
-0.000868899622851
-0.00430442134986
-0.000868201422827
-0.00415557654863
-0.000866330133548
-0.0040073388105
-0.000863353065604
-0.00385988363908
-0.000859336267
-0.00371337620345
-0.000854344994421
-0.00356797135547
-0.000848444457169
-0.00342381341122
-0.000841700224271
-0.0032810359353
-0.000834178837072
-0.0031397613396
-0.000825948065312
-0.00300010051797
-0.000817077318595
-0.00286215235606
-0.000807637702334
-0.00272600331518
-0.000797702196995
-0.00259172695164
-0.00078734550311
-0.00245938354475
-0.000776643996094
-0.00232901971274
-0.000765675383579
-0.00220066816334
-0.000754518471429
-0.00207434747175
-0.000743252678256
-0.00195006200689
-0.000731957665452
-0.00182780190943
-0.000720712765473
-0.00170754321938
-0.000709596534141
-0.00158924806423
-0.00069868614983
-0.00147286498341
-0.000688056944982
-0.0013583293068
-0.000677781830097
-0.00124556363903
-0.000667930857585
-0.0011344783734
-0.000658570725824
-0.00102497225902
-0.000649764443353
-0.000916932961839
-0.000641571003256
-0.000810237633028
-0.000634045285301
-0.000704753583832
-0.000627238159124
-0.000600339249486
-0.000621196888589
-0.000496845879248
-0.000615965993472
-0.000394122304948
-0.000611588365027
-0.000292025338634
-0.000608096426508
-0.000190463128092
-0.000605352387775
-8.99005986318e-05
-0.000600275435007
-0.000538329209939
-0.000433592524222
0.00280728095543
-0.000913627931128
0.00311041020009
-0.00139076313537
0.00309644691252
-0.00185950833149
0.00304918666895
-0.00231709515307
0.00298580710473
-0.00276117607205
0.00290849580351
-0.00318972563379
0.00281876984719
-0.00360104994226
0.00271821982887
-0.00399378687855
0.0026084875647
-0.00436689292032
0.00249120649169
-0.00471961928568
0.00236794985181
-0.00505148089837
0.00224019069292
-0.00536222144708
0.00210927431411
-0.0056517774768
0.00197640231405
-0.0059202437252
0.00184262681176
-0.00616784139142
0.00170885274513
-0.00639489023605
0.00157584629064
-0.0066017850759
0.00144424724503
-0.00678897658999
0.00131458379355
-0.00695695633049
0.00118728802268
-0.00710624533074
0.00106271129103
-0.00723738594872
0.000941138415796
-0.00735093614985
0.000822800416133
-0.00744746587048
0.000707885229993
-0.00752755466474
0.000596546603495
-0.00759179041088
0.000488910871699
-0.00764076838017
0.000385082132452
-0.00767509064446
0.000285145694654
-0.0076953652725
0.000189170466146
-0.00770220549222
9.72101889423e-05
-0.0076962285739
9.30441272268e-06
-0.00767805398332
-7.45225011328e-05
-0.00764830209755
-0.000154258764152
-0.00760759216332
-0.00022990753967
-0.00755654012911
-0.000301485832848
-0.00749575660031
-0.00036902459585
-0.00742584457856
-0.000432568246369
-0.00734739745878
-0.000492174260625
-0.00726099691197
-0.000547912345444
-0.00716721112552
-0.00059986369321
-0.00706659299972
-0.000648119841256
-0.00695967876524
-0.000692781664307
-0.00684698659597
-0.00073395801821
-0.00672901567692
-0.000771764576432
-0.00660624528214
-0.00080632237063
-0.00647913431652
-0.000837756578854
-0.00634812086346
-0.000866195068178
-0.00621362218716
-0.00089176723359
-0.00607603472416
-0.000914602638166
-0.00593573450362
-0.000934829990224
-0.00579307752818
-0.000952575966977
-0.00564840054256
-0.000967964412254
-0.00550202172195
-0.000981115424651
-0.00535424168939
-0.000992144849097
-0.00520534439824
-0.00100116369645
-0.00505559827025
-0.00100827798423
-0.00490525713535
-0.00101358852768
-0.00475456134415
-0.00101719114587
-0.00460373861813
-0.0010191768178
-0.00445300499414
-0.00101963221949
-0.00430256545555
-0.00101864018297
-0.00415261459618
-0.00101628047407
-0.00400333694391
-0.00101263044077
-0.00385490728496
-0.00100776590066
-0.00370749065302
-0.00100176183671
-0.00356124231838
-0.000994693248216
-0.00341630747753
-0.000986635752763
-0.00327282097078
-0.000977666272686
-0.00313090675855
-0.000967863433786
-0.00299067747039
-0.000957308000196
-0.0028522337808
-0.000946083008958
-0.00271566390769
-0.000934273918826
-0.00258104300471
-0.000921968472244
-0.00244843271907
-0.000909256571013
-0.00231788070054
-0.000896229898445
-0.00218942030601
-0.000882981570755
-0.00206307029878
-0.000869605580159
-0.00193883475606
-0.000856196289326
-0.00181670299912
-0.000842847768452
-0.00169664972844
-0.00082965320714
-0.00157863519422
-0.000816704219577
-0.00146260555239
-0.000804090244983
-0.00134849325566
-0.000791897889196
-0.00123621759646
-0.00078021037971
-0.00112568527748
-0.000769107008372
-0.00101679108935
-0.000758662707877
-0.000909418619419
-0.000748947675242
-0.000803441101651
-0.000740027168639
-0.000698722322879
-0.000731961382451
-0.000595118042273
-0.000724805638135
-0.000492478217565
-0.000718610522229
-0.000390650014852
-0.000713420942743
-0.000289484882106
-0.000709265485777
-0.000188872800054
-0.000705969625331
-8.92254583671e-05
-0.000699928237604
-0.000627556986219
-0.000448897950929
0.0032561937436
-0.000945610931368
0.00360713927171
-0.001438831533
0.00358968339157
-0.00192266637155
0.00353303744676
-0.00239408574997
0.00345724233844
-0.00285054975676
0.00336497564775
-0.00328990995613
0.0032581458366
-0.00371041712041
0.00313874273667
-0.0041107151671
0.00300880129422
-0.00448981815834
0.00287032509315
-0.00484707477074
0.002725221987
-0.0051821251044
0.00257525644782
-0.00549485427758
0.00242201878851
-0.00578534649116
0.00226690969584
-0.00605384227455
0.00211113760779
-0.00630070066624
0.00195572598281
-0.00652636724907
0.0018015275266
-0.00673134824648
0.00164924269547
-0.00691619045294
0.0014994402241
-0.00708146637986
0.00135257794169
-0.00722776392101
0.00120902256167
-0.00735567965666
0.00106906762072
-0.00746581504853
0.000932948985607
-0.00755877466998
0.000800857744548
-0.0076351658595
0.000672950369829
-0.00769559909362
0.000549356378812
-0.00774068868952
0.000430183665938
-0.0077710533517
0.000315521975489
-0.00778731642654
0.000205444809192
-0.00779010557149
0.000100010270891
-0.00778005234854
-7.38235767834e-07
-0.00775779048753
-9.67741284446e-05
-0.00772395424668
-0.000188085143617
-0.00767917693871
-0.000274675332388
-0.00762408839622
-0.000356565236722
-0.00755931267617
-0.000433791525693
-0.00748546577378
-0.000506406737107
-0.00740315330231
-0.000574478668442
-0.00731296835955
-0.000638089602114
-0.00721548947645
-0.000697335235938
-0.00711127884275
-0.00075232350915
-0.00700088068174
-0.000803173200489
-0.00688481994931
-0.000850012494677
-0.0067636012125
-0.000892977391851
-0.00663770786763
-0.000932210155465
-0.00650760154355
-0.000967857668997
-0.00637372183794
-0.00100006989143
-0.00623648622778
-0.00102899827785
-0.00609629029091
-0.00105479434974
-0.00595350807903
-0.0010776082823
-0.0058084927665
-0.00109758768793
-0.00566157741397
-0.0011148764674
-0.00551307595534
-0.00112961390152
-0.00536328424565
-0.00114193385953
-0.00521248126078
-0.00115196428476
-0.00506093028612
-0.00115982683366
-0.00490888016985
-0.00116563680926
-0.00475656648198
-0.00116950325975
-0.00460421264771
-0.00117152935713
-0.00445203090697
-0.00117181291665
-0.00430022317088
-0.00117044714468
-0.00414898164605
-0.00116752146777
-0.00399848930894
-0.00116312250751
-0.00384892012458
-0.00115733505163
-0.0037004391081
-0.00115024307413
-0.00355320214706
-0.00114193066238
-0.00340735569816
-0.00113248290406
-0.00326303629471
-0.0011219866074
-0.00312036998702
-0.00111053091805
-0.00297947166341
-0.00109820772623
-0.00284044437355
-0.001085111942
-0.00270337860592
-0.00107134155138
-0.00256835163313
-0.00105699754389
-0.00243542687561
-0.00104218364144
-0.00230465338428
-0.00102700592479
-0.00217606539021
-0.00101157230044
-0.00204968200504
-0.000995991904217
-0.0019255070185
-0.000980374394117
-0.00180352885872
-0.00096482922248
-0.00168372066211
-0.000949464848096
-0.00156604050022
-0.000934387967869
-0.0014504317127
-0.000919702736092
-0.00133682337902
-0.00090551003757
-0.00122513087975
-0.000891906790059
-0.00111525657442
-0.00087898532854
-0.00100709055128
-0.000866832856703
-0.000900511488639
-0.000855530999337
-0.000795387592018
-0.00084515544652
-0.000691577778825
-0.000835775744757
-0.000588933070197
-0.000827455015599
-0.000487298178388
-0.000820249720483
-0.000386514528259
-0.000814208950386
-0.000286424466968
-0.000809360586458
-0.000186899422745
-0.000805499273523
-8.83186850444e-05
-0.000798513867796
-0.000715878486265
-0.000467254098598
0.00372346292678
-0.000983949221394
0.00412385027793
-0.00149638911661
0.00410213948432
-0.00199817390082
0.00403483830249
-0.00248594779029
0.00394503231988
-0.00295693903192
0.00383598293069
-0.00340885997534
0.00371008279539
-0.0038399108798
0.00356980961296
-0.00424876362739
0.00341766996148
-0.00463452431975
0.00325610164046
-0.00499668129773
0.00308739473876
-0.0053350454185
0.00291363624644
-0.00564968854809
0.00273667748217
-0.00594088489842
0.00255812147758
-0.0062090583818
0.00237932637318
-0.00645473779355
0.00220142050428
-0.00667852046614
0.00202532512316
-0.00688104424936
0.00185178119031
-0.00706296703352
0.00168137749888
-0.00722495284469
0.00151457799347
-0.00736766326735
0.00135174697221
-0.00749175313493
0.00119317119265
-0.0075978692731
0.00103907854791
-0.00768665143776
0.000889653021745
-0.00775873442099
0.00074504616307
-0.00781475075225
0.000605385185825
-0.00785533322891
0.000470778298273
-0.00788111704684
0.000341317598022
-0.00789274107849
0.000217080312106
-0.00789084840862
9.81287070033e-05
-0.00787608545222
-1.54904307095e-05
-0.007849101956
-0.000123747239746
-0.00781054851354
-0.00022662855356
-0.00776107454038
-0.000324139656104
-0.00770132593622
-0.000416304547357
-0.00763194257345
-0.000503165980869
-0.00755355564512
-0.000584785114465