/*--------------------------------*- C++ -*----------------------------------*\
| =========                 |                                                 |
| \\      /  F ield         | OpenFOAM: The Open Source CFD Toolbox           |
|  \\    /   O peration     | Version:  v1906                                 |
|   \\  /    A nd           | Web:      www.OpenFOAM.com                      |
|    \\/     M anipulation  |                                                 |
\*---------------------------------------------------------------------------*/
FoamFile
{
    version     2.0;
    format      ascii;
    class       volVectorField;
    location    "225";
    object      U;
}
// * * * * * * * * * * * * * * * * * * * * * * * * * * * * * * * * * * * * * //

dimensions      [0 1 -1 0 0 0 0];


internalField   nonuniform List<vector> 
9216
(
(-0.0937712276019 0.0938353001377 0)
(-0.0964340446185 0.291976058218 4.51344029197e-26)
(-0.0959830266652 0.491545185442 -6.50439243965e-30)
(-0.0948955642192 0.69049571507 0)
(-0.0934090903942 0.886693444813 0)
(-0.0915606340198 1.07944664979 0)
(-0.0893827593376 1.26804202828 0)
(-0.0869041789577 1.4518224405 0)
(-0.0841537671556 1.63018935717 0)
(-0.0811613690309 1.80260460237 0)
(-0.0779575981657 1.96859249516 0)
(-0.0745734189591 2.12774119648 0)
(-0.0710395946301 2.27970299438 0)
(-0.0673862342649 2.42419349746 0)
(-0.0636423176364 2.56098986439 0)
(-0.0598353766981 2.68992818076 0)
(-0.0559911677525 2.81090016793 0)
(-0.0521335099125 2.92384935956 0)
(-0.0482841025649 3.02876692306 0)
(-0.0444625026189 3.12568724711 0)
(-0.040686060227 3.21468344016 0)
(-0.0369700009876 3.2958628306 0)
(-0.0333274449867 3.36936257345 0)
(-0.0297695579492 3.43534542062 0)
(-0.0263056198922 3.49399572089 0)
(-0.0229432137652 3.54551567779 0)
(-0.0196883168132 3.59012189957 0)
(-0.0165455037575 3.62804224864 0)
(-0.0135180449433 3.6595130037 0)
(-0.0106081183584 3.68477633572 0)
(-0.00781693373557 3.70407811973 0)
(-0.00514503941483 3.71766612767 0)
(-0.00259281894648 3.72578929694 0)
(-0.000162307393551 3.72869104071 0)
(0.00215223064095 3.72663872029 0)
(0.00435860056504 3.71984893576 0)
(0.00645723549455 3.7085537568 0)
(0.00844926851912 3.69297989216 0)
(0.0103371091063 3.67334879838 0)
(0.0121236991263 3.64987606551 0)
(0.0138122773902 3.62277067273 0)
(0.0154062049684 3.59223461087 0)
(0.0169089497432 3.55846267138 0)
(0.0183239917921 3.52164233593 0)
(0.0196548436784 3.48195373275 0)
(0.0209049762575 3.4395696523 0)
(0.0220778498344 3.39465560163 0)
(0.0231768498048 3.34736989901 0)
(0.0242053234105 3.29786379125 0)
(0.025166522311 3.24628159875 0)
(0.0260636427285 3.19276087211 0)
(0.0268997734437 3.13743256773 0)
(0.0276779378922 3.0804212268 0)
(0.0284010464923 3.02184516714 0)
(0.0290719395686 2.96181667259 0)
(0.0296933432302 2.90044219108 0)
(0.0302679122823 2.83782252619 0)
(0.0307981890466 2.77405303472 0)
(0.0312866455905 2.70922381497 0)
(0.0317356450783 2.64341989945 0)
(0.032147482835 2.57672143666 0)
(0.0325243499172 2.50920387635 0)
(0.0328683726261 2.44093814305 0)
(0.0331815781162 2.37199081267 0)
(0.0334659320963 2.30242427701 0)
(0.0337233063426 2.23229691144 0)
(0.033955514379 2.16166323047 0)
(0.034164280846 2.0905740467 0)
(0.0343512750272 2.01907661795 0)
(0.034518082045 1.94721479829 0)
(0.0346662341257 1.87502917743 0)
(0.0347971836431 1.80255722466 0)
(0.0349123320626 1.72983342159 0)
(0.0350130048557 1.65688939988 0)
(0.0351004780697 1.5837540683 0)
(0.0351759551663 1.51045374533 0)
(0.0352405911895 1.43701228147 0)
(0.0352954715704 1.36345118769 0)
(0.0353416338582 1.28978975393 0)
(0.0353800485395 1.21604517428 0)
(0.0354116382863 1.14223266264 0)
(0.0354372607848 1.06836557562 0)
(0.0354577253612 0.99445552647 0)
(0.0354737776402 0.920512506981 0)
(0.0354861130115 0.846545001764 0)
(0.0354953620248 0.772560112703 0)
(0.0355020979839 0.698563680248 0)
(0.0355068165506 0.624560424973 0)
(0.0355099204003 0.550554109992 0)
(0.0355116474664 0.476547781428 0)
(0.035511900115 0.402544219637 0)
(0.0355097623657 0.328546714316 0)
(0.0355015317798 0.254563045443 0)
(0.035482341449 0.180571244274 0)
(0.0353795576614 0.107054143286 0)
(0.0343259308936 0.034326090179 0)
(-0.292338173179 0.09707759071 0)
(-0.308635284701 0.310103297151 0)
(-0.30712221048 0.522294626345 -4.56922881538e-26)
(-0.303605623716 0.733970670516 0)
(-0.298850634285 0.94255557104 0)
(-0.292969519344 1.1474198133 0)
(-0.286044504199 1.34783118965 0)
(-0.278159958637 1.54309881492 0)
(-0.269405297747 1.73258893382 0)
(-0.259874492905 1.91573061632 0)
(-0.249664556953 2.09201926289 0)
(-0.238873846709 2.26101842762 0)
(-0.227600266091 2.42236019527 0)
(-0.215939715877 2.57574429554 0)
(-0.2039846359 2.72093614164 0)
(-0.191822904354 2.85776395914 0)
(-0.179536861843 2.98611519708 0)
(-0.16720270635 3.10593238831 0)
(-0.154889984085 3.21720863638 0)
(-0.142661419799 3.31998287245 0)
(-0.13057278789 3.41433502466 0)
(-0.11867307393 3.50038120676 0)
(-0.107004614611 3.57826902624 0)
(-0.0956034775574 3.64817308029 0)
(-0.0844997635118 3.7102907002 0)
(-0.0737181053654 3.76483797908 0)
(-0.0632780459351 3.81204611142 0)
(-0.0531945817003 3.85215805352 0)
(-0.0434785577296 3.88542550847 0)
(-0.0341372158031 3.91210622157 0)
(-0.0251745956606 3.93246155069 0)
(-0.0165921340494 3.94675421921 0)
(-0.00838922525366 3.95524560324 0)
(-0.000564825122105 3.95819751921 0)
(0.0068894996752 3.95584528003 0)
(0.0139844802585 3.94846180255 0)
(0.0207264668235 3.93629889583 0)
(0.0271230593116 3.91960089524 0)
(0.0331834123696 3.89860468556 0)
(0.0389175545866 3.87353971459 0)
(0.0443361236975 3.84462798015 0)
(0.0494500834861 3.81208388164 0)
(0.0542706486907 3.77611408423 0)
(0.0588090986517 3.73691743918 0)
(0.0630767599378 3.69468495706 0)
(0.0670848622905 3.64959983403 0)
(0.0708445506052 3.60183751802 0)
(0.0743667676148 3.55156581329 0)
(0.0776622850663 3.49894501054 0)
(0.0807416059599 3.44412804307 0)
(0.0836150089028 3.38726065722 0)
(0.086292465138 3.32848159965 0)
(0.0887836916898 3.2679228107 0)
(0.0910980795872 3.20570962789 0)
(0.093244752413 3.14196098981 0)
(0.095232503013 3.07678964544 0)
(0.09706985487 3.01030235997 0)
(0.0987650052474 2.94260012298 0)
(0.10032588741 2.87377835055 0)
(0.101760118715 2.80392708788 0)
(0.103075062228 2.73313120431 0)
(0.104277778681 2.66147058775 0)
(0.105375086394 2.58902033083 0)
(0.106373516379 2.51585091594 0)
(0.107279369812 2.44202839179 0)
(0.108098675789 2.36761454881 0)
(0.108837245802 2.29266708619 0)
(0.109500633873 2.217239778 0)
(0.110094187681 2.14138263127 0)
(0.110623010922 2.06514204359 0)
(0.111092010852 1.98856095311 0)
(0.111505862832 1.91167898854 0)
(0.111869054166 1.83453261209 0)
(0.112185850854 1.75715526296 0)
(0.112460337638 1.67957749431 0)
(0.112696387054 1.60182711121 0)
(0.112897695654 1.52392930269 0)
(0.113067755446 1.44590677528 0)
(0.113209886265 1.36777988103 0)
(0.113327209684 1.28956674758 0)
(0.11342267746 1.21128340318 0)
(0.11349904789 1.13294390416 0)
(0.113558910045 1.05456045789 0)
(0.113604662109 0.976143548727 0)
(0.11363853023 0.897702060089 0)
(0.113662546522 0.81924340019 0)
(0.113678557275 0.740773624553 0)
(0.113688189094 0.662297561466 0)
(0.113692819696 0.583818928571 0)
(0.113693468976 0.505340422284 0)
(0.113690576121 0.426863740952 0)
(0.113683442493 0.348388900007 0)
(0.1136685265 0.269914557269 0)
(0.113632192124 0.19137523268 0)
(0.113355917184 0.113400531635 0)
(0.107078894639 0.0354027823598 0)
(-0.494481651959 0.0980981654269 0)
(-0.522280933723 0.31323317867 0)
(-0.519329689369 0.527177275667 -4.54001929113e-26)
(-0.513253020153 0.740777758404 0)
(-0.505154866166 0.951227890512 0)
(-0.495173958521 1.15786893005 0)
(-0.48343217791 1.3599487277 0)
(-0.470066774197 1.55676376361 0)
(-0.455227885095 1.74767093187 0)
(-0.4390749311 1.93209268143 0)
(-0.421773059009 2.10952045126 0)
(-0.403489780732 2.2795164051 0)
(-0.384391816584 2.44171362089 0)
(-0.364642316722 2.59581494471 0)
(-0.344398432383 2.74159071656 0)
(-0.323809364069 2.87887556822 0)
(-0.303014795435 3.00756449831 0)
(-0.282143799611 3.12760841442 0)
(-0.26131408353 3.23900932404 0)
(-0.24063163677 3.34181533121 0)
(-0.220190627632 3.43611557963 0)
(-0.200073609201 3.52203525532 0)
(-0.180351871976 3.59973074382 0)
(-0.16108601243 3.66938501176 0)
(-0.142326557528 3.73120326667 0)
(-0.124114726638 3.78540892899 0)
(-0.106483178775 3.83223993782 0)
(-0.0894568396001 3.87194539767 0)
(-0.0730536647623 3.90478256447 0)
(-0.0572854440169 3.93101415867 0)
(-0.0421585042263 3.95090598504 0)
(-0.0276743989409 3.96472484079 0)
(-0.0138303543876 3.97273663717 0)
(-0.000619033823037 3.97520549279 0)
(0.0119679027901 3.97239347563 0)
(0.023939643339 3.96455419155 0)
(0.0353105957589 3.95193818766 0)
(0.0460964137624 3.93479002172 0)
(0.0563136603683 3.91334738767 0)
(0.0659797767127 3.88784069758 0)
(0.0751129335912 3.8584928174 0)
(0.083731792726 3.82551886833 0)
(0.0918553437293 3.78912609694 0)
(0.0995027076032 3.74951381061 0)
(0.106693024313 3.70687336953 0)
(0.113445306447 3.66138822798 0)
(0.119778370836 3.61323401585 0)
(0.125710732022 3.56257865432 0)
(0.131260567144 3.50958249779 0)
(0.136445639375 3.45439849788 0)
(0.141283287133 3.39717238298 0)
(0.145790369648 3.3380428508 0)
(0.149983273441 3.27714176878 0)
(0.15387787392 3.21459438089 0)
(0.157489553652 3.1505195169 0)
(0.160833175267 3.0850298036 0)
(0.163923107349 3.01823187466 0)
(0.16677320509 2.95022657966 0)
(0.169396840631 2.88110918934 0)
(0.171806888837 2.81096959816 0)
(0.174015759762 2.73989252181 0)
(0.176035387636 2.66795769108 0)
(0.177877263768 2.59524003989 0)
(0.179552427409 2.52180988944 0)
(0.181071497916 2.4477331263 0)
(0.182444666594 2.37307137664 0)
(0.183681727316 2.2978821746 0)
(0.184792068771 2.22221912704 0)
(0.185784703049 2.14613207288 0)
(0.186668257959 2.06966723918 0)
(0.187451003278 1.99286739234 0)
(0.188140842999 1.91577198659 0)
(0.188745339102 1.83841730809 0)
(0.189271703699 1.76083661689 0)
(0.189726820297 1.68306028503 0)
(0.190117235892 1.60511593308 0)
(0.190449179749 1.52702856331 0)
(0.190728555537 1.44882069179 0)
(0.190960957673 1.37051247758 0)
(0.191151663587 1.29212185139 0)
(0.191305647617 1.21366464167 0)
(0.191427573389 1.13515470057 0)
(0.191521805034 1.05660402766 0)
(0.191592399256 0.978022893826 0)
(0.191643112927 0.899419962896 0)
(0.191677393081 0.820802412951 0)
(0.191698377557 0.742176053759 0)
(0.19170887716 0.663545439174 0)
(0.191711360085 0.584913964012 0)
(0.191707915239 0.506283922761 0)
(0.191700221053 0.427656535668 0)
(0.191689574026 0.349031409946 0)
(0.191676940836 0.27040874568 0)
(0.191657248653 0.191726615858 0)
(0.191334006258 0.113693893744 0)
(0.180645185456 0.0355088946776 0)
(-0.699856749675 0.0992967613672 0)
(-0.739477203306 0.316999679969 0)
(-0.73525074933 0.533394648696 4.5058045452e-26)
(-0.726562598679 0.749429375747 0)
(-0.71499539686 0.962215015086 0)
(-0.700752514295 1.17106333805 0)
(-0.68400819181 1.37519590106 0)
(-0.664958836398 1.57389006029 0)
(-0.643819905176 1.76648877642 0)
(-0.620820400003 1.9524052101 0)
(-0.596197478669 2.1311258557 0)
(-0.57019141394 2.30221195998 0)
(-0.543040984157 2.46529931772 0)
(-0.514979422534 2.62009666032 0)
(-0.486230963042 2.76638286736 0)
(-0.457008047646 2.90400323305 0)
(-0.427509161098 3.03286501683 0)
(-0.397917298636 3.15293249151 0)
(-0.368398981871 3.2642216838 0)
(-0.339103795002 3.36679497627 0)
(-0.310164333267 3.46075571425 0)
(-0.281696527061 3.54624293366 0)
(-0.253800231449 3.62342630094 0)
(-0.226560051883 3.69250133214 0)
(-0.200046306035 3.7536849382 0)
(-0.174316107616 3.80721132479 0)
(-0.149414487011 3.85332826116 0)
(-0.125375551041 3.89229371958 0)
(-0.102223611122 3.92437287814 0)
(-0.0799742953713 3.94983547194 0)
(-0.0586355826714 3.9689534737 0)
(-0.0382087800121 3.9819990997 0)
(-0.0186893449256 3.98924301529 0)
(-6.80412173144e-05 3.99095292638 0)
(0.0176690340069 3.98739663579 0)
(0.0345374266511 3.9788277383 0)
(0.0505569040182 3.96549954115 0)
(0.0657494694879 3.94765809252 0)
(0.0801387667356 3.92554230882 0)
(0.0937497444318 3.89938360362 0)
(0.106608329871 3.86940557977 0)
(0.118741111272 3.83582384919 0)
(0.130175079328 3.79884593461 0)
(0.140937388119 3.75867123656 0)
(0.151055171104 3.71549105494 0)
(0.160555370595 3.66948865644 0)
(0.169464614674 3.62083937943 0)
(0.177809100602 3.56971076951 0)
(0.185614518287 3.51626273905 0)
(0.192905974326 3.46064774578 0)
(0.199707949885 3.40301098536 0)
(0.206044254515 3.34349059431 0)
(0.211938008773 3.28221785974 0)
(0.217411619253 3.21931743339 0)
(0.222486778368 3.15490754735 0)
(0.227184454031 3.08910023001 0)
(0.231524900815 3.02200152031 0)
(0.235527659275 2.95371167958 0)
(0.23921157416 2.8843253996 0)
(0.242594799676 2.81393200666 0)
(0.245694821562 2.74261566067 0)
(0.248528465617 2.67045554956 0)
(0.251111921344 2.59752607814 0)
(0.253460751864 2.52389705203 0)
(0.255589917548 2.44963385611 0)
(0.25751378603 2.37479762804 0)
(0.259246154779 2.2994454266 0)
(0.260800260393 2.22363039554 0)
(0.262188799457 2.14740192256 0)
(0.26342393665 2.07080579447 0)
(0.264517323511 1.99388434784 0)
(0.265480105142 1.91667661649 0)
(0.266322936737 1.8392184751 0)
(0.267055988816 1.7615427801 0)
(0.267688961508 1.68367950732 0)
(0.268231088377 1.60565588747 0)
(0.268691148544 1.52749653895 0)
(0.269077469227 1.44922359891 0)
(0.26939793581 1.37085685213 0)
(0.269659993235 1.29241385865 0)
(0.269870654104 1.21391007955 0)
(0.270036498991 1.13535900183 0)
(0.27016368253 1.05677226167 0)
(0.270257932488 0.978159766842 0)
(0.270324553479 0.899529817287 0)
(0.27036842423 0.82088922406 0)
(0.270393998234 0.742243424524 0)
(0.270405299103 0.663596591815 0)
(0.270405920819 0.584951733149 0)
(0.270399033425 0.506310764375 0)
(0.270387422046 0.427674607256 0)
(0.270373609696 0.349042842908 0)
(0.270359830787 0.270416772545 0)
(0.270337396689 0.191736019202 0)
(0.269883650307 0.113724564307 0)
(0.254692785334 0.0355262421068 0)
(-0.90803888516 0.100881324407 0)
(-0.959466927987 0.322033407302 0)
(-0.953914821131 0.541811583059 0)
(-0.942516616936 0.761147583019 0)
(-0.927343838479 0.977088615082 0)
(-0.908671059679 1.18891277249 0)
(-0.886731580771 1.39580859088 0)
(-0.861787042129 1.59702780318 0)
(-0.834123860768 1.79189447352 0)
(-0.804045939525 1.97980931569 0)
(-0.771867406418 2.16025247825 0)
(-0.737905812491 2.3327844872 0)
(-0.702475969616 2.49704544387 0)
(-0.665884571832 2.65275272369 0)
(-0.628425673745 2.79969744387 0)
(-0.590377067708 2.93773997268 0)
(-0.551997536353 3.06680474402 0)
(-0.513524941259 3.18687461883 0)
(-0.475175061059 3.29798500738 0)
(-0.437141097237 3.40021793366 0)
(-0.399593735473 3.49369619049 0)
(-0.362681671627 3.57857770129 0)
(-0.326532492449 3.65505017549 0)
(-0.291253831928 3.72332611781 0)
(-0.256934710558 3.78363822988 0)
(-0.223646999488 3.83623522328 0)
(-0.191446938845 3.88137804924 0)
(-0.160376674275 3.91933653777 0)
(-0.130465761383 3.95038643111 0)
(-0.101732620519 3.97480679082 0)
(-0.0741859066835 3.99287775219 0)
(-0.0478257949451 4.00487864322 0)
(-0.0226450909414 4.01108590692 0)
(0.00136892864889 4.01177323367 0)
(0.024235820129 4.00721147719 0)
(0.0459773146364 3.99765796767 0)
(0.0666194941413 3.98336918016 0)
(0.0861913829645 3.96459345824 0)
(0.104724169164 3.94157142815 0)
(0.12225067116 3.91453578869 0)
(0.138804884686 3.88371105296 0)
(0.154421584515 3.84931341527 0)
(0.169135988535 3.81155069921 0)
(0.182983467072 3.7706223673 0)
(0.195999304056 3.72671958129 0)
(0.208218493543 3.68002530414 0)
(0.219675578095 3.63071443536 0)
(0.230404513165 3.57895397299 0)
(0.240438564392 3.52490319613 0)
(0.249810222944 3.4687138631 0)
(0.258551146379 3.41053042076 0)
(0.266692111168 3.35049022158 0)
(0.274262984832 3.28872374531 0)
(0.281292704778 3.22535482276 0)
(0.28780927214 3.16050085972 0)
(0.293839748562 3.09427305943 0)
(0.29941026442 3.02677664217 0)
(0.304546027245 2.95811106112 0)
(0.309271338862 2.88837021369 0)
(0.313609610766 2.81764264781 0)
(0.317583386185 2.74601176278 0)
(0.321214359024 2.67355600456 0)
(0.324523398012 2.60034905535 0)
(0.327530566832 2.52646001754 0)
(0.330255148384 2.45195359209 0)
(0.332715664517 2.37689025152 0)
(0.334929899101 2.3013264077 0)
(0.336914916347 2.22531457484 0)
(0.338687081904 2.14890352764 0)
(0.340262079172 2.0721384553 0)
(0.341654928006 1.99506111137 0)
(0.342879998754 1.91770995992 0)
(0.343951028401 1.84012031831 0)
(0.344881132283 1.76232449679 0)
(0.345682817687 1.68435193532 0)
(0.346367993332 1.60622933789 0)
(0.346947980564 1.52798080448 0)
(0.347433520775 1.44962796104 0)
(0.347834784382 1.37119008767 0)
(0.348161376402 1.29268424521 0)
(0.348422343415 1.21412540035 0)
(0.348626177475 1.13552654955 0)
(0.348780821238 1.05689884159 0)
(0.34889367039 0.978251699044 0)
(0.348971577141 0.899592938172 0)
(0.349020851604 0.820928887154 0)
(0.349047264719 0.742264501667 0)
(0.349056051305 0.663603476868 0)
(0.349051919019 0.584948354702 0)
(0.349039068301 0.506300621735 0)
(0.349021239114 0.427660863002 0)
(0.349001799061 0.349028511452 0)
(0.348983448447 0.270405223244 0)
(0.348953339841 0.191730603038 0)
(0.34836308463 0.113728870827 0)
(0.328726796595 0.0355311975835 0)
(-1.1199710749 0.10288623803 0)
(-1.18335373047 0.328435977615 0)
(-1.17639413864 0.552550040262 0)
(-1.16214485599 0.776104390424 0)
(-1.14317973389 0.996068198971 0)
(-1.11985069585 1.21167825151 0)
(-1.09245720411 1.4220824769 0)
(-1.06133360751 1.62650051703 0)
(-1.02684473926 1.82423279526 0)
(-0.989376602197 2.01466474798 0)
(-0.949327032423 2.19726922552 0)
(-0.907096967315 2.37160679544 0)
(-0.863082595794 2.5373241131 0)
(-0.81766857286 2.69415066958 0)
(-0.77122239353 2.84189424725 0)
(-0.724089954988 2.98043541245 0)
(-0.676592269594 3.10972135468 0)
(-0.629023251818 3.22975934946 0)
(-0.581648464252 3.34061008195 0)
(-0.534704695968 3.44238102586 0)
(-0.488400232613 3.53522003029 0)
(-0.442915685704 3.61930922835 0)
(-0.398405249607 3.69485934679 0)
(-0.354998273459 3.76210446658 0)
(-0.312801042664 3.82129726039 0)
(-0.27189868682 3.8727047134 0)
(-0.23235713896 3.91660431971 0)
(-0.194225092191 3.95328073572 0)
(-0.157535905522 3.98302286453 0)
(-0.122309428926 4.0061213418 0)
(-0.0885537194719 4.02286638541 0)
(-0.0562666425873 4.03354605693 0)
(-0.0254372429803 4.03844376401 0)
(0.00395213291562 4.03784090046 0)
(0.0319270434294 4.03201171494 0)
(0.0585159669539 4.02121822764 0)
(0.0837522860313 4.00572061067 0)
(0.10767273383 3.98576995061 0)
(0.130316578768 3.96160894681 0)
(0.151724964959 3.93347181844 0)
(0.171940353279 3.90158412428 0)
(0.191006043953 3.8661626983 0)
(0.208965772658 3.82741565886 0)
(0.225863368369 3.78554247268 0)
(0.241742469176 3.74073406364 0)
(0.256646286077 3.6931729574 0)
(0.270617411901 3.64303345412 0)
(0.283697666402 3.59048182294 0)
(0.295927975617 3.53567651246 0)
(0.307348277611 3.47876837289 0)
(0.317997453647 3.41990088577 0)
(0.327913277936 3.35921039822 0)
(0.337132385804 3.29682635891 0)
(0.345690254366 3.23287155385 0)
(0.353621196234 3.16746234004 0)
(0.360958361071 3.10070887575 0)
(0.367733746088 3.03271534648 0)
(0.37397821095 2.96358018566 0)
(0.379721498558 2.89339628968 0)
(0.384992257738 2.82225122684 0)
(0.389818069578 2.7502274401 0)
(0.394225473891 2.67740244346 0)
(0.398239997751 2.60384901209 0)
(0.401886182943 2.52963536633 0)
(0.40518761439 2.45482534975 0)
(0.408166946729 2.37947860148 0)
(0.410845931135 2.30365072315 0)
(0.413245439841 2.22739344071 0)
(0.415385490463 2.15075476152 0)
(0.417285267805 2.07377912694 0)
(0.418963145225 1.99650756091 0)
(0.420436703435 1.9189778147 0)
(0.42172274875 1.84122450832 0)
(0.422837328858 1.76327926877 0)
(0.423795748014 1.68517086557 0)
(0.424612579918 1.60692534372 0)
(0.425301680053 1.52856615454 0)
(0.425876195912 1.45011428445 0)
(0.426348576764 1.37158838204 0)
(0.426730581533 1.29300488367 0)
(0.427033286299 1.21437813763 0)
(0.427267090169 1.13572052712 0)
(0.427441720877 1.05704259206 0)
(0.427566239083 0.978353149865 0)
(0.427649042662 0.899659415004 0)
(0.427697870371 0.820967117327 0)
(0.427719806501 0.74228061897 0)
(0.427721286988 0.663603029843 0)
(0.427708110088 0.584936322872 0)
(0.427685454774 0.506281446743 0)
(0.427657911811 0.427638504836 0)
(0.427629517177 0.349006522872 0)
(0.427603228587 0.270386928737 0)
(0.427562275905 0.191718460105 0)
(0.426833601119 0.113722582209 0)
(0.40276611655 0.03552920886 0)
(-1.33656741494 0.105348654219 0)
(-1.41212072653 0.33630308757 0)
(-1.40364253216 0.565750890461 4.42585474626e-26)
(-1.38635540799 0.794490474369 0)
(-1.36335499616 1.01939071495 0)
(-1.33507827682 1.23963662785 0)
(-1.30189939179 1.45432651484 0)
(-1.26423469241 1.66264096986 0)
(-1.22253692348 1.86385205762 0)
(-1.17728343109 2.05732747395 0)
(-1.12896440107 2.24253243935 0)
(-1.07807193743 2.4190291336 0)
(-1.02509034606 2.5864739453 0)
(-0.970487844348 2.74461294683 0)
(-0.914709801109 2.89327601453 0)
(-0.858173515571 3.03236999928 0)
(-0.801264465891 3.16187131657 0)
(-0.744333903448 3.28181827525 0)
(-0.687697632049 3.39230340874 0)
(-0.631635794661 3.49346601561 0)
(-0.576393484519 3.58548506388 0)
(-0.522182005648 3.66857256609 0)
(-0.469180619809 3.74296749213 0)
(-0.417538636698 3.80893025409 0)
(-0.367377722647 3.86673777181 0)
(-0.318794325417 3.91667910823 0)
(-0.271862130545 3.95905165031 0)
(-0.2266344846 3.99415780151 0)
(-0.18314673479 4.02230214686 0)
(-0.141418449972 4.04378904964 0)
(-0.101455496411 4.05892062925 0)
(-0.0632519594881 4.06799521317 0)
(-0.0267917566085 4.07130428518 0)
(0.00794927495997 4.06913877313 0)
(0.041003151897 4.06177577586 0)
(0.0724062219481 4.04948355525 0)
(0.102200069728 4.03252627588 0)
(0.130429915962 4.01115807951 0)
(0.157143769099 3.98562398963 0)
(0.182391659567 3.95615989532 0)
(0.206224991989 3.92299246551 0)
(0.228695997814 3.88633916925 0)
(0.249857273289 3.84640835894 0)
(0.269761391711 3.80339939948 0)
(0.288460582009 3.75750283468 0)
(0.30600646456 3.7089005822 0)
(0.322449837724 3.65776615033 0)
(0.337840507417 3.60426487029 0)
(0.352227154548 3.5485541395 0)
(0.365657233973 3.49078367149 0)
(0.378176901009 3.43109574925 0)
(0.389830960334 3.36962547933 0)
(0.400662834383 3.30650104438 0)
(0.41071454707 3.24184395249 0)
(0.420026720787 3.175769282 0)
(0.4286385834 3.10838592078 0)
(0.436587983845 3.03979679909 0)
(0.443911413717 2.97009911584 0)
(0.450644034049 2.89938455761 0)
(0.456819705167 2.82773951052 0)
(0.462471019253 2.75524526487 0)
(0.467629333939 2.68197821264 0)
(0.472324806871 2.608010038 0)
(0.476586429894 2.53340790122 0)
(0.480442063052 2.45823461613 0)
(0.483918467291 2.3825488215 0)
(0.487041336234 2.30640514685 0)
(0.489835326124 2.22985437281 0)
(0.492324084403 2.15294358669 0)
(0.494530276204 2.07571633344 0)
(0.49647560926 1.99821276253 0)
(0.498180856654 1.92046977102 0)
(0.499665877959 1.84252114323 0)
(0.500949638253 1.76439768739 0)
(0.502050225598 1.68612736947 0)
(0.502984866543 1.6077354447 0)
(0.503769940217 1.52924458686 0)
(0.504420990644 1.45067501571 0)
(0.504952737822 1.37204462277 0)
(0.505379087249 1.29336909571 0)
(0.505713138418 1.21466204141 0)
(0.50596719202 1.13593510798 0)
(0.50615275636 1.05719810577 0)
(0.506280552835 0.978459127485 0)
(0.50636052104 0.899724667503 0)
(0.506401823571 0.820999740418 0)
(0.506412851369 0.742287999092 0)
(0.506401230194 0.663591852664 0)
(0.506373829541 0.584912586144 0)
(0.506336774993 0.506250479158 0)
(0.506295463268 0.427604991249 0)
(0.506254559225 0.348974515077 0)
(0.506217315573 0.270359916616 0)
(0.506163390218 0.191698759809 0)
(0.505295830495 0.113709292932 0)
(0.476801933503 0.035523929512 0)
(-1.55881784041 0.108305377167 0)
(-1.64681344128 0.34574557223 0)
(-1.63667827215 0.581591950666 -4.38962579762e-26)
(-1.61611849527 0.816547443603 0)
(-1.58877800553 1.04735500313 0)
(-1.55518942959 1.2731354151 0)
(-1.5158125522 1.49292698602 0)
(-1.47115751934 1.7058637168 0)
(-1.42177699409 1.91118461135 0)
(-1.36825130447 2.10823764744 0)
(-1.31117379098 2.29648092618 0)
(-1.25113735539 2.47548090336 0)
(-1.18872265825 2.64490812661 0)
(-1.12448821603 2.80453102711 0)
(-1.05896249388 2.95420830615 0)
(-0.992637965436 3.09388041965 0)
(-0.925967015227 3.22356060264 0)
(-0.859359495788 3.34332580194 0)
(-0.793181713382 3.4533078077 0)
(-0.727756602345 3.55368480081 0)
(-0.66336484993 3.64467346611 0)
(-0.60024674886 3.72652176538 0)
(-0.538604576698 3.7995024173 0)
(-0.478605328157 3.86390709634 0)
(-0.420383653731 3.92004133559 0)
(-0.364044885685 3.96822009991 0)
(-0.309668056996 4.00876398381 0)
(-0.257308841867 4.04199598152 0)
(-0.207002365257 4.06823877355 0)
(-0.158765845742 4.08781247636 0)
(-0.112601047526 4.10103279057 0)
(-0.0684965312951 4.10820969756 0)
(-0.0264295188944 4.10964376376 0)
(0.0136326106791 4.10563720754 0)
(0.0517287514983 4.09646899239 0)
(0.0879045830948 4.08241530252 0)
(0.12221091305 4.06374442734 0)
(0.154702319803 4.04071376015 0)
(0.185436304847 4.01357079174 0)
(0.214472429425 3.98255313463 0)
(0.241871590815 3.94788854823 0)
(0.267695415651 3.90979505812 0)
(0.292005750062 3.86848112452 0)
(0.314864234804 3.82414584688 0)
(0.3363319552 3.77697919615 0)
(0.356469155995 3.7271622674 0)
(0.375335012672 3.67486754635 0)
(0.392987451165 3.62025918464 0)
(0.409483009248 3.5634932798 0)
(0.424876733127 3.50471815642 0)
(0.439222104002 3.44407464583 0)
(0.4525709895 3.38169636225 0)
(0.464973616001 3.31770997355 0)
(0.476478557887 3.25223546569 0)
(0.487132740764 3.18538639956 0)
(0.49698145563 3.11727015999 0)
(0.506068381833 3.04798819617 0)
(0.514435616547 2.97763625361 0)
(0.522123709254 2.9063045974 0)
(0.529171699539 2.83407822699 0)
(0.535617157187 2.76103708263 0)
(0.541496223332 2.68725624375 0)
(0.546843652038 2.61280611974 0)
(0.551692851413 2.53775263333 0)
(0.5560759239 2.46215739716 0)
(0.560023705133 2.38607788395 0)
(0.563565801195 2.30956759059 0)
(0.566730623869 2.23267619688 0)
(0.569545423883 2.15544971904 0)
(0.572036321859 2.07793065872 0)
(0.57422833709 2.00015814781 0)
(0.57614541396 1.92216808941 0)
(0.577810446196 1.84399329551 0)
(0.579245298839 1.76566362162 0)
(0.580470828174 1.6872060987 0)
(0.581506899545 1.60864506284 0)
(0.582372403332 1.53000228282 0)
(0.58308526904 1.45129708592 0)
(0.583662477787 1.37254648221 0)
(0.584120073177 1.29376528755 0)
(0.58447317083 1.21496624541 0)
(0.584735966608 1.13616014779 0)
(0.58492174381 1.05735595534 0)
(0.585042879432 0.978560916747 0)
(0.58511084982 0.899780687685 0)
(0.585136235938 0.821019449354 0)
(0.585128728666 0.74228002705 0)
(0.585097134488 0.663564009246 0)
(0.5850493819 0.584871868712 0)
(0.58499252828 0.506203081965 0)
(0.58493276473 0.427556312354 0)
(0.584875394968 0.348929143102 0)
(0.58482403795 0.270321685186 0)
(0.584754987834 0.191670210125 0)
(0.583747716558 0.113689716796 0)
(0.550829039506 0.035516304127 0)
(-1.7877934328 0.111799303618 0)
(-1.88855533391 0.356897446504 0)
(-1.87659306574 0.600293451197 0)
(-1.85247099222 0.842575330858 0)
(-1.82041479331 1.08033144512 0)
(-1.78106675649 1.31260397687 0)
(-1.73498645972 1.53835952192 0)
(-1.68279282734 1.75667736413 0)
(-1.62515354274 1.96675887231 0)
(-1.56276641235 2.16793104476 0)
(-1.49634123888 2.35964653974 0)
(-1.42658342439 2.54148022711 0)
(-1.35417983103 2.71312288707 0)
(-1.27978716385 2.87437279002 0)
(-1.20402293824 3.02512585473 0)
(-1.12745893636 3.1653650101 0)
(-1.05061694423 3.29514928865 0)
(-0.973966490466 3.41460307277 0)
(-0.897924273329 3.52390580916 0)
(-0.822854956314 3.62328241072 0)
(-0.74907302677 3.7129944829 0)
(-0.676845439372 3.79333244437 0)
(-0.606394800977 3.86460856013 0)
(-0.537902891211 3.92715086711 0)
(-0.471514350372 3.98129794591 0)
(-0.407340401329 4.02739447587 0)
(-0.345462503322 4.06578750125 0)
(-0.285935862904 4.09682333313 0)
(-0.228792750251 4.120845012 0)
(-0.174045588349 4.13819026186 0)
(-0.12168979917 4.14918985869 0)
(-0.0717063950681 4.15416661585 0)
(-0.0240641826765 4.15343107108 0)
(0.021280250579 4.14729842482 0)
(0.0643731330322 4.13604807871 0)
(0.105271209005 4.1199658745 0)
(0.144035626864 4.09932413448 0)
(0.180731284948 4.07438357924 0)
(0.215426015994 4.04539419699 0)
(0.248189629552 4.01259526978 0)
(0.279093124373 3.97621553152 0)
(0.308208034378 3.93647340012 0)
(0.335605882418 3.8935772421 0)
(0.361357728715 3.84772566158 0)
(0.385533801887 3.79910780633 0)
(0.408203201409 3.74790368419 0)
(0.42943366164 3.69428448459 0)
(0.449291368543 3.63841290103 0)
(0.467840821354 3.58044345117 0)
(0.485144732199 3.52052279192 0)
(0.501263957663 3.45879002769 0)
(0.5162574569 3.39537701015 0)
(0.530182271696 3.33040862869 0)
(0.543093524379 3.26400309059 0)
(0.555044430139 3.1962721908 0)
(0.566086320674 3.12732157087 0)
(0.576268676659 3.05725096723 0)
(0.585639166756 2.9861544489 0)
(0.594243691376 2.91412064485 0)
(0.602126429555 2.84123296149 0)
(0.609329887706 2.76756979064 0)
(0.615894949089 2.69320470855 0)
(0.621860923189 2.61820666634 0)
(0.627265594216 2.54264017267 0)
(0.632145268225 2.46656546886 0)
(0.63653481836 2.39003869732 0)
(0.640467727939 2.3131120637 0)
(0.643976131099 2.23583399327 0)
(0.647090850895 2.15824928218 0)
(0.649841434691 2.08039924393 0)
(0.652256186894 2.00232185175 0)
(0.654362198955 1.92405187712 0)
(0.65618537674 1.84562102503 0)
(0.657750465333 1.76705806623 0)
(0.659081071371 1.68838896702 0)
(0.660199683023 1.60963701671 0)
(0.661127687772 1.53082295323 0)
(0.661885388115 1.45196508708 0)
(0.662492015363 1.37307942389 0)
(0.662965741676 1.29417978581 0)
(0.663323690524 1.21527793198 0)
(0.663581945718 1.1363836782 0)
(0.663755559225 1.05750501594 0)
(0.663858557932 0.978648230953 0)
(0.663903949594 0.899818021582 0)
(0.66390372816 0.821017616958 0)
(0.663868878711 0.742248895466 0)
(0.663809382118 0.663512503856 0)
(0.66373421935 0.584807978057 0)
(0.663651374844 0.506133860997 0)
(0.663567836357 0.427487882457 0)
(0.663489566177 0.348866673238 0)
(0.663420602386 0.270269453384 0)
(0.663333975499 0.191631129056 0)
(0.662185697089 0.113663420046 0)
(0.624842869677 0.0355064369277 0)
(-2.02466288621 0.115882136833 0)
(-2.13856873883 0.369921810653 0)