/*--------------------------------*- C++ -*----------------------------------*\
| =========                 |                                                 |
| \\      /  F ield         | OpenFOAM: The Open Source CFD Toolbox           |
|  \\    /   O peration     | Version:  v1906                                 |
|   \\  /    A nd           | Web:      www.OpenFOAM.com                      |
|    \\/     M anipulation  |                                                 |
\*---------------------------------------------------------------------------*/
FoamFile
{
    version     2.0;
    format      ascii;
    class       volVectorField;
    location    "836";
    object      Ua;
}
// * * * * * * * * * * * * * * * * * * * * * * * * * * * * * * * * * * * * * //

dimensions      [0 1 -1 0 0 0 0];


internalField   nonuniform List<vector> 
9216
(
(-0.00666903596697 0.00667182736876 0)
(-0.00685589355643 0.0208069155401 2.37671714748e-27)
(-0.00684179652377 0.0350219193245 -4.61543309188e-31)
(-0.00679362371477 0.0492280767623 0)
(-0.00672622670533 0.0632883350084 0)
(-0.00664114744012 0.0771674845964 0)
(-0.00653980890314 0.0908261564477 0)
(-0.00642324304671 0.104227845127 0)
(-0.00629237084815 0.117338427045 0)
(-0.00614817066482 0.130126186015 0)
(-0.00599158771912 0.142561904032 0)
(-0.00582363719689 0.154618884972 0)
(-0.00564526602768 0.166272988798 0)
(-0.00545746154772 0.177502566456 0)
(-0.00526109498842 0.188288393515 0)
(-0.00505704568636 0.198613510004 0)
(-0.00484603332864 0.208463062595 0)
(-0.00462876053178 0.217824067467 0)
(-0.00440573813258 0.226685185749 0)
(-0.0041774475893 0.235036438847 0)
(-0.00394416208445 0.242868951862 0)
(-0.00370612930983 0.250174657764 0)
(-0.00346338950887 0.256946046971 0)
(-0.00321597789685 0.263175896526 0)
(-0.00296373858285 0.268857062044 0)
(-0.0027065454944 0.273982262917 0)
(-0.00244411009025 0.278543945377 0)
(-0.00217622016136 0.282534146354 0)
(-0.00190253901516 0.285944450647 0)
(-0.00162286453552 0.288765945389 0)
(-0.0013369128249 0.290989311079 0)
(-0.00104458331489 0.292604864874 0)
(-0.000745746579583 0.293602702369 0)
(-0.000440551911759 0.29397296017 0)
(-0.00012915881544 0.293706099719 0)
(0.000187940050919 0.292793202176 0)
(0.000510204736702 0.291226397264 0)
(0.000836707813355 0.288999230071 0)
(0.00116646759697 0.286107161443 0)
(0.00149808889915 0.28254795346 0)
(0.00183015431968 0.278322173146 0)
(0.00216083962991 0.273433522656 0)
(0.00248836595314 0.267889274661 0)
(0.00281057319009 0.261700493218 0)
(0.00312542247966 0.254882370472 0)
(0.0034304997867 0.24745436078 0)
(0.00372354383947 0.239440475853 0)
(0.0040018561038 0.230869471669 0)
(0.00426282890294 0.221775254671 0)
(0.00450327606073 0.212197342705 0)
(0.00471996335578 0.202181516819 0)
(0.00490896351935 0.191780664756 0)
(0.00506624976197 0.181055532344 0)
(0.0051872826616 0.170075594196 0)
(0.00526775791215 0.158919173797 0)
(0.00530359703013 0.147673315372 0)
(0.00529177837741 0.136432184311 0)
(0.00523052543182 0.125295016199 0)
(0.00511978656693 0.114362701794 0)
(0.00496119337624 0.103734567614 0)
(0.00475813956472 0.093504514053 0)
(0.00451550579668 0.0837578905003 0)
(0.00423949486219 0.0745683939488 0)
(0.00393687387581 0.0659962621549 0)
(0.00361478498483 0.0580877098717 0)
(0.00328249006364 0.050872327766 0)
(0.00295052795675 0.0443589655836 0)
(0.00262877000934 0.0385347860186 0)
(0.00232467538293 0.0333687656806 0)
(0.0020429314175 0.0288173573214 0)
(0.00178576374969 0.0248302057793 0)
(0.0015537715697 0.0213543660161 0)
(0.00134642181667 0.0183371694805 0)
(0.0011624459592 0.0157280234891 0)
(0.0010000683945 0.0134797565938 0)
(0.000857341878372 0.0115492025968 0)
(0.000732452836593 0.00989727519643 0)
(0.00062381830298 0.0084883907294 0)
(0.000529991729036 0.00729011507398 0)
(0.000449331973032 0.00627318432203 0)
(0.000380121866421 0.00541190492835 0)
(0.000320552326091 0.00468422510346 0)
(0.000268687763916 0.00407172896233 0)
(0.00022099737705 0.00356420545861 0)
(0.00017067313854 0.00310770668531 0)
(0.000149125074834 0.00281367285394 0)
(0.000140277264298 0.00251400315035 0)
(0.000121657318196 0.00225070781128 0)
(0.000117892070278 0.0020276131812 0)
(0.000121282406902 0.00178674214589 0)
(0.000117504815544 0.00155266770866 0)
(0.000114880424652 0.00131359460311 0)
(0.000124607491769 0.00106517977955 0)
(0.000137084219101 0.000802937775336 0)
(0.000152292634337 0.000494536740975 0)
(0.000162668543852 0.000158820685721 0)
(-0.0208381949635 0.00689561464651 0)
(-0.0219999559843 0.0221003715227 0)
(-0.0219264509738 0.0372174768114 -2.44301850451e-27)
(-0.0217405664761 0.0523380468747 0)
(-0.021487508432 0.0672913920514 0)
(-0.021172465409 0.082048091217 0)
(-0.0207990518512 0.0965679525228 0)
(-0.0203708264804 0.110812679986 0)
(-0.0198914228141 0.124746113373 0)
(-0.0193647147485 0.138334575046 0)
(-0.0187946210832 0.151547034538 0)
(-0.0181852033375 0.164355187237 0)
(-0.017540408092 0.176733479637 0)
(-0.016864177066 0.188659061539 0)
(-0.0161601682927 0.200111693895 0)
(-0.015431897442 0.211073592263 0)
(-0.0146824531833 0.221529235155 0)
(-0.0139146785509 0.231465121142 0)
(-0.0131308909156 0.240869505764 0)
(-0.0123331087574 0.249732105349 0)
(-0.0115227826574 0.25804380023 0)
(-0.0107010692941 0.265796325564 0)
(-0.00986857459203 0.272981982838 0)
(-0.00902567195213 0.279593358327 0)
(-0.00817225306246 0.285623081541 0)
(-0.0073080847738 0.291063605149 0)
(-0.00643256049609 0.295907040293 0)
(-0.00554509108135 0.300145022255 0)
(-0.00464485029395 0.303768643436 0)
(-0.00373119975497 0.306768423178 0)
(-0.00280342464312 0.309134343209 0)
(-0.00186117455468 0.310855961893 0)
(-0.000904186624882 0.311922619104 0)
(6.72064480355e-05 0.312323585668 0)
(0.00105241639865 0.312048413705 0)
(0.00205008405615 0.31108727478 0)
(0.00305846274546 0.309431397699 0)
(0.00407489526592 0.307073506751 0)
(0.00509628996903 0.304008333 0)
(0.00611860034315 0.300233082702 0)
(0.00713741731583 0.295747945291 0)
(0.00814744435393 0.290556504937 0)
(0.00914320302134 0.284666158484 0)
(0.0101184610239 0.278088398834 0)
(0.011067004151 0.270839098971 0)
(0.0119819346747 0.262938676573 0)
(0.0128564218913 0.254412309538 0)
(0.0136827864541 0.245290130296 0)
(0.0144531518625 0.235607575132 0)
(0.0151583285226 0.225405872942 0)
(0.0157884080545 0.214732764962 0)
(0.016331710408 0.203643465958 0)
(0.0167756106592 0.192201707414 0)
(0.0171061359608 0.180480826248 0)
(0.0173094850062 0.168564316184 0)
(0.0173727998789 0.156545782554 0)
(0.017286257457 0.144527448986 0)
(0.0170443422194 0.132617615375 0)
(0.016646908047 0.120926793856 0)
(0.0160993490168 0.109563873701 0)
(0.0154126721725 0.098631782745 0)
(0.0146025567442 0.0882239106525 0)
(0.0136892638393 0.078420323295 0)
(0.0126939461065 0.0692858579926 0)
(0.0116380743636 0.0608721293777 0)
(0.0105513663257 0.0532140813598 0)
(0.00946901133272 0.0463217585329 0)
(0.00842362098779 0.0401783100161 0)
(0.00743928052485 0.0347453603588 0)
(0.00653027215061 0.0299711898303 0)
(0.00570279730634 0.0257980719009 0)
(0.00495791958553 0.0221669466062 0)
(0.00429338400973 0.01902000346 0)
(0.00370465249314 0.016302303899 0)
(0.00318561015616 0.0139631411078 0)
(0.0027296532144 0.0119567316541 0)
(0.00233078253042 0.0102420399899 0)
(0.00198402357553 0.00878173789142 0)
(0.00168488610935 0.00754138594458 0)
(0.00142814486787 0.0064896787259 0)
(0.00120820585323 0.00559920103788 0)
(0.0010196173321 0.00484630049461 0)
(0.000857127977456 0.00421022812952 0)
(0.000714751353914 0.00367323398225 0)
(0.000582820751321 0.00320075998568 0)
(0.000488560212737 0.0027575912937 0)
(0.000425950533332 0.00245095218516 0)
(0.000368489802603 0.00218983758224 0)
(0.000349057972216 0.00193686023545 0)
(0.000354887690344 0.00173238023457 0)
(0.00035216168814 0.001525219562 0)
(0.00035506306712 0.00127737217085 0)
(0.00037332946489 0.00102503591899 0)
(0.000442942768071 0.000801468845777 0)
(0.000528940921188 0.00050813282702 0)
(0.000475648671595 0.000139457430923 0)
(-0.0352141659311 0.00695091594449 0)
(-0.037199013124 0.0222830929549 0)
(-0.0370482226553 0.0374922159476 -2.44639254922e-27)
(-0.036728355729 0.0527222124598 0)
(-0.0363017656313 0.0677828794929 0)
(-0.0357736190132 0.0826434132056 0)
(-0.0351486609142 0.0972626326734 0)
(-0.0344323225851 0.111601726539 0)
(-0.0336305511448 0.125624140355 0)
(-0.0327497028343 0.139295906689 0)
(-0.0317963624297 0.152585806788 0)
(-0.0307772472853 0.165465461562 0)
(-0.0296990162546 0.177909352937 0)
(-0.0285681820233 0.189894778845 0)
(-0.0273909240802 0.201401748863 0)
(-0.0261730253006 0.212412822495 0)
(-0.0249197055318 0.222912899098 0)
(-0.0236355974295 0.23288896364 0)
(-0.022324615149 0.242329800582 0)
(-0.0209899814053 0.251225682398 0)
(-0.019634140702 0.259568047934 0)
(-0.0182588427473 0.267349177593 0)
(-0.0168651007589 0.274561881518 0)
(-0.0154533271648 0.281199205567 0)
(-0.0140233283604 0.287254170374 0)
(-0.0125744822452 0.292719543632 0)
(-0.0111057570546 0.297587659615 0)
(-0.00961592100387 0.301850281289 0)
(-0.00810357584311 0.305498520032 0)
(-0.00656739360538 0.308522801796 0)
(-0.00500616965411 0.310912911077 0)
(-0.00341907729225 0.312658080481 0)
(-0.00180570867019 0.313747145485 0)
(-0.000166371557923 0.314168785913 0)
(0.00149788322481 0.313911839865 0)
(0.00318498236472 0.312965670942 0)
(0.00489185314444 0.311320615714 0)
(0.00661418170968 0.308968466974 0)
(0.00834653402985 0.305903007264 0)
(0.010082188646 0.302120535558 0)
(0.0118133892315 0.29762039724 0)
(0.0135312586148 0.292405449045 0)
(0.0152261702579 0.286482473775 0)
(0.0168876858555 0.27986248204 0)
(0.0185049537461 0.272560939277 0)
(0.0200665305607 0.264597887061 0)
(0.0215606395441 0.255998041376 0)
(0.0229747033568 0.246790891727 0)
(0.0242953134222 0.237010931506 0)
(0.02550742685 0.226698089617 0)
(0.0265941295944 0.215898486793 0)
(0.0275358485009 0.204665563512 0)
(0.0283105136679 0.193061532314 0)
(0.028893749388 0.181158995707 0)
(0.0292605739905 0.169042256312 0)
(0.0293875897239 0.156807752361 0)
(0.0292564873566 0.144562865366 0)
(0.0288568841363 0.132422705986 0)
(0.0281883072336 0.120505384012 0)
(0.0272596875337 0.108927591342 0)
(0.026090637341 0.0977993855651 0)
(0.0247079950046 0.0872207002552 0)
(0.0231492627357 0.0772752980543 0)
(0.021449791817 0.0680283671787 0)
(0.0196402794432 0.0595375753226 0)
(0.0177732654284 0.0518481084961 0)
(0.0159158075086 0.0449722761286 0)
(0.0141287272667 0.038885310115 0)
(0.0124544938184 0.033535869727 0)
(0.0109155774446 0.0288597510419 0)
(0.00951980461889 0.0247901958093 0)
(0.00826688933639 0.0212624737875 0)
(0.00715193457447 0.0182150175818 0)
(0.00616636113761 0.0155902179377 0)
(0.00529876556308 0.0133359039624 0)
(0.00453696223269 0.0114063493756 0)
(0.00387036779011 0.00976167918129 0)
(0.00329119020338 0.00836561612795 0)
(0.00279273573161 0.00718346226323 0)
(0.00236621337481 0.00618303124773 0)
(0.00200160438965 0.00533680787156 0)
(0.00169003095476 0.00462171033398 0)
(0.00142382276257 0.00401762810178 0)
(0.00119606211282 0.00350876741832 0)
(0.00100521303776 0.00306068915486 0)
(0.000852150805041 0.0026505762179 0)
(0.000748393119548 0.00239650892999 0)
(0.000638542711679 0.00205763804836 0)
(0.000564603206189 0.00177236343952 0)
(0.000559646904411 0.00158757600778 0)
(0.000601742068487 0.00143527566129 0)
(0.000588067423145 0.00112768468069 0)
(0.000638769570303 0.000911292303379 0)
(0.000716094770851 0.000653094603441 0)
(0.00078450073472 0.000387830038544 0)
(0.000756452758793 0.000119610186049 0)
(-0.0497876347414 0.00700818522673 0)
(-0.0526176061985 0.0224865266865 0)
(-0.0524019023106 0.0378192271734 2.44606707906e-27)
(-0.05194522021 0.0531780670839 0)
(-0.051336896179 0.0683639174206 0)
(-0.0505846520613 0.0833447645541 0)
(-0.049695189461 0.0980782568669 0)
(-0.0486762065494 0.112524773336 0)
(-0.0475362196684 0.126647163137 0)
(-0.0462843429491 0.140411050983 0)
(-0.0449300656836 0.153784989384 0)
(-0.0434830432918 0.166740548282 0)
(-0.0419528798655 0.179252331944 0)
(-0.0403489302386 0.191297927416 0)
(-0.0386801001228 0.202857787811 0)
(-0.0369546770201 0.213915055224 0)
(-0.0351801680002 0.224455329285 0)
(-0.0333631804384 0.234466388999 0)
(-0.0315093178488 0.243937877759 0)
(-0.0296231288258 0.252860962327 0)
(-0.0277080750315 0.261227978928 0)
(-0.0257665566927 0.269032078652 0)
(-0.0237999533606 0.276266885947 0)
(-0.0218087192379 0.282926180306 0)
(-0.0197924828395 0.289003612268 0)
(-0.0177501946539 0.294492459032 0)
(-0.015680266449 0.299385427227 0)
(-0.0135807551101 0.303674503757 0)
(-0.0114495292174 0.30735086157 0)
(-0.00928448307884 0.31040481414 0)
(-0.00708373698726 0.31282585198 0)
(-0.00484586536679 0.31460272315 0)
(-0.00257010793505 0.315723572578 0)
(-0.000256647688471 0.316176198839 0)
(0.00209318902101 0.315948370568 0)
(0.00447668465135 0.315028220237 0)
(0.00688957827782 0.313404720999 0)
(0.00932589179849 0.311068223117 0)
(0.0117778992897 0.308011041025 0)
(0.0142360912751 0.304228053728 0)
(0.0166893202474 0.299717295372 0)
(0.019124929223 0.294480486039 0)
(0.0215290617698 0.288523474447 0)
(0.023886883942 0.281856548454 0)
(0.0261829228181 0.274494604113 0)
(0.02840117121 0.266457170246 0)
(0.0305251855953 0.257768335939 0)
(0.032537773736 0.248456655999 0)
(0.0344205723611 0.238555165222 0)
(0.0361531557756 0.228101661475 0)
(0.0377121200368 0.21713944161 0)
(0.0390700365916 0.205718663051 0)
(0.0401948963538 0.193898367125 0)
(0.0410504654401 0.1817491069 0)
(0.0415981305526 0.169355498118 0)
(0.0418009284924 0.156817979457 0)
(0.0416290246372 0.144251965311 0)
(0.0410656585846 0.131783779615 0)
(0.0401098356671 0.119543440312 0)
(0.0387737674779 0.107660111818 0)
(0.0370877153773 0.0962548099788 0)
(0.0350890123811 0.0854389771788 0)
(0.0328418819241 0.0753013361494 0)
(0.030396047728 0.065900032794 0)
(0.0277731009815 0.0573039479824 0)
(0.0250541915222 0.0495844389116 0)
(0.0223555920433 0.0427598521595 0)
(0.0197778371976 0.0367887293538 0)
(0.0173840226153 0.0315942879035 0)
(0.01520040125 0.027090082561 0)
(0.0132306243589 0.0231955329333 0)
(0.0114695097482 0.0198387530252 0)
(0.00990826221042 0.0169535379046 0)
(0.00853315664166 0.0144783460135 0)
(0.0073255625776 0.0123587745489 0)
(0.00626550644382 0.0105497785874 0)
(0.00533682435897 0.00901464269354 0)
(0.00453022014301 0.00771986195715 0)
(0.00383920870671 0.00662993818424 0)
(0.00325100468532 0.00571018700413 0)
(0.00274919899699 0.00493305849121 0)
(0.00232112939516 0.0042772064349 0)
(0.0019565721183 0.00372378452483 0)
(0.00164533833601 0.00326042224934 0)
(0.00138514624691 0.00283701331861 0)
(0.00119786583995 0.00250262777616 0)
(0.00104986095884 0.00220762212549 0)
(0.000912856455018 0.00187923683425 0)
(0.000838455954189 0.0016482020334 0)
(0.000775959862195 0.00137422541863 0)
(0.000782025490323 0.00114913115042 0)
(0.000863639412902 0.000989284804173 0)
(0.000864222547666 0.000701731116118 0)
(0.00093521530939 0.000477832703675 0)
(0.00101173464963 0.000285363555916 0)
(0.000994896566105 9.31874801878e-05 0)
(-0.0645076797746 0.00708212111309 0)
(-0.0681790464611 0.0227553215112 0)
(-0.0678969805184 0.0382595407595 0)
(-0.0673002062509 0.0537923491924 0)
(-0.0665053076063 0.0691465057822 0)
(-0.0655228000385 0.0842887771382 0)
(-0.0643616481194 0.0991754229682 0)
(-0.0630320755795 0.113765736866 0)
(-0.0615453837725 0.128021743572 0)
(-0.0599136640828 0.141908499474 0)
(-0.0581495097738 0.155394240845 0)
(-0.0562657269607 0.168450469863 0)
(-0.0542750523474 0.181051965043 0)
(-0.0521898783041 0.193176718873 0)
(-0.0500219954154 0.204805804711 0)
(-0.0477823544005 0.215923177573 0)
(-0.0454808591885 0.226515414229 0)
(-0.0431261936368 0.236571400963 0)
(-0.0407256934628 0.24608197917 0)
(-0.0382852641878 0.255039561726 0)
(-0.0358093528857 0.263437734676 0)
(-0.0333009698521 0.27127085963 0)
(-0.0307617613333 0.278533692011 0)
(-0.0281921243843 0.285221028118 0)
(-0.0255913593035 0.291327391766 0)
(-0.02295784996 0.296846766939 0)
(-0.0202892665452 0.30177238107 0)
(-0.0175827867028 0.306096539911 0)
(-0.0148353322076 0.309810517158 0)
(-0.0120438248493 0.312904491387 0)
(-0.00920546831761 0.315367571301 0)
(-0.00631802382519 0.317187858936 0)
(-0.00338012449252 0.318352575282 0)
(-0.00039161488432 0.318848320062 0)
(0.00264613820107 0.318661396816 0)
(0.00572993484242 0.317778234393 0)
(0.00885448184316 0.316185908691 0)
(0.0120121826716 0.31387274745 0)
(0.0151930338153 0.310829001871 0)
(0.0183846165739 0.307047549452 0)
(0.0215722403051 0.302524588305 0)
(0.0247391953107 0.297260266601 0)
(0.0278671488431 0.29125919078 0)
(0.0309365842769 0.284530755822 0)
(0.0339272734627 0.2770892552 0)
(0.0368186083496 0.268953761624 0)
(0.0395897476729 0.260147808349 0)
(0.0422193566201 0.250698967985 0)
(0.04468494474 0.240638503817 0)
(0.0469616077174 0.230001307642 0)
(0.0490204359191 0.218826500772 0)
(0.0508265525126 0.207158921352 0)
(0.0523376806306 0.195051978327 0)
(0.0535036092887 0.182571670457 0)
(0.0542684371946 0.169801570538 0)
(0.0545760444586 0.156846895304 0)
(0.0543800219909 0.143835231073 0)
(0.0536543226862 0.130910534509 0)
(0.0523989858407 0.118219895148 0)
(0.050627012355 0.105911268532 0)
(0.0483852728794 0.0941198440764 0)
(0.0457123804645 0.0829795202858 0)
(0.0427294351633 0.0725864699995 0)
(0.0395047573311 0.0629632583037 0)
(0.035989853655 0.0541989551239 0)
(0.0323113086336 0.046433420886 0)
(0.0286757999267 0.0396983567634 0)
(0.0252451534142 0.0339158291593 0)
(0.0221038771048 0.0289602219446 0)
(0.0192700696974 0.0247078854699 0)
(0.0167308257796 0.0210606206762 0)
(0.0144706055534 0.0179412444433 0)
(0.0124769774452 0.015279641169 0)
(0.0107306571562 0.0130083619964 0)
(0.00920248924524 0.0110689835897 0)
(0.00786023429838 0.00941824243689 0)
(0.00667973546746 0.00802693754808 0)
(0.00565364847782 0.00686846839812 0)
(0.00478243361044 0.00590464789197 0)
(0.00404811516174 0.0050933662304 0)
(0.003422023373 0.00440723017616 0)
(0.00288807547786 0.00382933942151 0)
(0.00243499459297 0.00334199227983 0)
(0.00204716195004 0.00293527580485 0)
(0.00171356607966 0.00253920727999 0)
(0.00153726537884 0.00229468212908 0)
(0.00138369607292 0.00200724484384 0)
(0.00122015373453 0.00170074962929 0)
(0.00106407036626 0.00137226213673 0)
(0.00101773652601 0.00114637846391 0)
(0.000980205007052 0.000891578931919 0)
(0.0010520675735 0.000735790216559 0)
(0.00113580642172 0.000557937498757 0)
(0.00112330819233 0.000342407883651 0)
(0.00114823190799 0.000194398990991 0)
(0.00112703009937 6.42673984075e-05 0)
(-0.0794242196171 0.00717432327757 0)
(-0.0839438263484 0.0230948948839 0)
(-0.0835920968642 0.0388185867095 0)
(-0.0828498418942 0.0545728706808 0)
(-0.0818611906117 0.0701407647832 0)
(-0.0806396122916 0.0854876522226 0)
(-0.0791965981959 0.10056812816 0)
(-0.0775451826077 0.115340133172 0)
(-0.0756997380763 0.129764644747 0)
(-0.073675623406 0.14380599352 0)
(-0.0714888213777 0.15743201433 0)
(-0.0691555731562 0.170614130225 0)
(-0.0666920190584 0.183327355544 0)
(-0.064113848796 0.195550219847 0)
(-0.0614359716547 0.207264614548 0)
(-0.0586722111129 0.218455565452 0)
(-0.0558350368799 0.229110936568 0)
(-0.0529353404808 0.239221073125 0)
(-0.0499822680179 0.248778395306 0)
(-0.0469831142664 0.257776957381 0)
(-0.0439432871269 0.266211989988 0)
(-0.0408663392512 0.274079444495 0)
(-0.0377540666289 0.281375558225 0)
(-0.0346066619231 0.288096456397 0)
(-0.0314229147714 0.294237802607 0)
(-0.0282004438612 0.299794504105 0)
(-0.0249359539737 0.304760473741 0)
(-0.0216255096709 0.309128446887 0)
(-0.0182648270641 0.3128898526 0)
(-0.0148495850486 0.316034727811 0)
(-0.0113757734734 0.318551726158 0)
(-0.00784003460513 0.320428152474 0)
(-0.00424006978311 0.321650068276 0)
(-0.000575070221962 0.322202545509 0)
(0.00315386341066 0.322069998101 0)
(0.00694330518959 0.321236632596 0)
(0.0107871331626 0.31968702603 0)
(0.0146762340583 0.317406818822 0)
(0.0185983288621 0.314383503689 0)
(0.02253794999 0.310607272889 0)
(0.0264766093367 0.306071869901 0)
(0.0303931625522 0.300775372974 0)
(0.0342643681744 0.294720824185 0)
(0.0380655818267 0.287916616359 0)
(0.0417715009555 0.280376554715 0)
(0.0453568062476 0.272119555887 0)
(0.0487965176415 0.263168983602 0)
(0.0520658587006 0.253551745359 0)
(0.0551393980522 0.243297308715 0)
(0.0579893924988 0.232437054643 0)
(0.0605831416229 0.221004309223 0)
(0.0628798159521 0.209035862988 0)
(0.0648269050915 0.196575421155 0)
(0.0663581563359 0.183679907346 0)
(0.0673944728617 0.170428020531 0)
(0.0678516039856 0.156929682565 0)
(0.0676565220938 0.14333037469 0)
(0.0667697298768 0.129802871593 0)
(0.065199428777 0.116516243693 0)
(0.0629495476528 0.103646487389 0)
(0.0601037485602 0.0913402438419 0)
(0.0566532608962 0.0797831625128 0)
(0.0528739464546 0.069093721591 0)
(0.0488797311867 0.0591605062483 0)
(0.0443539491792 0.0501105786644 0)
(0.0395293224304 0.0422704484318 0)
(0.0348025608395 0.0356937168203 0)
(0.0304339716139 0.0302167831995 0)
(0.0265221317254 0.0256191554301 0)
(0.0230467243091 0.0217169759257 0)
(0.0199523416501 0.0183960183355 0)
(0.0172062632499 0.0155848631244 0)
(0.0147996139308 0.0132135587229 0)
(0.0127098908252 0.0112038393398 0)
(0.0108915167905 0.00948834595946 0)
(0.00929013350681 0.00802702997004 0)
(0.00786714874369 0.00680806778747 0)
(0.00662499964112 0.00582256941374 0)
(0.00558994330221 0.00502440917033 0)
(0.00473530766852 0.00434977862677 0)
(0.00400198187886 0.00377302062674 0)
(0.00337467839675 0.0032901747801 0)
(0.00284811291965 0.00288271288338 0)
(0.00239591696245 0.00253420474399 0)
(0.00201334229965 0.00218585624665 0)
(0.00182196194179 0.00195704352298 0)
(0.00161890340573 0.00165194806017 0)
(0.00148559483868 0.00141483343222 0)
(0.0013826341997 0.00117073342857 0)
(0.00131527707087 0.000939184145874 0)
(0.00117980523745 0.000663287999261 0)
(0.00117785881654 0.000480819854515 0)
(0.00128228941192 0.000375588106409 0)
(0.00128211296539 0.000245067862704 0)
(0.00125965586288 0.000132100997727 0)
(0.00123792343012 4.34843951258e-05 0)
(-0.0945832984122 0.00728635789086 0)
(-0.0999620319615 0.0235094378132 0)
(-0.0995360421046 0.039501831818 2.46401223777e-27)
(-0.0986410993074 0.05552697568 0)
(-0.0974493551444 0.0713558755994 0)
(-0.0959774217897 0.0869522141552 0)
(-0.09423959809 0.102268566501 0)
(-0.0922520561249 0.117261219679 0)
(-0.0900325901433 0.131889868716 0)
(-0.0876001872174 0.14611795677 0)
(-0.0849745826291 0.159912833768 0)
(-0.0821758111098 0.173245839724 0)
(-0.0792237640067 0.186092299758 0)
(-0.0761377576457 0.198431432674 0)
(-0.0729361228642 0.210246173751 0)
(-0.0696358232475 0.221522913834 0)
(-0.0662521161633 0.23225115855 0)
(-0.062798267874 0.242423115351 0)
(-0.0592853390452 0.252033220543 0)
(-0.0557220503932 0.261077623887 0)
(-0.0521147388979 0.269553652656 0)
(-0.0484674037062 0.277459279791 0)
(-0.0447818383699 0.284792620353 0)
(-0.0410578340632 0.291551476803 0)
(-0.0372934386149 0.297732946846 0)
(-0.0334852504422 0.303333099306 0)
(-0.0296287346418 0.308346715785 0)
(-0.025718551108 0.312767090799 0)
(-0.0217488973762 0.316585884036 0)
(-0.0177138719005 0.319793006568 0)
(-0.0136078839338 0.322376606032 0)
(-0.00942606237175 0.324323056579 0)
(-0.00516476003464 0.325617032756 0)
(-0.000822091732499 0.326241741792 0)
(0.00360151807975 0.326179253275 0)
(0.00810278184161 0.325410975375 0)
(0.012675036391 0.323918297272 0)
(0.0173078196226 0.321683390251 0)
(0.0219865936479 0.318690151765 0)
(0.0266926721616 0.314925250697 0)
(0.0314034071937 0.310379208768 0)
(0.0360926705373 0.305047421079 0)
(0.0407316358181 0.298930994302 0)
(0.0452898117763 0.292037262675 0)
(0.0497362177165 0.284379845354 0)
(0.0540404964047 0.275978138633 0)
(0.0581737198371 0.26685622042 0)
(0.0621085098218 0.257041214578 0)
(0.0658182341282 0.246561420909 0)
(0.069274772664 0.235444465765 0)
(0.0724449103371 0.223716387306 0)
(0.0752848850274 0.211402215118 0)
(0.0777339909336 0.198529932905 0)
(0.0797081549667 0.185138945957 0)
(0.08109743575 0.171294816143 0)
(0.081773552005 0.157108812594 0)
(0.0816171528486 0.142753262295 0)
(0.0805666425526 0.128453359972 0)
(0.0786678448894 0.114399632554 0)
(0.0758752313833 0.100815487098 0)
(0.0723890219415 0.0878234656177 0)
(0.0679435050208 0.0757495426264 0)
(0.063290964051 0.0648127523487 0)
(0.0587262543299 0.0544433538773 0)
(0.052994608126 0.0448488340541 0)
(0.0466772458187 0.0368823769354 0)
(0.0406067766477 0.0306033211789 0)
(0.0351939444864 0.0256356910437 0)
(0.030515916371 0.0215733053637 0)
(0.0264427486244 0.0181385054512 0)
(0.0228238798068 0.0152206134116 0)
(0.0196054122797 0.0127889321285 0)
(0.0168103897159 0.0107836102835 0)
(0.0144214422278 0.00910054041716 0)
(0.0123636743071 0.00764945282997 0)
(0.0105385376431 0.0063940628843 0)
(0.00887425203167 0.00536194926364 0)
(0.00739940250068 0.00459133826228 0)
(0.00622058630763 0.00401496712213 0)
(0.00529515149023 0.00350539981228 0)
(0.00447412560678 0.00304659410871 0)
(0.00376315431092 0.00267543953013 0)
(0.00318665557304 0.0023624280258 0)
(0.00268367511251 0.00207508792318 0)
(0.00230505963083 0.0018063173692 0)
(0.00208936499803 0.00157685375317 0)
(0.00189011520893 0.00132523850894 0)
(0.00171055738511 0.00107392517333 0)
(0.00161366604398 0.000863321357149 0)
(0.00148857841027 0.000642916324412 0)
(0.00143639862867 0.000477050298179 0)
(0.00132228889849 0.000293368884923 0)
(0.00132517682666 0.000198433148526 0)
(0.00137236728549 0.000142718205232 0)
(0.00133128021531 7.53648834145e-05 0)
(0.00130775965301 2.46073406323e-05 0)
(-0.110034359905 0.00741947223961 0)
(-0.116286075253 0.0240034811 0)
(-0.115780161917 0.0403161117487 -2.4636320964e-27)
(-0.114723501588 0.0566639296477 0)
(-0.113316981265 0.0728033454629 0)
(-0.111580642208 0.0886959513183 0)
(-0.109531939678 0.104291874863 0)
(-0.107190582231 0.119545411733 0)
(-0.104578213632 0.134414717758 0)
(-0.101717891608 0.148862178341 0)
(-0.0986335500266 0.162854575229 0)
(-0.0953494588491 0.176363169221 0)
(-0.0918896899761 0.189363686685 0)
(-0.0882775957456 0.201836211587 0)
(-0.0845353078115 0.213764982583 0)
(-0.0806832673549 0.225138094258 0)
(-0.0767398015062 0.235947104143 0)
(-0.0727207646161 0.246186551246 0)
(-0.0686392645219 0.255853399166 0)
(-0.0645054924024 0.264946424394 0)
(-0.0603266690504 0.273465578197 0)
(-0.0561071111196 0.281411354814 0)
(-0.0518484091589 0.288784199251 0)
(-0.047549697992 0.295583982326 0)
(-0.0432079918256 0.301809560377 0)
(-0.038818554901 0.307458423431 0)
(-0.0343752838277 0.312526422954 0)
(-0.0298710903063 0.317007562019 0)
(-0.0252982871958 0.320893831519 0)
(-0.0206489940122 0.324175063961 0)
(-0.0159155989287 0.326838884547 0)
(-0.0110912312687 0.328870635194 0)
(-0.00617036912729 0.330253396816 0)
(-0.0011495013096 0.33096817622 0)
(0.00397217022785 0.33099421543 0)
(0.00919199940428 0.330309483007 0)
(0.0145031947218 0.328891382188 0)
(0.0198942110934 0.326717679398 0)
(0.0253483146505 0.323767643822 0)
(0.0308434071036 0.320023358184 0)
(0.0363521990241 0.315471124459 0)
(0.0418428060183 0.310102842743 0)
(0.0472798037864 0.303917192239 0)
(0.0526257189308 0.296920411707 0)
(0.0578428199587 0.289126440974 0)
(0.0628949861703 0.280556250602 0)
(0.0677492393393 0.271236185585 0)
(0.0723765376797 0.261195452681 0)
(0.0767511891306 0.250462782334 0)
(0.0808484889869 0.239062978358 0)
(0.0846398316324 0.227013730516 0)
(0.0880848805966 0.214324342526 0)
(0.0911202818996 0.200998208051 0)
(0.0936456987445 0.187043006296 0)
(0.0955114174044 0.172493207589 0)
(0.0965182084481 0.157449291601 0)
(0.0964570963513 0.142123393409 0)
(0.0952185452742 0.126853495 0)
(0.0929970474813 0.111824773493 0)
(0.0895438210729 0.0973675711737 0)
(0.0855195807364 0.0834087177531 0)
(0.0795091095142 0.0706851993761 0)
(0.0738080389708 0.059876952789 0)
(0.0694680315221 0.0488694013387 0)
(0.0620614814581 0.0380705285016 0)
(0.0535440282201 0.0298934212816 0)
(0.0457400371915 0.024222272343 0)
(0.0392347486261 0.0201392363091 0)
(0.0339703461619 0.0168839741739 0)
(0.0294982437901 0.0140439778798 0)
(0.0254234618751 0.011578823241 0)
(0.0216853748436 0.00958945860435 0)
(0.0184708791343 0.00804435213886 0)
(0.0158126368715 0.00676883619402 0)
(0.0135813849043 0.00561465562647 0)
(0.0115860799511 0.0045447346312 0)
(0.00966259612086 0.00367405581328 0)
(0.00789141334678 0.00317153276268 0)
(0.00660618007522 0.002920778686 0)
(0.00573291599194 0.0026035334768 0)
(0.00483530579469 0.00224112866627 0)
(0.00402880883919 0.00200264879335 0)
(0.00344842468908 0.00180072955211 0)
(0.00290961453805 0.00156947941475 0)
(0.00255982052694 0.0013701681764 0)
(0.00232005296966 0.00115335962011 0)
(0.0021394809963 0.000953408088417 0)
(0.00195870834495 0.000741199211196 0)
(0.00180501092699 0.000547924609573 0)
(0.00164656327935 0.000368602613441 0)
(0.00153885509388 0.000235014310764 0)
(0.00148020827782 0.00013993151228 0)
(0.00137692952405 6.24617086232e-05 0)
(0.00142261702427 3.68015672786e-05 0)
(0.00136515925656 2.21846593412e-05 0)
(0.00133607973657 5.89675189916e-06 0)
(-0.125830072821 0.00757497781683 0)
(-0.132971254031 0.0245823449684 0)
(-0.132378549164 0.0412698165209 0)
(-0.131149131497 0.0579951589685 0)
(-0.129513543351 0.0744973549327 0)
(-0.127495641971 0.0907354434753 0)
(-0.125116480302 0.106656620552 0)
(-0.122399793119 0.12221281014 0)
(-0.119371594109 0.137360349568 0)
(-0.11605954622 0.152060386028 0)
(-0.11249231984 0.166279049829 0)
(-0.108698952476 0.179987534732 0)
(-0.104708216794 0.193162075155 0)
(-0.100548000286 0.205783822323 0)
(-0.0962447030973 0.217838615742 0)
(-0.0918226644865 0.229316644993 0)
(-0.0873036371682 0.240211997957 0)
(-0.0827063342544 0.250522097966 0)
(-0.0780460792752 0.260247042115 0)
(-0.073334587154 0.269388865666 0)
(-0.0685798983035 0.277950769518 0)
(-0.063786472408 0.285936356409 0)
(-0.058955432046 0.29334892308 0)
(-0.0540849257391 0.300190848348 0)
(-0.0491705680589 0.306463100606 0)
(-0.0442059085976 0.312164866423 0)
(-0.0391828925644 0.317293280108 0)
(-0.0340922942845 0.321843220128 0)
(-0.0289241325842 0.325807138839 0)
(-0.0236680967421 0.329174880584 0)
(-0.0183140426613 0.331933584651 0)