/*--------------------------------*- C++ -*----------------------------------*\
| =========                 |                                                 |
| \\      /  F ield         | OpenFOAM: The Open Source CFD Toolbox           |
|  \\    /   O peration     | Version:  v1906                                 |
|   \\  /    A nd           | Web:      www.OpenFOAM.com                      |
|    \\/     M anipulation  |                                                 |
\*---------------------------------------------------------------------------*/
FoamFile
{
    version     2.0;
    format      ascii;
    class       surfaceScalarField;
    location    "59";
    object      phi;
}
// * * * * * * * * * * * * * * * * * * * * * * * * * * * * * * * * * * * * * //

dimensions      [0 3 -1 0 0 0 0];
oriented        oriented;


internalField   nonuniform List<scalar> 
18240
(
0.0119434425974
-0.011943498108
0.024483990377
-0.0125406234878
0.0369755248249
-0.0124915877935
0.0493281053602
-0.0123526603513
0.0614891430272
-0.0121610850111
0.0734118531658
-0.0119227926204
0.0850534806359
-0.0116416682301
0.096374746155
-0.0113213497778
0.107340215369
-0.0109655032952
0.117918135036
-0.0105780049665
0.128080883544
-0.0101627758892
0.137804659044
-0.00972386122312
0.14706984875
-0.00926521060475
0.155860536983
-0.00879077384096
0.164164797778
-0.00830427539056
0.171974056247
-0.00780934352046
0.179283336518
-0.00730928892928
0.186090520581
-0.00680726816752
0.192396585719
-0.00630606812156
0.198204802329
-0.00580829945161
0.203520989764
-0.00531618516579
0.208352686682
-0.00483177821303
0.212709445314
-0.00435675138995
0.216601998573
-0.00389263278503
0.220042604464
-0.00344059410337
0.223044225476
-0.00300169855741
0.225620927135
-0.00257668558425
0.227787078497
-0.00216622675809
0.229557804373
-0.00177070590676
0.230948212218
-0.00139048093564
0.231973898077
-0.00102566222433
0.232650215248
-0.000676387884399
0.232992872957
-0.000342630792827
0.233017468396
-2.46637242123e-05
0.232739261151
0.000278237269349
0.232172341715
0.00056685376598
0.231331074148
0.00084130041199
0.230229294766
0.00110171655013
0.228880827555
0.00134850275753
0.227298776403
0.0015819913524
0.22549614354
0.00180267082206
0.2234851649
0.00201092205116
0.221277944283
0.00220726082118
0.218885807703
0.00239208333182
0.216319939513
0.00256591032182
0.213590752276
0.00272913745252
0.2107085185
0.00288227765353
0.207682755976
0.00302571628555
0.204522850945
0.0031599503336
0.201237459565
0.00328534876754
0.197835118709
0.00340238739617
0.194323664628
0.00351141513338
0.190710828488
0.00361288360569
0.187003673378
0.00370711986125
0.183209171807
0.00379454977287
0.179333662367
0.00387547788692
0.17538340712
0.00395030388303
0.171364069184
0.00401931007083
0.167281247951
0.0040828701169
0.163139978911
0.00414124482516
0.158945245226
0.00419478253512
0.154701500986
0.00424372363728
0.150413157629
0.00428839200141
0.146084131798
0.00432900878402
0.141718305577
0.00436587440967
0.137319099982
0.00439919205976
0.132889907882
0.00442923968664
0.128433694137
0.00445620366492
0.123953400465
0.00448034044916
0.119451573074
0.0045018207255
0.114930738635
0.00452088028392
0.110393060242
0.00453767508595
0.105840683947
0.00455242102605
0.101275423726
0.00456526020694
0.0966990779672
0.0045763892419
0.0921131440594
0.00458593707781
0.08751910451
0.00459408158687
0.0829181715614
0.00460093915202
0.0783115426559
0.00460666931304
0.0737001753474
0.00461137632716
0.0690850121361
0.00461520173956
0.0644667857208
0.00461823799311
0.0598462133156
0.00462060883093
0.0552238322528
0.00462239499864
0.0506001640736
0.00462370237514
0.0459755806917
0.00462459968764
0.0413504387978
0.00462517395589
0.0367249779834
0.00462547959521
0.0320994287941
0.00462557914121
0.0274739509642
0.00462549870406
0.0228487383639
0.00462523985033
0.0182240583494
0.00462470211969
0.0136005633155
0.00462351909605
0.00897993834767
0.00462064806173
0.00437514157529
0.0046048193146
0.0043751524007
0.0126151757489
-0.0245587368222
0.0260064716734
-0.0259319904302
0.0393035737385
-0.0257887551345
0.0524399839124
-0.0254891420404
0.0653674799147
-0.0250886435295
0.0780390582421
-0.0245944415102
0.0904100696573
-0.0240127387724
0.10243907125
-0.0233504203366
0.114088440043
-0.0226149274434
0.125324540323
-0.0218141721485
0.136118020795
-0.0209563077459
0.146443737354
-0.020049642272
0.156280887246
-0.0191024077684
0.165612757284
-0.0181227057048
0.174426740086
-0.0171183013491
0.182713953792
-0.0160966162207
0.190469183126
-0.0150645573113
0.197690416989
-0.0140285580802
0.204378755351
-0.0129944415248
0.210537906288
-0.0119675034324
0.216174092634
-0.0109524026263
0.221295541058
-0.00995327664171
0.22591241273
-0.0089736504005
0.230036306983
-0.00801657400287
0.233680230674
-0.00708454146782
0.236858129772
-0.00617964158839
0.239584904009
-0.00530347999219
0.241875972468
-0.00445733613734
0.243747333865
-0.00364208407574
0.245215165857
-0.00285835086379
0.246295923206
-0.00210643311201
0.247005952524
-0.00138645221376
0.247361567064
-0.000698255784887
0.247378370129
-4.14989552859e-05
0.247072325325
0.000584274602599
0.24645964087
0.00117950895628
0.24555596951
0.00174496724244
0.244376282878
0.0022813768546
0.242935209514
0.00278957445703
0.241246792237
0.00327038527091
0.239324728687
0.00372473552397
0.237182113591
0.00415351677172
0.234831679221
0.00455769904408
0.232285546029
0.00493819911709
0.229555467096
0.00529599572018
0.226652588316
0.00563200176681
0.223587694443
0.00594718046727
0.22037097794
0.00624242121814
0.217012283999
0.00651865557824
0.213520887334
0.00677673670398
0.209905733917
0.00701755432778
0.20617522537
0.00724191771882
0.20233745565
0.00745066892242
0.198400002917
0.0076445693217
0.194370159701
0.00782441050117
0.190254732386
0.00799090451823
0.186060263719
0.00814479183477
0.18179284013
0.00828673546295
0.177458305645
0.00841742548386
0.173062077403
0.00853747724087
0.168609350243
0.00864753202523
0.16410492079
0.00874815952064
0.159553382111
0.00883995428924
0.154958956797
0.00892344266642
0.150325681228
0.00899917472521
0.145657248052
0.00906763583584
0.140957179655
0.00912933382156
0.136228680461
0.00918471538769
0.131474799305
0.00923424821337
0.126698291934
0.00927834246252
0.121901771999
0.00931742757568
0.117087584129
0.00935187906498
0.112257943347
0.00938208979447
0.107414819044
0.00940840225983
0.102560062604
0.0094311741604
0.0976953025897
0.00945071634708
0.0928220604659
0.0094673525187
0.0879416572035
0.00948136300198
0.0830553170224
0.00949303842736
0.0781640855749
0.00950262946966
0.0732689217245
0.00951039439914
0.0683706273931
0.00951655486644
0.0634699274266
0.00952133723538
0.0585674111638
0.00952493444516
0.0536636004972
0.00952754099197
0.0487589032177
0.00952932080495
0.043853669263
0.00953043548729
0.0389481557278
0.00953101774422
0.0340425703623
0.00953119169902
0.0291370442706
0.00953104986656
0.0242316477067
0.0095306623806
0.0193263183161
0.00953005594025
0.0144206582948
0.00952920385712
0.00951356698132
0.00952776350922
0.00460771705638
0.00951069234334
0.00898288063922
0.0127553972644
-0.0373141986206
0.0262524959335
-0.0394291586858
0.0396689703984
-0.0392052974139
0.052923985689
-0.0387442262214
0.0659654550588
-0.0381301787926
0.0787447681662
-0.0373738216238
0.0912163218745
-0.0364843557543
0.103338014938
-0.0354721780268
0.115071706192
-0.0343486789648
0.126383451219
-0.033125979037
0.137243708428
-0.0318166219047
0.147627347119
-0.0304333397884
0.157513667373
-0.0289887814919
0.166886236215
-0.0274953301511
0.175732772027
-0.0259648870285
0.184044860223
-0.0244087567037
0.191817752031
-0.0228374953782
0.19905000936
-0.0212608643267
0.205743263473
-0.0196877382723
0.211901831739
-0.0181261172457
0.217532472759
-0.0165830827294
0.22264400713
-0.0150648532079
0.227247094412
-0.0135767732543
0.231353878991
-0.0121233974766
0.234977803979
-0.0107084986262
0.238133293609
-0.0093351668599
0.240835610573
-0.00800582578182
0.24310057904
-0.00672233705915
0.244944485843
-0.00548601647284
0.246383842747
-0.00429773709076
0.24743532713
-0.00315793991685
0.24811557857
-0.00206672993091
0.248441176787
-0.00102387340677
0.248428534795
-2.88802872597e-05
0.248093788175
0.000919004836273
0.24745270667
0.00182057012888
0.246520785804
0.00267687467511
0.245313073787
0.00348907150706
0.243844217171
0.00425842058758
0.242128358558
0.00498622946532
0.240179203781
0.00567388269134
0.238009929771
0.00632277928507
0.235633259917
0.00693436412856
0.233061380774
0.00751006962691
0.230306023651
0.00805135080949
0.227378388502
0.00855963108849
0.224289229384
0.00903634022413
0.221048783926
0.00948286357126
0.217666860729
0.00990058196132
0.214152773129
0.0102908238396
0.210515426876
0.0106549062289
0.20676325733
0.0109940893357
0.202904316258
0.011309617961
0.198946211871
0.0116026782133
0.194896193752
0.0118744387987
0.190761095427
0.0121260096557
0.186547416793
0.0123584827017
0.182261269041
0.0125728922129
0.177908454042
0.0127702546499
0.173494411592
0.0129515307358
0.169024295464
0.0131176640889
0.16450292301
0.0132695449385
0.159934847567
0.0134080473117
0.155324310557
0.0135339944223
0.150675310118
0.0136481942362
0.145991555824
0.0137514065393
0.141276533389
0.0138443767095
0.13653346219
0.0139278045429
0.131765355994
0.0140023761133
0.126974983459
0.0140687344006
0.12216492478
0.0141275091151
0.117337535361
0.0141792892267
0.112494998382
0.0142246506672
0.107639291791
0.0142641308234
0.102772236734
0.014298254025
0.0978954680384
0.014327508101
0.0930104785217
0.0143523675886
0.0881185930785
0.0143732724152
0.0832210088465
0.0143906487619
0.0783187730201
0.0144048899491
0.0734128189062
0.0144163749106
0.0685039475339
0.0144254513155
0.0635928596136
0.014432451602
0.0586801409897
0.0144376783617
0.0537662905121
0.0144414178536
0.0488517092275
0.0144439276137
0.0439367238795
0.0144454472777
0.0390215792134
0.0144461883135
0.0341064553964
0.0144463419696
0.0291914596782
0.0144460714822
0.0242766287908
0.0144455190719
0.0193619017041
0.0144448077937
0.0144470804585
0.0144440494574
0.00953204898074
0.0144428194356
0.00462420852577
0.0144185561252
0.0136071001421
0.0129131698072
-0.0502274332343
0.0265639416893
-0.0530799992485
0.0401339509416
-0.0527753750273
0.0535380981809
-0.0521484414112
0.0667216549302
-0.0513138020263
0.0796341496144
-0.050286382197
0.0922285957838
-0.0490788659593
0.104461874795
-0.0477055203889
0.116295116679
-0.0461819820425
0.127693942907
-0.0445248657187
0.138628623202
-0.0427513602691
0.149074094793
-0.0408788686794
0.159009920182
-0.0389246616161
0.168420129695
-0.0369055936459
0.177293034147
-0.0348378427831
0.18562094811
-0.0327367212466
0.19339991451
-0.0306165095865
0.200629363752
-0.0284903607109
0.207311800819
-0.0263702196666
0.213452445714
-0.0242668058539
0.219058921793
-0.022189599667
0.22414091003
-0.0201468817585
0.228709864334
-0.0181457650142
0.23277869959
-0.0161922697037
0.236361548102
-0.0142913812428
0.23947349104
-0.0124471434834
0.242130361313
-0.0106627268924
0.244348520645
-0.0089405268568
0.246144708115
-0.00728223156159
0.24753586025
-0.00568891653362
0.248539001123
-0.00416110528059
0.249171101526
-0.00269885454975
0.24944900765
-0.00130180098372
0.249389374253
3.0731884482e-05
0.249008514876
0.00129984579325
0.248322362326
0.0025067044956
0.247346497692
0.00365272389971
0.246096069369
0.00473948463304
0.244585781064
0.00576869643829
0.242829844001
0.00674215428031
0.240841988227
0.00766172893445
0.238635428538
0.00852932962997
0.236222885763
0.00934690022369
0.233616561184
0.0101163877018
0.23082816444
0.0108397436628
0.227868893981
0.0115188978108
0.224749469351
0.0121557636567
0.22148011588
0.0127522159856
0.218070599559
0.0133100996932
0.214530214594
0.0138312103335
0.21086781954
0.0143173051879
0.207091826728
0.0147700861553
0.203210238663
0.0151912123199
0.199230638623
0.0155822846257
0.195160226629
0.0159448593432
0.19100581077
0.0162804341232
0.186773842256
0.0165904618997
0.182470407183
0.0168763380014
0.178101260348
0.0171394141557
0.173671817335
0.0173809864321
0.169187186875
0.0176023090737
0.164652163203
0.0178045831257
0.160071256847
0.0179889698996
0.155448687291
0.0181565801884
0.150788412131
0.01830848721
0.146094120094
0.0184457163565
0.141369258559
0.0185692575124
0.136617027021
0.0186800553137
0.131840402992
0.0187790207564
0.127042136006
0.0188670219681
0.122224771921
0.0189448950507
0.11739064759
0.0190134353814
0.112541913593
0.0190734076448
0.107680529677
0.0191255376914
0.102808285953
0.0191705217305
0.0979267992104
0.0192090187809
0.0930375326216
0.0192416590006
0.088141793016
0.0192690367662
0.0832407491163
0.0192917181243
0.078335429859
0.0193102345332
0.0734267411989
0.0193250894245
0.0685154655301
0.0193367526318
0.0636022770767
0.0193456660506
0.0586877424314
0.0193522387686
0.0537723345057
0.0193568518087
0.0488564340326
0.0193598539825
0.043940341798
0.0193615657063
0.0390242805608
0.0193622757225
0.034108404515
0.0193622443511
0.0291928000682
0.0193617020409
0.0242774901735
0.0193608545095
0.019362434326
0.0193598884934
0.0144475459872
0.0193589625217
0.00953299123605
0.0193573982827
0.00462684398368
0.0193247263961
0.01823395528
0.013120501606
-0.0633479995146
0.0269846852013
-0.0669442514717
0.0407639853702
-0.0665547432971
0.0543699715725
-0.0657544951172
0.0677452870644
-0.0646891838377
0.0808372231458
-0.0633783836072
0.0935969810283
-0.0618386877707
0.105980058381
-0.0600886604955
0.117946607784
-0.0581485926109
0.129461670541
-0.0560399883211
0.14049529748
-0.053785045305
0.151022545651
-0.0514061735408
0.161023384025
-0.0489255548289
0.170482503303
-0.0463647663044
0.179389068677
-0.0437444596165
0.187736409638
-0.0410841121986
0.195521686229
-0.0384018342162
0.202745521629
-0.035714242683
0.209411638469
-0.033036381109
0.215526483436
-0.0303816939817
0.221098874732
-0.0277620321606
0.226139651794
-0.0251876986027
0.230661359214
-0.022667510262
0.234677940089
-0.0202088870333
0.238204468802
-0.0178179444808
0.241256895343
-0.0154996032083
0.243851830035
-0.0132576928564
0.246006338704
-0.0110950654971
0.247737776677
-0.00901369762083
0.249063630373
-0.00701479704405
0.250001395035
-0.00509889488586
0.250568457038
-0.00326594026449
0.250782009409
-0.00151537526225
0.250658964391
0.000153756200029
0.250215876311
0.00174291503871
0.249468911748
0.00325365143703
0.248433809997
0.00468780984245
0.247125847325
0.00604743268972
0.245559816926
0.00733471401366
0.243750003079
0.00855195646801
0.241710177892
0.00970154422023
0.239453588029
0.0107859107365
0.236992961054
0.0118075201673
0.234340500049
0.0127688427825
0.231507896292
0.0136723431723
0.228506329168
0.0145204617654
0.22534648294
0.0153156083474
0.222038550113
0.016060148307
0.218592250695
0.0167564001784
0.215016837651
0.0174066254383
0.211321117434
0.0180130289819
0.207513456563
0.0185777515439
0.203601802596
0.0191028722509
0.199593691171
0.0195904029096
0.195496266785
0.0200422919657
0.191316289871
0.0204604201087
0.187060157038
0.020846605102
0.182733907897
0.0212025982953
0.178343244495
0.0215300899305
0.17389353777
0.0218307062512
0.169389846064
0.0221060150103
0.16483692114
0.0223575229468
0.160239225714
0.022586681281
0.155600939047
0.0227948834193
0.150925973506
0.0229834702957
0.14621797977
0.0231537281984
0.141480362445
0.0233068938526
0.136716284968
0.0234441523215
0.131928684327
0.0235666417691
0.127120275745
0.0236754514002
0.122293566563
0.023771625859
0.117450860799
0.0238561632101
0.112594272258
0.023930018955
0.107725729057
0.023994104055
0.102846986022
0.0240492885538
0.0979596292548
0.0240963996675
0.0930650878866
0.0241362250144
0.0881646387602
0.0241695107909
0.0832594175802
0.0241969646079
0.0783504237774
0.0242192537876
0.0734385310967
0.0242370078166
0.0685244927007
0.0242508167726
0.0636089512082
0.0242612334135
0.0586924440433
0.024268771765
0.0537754129176
0.0242739088606
0.0488582092941
0.0242770835469
0.0439411031504
0.0242786979625
0.0390242883182
0.0242791167725
0.0341078901422
0.0242786687705
0.0291919708412
0.0242776474077
0.0242765371323
0.0242763139442
0.0193615499691
0.0242749004442
0.0144469528167
0.0242735838625
0.00953294722543
0.0242714282088
0.00462759043136
0.0242301064007
0.0228615565864
0.0133828779324
-0.0767309418819
0.0275210676566
-0.0810825090554
0.0415682622106
-0.0806020057365
0.055431880984
-0.0796181808958
0.0690514201994
-0.0783087890455
0.0823714382248
-0.0766984665
0.0953408784969
-0.074808191636
0.107913500776
-0.0726613450821
0.120048245191
-0.0702833978707
0.13170945419
-0.0677012567387
0.142866957561
-0.0649426064952
0.1534960263
-0.062035298568
0.16357721878
-0.0590068019069
0.173096132669
-0.0558837332036
0.18204309011
-0.0526914683305
0.190412769192
-0.0494538409365
0.198203807328
-0.0461929202473
0.205418385126
-0.0429288667549
0.212061811879
-0.0396798523786
0.218142115656
-0.0364620406582
0.223669654216
-0.0332896118708
0.228656744661
-0.0301748286025
0.233117324005
-0.0271281274371
0.237066634685
-0.0241582339711
0.240520944374
-0.0212722887256
0.243497291561
-0.0184759834068
0.246013264589
-0.0157736972239
0.248086804132
-0.0131686348572
0.249736035996
-0.0106629576452
0.25097912357
-0.00825791128636
0.251834146651
-0.00595394300408
0.252318995636
-0.00375081279904
0.252451286485
-0.00164768809621
0.252248262723
0.000356759431011
0.251726783889
0.00226437497694
0.250903268439
0.00407714946316
0.249793651257
0.00579741118763
0.24841336018
0.00742770936534
0.246777299185
0.00897076216351
0.244899833877
0.0104294103396
0.242794787423
0.0118065807655
0.240475436793
0.0131052528327
0.237954517295
0.0143284326202
0.235244225815
0.0154791285564
0.232356230972
0.0165603337608
0.229301680864
0.0175750089151
0.226091216742
0.0185260709128
0.222734983512
0.0194163812343
0.219242645406
0.020248739335
0.215623397978
0.0210258751186
0.211885984714
0.0217504457941
0.208038709638
0.0224250313176
0.204089454118
0.0230521337058
0.200045689485
0.0236341745694
0.195914493549
0.0241734960962
0.191702562867
0.0246723600165
0.187416228639
0.025132949658
0.18306146841
0.0255573698174
0.178643921188
0.0259476494735
0.174168898467
0.0263057421926
0.169641398492
0.0266335291618
0.165066116573
0.0269328198756
0.160447458487
0.02720535526
0.155789550113
0.0274528084572
0.151096250006
0.0276767878825
0.146371158409
0.0278788379868
0.141617629061
0.0280604421451
0.136838777662
0.0282230233233
0.132037492997
0.028367946734
0.127216444937
0.0284965203685
0.122378094959
0.0286099973884
0.11752470377
0.0287095765084
0.112658341309
0.0287964041095
0.107780894082
0.0288715744762
0.102894074714
0.0289361316308
0.0979994290746
0.0289910694464
0.0930983454441
0.0290373332113
0.0881920615134
0.0290758196275
0.0832816732084
0.0291073781356
0.0783681416214
0.0291328108226
0.0734523015484
0.0291528735214
0.0685348683916
0.0291682756593
0.06361644644
0.0291796811565
0.0586975357599
0.0291877082515
0.053778540227
0.0291929302415
0.0488597743293
0.0291958753536
0.0439414709104
0.029197027425
0.039023787844
0.0291968259992
0.034106815584
0.029195667252
0.0291905843908
0.0291939046779
0.0242750730322
0.0291918507081
0.0193602207374
0.0291897775028
0.0144459510966
0.0291878781633
0.00953242141138
0.0291849817807
0.00462758004408
0.0291349705763
0.0274891477234
0.0137048290375
-0.0904358349752
0.0281803613634
-0.0955581092534
0.0425571415534
-0.0949788532702
0.0567372148118
-0.0937983207905
0.070656149145
-0.0922277889206
0.0842551428738
-0.0902975246529
0.0974803817841
-0.0880334937194
0.110283522359
-0.0854645475156
0.122622069292
-0.0826220052579
0.134459580074
-0.0795388265062
0.145765704971
-0.0762487888474
0.156516079162
-0.0727857286441
0.166692092328
-0.0691828693471
0.176280559829
-0.06547225335
0.185273323232
-0.0616842827222
0.193666802535
-0.0578473695738
0.201461523606
-0.0539876889792
0.208661636986
-0.0501290261357
0.2152744448
-0.0462927045161
0.221309944857
-0.0424975833881
0.226780402243
-0.0387601102633
0.231699951504
-0.0350944172374
0.236084234851
-0.0315124485076
0.23995007531
-0.0280241105468
0.243315187101
-0.0246374350054
0.246197919685
-0.0213587488961
0.24861703609
-0.0181928449237
0.250591520733
-0.0151431492323
0.252140416706
-0.01221188176
0.253282687365
-0.0094002085456
0.254037102181
-0.00670838283203
0.254422141433
-0.00413587553076
0.254455918499
-0.00168148711641
0.254156057854
0.000656599625083
0.253539782147
0.00288063183491
0.252623790697
0.00499312359174
0.251424238359
0.00699694775217
0.249956722039
0.00889521140341
0.248236269653
0.0106912017831
0.246277333659
0.012388335024
0.244093791017
0.0139901135774
0.241698945916
0.0155000895255
0.2391055371
0.0169218344731
0.236325746494
0.0182589135805
0.233371211193
0.0195148648805
0.230253035698
0.0206931815677
0.226981806615
0.0217972985109
0.223567606877
0.0228305807778
0.220020031807
0.0237963155158
0.216348204208
0.0246977050675
0.212560790855
0.0255378627503
0.208666017689
0.0263198092684
0.20467168613
0.027046471243
0.20058518789
0.0277206799106
0.196413520706
0.0283451715115
0.192163302488
0.0289225875242
0.187840786252
0.0294554762467
0.183451873442
0.029946293971
0.179002127969
0.0303974072861
0.174496788644
0.0308110947773
0.169940782306
0.0311895496838
0.165338735386
0.0315348818328
0.160694986141
0.0318491203975
0.156013595413
0.0321342158645
0.151298358041
0.0323920427247
0.146552812886
0.0326244013379
0.141780253512
0.0328330204471
0.136983737571
0.0330195588611
0.132166096849
0.0331856077302
0.127329946108
0.0333326920027
0.122477692584
0.0334622724306
0.117611544394
0.0335757467826
0.112733519575
0.0336744515814
0.107845454137
0.0337596630755
0.102949010728
0.0338325987017
0.0980456864227
0.0338944178482
0.093136821085
0.0339462230622
0.0882236049486
0.0339890606189
0.0833070867453
0.0340239215035
0.0783881811411
0.0340517418171
0.07346767667
0.0340734035611
0.0685462430826
0.0340897349126
0.0636244391166
0.0341015108462
0.0587027197832
0.0341094533218
0.0537814440124
0.0341142317916
0.0488608818348
0.0341164633649
0.043941221939
0.0341167132895
0.0390225788329
0.0341154952125
0.0341050004369
0.0341132717489
0.0291884760073
0.0341104550393
0.0242729449771
0.0341074073603
0.0193583071841
0.034104439948
0.0144444426278
0.034101766688
0.00953144840632
0.0340980001852
0.00462718007141
0.0340392619657
0.0321163385557
0.0140910826094
-0.104526981318
0.0289715885065
-0.110438682127
0.0437437613427
-0.109751093156
0.0583029042792
-0.108357529833
0.0725797236824
-0.106504673444
0.0865113223573
-0.104229187282
0.100040569696
-0.101562803775
0.113116637409
-0.0985406766336
0.125695388083
-0.0952008159319
0.137739550698
-0.091583047674
0.149218698268
-0.0877279934415
0.16010905439
-0.083676140247
0.170393161928
-0.0794670307615
0.180059447076
-0.0751385907765
0.189101712315
-0.070726598598
0.19751858708
-0.0662642933519
0.205312962242
-0.0617821114985
0.212491428132
-0.0573075377513
0.21906373269
-0.0528650531494
0.225042270323
-0.0484761634672
0.23044160975
-0.0441594904965
0.235278064437
-0.0399309111168
0.239569308115
-0.0358037297579
0.243334034483
-0.0317888728905
0.246591660286
-0.0278950951865
0.249362068508
-0.0241291899158
0.251665389307
-0.0204961969416
0.253521814595
-0.016999604173
0.254951443492
-0.0136415387407
0.255974154576
-0.0104229461644
0.256609502583
-0.00734375581353
0.256876635542
-0.00440303189117
0.25679423063
-0.00159910410428
0.256380332669
0.00107047721438
0.255652574968
0.00360837075012
0.254627961672
0.00601771966262
0.253322884877
0.00830200885759
0.251753121601
0.0104649605083
0.249933829756
0.0125104809537
0.247879549289
0.0144426042966
0.245604208052
0.0162654450817
0.243121130701
0.0179831585842
0.240443050557
0.0195999077451
0.237582123141
0.0211198355259
0.234549941522
0.0225470424064
0.231357552401
0.0238855679518
0.228015473215
0.0251393762908
0.224533709335
0.026312344559
0.220921771766
0.0274082542665
0.217188694511
0.0284307847594
0.213343052096
0.029383508827
0.209392976502
0.0302698897249
0.205346174032
0.0310932797402
0.201209941452
0.0318569196571
0.196991181927
0.032563939305
0.192696420175
0.0332173586209
0.188331817353
0.0338200894479
0.183903185143
0.0343749375687
0.179415999561
0.0348846052207
0.174875413986
0.0353516936444
0.170286271928
0.03577870593
0.165653119058
0.0361680497614
0.160980215013
0.036522040328
0.156271544523
0.0368429030447
0.15153082835
0.0371327763505
0.14676153362
0.0373937142635
0.141966884011
0.0376276889559
0.1371498694
0.0378365930596
0.132313255411
0.0380222419562
0.127459592501
0.0381863757856
0.122591224969
0.0383306614346
0.117710299571
0.038456694235
0.112818774117
0.0385659996342
0.107918425708
0.0386600346068
0.103010858987
0.0387401890226
0.0980975141
0.0388077867846
0.0931796746805
0.0388640869254
0.0882584755979
0.0389102845014
0.0833349107399
0.0389475114499
0.078409840611
0.0389768372742
0.0734839999608
0.0389992696987
0.0685580052878
0.039015755183
0.0636323623566
0.039027179416
0.0587074736367
0.0390343677046
0.0537836457623
0.039038085354
0.0488610968913
0.0390390379924
0.043939964164
0.0390378718963
0.0390203110654
0.0390351743089
0.0341021350758
0.0390314737981
0.02918537555
0.0390272404866
0.0242699219241
0.0390228861928
0.0193556234418
0.0390187630283
0.0144423053065
0.0390151093668
0.00952999973681
0.0390103294079
0.00462648676302
0.0389427975153
0.0367428363391
0.0145471996334
-0.119074244226
0.0299058545873
-0.125797404108
0.045144434957
-0.124989739956
0.060149962078
-0.123363122674
0.0748472051548
-0.12120198113
0.0891683291161
-0.118550374722
0.103052268621
-0.115446805515
0.116445316069
-0.111933784996
0.129301512477
-0.108057071873
0.141582774721
-0.10386436799
0.153258783982
-0.099404059281
0.164306675006
-0.0947240862963
0.174710570753
-0.0898709799745
0.184461007147
-0.0848890790332
0.193554289362
-0.0798199310802
0.201991815758
-0.0747018683946
0.20977939906
-0.0695697418378
0.216926607664
-0.0644547917691
0.223446143697
-0.0593846329866
0.229353268759
-0.0543833307185
0.234665283765
-0.0494715460897
0.239401065429
-0.0446667317678
0.24358065936
-0.0399833610866
0.247224927487
-0.0354331768358
0.250355246517
-0.0310254484614
0.252993252976
-0.0267672290555
0.2551606304
-0.0226636054834
0.256878933752
-0.018717937087
0.258169446701
-0.0149320796971
0.259053067324
-0.0113065932623
0.259550219036
-0.0078409324278
0.259680782701
-0.00453361889395
0.259464058054
-0.00138240127635
0.25891854468
0.00161597029448
0.25806231675
0.00446457998295
0.256912697244
0.00716732203369
0.255486325329
0.00972836518703
0.253799161959
0.0121521098102
0.251866493904
0.0144431364463
0.249702943043
0.0166061440715
0.247322479365
0.0186458991384
0.244738436389
0.0205671933744
0.241963528571
0.0223748088015
0.239009869876
0.0240734888515
0.235888993322
0.0256679149706
0.232611870865
0.027162687765
0.2291889336
0.0285623122453
0.225630091773
0.029871186372
0.221944754699
0.0310935926072
0.218141850171
0.0322336917977
0.21422984352
0.0332955192168
0.210216755979
0.0342829821888
0.206110182584
0.0351998592271
0.201917309274
0.0360498001834
0.197644929476
0.0368363274256
0.193299459875
0.0375628376033
0.188886955662
0.0382326040828
0.184413124984
0.0388487796589
0.179883342913
0.0394143996761
0.175302664655
0.0399323852069
0.170675838337
0.0404055464559
0.166007317091
0.0408365860664
0.161301270784
0.0412281025296
0.156561597113
0.0415825933949
0.151791932412
0.0419024585021
0.146995661899
0.0421900029507
0.142175929697
0.0424474400452
0.137335648369
0.0426768939426
0.132477508288
0.0428804022506
0.127603986587
0.0430599183171
0.122717356
0.0432173134601
0.117819693345
0.0433543788924
0.112912887946
0.0434728275897
0.107998649748
0.0435742958654
0.10307851742
0.0436603448985
0.0981538661946
0.0437324619888
0.0932259157257
0.0437920617777
0.0882957377279
0.0438404872211
0.0833642636557
0.0438790105427
0.0784322922067
0.0439088339669
0.0735004968715
0.043931090447
0.0685694333585
0.0439468442035
0.0636395470605
0.043957091272
0.0587111804393
0.0439627598942
0.0537845804639
0.0439647109341
0.0488599059436
0.0439637381679
0.0439372350059
0.0439605686185
0.0390165724553
0.0439558627819
0.0340978573054
0.0439502148529
0.0291809706094
0.0439441529125
0.0242657434361
0.0439381388285
0.0193519648916
0.0439325660371
0.0144393976161
0.0439277003513
0.00952800822536
0.0439217428006
0.0046255054729
0.0438453231417
0.0413683524484
0.0150798958483
-0.134154203016
0.0309967389006
-0.141714313187
0.0467791621693
-0.140772229353
0.0623041252957
-0.138888150948
0.0774892120658
-0.136387132055
0.0922606878646
-0.133321913492
0.106552872265
-0.129739051646
0.120308779169
-0.125689752314
0.133480494299
-0.121228846021
0.146029224613
-0.116413155889
0.157925059002
-0.111299949751
0.169146496701
-0.105945578561
0.179679804501
-0.100404340775
0.189518261194
-0.0947275871669
0.198661341832
-0.0889630615668
0.207113885257
-0.0831544600916
0.214885279318
-0.0773411825718
0.221988688518
-0.07155824606
0.228440340987
-0.0658363289535
0.234258884338
-0.0602019159895
0.239464814783
-0.0546775168705
0.244079979431
-0.0492819351845
0.248127149054
-0.0440305679112
0.251629656398
-0.0389357198254
0.254611094257
-0.0340069204144
0.257095066808
-0.0292512341517
0.259104987778
-0.0246735574551
0.26066391912
-0.0202768978887
0.261794444354
-0.0160626328518
0.262518571126
-0.012030746427
0.262857658926
-0.00818004507014
0.262832365071
-0.00450834829266
0.26246266484
-0.00101272278428
0.261767562403
0.00231105253332
0.260765559161
0.00546656461932
0.259474301109
0.00845856305849
0.257910678088
0.0112919727281
0.256090831028
0.0139719429211
0.254030166537
0.0165037884864
0.251743375806
0.0188929238372
0.249244455713
0.0211448097215
0.246546731469
0.0232649095506
0.243662880186
0.0252586534289
0.240604954918
0.0271314088635
0.237384408791
0.0288884572069
0.234012118971
0.0305349750477
0.230498410204
0.0320760197913
0.226853077822
0.0335165188356
0.223085410033
0.034861261743
0.219204209462
0.0361148949643
0.215217813845
0.0372819186397
0.211134115875
0.038366685157
0.206960582159
0.0393733990907
0.202704271319
0.0403061183021
0.19837185121
0.0411687558998
0.193969615324
0.0419650829226
0.189503498358
0.0426987315004
0.184979091047
0.0433731984215
0.180401654223
0.0439918489018