/*--------------------------------*- C++ -*----------------------------------*\
| =========                 |                                                 |
| \\      /  F ield         | OpenFOAM: The Open Source CFD Toolbox           |
|  \\    /   O peration     | Version:  v1906                                 |
|   \\  /    A nd           | Web:      www.OpenFOAM.com                      |
|    \\/     M anipulation  |                                                 |
\*---------------------------------------------------------------------------*/
FoamFile
{
    version     2.0;
    format      ascii;
    class       surfaceScalarField;
    location    "59";
    object      phi;
}
// * * * * * * * * * * * * * * * * * * * * * * * * * * * * * * * * * * * * * //

dimensions      [0 3 -1 0 0 0 0];
oriented        oriented;


internalField   nonuniform List<scalar> 
18240
(
-0.000255113969363
0.000253276900261
-0.000479151051079
0.000222205106147
-0.000712754818843
0.000232131767828
-0.000947100390954
0.000232417240019
-0.00117826271198
0.000229761374433
-0.00140559771455
0.000225313077874
-0.00162696423854
0.000220045223081
-0.0018428437084
0.00021376583981
-0.00205126144545
0.000207183658921
-0.00225328328671
0.000199818161747
-0.00244688621013
0.000192464827195
-0.00263307924969
0.000183900170884
-0.00280960292654
0.000175488095944
-0.00297862777445
0.000166644998338
-0.00313761656175
0.000158066398524
-0.00328885285363
0.00014877605214
-0.00342945745946
0.000139805328372
-0.00356291258119
0.000130924486146
-0.00368639384658
0.000122818224445
-0.00380338833619
0.000114402533775
-0.00391056544546
0.000106661078251
-0.00401030986982
9.71090646157e-05
-0.00409834731694
8.76822170065e-05
-0.00417946816301
7.84602977052e-05
-0.00425044852617
7.07985847907e-05
-0.00431587670438
6.27619956555e-05
-0.00437116021821
5.52869868526e-05
-0.00441999414047
4.6188241746e-05
-0.00445755859348
3.77585968282e-05
-0.00448813549034
2.79829557567e-05
-0.00450802588774
2.02852306864e-05
-0.00451999386153
9.46050517129e-06
-0.00451668810336
-2.71045839585e-06
-0.00450618076666
-1.28885841053e-05
-0.00448415209031
-2.12388036879e-05
-0.00445550292339
-3.08764080393e-05
-0.0044153571525
-3.91728300264e-05
-0.0043687050154
-4.86996436998e-05
-0.00431035389732
-5.72035257178e-05
-0.00424555374125
-6.66446215526e-05
-0.00417005340973
-7.41963869856e-05
-0.00408887205907
-8.28032885724e-05
-0.00399586677174
-9.1564173532e-05
-0.00389596487265
-0.000101289125473
-0.00378644235897
-0.000107965558856
-0.00367302122296
-0.000114565421331
-0.00355131034169
-0.000120060162492
-0.00342645137577
-0.000125760859153
-0.00329469856687
-0.000130039353065
-0.00316135498472
-0.000134005576606
-0.00302365019403
-0.000135961444405
-0.00288644737373
-0.000137636646872
-0.00274694896017
-0.00013776171574
-0.00260990843581
-0.000137267390422
-0.00247351915105
-0.0001346855175
-0.00234159097551
-0.000131971841423
-0.00221148298785
-0.00012846135034
-0.0020859729397
-0.000125392798315
-0.00196317514107
-0.000121222723016
-0.00184662804958
-0.000116295715225
-0.00173497764117
-0.000110155854593
-0.0016306828773
-0.00010393983638
-0.00153225334655
-9.70254669792e-05
-0.00144122077779
-9.05984639119e-05
-0.00135510550452
-8.48067613543e-05
-0.00127491206873
-7.96950200251e-05
-0.00119974285152
-7.39464828948e-05
-0.001131543179
-6.76592374345e-05
-0.00106850690106
-6.19039543328e-05
-0.00100980560463
-5.81264220443e-05
-0.000953725990423
-5.50439546783e-05
-0.00090043452221
-5.26834674274e-05
-0.000849564791888
-4.99266354941e-05
-0.000801769227704
-4.71785618848e-05
-0.000755733238953
-4.5183505538e-05
-0.000713301475312
-4.18318396992e-05
-0.000675644314041
-3.68827971169e-05
-0.000643702470398
-3.13720060714e-05
-0.00061442817637
-2.85745104034e-05
-0.000584862917531
-2.90082638048e-05
-0.000554887918583
-2.93112445385e-05
-0.000528721735159
-2.56215012532e-05
-0.000508831076043
-1.92432889286e-05
-0.000490764346608
-1.75104704982e-05
-0.000469553256334
-2.0544268577e-05
-0.000447751661181
-2.12135898419e-05
-0.00043115998053
-1.58928337688e-05
-0.000419896742166
-1.05284432999e-05
-0.000400729591618
-1.82548419821e-05
-0.000366118556667
-3.35462503346e-05
-0.000324359696233
-4.0494780294e-05
-0.000277870277838
-4.50880752142e-05
-0.000217632320126
-5.87633772725e-05
-0.000143147798644
-7.29675650822e-05
-6.41750400903e-05
-7.745903632e-05
-6.34447108081e-05
-0.00022608392203
0.000477742958058
-0.00049638614866
0.000490721552812
-0.000754505601993
0.000488550745385
-0.00100696658919
0.00048305546028
-0.00125448151309
0.000475586109563
-0.00149695345131
0.000465934197688
-0.00173323583877
0.000454652566872
-0.00196304028314
0.00044169425148
-0.00218503770709
0.00042752695482
-0.00239927931624
0.000412162887468
-0.00260474787531
0.00039630466189
-0.00280237495348
0.000379612364845
-0.00299097910489
0.000362494581687
-0.00317021653189
0.000343953875475
-0.00333979553843
0.00032608490111
-0.00350078045597
0.000307826525418
-0.00365182370763
0.000289337481285
-0.00379399034907
0.000271162266046
-0.00392605047353
0.000253427002638
-0.00404853683572
0.000234978066337
-0.00416068256572
0.000217431794867
-0.0042655695314
0.000200119469323
-0.00436110687511
0.000181932748017
-0.00444807102663
0.000163596099758
-0.00452446758502
0.000146012172761
-0.00459173542166
0.000128271296036
-0.00464901847282
0.000111506065994
-0.00469877665211
9.42781797511e-05
-0.00473976900002
7.78265714563e-05
-0.0047729125101
5.95710480003e-05
-0.00479376622898
4.03674403748e-05
-0.00480489077054
1.91690303298e-05
-0.00480650149116
-1.70104883945e-06
-0.0047993176338
-2.13306434534e-05
-0.00478044627922
-4.05294141099e-05
-0.00475201363539
-6.03923849731e-05
-0.00471260390857
-7.88117091025e-05
-0.0046641467729
-9.80524891418e-05
-0.00460448363295
-0.000116906663685
-0.00453545599983
-0.000136376127787
-0.00445457717966
-0.000154925590434
-0.00436479742276
-0.000173088186637
-0.00426652668809
-0.000189505276221
-0.0041615352921
-0.000206579925823
-0.00404654823876
-0.000222456568148
-0.00392479055478
-0.000236415799599
-0.00379529004603
-0.000248913496341
-0.00366083250953
-0.000260114799032
-0.00352016003142
-0.000269930086342
-0.00337655098049
-0.000277333129803
-0.00323008903405
-0.000281526130898
-0.00308311449453
-0.000284177326209
-0.00293573862081
-0.000284152705268
-0.0027901646523
-0.000282282403529
-0.00264517305569
-0.000278633037171
-0.00250348262078
-0.000273005093825
-0.00236562359675
-0.000265242796158
-0.00223393188951
-0.000256349870764
-0.00210673993399
-0.000247321996689
-0.00198398435091
-0.00023825873894
-0.00186621270944
-0.000226838699499
-0.00175520571539
-0.000214122899432
-0.0016504005587
-0.000200768529561
-0.00155274242111
-0.000187420631202
-0.00146215068098
-0.000174374637733
-0.0013784163916
-0.000162584743887
-0.0012992902362
-0.000152083198845
-0.00122363454431
-0.000142471718524
-0.00115091528336
-0.000133681838722
-0.00108337512694
-0.000124838967781
-0.00102276466285
-0.000114752395916
-0.000967664354805
-0.000106974841221
-0.000916524134966
-0.00010020227641
-0.000868368047007
-9.45592055923e-05
-0.000819766462867
-9.2980007479e-05
-0.000772405417366
-8.84578711577e-05
-0.000724009076238
-8.45296941087e-05
-0.000673847496319
-8.08613224452e-05
-0.0006306790821
-7.10609894453e-05
-0.000598435379677
-6.06214019609e-05
-0.000570482689743
-5.66134833869e-05
-0.000540976656244
-5.45190530913e-05
-0.000510859016521
-4.87442850558e-05
-0.000482927087504
-4.48473393302e-05
-0.000457691403584
-4.5172342264e-05
-0.000432857964759
-4.54387673971e-05
-0.000415755818163
-3.23305381084e-05
-0.000404610899944
-2.09579056628e-05
-0.000392507930996
-2.95329979723e-05
-0.000374706039283
-5.03046692949e-05
-0.000341579615769
-7.23272052235e-05
-0.000297193879107
-8.81359619384e-05
-0.000243369949995
-0.000111126830209
-0.000172721305204
-0.0001419718748
-8.08992215987e-05
-0.000167728607788
-0.000143681510626
-0.000239925281976
0.00071601642482
-0.000502525224862
0.000751556985536
-0.000761587206624
0.000745858186551
-0.00101651688312
0.000736198376082
-0.00126674302651
0.000724054799336
-0.00151139909849
0.000708792751893
-0.00174956877086
0.000691065780648
-0.00198073318734
0.000671053478104
-0.00220430378727
0.000649344903291
-0.00242000693662
0.000626056083294
-0.00262692668061
0.000601479477786
-0.00282472210277
0.000575596854074
-0.0030131200899
0.000549160113166
-0.00319389276926
0.000522919339775
-0.00336525593887
0.000495732909923
-0.00352630280878
0.000467077864185
-0.00367801699132
0.000439365514779
-0.0038202945778
0.000411667621893
-0.00395264839711
0.000384136301388
-0.00407590462713
0.000356499179705
-0.00418918947223
0.000329127166779
-0.00429299043433
0.000302237370216
-0.00438825919786
0.000275680774791
-0.00447507894839
0.000248797992048
-0.0045535101881
0.000223006560199
-0.00462435655407
0.000197583341673
-0.00468595076132
0.000171767206218
-0.00473751421746
0.000144413676155
-0.00477797353253
0.000117078000411
-0.00480975507007
9.00527453924e-05
-0.00483186121027
6.141165409e-05
-0.00484536393108
3.15181171155e-05
-0.00484914779313
1.18398182792e-06
-0.0048419354211
-2.95306239607e-05
-0.00482341106319
-5.97751384253e-05
-0.00479397274903
-9.06353917016e-05
-0.00475312598299
-0.000120194475918
-0.00470232708624
-0.000149469529411
-0.00464103161305
-0.000178548912879
-0.0045698600737
-0.00020796990378
-0.00448868504939
-0.000236260530241
-0.0043998842502
-0.00026210810753
-0.00430205212832
-0.000287305918438
-0.00419704460782
-0.000311611121194
-0.00408381443883
-0.000335463393578
-0.00396316617327
-0.000356899780902
-0.00383509819806
-0.000376579622486
-0.00370115310436
-0.000393718891722
-0.00356299274294
-0.000407529248077
-0.00341907386779
-0.000420749890564
-0.00326970722754
-0.000430194203029
-0.00311846886259
-0.000434777896855
-0.00296592754388
-0.000435886438581
-0.00281438507923
-0.000433081157062
-0.00266463884296
-0.000427492342642
-0.00251809619503
-0.000418722324168
-0.0023757956897
-0.000406599227626
-0.00223934081007
-0.000391923347845
-0.00210926574814
-0.000376420121717
-0.00198533507693
-0.000361274558452
-0.00186734819453
-0.000343843861765
-0.00175641899519
-0.000324130946805
-0.00165359902962
-0.000302622101642
-0.00155933719839
-0.000280771560658
-0.00147259171524
-0.000260172871145
-0.00139277535768
-0.000241497585566
-0.0013195290067
-0.000224396403379
-0.00125266348931
-0.000208444787562
-0.00119143595884
-0.000193996030065
-0.00113419845191
-0.000181190696132
-0.00107691905483
-0.00017113921029
-0.00102152988106
-0.000161490577037
-0.000966630709213
-0.000154240711035
-0.000915033564925
-0.000145328927848
-0.000870776447582
-0.000136424631263
-0.000830419356111
-0.000128014366161
-0.000791727870271
-0.000122445008869
-0.000753753393795
-0.000118076003755
-0.000709999147967
-0.000114076185508
-0.000657818992728
-0.000112086783011
-0.000605882755012
-0.000107864964163
-0.000562926103323
-9.68075596513e-05
-0.00052759759897
-8.34225636055e-05
-0.000495493731767
-7.6328492793e-05
-0.000467174376905
-7.28690450398e-05
-0.000444838707271
-6.71249306049e-05
-0.000417660529615
-5.88246976011e-05
-0.000385668158386
-5.22535255115e-05
-0.000368333287478
-4.60652585085e-05
-0.000366557036617
-5.10684537206e-05
-0.000337925149057
-9.97461613115e-05
-0.000286137396437
-0.000138578542157
-0.00023182990315
-0.000163935301375
-0.000162419208838
-0.000209937368737
-8.12233883901e-05
-0.000247544551459
-0.000224188716406
-0.00024649184415
0.000960843335255
-0.000509874566576
0.00101317451496
-0.000771247535975
0.00100546182132
-0.00102908716803
0.000992258050201
-0.00128206085835
0.000975254039776
-0.00152920197724
0.00095414860086
-0.00176966573403
0.000929752389408
-0.00200307054246
0.000902668903964
-0.00222854009103
0.000873036386118
-0.00244530622972
0.000841031416696
-0.00265297025358
0.000807367946799
-0.0028514586454
0.000772296961466
-0.0030415069152
0.000737439395934
-0.00322220772315
0.000701837944466
-0.00339274484238
0.000664513724306
-0.0035542477892
0.000626813641476
-0.00370596305948
0.00058934773604
-0.00384813336944
0.000552097220789
-0.00398057299311
0.000514878579216
-0.00410389172971
0.000478117414179
-0.00421834165985
0.000441929093925
-0.00432331937396
0.000405567340191
-0.00441935741694
0.000370132367522
-0.004507908286
0.000335767441229
-0.00458847136068
0.000302061772721
-0.00465973417133
0.000267352313136
-0.00472085196702
0.000231478115821
-0.00477335060684
0.000195528576743
-0.00481605298571
0.000158496964375
-0.00484734234478
0.000120089061674
-0.00486848959868
8.14179735843e-05
-0.00487971154
4.16396449202e-05
-0.00488118254813
1.67488986933e-06
-0.00487349608132
-3.81506845332e-05
-0.00485545300769
-7.86228306914e-05
-0.0048281080585
-0.000118735669754
-0.00479005516006
-0.000158870353417
-0.00473993340853
-0.000200157187884
-0.00467993721642
-0.000238979367702
-0.00461495732777
-0.00027332171384
-0.00454237404464
-0.00030907693261
-0.00445762294499
-0.000347031903475
-0.00436003056689
-0.000384929823245
-0.00424992717832
-0.000421683888722
-0.00413031309471
-0.000454915392398
-0.00400321204493
-0.000483778701732
-0.00386865199898
-0.000510793695556
-0.00372778142541
-0.000534192685508
-0.00358185437456
-0.000552944753001
-0.00343414951662
-0.000567902350502
-0.00328364744659
-0.000580043489566
-0.00312887227601
-0.000588868924639
-0.00297234270818
-0.000591650929712
-0.00281717763355
-0.000587458842952
-0.00266375618372
-0.000580058586482
-0.00251336669785
-0.000568245659817
-0.00236679574325
-0.000552249843431
-0.00222521755509
-0.00053258810578
-0.0020906361748
-0.000510058394295
-0.00196386683143
-0.000487117948898
-0.00184522978782
-0.000461538849953
-0.0017348522278
-0.000433594747996
-0.00163317327568
-0.000403367250487
-0.00153983756471
-0.000373206752915
-0.00145440052595
-0.000344689243288
-0.00137651415522
-0.000318491555317
-0.00130591270626
-0.000294084704553
-0.00124119953756
-0.000272276855348
-0.0011812635438
-0.000253032334586
-0.00112655559433
-0.000235028590509
-0.00107724774925
-0.000219555526544
-0.00103069008866
-0.000207190236913
-0.000983890063441
-0.00020017501928
-0.000939612415893
-0.000188775864577
-0.000900547837312
-0.000174648478599
-0.000864724566376
-0.000163018292844
-0.000829437927562
-0.000156926844082
-0.000792759394835
-0.000153973555832
-0.000756730963417
-0.000149334301388
-0.000721534272644
-0.00014652848309
-0.000683344604689
-0.000145305358422
-0.000636769820649
-0.000142645388258
-0.00058653970766
-0.000132960526292
-0.000537301770017
-0.000124891691201
-0.000494630245044
-0.000114871643264
-0.000455713871858
-0.000105344962212
-0.000417362655768
-9.64551036801e-05
-0.000386494341078
-8.23968326983e-05
-0.000350850248946
-8.09275891336e-05
-0.00031133652481
-8.97163475177e-05
-0.000300022074703
-0.000109981920199
-0.000261147504193
-0.000176135224513
-0.000195532713156
-0.000228229979442
-0.000140613575394
-0.000263487676723
-7.57094383726e-05
-0.00031106185259
-0.000299241997409
-0.000252143483078
0.0012113166398
-0.000519418276446
0.00127868539348
-0.000784767172175
0.00126903624946
-0.00104656217642
0.00125227416543
-0.001303126032
0.00123003895922
-0.00155357791278
0.00120281738377
-0.00179726495447
0.00117165686049
-0.00203322559019
0.00113684212654
-0.00226054410001
0.00109856978089
-0.00247896147186
0.00105765964257
-0.00268805836958
0.00101468050487
-0.00288842421654
0.000970874774313
-0.00307929360698
0.000926527367119
-0.0032595618126
0.000880323921336
-0.00343033788693
0.000833519599855
-0.0035917348945
0.000786443069452
-0.00374333668406
0.000739199336972
-0.00388562401999
0.000692643162111
-0.00401912101001
0.000646658637497
-0.00414317917727
0.000600472657863
-0.00425673883443
0.0005538173694
-0.00436189073083
0.000509067680554
-0.00445957689979
0.000466205323713
-0.00454947949677
0.000424084392226
-0.00463021876405
0.000381264804386
-0.00470146707176
0.000337103539287
-0.00476315000915
0.000291725506553
-0.0048139697333
0.000244961613197
-0.0048550906654
0.00019830395927
-0.00488672271315
0.000150467028934
-0.00490908444324
0.000102608131842
-0.00492355445155
5.5006831049e-05
-0.00492801368512
5.12173737895e-06
-0.00492098848131
-4.61141992148e-05
-0.00490277629728
-9.76772831713e-05
-0.00487342623008
-0.000148846233583
-0.00483724254134
-0.000195713117506
-0.00479612415268
-0.000241848736278
-0.00474464594568
-0.000290921733112
-0.00467738183338
-0.000340959442199
-0.00459554826451
-0.000391169882008
-0.00450227770604
-0.000440468233726
-0.00439921654071
-0.000488044395377
-0.00428939500831
-0.000531468202807
-0.0041703308024
-0.000573831759816
-0.00404083882932
-0.000613037069826
-0.00390261433502
-0.000648686069066
-0.00375703155716
-0.000679360739742
-0.00360616848524
-0.000703308510994
-0.00345074882694
-0.00072275398338
-0.00329345376863
-0.00073669714536
-0.00313606200407
-0.000745564675322
-0.00297724771503
-0.000749705371554
-0.00281817904688
-0.00074572703271
-0.00266038527572
-0.000737000568756
-0.0025055313598
-0.00072221861219
-0.00235505450656
-0.000701822879612
-0.00220979362765
-0.000676941570415
-0.00207302605936
-0.000645913053622
-0.00194490524333
-0.000614341413775
-0.00182570727995
-0.00057982785165
-0.00171678209397
-0.000541619872584
-0.00161752118331
-0.000501723332913
-0.00152556444827
-0.000464258476647
-0.0014417252173
-0.00042763293099
-0.0013646341315
-0.000394675185249
-0.00129258944025
-0.000365244671652
-0.00122816881348
-0.000335800364842
-0.0011701521357
-0.000310178145881
-0.00111697335703
-0.000287320118798
-0.00106654097721
-0.000269129886325
-0.00102030508912
-0.000252558854458
-0.000981011565056
-0.000238626140492
-0.000944867858209
-0.000224061512008
-0.00090973781287
-0.000208932940546
-0.000869996204359
-0.000201929116841
-0.000826230489655
-0.000199894438042
-0.000786211233156
-0.000193205793132
-0.000750784266927
-0.00018398641598
-0.000716197201498
-0.000180370309177
-0.000678552734548
-0.000182206804337
-0.000635567487682
-0.000184903839202
-0.000598208973665
-0.00016960586234
-0.000570349058708
-0.000152044099739
-0.000537808311854
-0.000146682794255
-0.000499588186522
-0.000142795205429
-0.000451440555502
-0.000143843445888
-0.000384197808089
-0.000148905701747
-0.000326724249621
-0.000137648467959
-0.000281893952409
-0.000133678720106
-0.000255909048155
-0.000135030370984
-0.000244569129862
-0.000186259696733
-0.000191917316934
-0.000279452345925
-0.000122698049539
-0.000331465671154
-6.4914996843e-05
-0.000367649646629
-0.000363505680288
-0.000258294888259
0.0014679399187
-0.000531304303753
0.00154992944476
-0.000802146076387
0.0015381033537
-0.00106903430373
0.00151738424693
-0.00133028950657
0.00148951456275
-0.00158523426229
0.00145597982915
-0.00183260597564
0.00141724375172
-0.00207144735203
0.00137389635334
-0.00230136508863
0.00132669889294
-0.00252184930575
0.00127635383426
-0.00273272722821
0.00122376787521
-0.00293437299772
0.00117072946195
-0.00312557031841
0.00111593494212
-0.00330635541401
0.00105932282283
-0.00347751932555
0.00100290209856
-0.00363917044746
0.000946320614812
-0.00379168221643
0.00088994847347
-0.0039345774598
0.000833788736338
-0.00406716563289
0.000777515091352
-0.0041901023027
0.000721696884731
-0.0043043473949
0.000666373498666
-0.00441078382975
0.0006138397388
-0.00450977165394
0.000563559311244
-0.00460045343278
0.000513166984122
-0.00468071594243
0.000459970533091
-0.00475035309637
0.000405230383074
-0.00481033009812
0.000350245050631
-0.00486119123655
0.00029442190391
-0.00490347401411
0.000239250190354
-0.00493837873882
0.000184101318626
-0.0049636270831
0.000126661344542
-0.00497707229476
6.73321575549e-05
-0.00497998753935
6.99780390298e-06
-0.00497363092108
-5.34290223256e-05
-0.0049591196813
-0.0001130584359
-0.00493797372296
-0.00017077496223
-0.0049055438142
-0.000228827751308
-0.00485958678585
-0.000288394932998
-0.00480126985773
-0.000349722508197
-0.00472948242756
-0.00041312905956
-0.00464636757994
-0.000474560947065
-0.0045550878084
-0.000531920531344
-0.00445287735264
-0.00059032131679
-0.00433687918139
-0.000647427440525
-0.00421092089563
-0.000699649717686
-0.00407764038145
-0.000746080277764
-0.00393839179982
-0.000787600372907
-0.00379162832803
-0.000825705360538
-0.00363632770481
-0.000858107163442
-0.00347521170277
-0.000883294247558
-0.0033118433534
-0.000899422023194
-0.00314811352477
-0.000908586720596
-0.00298362879815
-0.000913428041635
-0.00281950818388
-0.0009090303487
-0.00265867734228
-0.000896983136937
-0.00250251654952
-0.000877504782299
-0.00234995701969
-0.000853503439572
-0.00220393324852
-0.00082209339232
-0.00206484064562
-0.000784135700691
-0.00194131950938
-0.000736976318549
-0.00183397127081
-0.000686292907558
-0.00173036009956
-0.000644324199894
-0.00163399348862
-0.000597183041435
-0.00154100217602
-0.00055634292623
-0.00145215236984
-0.000515570498604
-0.00137346974871
-0.000472461990641
-0.00130156432299
-0.000436242728723
-0.00123379016299
-0.000402696646487
-0.00117329770847
-0.000369778832285
-0.00112132069818
-0.000338432852534
-0.00107586793547
-0.000313710845047
-0.00103561289068
-0.000291961067435
-0.000999314556981
-0.000274058892251
-0.000960624907453
-0.000261892961742
-0.000916157989373
-0.000252546682088
-0.000875866725545
-0.000241400534892
-0.000841484987199
-0.000233463170151
-0.000805582871075
-0.000228295434636
-0.000761863461579
-0.000226931585071
-0.000715144935473
-0.000226332306734
-0.000679185687168
-0.000217421083586
-0.000650149425666
-0.000213189587024
-0.000607509114145
-0.000211497797381
-0.000565425117588
-0.000193400500468
-0.000526417969251
-0.000184944512961
-0.000477635492269
-0.00019081529445
-0.000434098927344
-0.000186650971306
-0.000398818899661
-0.000183415367099
-0.000348750582299
-0.000186875961198
-0.000287583627071
-0.000193971119205
-0.000224849050072
-0.000196831224221
-0.00020043053476
-0.000209628639857
-0.000184289259685
-0.000294408896763
-0.000120292329437
-0.000394199475391
-6.19844728149e-05
-0.00042475172121
-0.000424892253729
-0.00026552504684
0.00173179475672
-0.000545841327659
0.00182848373541
-0.00082363889759
0.00181412798195
-0.00109690497578
0.00178887417668
-0.00136428984776
0.00175512121233
-0.00162440610347
0.00171431453518
-0.00187586278057
0.00166691625516
-0.00211852328602
0.00161476905486
-0.00235156704236
0.0015579526779
-0.00257443202227
0.00149742591348
-0.0027877132586
0.00143525473313
-0.00299059011472
0.00137180926605
-0.00318229104239
0.00130584054592
-0.00336453178849
0.00123976884212
-0.00353672102254
0.00117330152305
-0.00369830235222
0.0011061179033
-0.00384968004382
0.00103955304516
-0.0039911056703
0.000973453556159
-0.00412308433153
0.000907749346266
-0.00424564085309
0.000842526697357
-0.00436095093898
0.000779978257194
-0.00446917634322
0.000720382760507
-0.00456852882028
0.000661259790501
-0.00465728616545
0.000600306860289
-0.00473589839847
0.000537008030358
-0.00480564567939
0.000473447635436
-0.00486650863407
0.000409630435621
-0.00492037808967
0.000346869141312
-0.00496559483387
0.000283107499997
-0.0049996285047
0.000216843659932
-0.00502357658854
0.000149389446982
-0.00503807410138
8.06844466176e-05
-0.0050446426507
1.24991266687e-05
-0.00504180395197
-5.7253750014e-05
-0.00503090575917
-0.000124854888418
-0.00501125175909
-0.000191235106611
-0.00497692412982
-0.000263864125844
-0.00492728328086
-0.000338641448137
-0.00486586939044
-0.000411638767372
-0.00479641611067
-0.000482979619422
-0.00471492002429
-0.000556345851197
-0.00461870315356
-0.000628319838728
-0.00451118414691
-0.000697910799138
-0.00439492824749
-0.000763646820481
-0.00426858410983
-0.000825850831496
-0.00413013413553
-0.000884286276659
-0.00398160958824
-0.000935787196408
-0.0038255190108
-0.000981367755186
-0.00366659748539
-0.00101651798894
-0.0035025498396
-0.00104675716418
-0.00333221972151
-0.00106909364581
-0.00316148042047
-0.00107860592623
-0.00299043951388
-0.00108368592304
-0.00282167311642
-0.00107698499669
-0.00265394026465
-0.00106386943379
-0.00249291208591
-0.00103769693656
-0.00233717462791
-0.00100840557351
-0.00219427974073
-0.000964142446949
-0.00207718228702
-0.000900374028026
-0.00196288131485
-0.000850398531841
-0.00185241834478
-0.000795860824757
-0.0017434592318
-0.000752378305821
-0.00163820458944
-0.000701535344216
-0.00154127267603
-0.000652370959908
-0.00145271149451
-0.000603233785982
-0.00136574562756
-0.000558526180075
-0.00128799139897
-0.000513118842797
-0.00121903110559
-0.000470766426049
-0.00115776016118
-0.000430181326775
-0.00110142929569
-0.000393897743317
-0.0010526918888
-0.000361595017439
-0.00101278868851
-0.000331015432903
-0.000976579242993
-0.000309422802674
-0.00094117414463
-0.000296448225514
-0.000903985055415
-0.000288897619412
-0.000869670714438
-0.000274891733382
-0.000839228803001
-0.000263080281333
-0.000805527602975
-0.000261184190865
-0.000773410451695
-0.000258262410947
-0.000743428339593
-0.000255538053414
-0.000706461705923
-0.000253610084863
-0.000669141115305
-0.000249734311355
-0.000636512747354
-0.000243346873178
-0.000591810128329
-0.00023733481372
-0.000541690749911
-0.000234282083563
-0.000494898140865
-0.000236828392942
-0.000436862185191
-0.000243898754741
-0.00038580978368
-0.000233671791711
-0.000331333931568
-0.000240504995013
-0.000283320474935
-0.00024112891652
-0.000225227687714
-0.000254001112915
-0.00016774532185
-0.000266167514921
-0.000155627821601
-0.000305449089304
-0.000113725094093
-0.000434926367715
-5.80956513621e-05
-0.000479244080351
-0.000482349869679
-0.000274117521998
0.00200424536326
-0.000563398523661
0.00211600631727
-0.000849742847462
0.00209870312714
-0.00113057240907
0.00206793140944
-0.00140484742856
0.00202762083348
-0.00167086131646
0.00197854998689
-0.00192782302889
0.00192209502212
-0.00217520998325
0.00186036894739
-0.00241194345635
0.0017928946308
-0.00263793592234
0.00172162383194
-0.00285318174383
0.0016487010471
-0.00305672800027
0.0015735546208
-0.0032500791223
0.0014973885697
-0.00343271236152
0.00142060036785
-0.00360401539061
0.00134280515169
-0.00376501887957
0.00126532871077
-0.00391584532049
0.00118859494075
-0.00405681773779
0.00111265319172
-0.00418830961575
0.00103748198457
-0.00431116689721
0.000963641604432
-0.00442709562271
0.000894183279547
-0.00453530123002
0.000826888191935
-0.00463336317284
0.000757649760998
-0.00472077414253
0.000686082119743
-0.00479953701029
0.000614174422531
-0.0048698113393
0.000542171198148
-0.00493327439275
0.000471591992025
-0.0049880404988
0.000400189654141
-0.00503233483475
0.000326018947748
-0.00506731157896
0.000250501965668
-0.0050926116336
0.000173442710888
-0.00511061604992
9.75120829654e-05
-0.00511908852077
1.98750397723e-05
-0.00512007984723
-5.72781123768e-05
-0.00511280666155
-0.000133053669941
-0.00508976138912
-0.000215112262618
-0.0050529707475
-0.000301384965595
-0.00500670564268
-0.000385534967713
-0.00494868017111
-0.000470186113237
-0.00487505922171
-0.000557013106026
-0.00478811689502
-0.000643590685324
-0.00468935913174
-0.000727265796381
-0.00458192475621
-0.000805419113863
-0.00446188844696
-0.000883643765377
-0.00432781327423
-0.00095977620676
-0.00418321847895
-0.00102862939853
-0.00403208503737
-0.00108656850383
-0.0038722454191
-0.00114076331722
-0.00370207120805
-0.00118616445057
-0.0035302212299
-0.00121799776616
-0.0033541541017
-0.00124447989809
-0.00317520077773
-0.00125681228615
-0.00299567116167
-0.00126243410357
-0.00281733030722
-0.0012545142793
-0.0026426650023
-0.00123773208305
-0.0024767893221
-0.00120276292981
-0.00233531131719
-0.00114906357668
-0.00220981188703
-0.00108879928616
-0.00207995152439
-0.00102937265986
-0.00195089009744
-0.000978580118543
-0.0018312117534
-0.000914657919815
-0.00172023652902
-0.000862469871522
-0.00162120871639
-0.00079968380492
-0.00152630291904
-0.000746394756314
-0.00144196970033
-0.000686684705667
-0.00136717828651
-0.000632437339175
-0.00129718474121
-0.000582222965619
-0.00123194896275
-0.000535122773442
-0.00116745620685
-0.000493790208376
-0.00111443886594
-0.00044604151891
-0.00106515213988
-0.000410015267084
-0.00101671533937
-0.000378591387532
-0.000978388991523
-0.000346895627732
-0.000944506632406
-0.000329485446292
-0.000914137032184
-0.000318416599831
-0.000879332308886
-0.000308851618304
-0.000843387859265
-0.000298183599185
-0.000809066885361
-0.000294690156031
-0.000770308122579
-0.000296234283628
-0.000728557709246
-0.000296505967667
-0.000694675183116
-0.000286715399903
-0.000656506847032
-0.000287111386779
-0.000617863780299
-0.000281208410625
-0.000583731911017
-0.000270687216812
-0.000546944074937
-0.000270273961009
-0.000510653097744
-0.000272322165079
-0.000464988045992
-0.000288720532314
-0.000398671019774
-0.000299134590017
-0.000332079886089
-0.000306250297716
-0.000262018234343
-0.000310306024715
-0.00022069282967
-0.000294428635385
-0.000167803580979
-0.000318123078876
-0.000130358793767
-0.000341951369162
-0.000113577771811
-0.000450524092143
-5.44186188217e-05
-0.000537203213697
-0.000536173372945
-0.000284358235202
0.00228694248403
-0.000584364848201
0.00241425990218
-0.000880771654394
0.002393346839
-0.00117083368452
0.00235622630171
-0.00145357277657
0.00230858920217
-0.00172708057719
0.00225028248333
-0.0019902833266
0.00218351769952
-0.00224254607546
0.00211084531258
-0.00248309922181
0.00203165696462
-0.00271197897074
0.00194870655391
-0.00292910906945
0.00186402976534
-0.00313459776232
0.00177723654943
-0.00332863476038
0.00168961682651
-0.00351054570425
0.00160070130097
-0.00368144374587
0.00151189602946
-0.00384175743384
0.0014238390442
-0.003991796966
0.00133683884549
-0.00413191994907
0.00125098938139
-0.0042623007915
0.00116608896475
-0.00438529303541
0.00108487452572
-0.00450141074994
0.00100855874747
-0.00460833138158
0.00093208896656
-0.00470520912261
0.000852836884009
-0.00479272192975
0.000771937386895
-0.00487186263814
0.000691697386377
-0.00494453129061
0.000613263924352
-0.00500874673905
0.000534280970101
-0.0050625562324
0.000452527820161
-0.00510795961844
0.000370011108472
-0.00514457311224
0.000285769697287
-0.00517333894416
0.000200927557327
-0.00519352171896
0.000116488571341
-0.0052068111584