/*--------------------------------*- C++ -*----------------------------------*\
| =========                 |                                                 |
| \\      /  F ield         | OpenFOAM: The Open Source CFD Toolbox           |
|  \\    /   O peration     | Version:  v1906                                 |
|   \\  /    A nd           | Web:      www.OpenFOAM.com                      |
|    \\/     M anipulation  |                                                 |
\*---------------------------------------------------------------------------*/
FoamFile
{
    version     2.0;
    format      ascii;
    class       surfaceScalarField;
    location    "24";
    object      phi;
}
// * * * * * * * * * * * * * * * * * * * * * * * * * * * * * * * * * * * * * //

dimensions      [0 3 -1 0 0 0 0];
oriented        oriented;


internalField   nonuniform List<scalar> 
36474
(
-0.0015608277648
-0.00199403466005
0.00355488906614
3.65418842877e-05
0.000393088573244
-0.000429599113357
-8.84674199797e-05
-0.000369783286415
0.00045833871338
0.000106994594675
0.000664711950605
-0.000771695743016
0.000501310555898
-2.38497870685e-05
-0.000477555644648
-0.000504314988854
0.000603608829187
-9.92746642368e-05
-7.65835437976e-05
-0.000800121107559
0.000876738157292
-0.000423477475232
-0.0054462870982
0.00586974446265
0.000697487938222
-0.00121055251589
0.000513111136914
0.00335325231227
0.00262935205469
-0.0059825155922
-0.000812417709082
-0.000130634132117
0.000943060825844
0.000367703246782
0.000736061341221
-0.00110381129117
-0.000485560304123
0.000853262504418
-0.000578586717242
0.000249774358481
0.000328781880386
-0.000619502646674
0.000738264017309
-0.000118729216053
-0.00752138099157
0.00301145788873
0.00450989294342
0.000959682066655
-0.000400445674818
-0.00055921743434
-0.000165055784165
0.000496762649962
-0.000331714440128
-0.000998296738024
0.00219024233196
-0.00119189284764
0.000240360891479
0.000299732818554
-0.000540186640958
-0.00155153584399
-0.000669732238872
0.00222129587115
-0.00750253804838
0.00235063781455
0.0051518454901
-0.00860961715531
0.00110713301072
0.000502579485069
-0.000524163074319
2.15890034916e-05
7.20938650639e-05
0.000430478177909
-0.00111126520488
0.00124557981098
-0.000134287519183
-7.16743827421e-05
-0.00103960188914
0.00120068230428
-0.00123299261336
3.22754904521e-05
0.000239198422
0.000961498264925
-0.000570901371425
-0.000126959612274
0.000697807807994
-0.00072424737854
-0.00102134677526
0.00174557327159
-0.000949759334467
-0.000149096176826
0.00109885768802
-0.00059607694456
9.17860097978e-05
0.00238092899291
-0.00434447290697
0.00196344828864
0.000912144934072
-0.00265428076934
0.00174206604064
0.000578677599404
4.93777252941e-05
-0.000628034580968
-0.000184954342597
0.000267593968923
-8.26573487505e-05
-0.000295816705974
0.000452353624033
-0.000156617794775
-0.00100723817885
0.00152669700705
-0.000519474433772
-0.00168062503148
0.000735920327947
0.00094473628248
0.000150921328703
-0.00115817126094
-0.00150972921539
-0.000170864757115
-0.000449156508454
0.000451361131349
-2.24361508501e-06
-0.000141383474423
-0.000307852751485
-0.0018474463435
0.00112319410719
-0.000134682640495
-0.000347373443151
0.000482046295231
0.000522137816106
-0.000703437483061
0.000181348476919
-0.000776565315858
0.000967650461444
-0.00019106670905
0.000383620839755
-0.000917680508483
0.000534038550987
0.000362737038392
3.48380306193e-05
-0.000397611161937
0.0032992562405
0.000968130733997
-0.00426733902109
0.000617727627433
-0.000377500320061
0.000123091670083
-0.000436102508389
0.000313057569403
0.000456417652984
0.00010988558333
-0.000566410655487
-0.00035818588618
0.000620232625117
-0.000262137073381
-0.00122691507485
0.000991610700127
0.000235361751649
-0.000581878241732
-3.76704048088e-05
0.000619551547315
0.00139103291214
-0.000850045698334
-0.000540958605516
0.00519679042105
-0.00281594169554
0.000493795722031
-0.000104048892494
-0.000389730840495
0.000351360908814
0.000244894690026
-0.000596256854623
-0.000177127845212
0.000528491769204
-0.000508102845374
0.000488256154303
1.98410522458e-05
0.000478396446059
-0.000455049899863
-2.33614247971e-05
0.00023368728699
-0.000918460572981
0.000684713564711
-0.000198552743617
-0.000613901738648
-0.000780786814369
8.7732176972e-05
0.000692979970955
-0.000563508386947
0.000375579507292
0.000187938479013
0.000406212572639
-0.000457208328082
5.10012715001e-05
0.000323087694298
-0.000520601213994
0.000197500246337
-0.000539052559742
0.000158270325802
0.00038076942718
0.000812668555123
0.000281160600937
-0.00109383371819
0.00185725465283
-0.00114002700391
-0.000717228003849
-0.000441922996061
0.000140981229476
0.000300977455303
0.000366386009407
-6.95562647373e-05
-0.000296847907242
-0.000532845186537
0.000629649648785
-9.66820742629e-05
-0.000374075923226
-0.000312077958993
0.000686239734389
9.57047840847e-05
0.000382705981963
0.00122181817438
-0.00111312084013
-0.000108652180577
-0.000362085861189
-0.000427093586547
0.000789148935813
-0.000615753488308
3.3818580066e-05
0.000581949328252
0.113467507338
-0.113467456762
0.000777652895243
-0.000777657524128
-0.000569978808751
0.000569980066439
0.000260760417442
0.000430197514918
0.000760949828715
-0.00141073899653
0.000649806173071
-0.00111788267561
0.00560990976225
-0.00449195606174
0.000320216862133
-0.000598655270433
0.000278389879274
-0.000584185530603
0.00131468545945
-0.000730556747812
-0.000358828368617
-0.000257044625485
0.000615893901154
-0.000369381786476
-0.000209214157019
0.00010856305875
-0.000728069370823
-0.0061663743844
-0.00135505498482
0.000667448535906
0.000292277372143
0.000923876168842
-0.000635950113653
-0.000288131724855
0.000320299655989
0.000178642559273
-0.000498946911948
0.00340858122764
0.000780157255145
-0.0041887481828
-0.000210115017641
0.000429220173842
-0.000219030712262
-0.000444848030559
-7.754344197e-05
0.000522325931401
-0.000621912316088
2.16959968903e-05
0.000600284232454
-0.000616003776889
0.000234872456844
0.000381051908229
0.000162342667294
0.000596827850311
-0.000759196641579
0.000647681014872
-0.000485344481885
0.00037581561759
-0.000749892193634
-0.000813683292152
-0.000192390887335
0.00100580522594
0.000553907074459
-0.00122466594315
0.000670815096009
0.00108232566725
-0.000528412987057
-0.000233658429717
0.000376378372908
-0.000142690914212
-0.000458872494861
0.000225281660855
0.000422762674968
0.000106019013114
-0.000528735834122
0.00053699783252
-0.00056782387306
3.08722992524e-05
0.00051563871551
-0.000231154732998
-0.000284606431801
-0.00116749593016
0.00373732301209
-0.00256969699923
-0.000417979837064
-8.61503383432e-05
0.000504217449794
-0.000212245419705
0.000532505397675
-0.0023612282219
0.00576975652509
-0.000467004651842
0.000256814486389
-0.00167606650145
-0.00200392651838
0.00368001007892
0.0015742516258
-0.00325024010543
0.000125496000111
0.000438715872458
-0.00056421019477
0.000560936019861
-0.000435403617903
-0.00013707144384
-0.000383699705105
0.000520775064603
0.000360722721535
-0.000497869265215
-7.8812670506e-05
0.000453153566148
-0.000374303793396
0.000379065445572
-0.000457858201674
-0.00039647416186
0.000363034639856
3.34776997051e-05
-0.00110855652989
0.00125552253996
-0.0001469262027
2.7430041223e-05
0.000494726945127
-0.000402717734945
0.000237625980316
0.000502144547641
0.000422732370983
-0.000924832285498
0.000784055284909
-0.00109501262515
0.000310864235663
0.000560154037794
-0.000199432140133
-0.000690603557473
0.000630420026803
6.01532800198e-05
4.06753322884e-05
-0.00141204221398
0.00137130059448
-0.00154264814971
0.00158332695725
-0.0013242495168
0.00100688261092
0.000317434751335
-0.00060774106687
-0.0007165306517
0.00092820010622
-0.000544615280057
-0.00041097517734
0.000356554068981
5.44147314242e-05
0.000439858918325
-0.000438009947372
-1.86800928702e-06
-0.00233723672939
0.0040469048685
-0.00170963960049
-0.000160605689811
-0.000275281288081
0.000435923585181
0.00049609644982
0.000417302978862
-0.000913424529361
0.00100359871636
0.000422772981114
-0.0014264795247
-0.000454952972957
-8.40795701177e-05
-0.000199248305448
-0.000280355476846
0.000479583079281
-0.000454920209914
-0.000235640143977
-0.00393096735618
0.000403825168611
0.00352711347862
0.000503679404378
6.79840403724e-05
-0.000571725282753
0.000193238472305
0.000329264062311
-0.000522482582795
-0.000146799485687
0.000725485014275
-0.00463096465161
0.00383379215571
0.000797168217612
-0.00305948194053
-0.00157141379506
0.000508577489918
0.000181069578196
-0.000689632734346
-0.000342495154165
0.000697857457131
-0.000355362029542
-0.000178709389656
0.000584513492014
-0.000405862819825
0.000407999544599
-0.000586737692126
0.000538829499319
-0.000649035475697
0.000110542873154
-9.04607166473e-05
0.000629354286527
-0.0015137005298
0.001893234136
-0.000379453864171
6.47322073367e-05
-0.00157857176529
0.000599155187433
0.000107251230377
-0.00070635718792
-0.000292647867145
0.000120354246351
0.000484398820608
-0.000604781874828
0.000339266736291
0.000165628217533
-0.000504988689718
0.000768542728323
-0.000755336859089
-1.3337170117e-05
0.000918070568694
-0.000226755918257
-0.000691250725601
-0.000672999316187
0.000144342200329
0.000528629524732
-0.000118518888773
0.000627103489551
-0.000233811284413
0.000402817771115
-0.000169016354051
-0.000547889010934
-0.000312200520116
0.000860075104347
-0.000980349471819
0.000293759396403
0.000686720754578
-0.000264601376833
-0.000715808810728
-0.000803625947923
0.00172701497818
-0.000923375919945
0.000611706504443
-0.00141539285167
-0.00163522388994
0.000762903926545
0.000872273942972
-0.00106659676251
-0.00056861729549
-0.000455408169826
0.00039264402174
6.28382250088e-05
-0.000159868375577
-0.000295521103826
-0.000554193503611
0.000180064475036
0.00037414037609
-0.000467055879595
-8.71393217305e-05
-0.00338552799746
0.000751909147095
0.00263365333638
0.000472834941882
-0.000201224049732
-0.000271674894817
0.000627424608809
-0.000986821398584
0.000359586870383
0.000528463595497
-0.000627595910905
9.92052765749e-05
-0.000490594038375
-5.05705445768e-05
0.00054123998023
0.000370053622822
4.90978690349e-06
-0.000374955060764
0.000429575870541
-5.95201118815e-05
0.000516351181747
0.000753359331884
-0.00126974184153
-0.00022693881697
0.000896477176473
-0.000669442094328
0.000677428082511
-0.000904320327011
-0.000472592483126
6.16569431975e-05
0.000490639186137
-5.07616597258e-05
-0.00115156440784
0.000729377617103
0.000422256203961
-0.000128425701796
-0.000407251255696
0.000535721720028
9.47147863081e-05
-0.000530886342954
0.000436277270528
0.000334913479298
0.000205116864219
-0.000539913867552
0.000596673267071
0.000144400192769
-0.000740907317688
-0.000581525169241
0.000219975345509
0.000361556386637
0.000534871112358
-0.000699406419064
0.000164416831888
0.000386132108712
-0.000550090364018
0.000163985327791
-0.000236354793151
-0.000376713095726
0.000613203481123
0.000645801766654
-0.000481720235877
-0.000164019334173
-0.0013458125404
-0.00726387166157
0.000959951373576
-0.00103159570361
-0.00142047182377
0.00121567629438
0.000204747256326
-0.00132031462425
-0.00010017184675
0.000348383344415
-0.000909157563357
0.000560805111494
0.00099239885941
-0.000644012648562
0.000229652552064
0.00028109732061
-0.000510771384225
0.000392938023277
0.000259216935374
-0.000652155945219
-0.000127429983011
-0.000507366949056
0.000634779728495
0.00284758185637
-0.00234295344751
-0.00050481025736
0.00074026219161
-0.000816836082045
-0.00146418759476
0.00158734869327
-0.0001231966253
0.000523810887825
1.31904291827e-05
0.000865240437986
0.000356557542209
-0.000824187308448
0.000457792694346
0.000366356318133
0.0040699042216
-0.0044933751865
0.000967873660431
-0.00027040299624
0.00370867609454
-0.00063918658203
-0.00306949321393
0.000604699564031
-3.28585512772e-05
-0.000571845979192
0.000324022111692
0.000828429053598
-0.00115249989593
-0.000460656025592
0.000770122015231
-0.000309530066747
0.000164203846541
0.000265413786432
-0.000272051455442
0.000436224097148
-0.00039067114444
0.00127479250732
-0.000884108825489
0.000437069425733
5.68383425753e-05
-0.000493767142743
0.000674623595906
0.000900109140413
-0.00157487679278
0.00180334938194
-0.00112880335808
-0.00132310203894
0.000703965962707
0.000619245621302
-0.00101613671616
-0.000306885128664
-0.00111812327159
0.000400473211284
0.000717691861197
-0.00046039312087
-0.00065767076245
0.000431156156764
-0.00035420294654
-7.69420367618e-05
-0.00132362761567
0.00102568736098
0.000297952335133
-0.00112294192913
0.000985614004492
0.000137307312012
0.000692383025042
-0.000448079012324
-0.000244308573503
-0.000628710958993
0.000437239672738
0.000191440599787
-0.000672937035175
0.000722313676207
-0.000634861935243
-0.00304348876753
0.00367833822696
0.000413148940024
-0.000615661247139
0.000202543369646
-0.000313450261597
-0.000177170135209
0.000490478202252
0.000718360249589
0.0004794286216
-0.00119764576683
2.11384900788e-05
0.000341549584742
-0.000255717785413
-0.000680870074516
0.000936510547306
-0.000282793083838
-0.0003331462423
-0.00022078015023
-0.000166964479024
0.000387730182552
0.000349815651895
-0.000663326207394
0.000313492425905
-0.000125709283382
0.00112936604577
-0.000205288934923
-0.000349883806845
0.000555265599015
0.000767958047344
-2.77205504654e-05
-0.000350492627907
-7.14468114322e-05
0.000422043095938
-0.000592067734678
0.000324026230515
0.000268094357198
-0.000524627043033
0.000325320582887
0.000147858913195
0.000169414635615
-0.000317227067371
-0.00019488967657
0.000342727471084
0.000607255821902
0.000138950828851
-0.000746091216595
0.000348125172173
-0.000225022153607
0.000769857071249
-0.000202919718777
-0.000567005119121
-0.00167988645149
0.00266501832413
-0.000985094294021
-0.0011297648057
0.00099898676556
0.000130852024726
-0.00236045406942
-0.00020101986371
0.00256144253684
0.000600117328773
-0.00015602446688
-0.000444006698641
-0.000522681485376
0.00106193263571
-0.000539411663939
0.00287576413517
-0.00153329410505
-0.00134252614842
0.000275450774803
-0.00083175138439
0.000556173694301
0.000450331250931
-0.000568407858619
0.000118086070026
7.85278324055e-05
0.000269618645344
0.000276621287825
-0.000459941610896
0.00018333892226
-0.000297453362455
0.000491591640378
-0.000194214781613
0.00033217205989
-0.000550879145505
0.0002188074746
0.00115807379022
-0.000345390858018
0.0010569175041
0.000800283167232
-0.000407317673892
-3.46081240187e-05
0.000384117762621
-1.76797012854e-05
0.000285075014906
0.000305344159917
-0.000590380093862
-0.00102197873388
0.00190945162035
-0.000887455703942
-0.000771141175333
0.000996900665925
-0.000225772355143
8.70486903652e-05
-0.000858177289927
0.000699224891001
-0.0025916930496
0.0018924706365
-0.0018277077065
0.00252686635588
0.000372469586327
0.000543968551837
-0.000916434278443
7.66555893091e-05
0.000194565728033
-0.000271219756215
-0.000800788445249
0.000251185122872
0.000549660774278
-0.000142723394157
-0.000194167593729
0.000336892024533
-0.000755174311507
6.00484343361e-05
0.000695143334849
-0.00114403391766
-0.00221590394782
0.003360108795
0.00039365582162
-0.000191895530341
-0.00020173370383
0.000400600617496
0.000596299661165
-0.000538894305802
0.000939547836356
-0.00290396417231
0.000739576750559
0.00216426152541
-0.000744893939419
-0.00215921779539
0.000700229948173
0.000932569348228
-0.00163291725814
-0.000313606278835
0.00049582333925
-0.00018222795822
-0.000364980394366
-0.000313796681474
0.000678841003523
0.000705866568796
-0.000724866317006
1.90024935624e-05
0.000872894296593
-0.000579204544646
-0.000293663288135
0.000444652679752
0.000428251850476
0.000601330041654
-0.000362947434023
-0.000238427738126
-0.000175688304313
0.000410270411372
-0.000234555555523
0.000391155877572
-0.00102118300239
0.000630063234165
-0.00602423180397
0.00347645018421
0.00254767640652
-0.00342291603151
-0.00260141970728
-0.000793458426292
0.000537772360141
0.00024148288907
-0.000718931655775
0.000477489483149
-0.000411880718361
0.000653478026571
0.00102590935627
-0.000107854168662
0.000227752706286
-0.000675545764212
0.000447833205018
-0.000282174282149
-0.000583309850489
0.00086536831357
0.000998404569164
-0.000806136721223
-0.000192268971864
5.26709793247e-05
0.000424288808548
-0.000476935329648
0.000402305128174
0.000300531268568
-0.000702735347352
-0.00128690629657
0.000269778048221
0.00101709671264
-0.00106848551455
0.000376133227264
0.000692305967335
0.000635204077557
-0.000306975079464
-0.000328220142406
0.00113358005211
-0.000467588912861
-0.000666008869524
0.00118398271067
-0.00112276318212
-6.11651621962e-05
0.000691948686762
-0.000820146405683
0.000128205535426
-0.000257433923653
0.000839347919539
-0.000582068004208
-0.000327665040452
-0.000348129854168
0.00067569014306
0.00112461886707
-0.00346184001494
-0.0004972317043
0.000336632657067
0.00114331076445
-0.000647219510486
-0.000670456027632
0.000672825215496
-2.47578131364e-06
-0.000278696910027
0.000373447765698
0.000493468717022
0.00015232294
0.000132516237711
-0.00056721305687
0.000434851603214
-0.0004947817544
0.000627187072264
0.00078770347585
-1.3204013997e-05
-0.000774534202836
0.00085299831446
-6.54438318331e-05
0.000161331648907
-0.000749127983429
0.000587815649818
0.000497068142838
-0.000527134834381
3.00233541287e-05
0.00048639602356
-0.000489569434008
-0.000797886135431
0.00128743808294
0.000771854437723
-0.00126146609278
-0.001268263584
0.0013466719869
-7.84285822277e-05
-0.00134174177263
7.35541655744e-05
0.000148673646754
-0.000378594566447
0.000229984444176
0.000381086660075
-0.000232418867911
-0.000485224178494
0.000686316658323
-0.000200837730755
0.000727189024679
-0.000119863368374
0.00357163430794
7.25596129697e-05
-0.00364415121711
0.000372169061245
-0.000608167973962
0.000235992276984
-0.000603166158328
0.000474782134548
-0.000266679453935
-0.000403855855423
0.000260868454259
-0.000527689747
0.000434006787326
0.000126003947247
-0.000559957088591
0.000101919114499
-0.000322686516563
0.000553395635011
-0.000218144291333
-0.000335298232178
0.000478154549822
-7.19569801263e-05
0.000821475988662
-0.000220059646241
-0.000601518385159
-0.000793235921863
0.0020743891472
-0.00128101600626
0.000167642938661
0.000250531683191
-0.000418129631275
0.00051411606804
-0.000876684821411
0.000362402594173
0.00228302329261
0.000564571941603
-0.00044508296461
0.000744849984091
-0.000299799203157
0.000187028503422
0.00182635561904
-0.00201337935216
-0.000138841743269
0.00040612406559
-0.000267311327856
-0.000512315978839
0.000161857621383
-0.00149799008396
0.000947177829295
0.000550957077192
-0.00127142320153
-0.000226585214305
-0.000149615653247
0.000634616368975
-0.000485081544165
0.00105201136763
-0.000515779231276
-0.000536093872491
-0.00059128086192
0.0002777959675
0.000313496442436
0.000882713891914
0.000169379393521
-0.000488275736905
-0.000103018689998
0.000441689094925
-0.000584349868973
0.000142756567816
0.000556366531187
-0.000243002001632
-0.000313391812615
-0.000694731523143
0.000665008407597
2.98699283064e-05
-0.000318373989048
-0.000376431105133
0.000648897777977
-0.000762030246041
0.000113107951218
-0.000495027985335
0.00046944384515
2.55348647783e-05
-0.000162574546691
-0.000276598561726
0.000439262655744
0.000168542248708
-0.000569190435726
0.000400738661294
0.000473666661689
-0.00049236525001
1.87448153108e-05
-0.000412463083676
0.000178657587752
0.000549035761603
0.000247952872535
-0.000796962430886
0.000777153783698
-0.000228029969645
-5.70966770904e-05
0.0005254242097
-0.000468369078306
0.000335733122895
-0.000392837598851
-0.000351654640817
0.0008655530004
-0.000513862026008
0.00113712491414
-0.000269810207027
-0.000867315707024
-0.00196051629933
0.000334271211317
0.00162619023157
0.000312001186641
-0.00108861193298
-0.00099037656164
-0.00196418445579
0.00295463501534
-0.000895524458538
0.00116500606897
-0.000269582909977
-1.14792927013e-05
0.0006749763252
-0.000663719037149
0.000607009887014
-0.000618521891944
0.000816579798569
-0.000628109650047
-0.000188427605713
-0.000649938638378
0.000766686942619
-0.00011670423502
0.000335494516717
0.00030101033617
-0.000636386682893
0.000632721067867
-0.000394702432299
-0.00023801559903
0.0010890255981
-0.00036482171296
-0.000724232046901
0.000844410616607
0.000244631291346
-0.00157444347698
0.00202122122108
-0.000446741607029
-0.000790156374819
0.000772309896641
1.79498804025e-05
-0.00154216010204
-0.00133484072116
0.00287698170834
-0.000522600697536
0.000212486913552
0.000310110834648
-0.000446108754702
0.000270521616084
0.000848415066468
-0.000457277890438
0.000573346374513
-5.76957123101e-05
0.000147219601616
0.000425977320384
-0.000116008617737
0.00341518081234
-0.000228606342135
-0.00123560441773
-0.000679640542648
-0.000817655709322
0.00149739389855
-0.000382998400799
0.000616568822658
-0.000233600795155
-0.000595637450059
0.000147609354406
0.000448042559744
6.28752173182e-05
-0.000658476641828
-0.000491254941222
0.000526243970114
-3.49515789906e-05
-7.42443286308e-05
-0.000417020697052
0.000154741940068
-0.000905813559062
0.0007510323629
0.00320760517236
-0.00387087047759
0.000663266657422
0.000203732120079
-0.00117732422921
0.000973621203262
-0.00101395109914
0.00121765728231
0.000313503455199
8.0146492427e-05
4.64726715088e-06
0.000644415347517
-0.000649159234384
-0.000237130080744
0.00048181336597
-0.000244640563131
-0.000371987870751
0.00108227226952
-0.000710451864629
0.00224827880059
-0.000322688644182
-0.00192556757845
0.000640535446691
-0.000888444288114
0.000248018898682
0.00084664484431
-0.000245382392912
-0.000601171076763
0.00023962560108
-0.00106021131394
0.000820640213029
-0.00121426525754
-0.000360146924036
-0.000124292610204
0.000870674069435
-0.00074658011603
0.00072039015214
-0.00084461588649
-7.71178835316e-05
-0.00330841079522
0.000519671119111
0.00072126763565
-0.00124081531143
0.000649440591745
-0.000176616392228
0.001031840626
-0.000668516879476
-0.000363372462062
-0.000388605315243
-0.000150744353442
0.000539419560928
0.000946364099614
-0.00102878219305
8.26849723123e-05
0.000673794636927
-0.00169571398719
-0.00223647885899
-0.000708581007731
0.00294502545393
-0.00242369293844
0.000187254065098
-9.71732776054e-05
-0.000435625903795
-0.000985082375081
-0.000277741596791
0.00126289872161
-0.00117727787532
0.000192226623099
0.00109165583473
4.54680603395e-05
-0.0021686376369
0.00020812082193
0.00130194801468
0.000188729416816
-0.00149074417653
-0.00026359543526
0.000515078536099
-0.000251470719019
-0.00049026190896
-0.000578133135128
-0.000504723754854
0.00057184081197
-6.70879881943e-05
5.37368397981e-05
-0.000558455672759
0.000811194640988
-0.000860245087538
4.90466879461e-05
-0.00129644940864
0.00162421984574
-0.00032776133106
0.000432871158854
0.000732317610028
-0.0011652383182
-0.000118744952344
0.000446469135967
-0.000327711777207
0.00057191735801
0.000561604159409
-5.36173121226e-05
0.000745490074051
-0.000193443282183
0.000552943617131
-0.000359465128386
0.000323672415963
0.00032764487107
-0.000651273511143
0.000681851540214
-0.000393222894334
-0.000288619611595
0.000239600552646
0.000442224027631
0.0116940750304
0.00602618457146
-0.0177202808899
0.0109883510273
0.000705680069503
0.00160044046653
-0.000961758645887
-0.000638653668174
0.000440165210364
0.00116028434117
0.00141021360436
-0.000556983552177
-0.000853244956025
0.000800475724675
0.00060975665845
-4.35352896713e-05
0.000385982697572
-0.000342525504911
0.000697085648156
-0.00041873905801
-0.000278609083369
0.000178217151287
-0.000850372258844
0.000672175198165
-0.00120067754227
0.000733025727116
0.000844128954954
0.000810514541216
-0.00165465109665
-0.00136009031209
0.000526889572895
0.000833237890109
-0.000405314864288
-0.000115297153878
-4.2634350245e-05
-0.000579304962104
0.000894785697359
-0.00119787564455
0.000303046464243
0.00109315331153
-0.000521294693487
0.00331614813997
-0.00304556465242
-0.000270589838422
0.00248686643196
0.000829312634888
-0.000288784876077
-0.000186773130475
0.000475507327971
-7.40396488995e-06
-0.000485081483064
0.000492390752045
-1.70405059395e-05
-0.000249938668512
0.000266984402678
2.17204934082e-05
0.000253639695081
-0.000275312632685
-0.000135738507573
-0.000721491361452
0.000857233573425
3.75505201295e-05
-0.00074177991679
0.000704230619255
-0.000173410741576
0.000508348474207
0.000699519449399
-0.000105010200232
-0.0005942795603
-0.000369393393988
-0.000326964816228
0.000696352299246
0.000833386584448
-0.000611745955605
-0.00022169044755
0.000509564673617
0.000323823503324
-0.000101937724689
-0.000411039365074
0.000512898747217
0.00201380129988
-0.000409216882145
-0.00160457417969
0.000672910464753
-0.000164113061323
-0.000508844060064
0.000578753408386
9.41380427966e-05
-0.000637045884324
0.000864962361298
-0.000901649005024
0.000276712051485
0.000279609766887
0.00116257596754
0.000470291506846
-0.00163275025398
5.33645127113e-05
0.000399864661681
-0.000453204735075
0.000553480365223
1.13002786108e-05
-0.000564912884144
0.00084906623944
-0.000295698675194
0.000660529027711
-0.000364200465791
-0.000296444537336
0.000646898018855
1.36601860384e-05
0.000910491276392
-0.000408317440284
-0.000417732469988
-0.000163831768037
0.000333306083365
-0.00101423013345
-0.000446224687878
0.000150378412395
0.000941954313826
-0.000976947330656
3.49571190323e-05
-0.000408760231313
-0.000415460800041
-0.000442108124495
0.000718790281708
-0.000167608049695
-0.000482355605227
0.00058009148252
-0.00036312488798
-0.000217039070159
0.00193800231633
-0.00281763442435
0.00087942909103
-0.000691261089762
0.000144834619421
0.000546474927216
-0.000552024335196
0.000212650035377
0.000339386915679
-0.00238667146443
-0.0018404446097
0.00422703330615
-0.00023321748743
-0.000131957183924
0.000365253915546
-0.000913069975297
0.00106338987364
-0.000150319695915
-0.00138230654397
-0.000575178871617
0.00195748760356
-0.00114264575301
-0.000102844119504
0.00124549270683
0.000209006719508
-0.00159126229346
-5.85222617942e-05
-0.00108412561557
0.000434579464169
6.69415564675e-05
-0.000501539858043
-5.3651691654e-06
0.000439968063413
-0.00150354920705
0.000947354129725
0.000556163929955
-0.000736018127868
-0.000767470132719
-0.000562750046012
-0.000955280597514
0.00151812357545
-0.00170653153076
0.00114381107275
-0.000456112589643
9.09670558715e-05
0.000365133929149
-0.000527908392397
7.17593193658e-05
0.000647739416083
-0.000475228517929
-0.000172599608604
0.000518109484011
-0.000644949308051
0.000126861321789
0.000632679216396
-6.63023911553e-06
-0.000626084505127
0.000147186370722
-0.000505391718592
0.000139639543192
0.000517170444538
-0.000656911104511
0.000312666731071
-0.000502389713239
0.000189717017881
-0.000451563635165
0.00131133602488
-0.000859663053138
0.000863423337926
-0.000986006988014
0.000122515672373
1.62303352125e-05
0.000925748410959
0.000392748226198
-0.000586189128126
0.0014725206289
0.0014032700555
0.000231905098622
0.000199267742888
-0.000654427718382
-0.000669200141343
-0.000667067584815
-0.000455865951724
-0.00067080308989
0.000287790292619
0.000423677009238
-9.61101980188e-05
-0.000327598867436
0.000587747766657
-0.000661635141967
7.38650736263e-05
-0.000286529153707
0.00118135469344
0.00033509745194
0.000314395020325
-0.000649635848579
-0.000174988974766
-0.000310762442829
0.000485664937396
-0.000490621334116
0.000550471621959
-5.97847924702e-05
0.00133069888718
-0.000811064316104
0.005002251907
-0.00239917424439
-0.00260300919305
0.000608757524311
-0.000163444610417
-0.000445375080078
-0.000677046935351
0.000222827734968
0.000454242923826
-0.0005317440812
0.000149065658075
0.000382698495402
0.000455953072732
-0.00128192211573
0.000825975420867
0.000373506087629
-0.00205362589773
0.0016801274606
0.000204850488412
-0.000463445417274
0.000258570649906
-0.000227764573741
0.00051411015754
-0.000286334502588
-0.00046684467278
0.000737936538498
-0.000271185308929
0.000282134222558
-0.000518381559952
0.00210616934913
-9.23919950519e-05
5.37256901155e-05
-0.000721575584145
0.000668082133725
-0.000614212689421
0.000432466130022
0.000181710087774
0.000379681842921
-0.000488696693477
0.000109030517203
-0.000909189048085
6.45331095221e-05
0.000844659445562
0.000812126829833
-0.000205090373012
0.000304754730496
0.000444670760816
-0.000749467040895
-0.000197455106484
-0.000379209500219
0.000576670428796
-0.000517457324659
0.000822206593441
0.000462279488593
-0.000659800527832
-0.00117964142172
-0.000395261739698
0.00157498604427
0.00142335617803
-0.00103788091897
-0.000385534376808
0.00311270005059
0.00188956845581
0.000475946856038
0.000132829354943
-0.000482436894628
-0.000194528984255
-0.000396932008635
-0.000134833168705
0.000343792884872
0.000170882553596
-0.000565782577343
0.000394955342584
0.000611609071179
0.000249116427484
-0.000860533996142
-0.000239410637415
0.000851041579783
-0.00149340934704
-2.13718806687e-05
0.00151487451129
-0.000117238993812
-0.000318822947463
-0.000390042098304
-5.75413643274e-05
0.000447638133737
-0.000455499595812
6.54783337805e-05
0.117693346716
-0.11769347273
0.000738507890519
-0.00073853387457
-0.000516421572902
0.000516404238572
0.000231135860353
0.000364082768864
-0.00393117241349
0.000997102353781
0.00293412070612
-5.89024805535e-06
-0.000531000600431
0.000536828953695
0.000319620322718
-0.000467843852384
0.000148193867682
-1.00836285944e-05
0.000538432385043
-0.000528322094932
0.00050584407222
-0.000338185776676
0.000378073092986
-0.00273862156624
-0.000992757968663
0.000470058555087
0.00129216130726
0.000206366679394
-0.00149855875857
-0.000272103445649
0.000674442344947
4.62639709556e-05
0.000377359477476
0.000588654338132
-0.000626169135205
3.74989644231e-05
-0.000622808765911
1.45866537697e-05
0.000608256595042
-0.000351077871672
-0.000360478041717
0.000711653176319
0.000323632748199
-0.000680984203965
0.000357406109295
0.001936979338
0.0034551570451
-0.00539208991667
-0.000936641328999
-1.31254471274e-05
0.000483602804713
3.61307480664e-06
-0.000487202900478
-0.000580284366152
0.000457689454481
0.00012261257854
-0.000624612932468
-0.000134945064437
0.000759566979914
-0.00129353331746
0.000166727555152
0.00112672154421
-0.000945111339596
-0.000348478650938
-0.000858286501586
0.00137989780832