/*--------------------------------*- C++ -*----------------------------------*\
| =========                 |                                                 |
| \\      /  F ield         | OpenFOAM: The Open Source CFD Toolbox           |
|  \\    /   O peration     | Version:  v1906                                 |
|   \\  /    A nd           | Web:      www.OpenFOAM.com                      |
|    \\/     M anipulation  |                                                 |
\*---------------------------------------------------------------------------*/
FoamFile
{
    version     2.0;
    format      ascii;
    class       volVectorField;
    location    "24";
    object      Ua;
}
// * * * * * * * * * * * * * * * * * * * * * * * * * * * * * * * * * * * * * //

dimensions      [0 1 -1 0 0 0 0];


internalField   nonuniform List<vector> 
9216
(
(-0.029280135487 0.0291235484507 0)
(-0.0185764185166 0.0612282800669 2.91454079706e-27)
(-0.0191407520499 0.104258565993 -1.44564081567e-30)
(-0.0192731647647 0.14370116462 0)
(-0.0187836548553 0.183327134615 0)
(-0.0181224722446 0.219861295671 0)
(-0.0174751793106 0.257013459841 0)
(-0.016993648113 0.29180642247 0)
(-0.0170000021404 0.325961385484 0)
(-0.0173996274976 0.358014960171 0)
(-0.0180486365216 0.389307764364 0)
(-0.0157435943277 0.42383889604 0)
(-0.0125283849841 0.439452118077 0)
(-0.0114614672839 0.466725828465 0)
(-0.0094738573005 0.477512630884 0)
(-0.00671494933547 0.495321357051 0)
(-0.00285103617292 0.499478528218 0)
(-0.00252358680835 0.501283203308 0)
(-0.00265598329178 0.504828875605 0)
(-0.00486833325539 0.506424394295 0)
(-0.0059788844819 0.500036950402 0)
(-0.000952312214256 0.508694590751 0)
(0.00597830755197 0.490060333663 0)
(0.00830118676478 0.46771522294 0)
(0.00704621976146 0.445807070367 0)
(0.00436928775509 0.420650637375 0)
(0.00330345527658 0.410144095943 0)
(0.00404597530601 0.390665780166 0)
(0.00569112682064 0.370269125327 0)
(0.00769920178149 0.353918561316 0)
(0.00589986448486 0.316159960428 0)
(0.0124617801244 0.30792550117 0)
(0.0230370308178 0.263018652033 0)
(0.0215259591707 0.212554899783 0)
(0.018776076479 0.182585115283 0)
(0.0163794703172 0.141619595862 0)
(0.014842210949 0.110469958023 0)
(0.0129648939592 0.0826912074459 0)
(0.0114653724052 0.0619136537423 0)
(0.0103929823941 0.0458652907387 0)
(0.00891354952092 0.0327008576516 0)
(0.00767070717674 0.0222748843849 0)
(0.00714588966464 0.0149906682453 0)
(0.0064389930166 0.0145527425974 0)
(0.00516674484767 0.021063831071 0)
(0.00536523618407 0.0289349265706 0)
(0.00538852333528 0.0344923057092 0)
(0.0089504964063 0.0331529116888 0)
(0.0113009890469 0.023054086417 0)
(0.0092549845916 0.0146937932671 0)
(0.00662809703954 0.0139506188192 0)
(0.00550484368108 0.0173193823486 0)
(0.00527991332759 0.021104347422 0)
(0.00559693044893 0.024265362248 0)
(0.00496043552009 0.0275246742596 0)
(0.00457521222205 0.031161733083 0)
(0.00447720360604 0.034994182259 0)
(0.00563506198402 0.0365173258359 0)
(0.00513052545361 0.0376849106815 0)
(0.00411264921615 0.0389795425761 0)
(0.0037851680587 0.0407877859729 0)
(0.00363329053876 0.04051122475 0)
(0.0021290804794 0.0399231276436 0)
(0.0012500852639 0.0401192667133 0)
(0.00202242614482 0.0396094713139 0)
(0.00275615809779 0.0379573262258 0)
(0.00250505508189 0.0372477679121 0)
(0.00196558319508 0.0357899901295 0)
(0.000848776581304 0.0343550244674 0)
(0.000844210632212 0.0329869348479 0)
(0.000493636479763 0.0322156351345 0)
(0.00025250765241 0.0321324048681 0)
(-0.00143969086341 0.0359969665396 0)
(-0.00154086163583 0.0427061491952 0)
(0.00238708166093 0.0441959434732 0)
(0.00282859359258 0.0384831409487 0)
(0.00209082688552 0.0327861312508 0)
(0.00143153526189 0.028608684626 0)
(0.00149743442777 0.0254286601749 0)
(0.00129228354517 0.0231168375726 0)
(0.000872468446663 0.0216918253502 0)
(0.000220591285456 0.0209571176684 0)
(-0.000537702233196 0.0213209417532 0)
(-0.000123594264299 0.0227478252672 0)
(0.00106646153516 0.0227235924792 0)
(0.00158079125657 0.0201626928597 0)
(0.00130101755188 0.0170247784689 0)
(0.000689606058113 0.0148031036201 0)
(0.000745217823359 0.0134168392756 0)
(0.000986011268606 0.0109938954385 0)
(0.000758687928662 0.00852316762554 0)
(0.000494492179472 0.00623905370237 0)
(0.000393676307386 0.00435215893338 0)
(0.000223023518751 0.0026735100658 0)
(0.000133098459209 0.00128875694239 0)
(0.000283859636528 0.000404852867297 0)
(-0.0628878159031 0.0187549348598 0)
(-0.0621483064204 0.0619611758759 0)
(-0.0628569955822 0.108805896938 -2.90656709859e-27)
(-0.0618380423754 0.15257318268 0)
(-0.0599959521856 0.195355282836 0)
(-0.0586218511597 0.238060169179 0)
(-0.056924513193 0.278585510568 0)
(-0.0553921035408 0.32079589069 0)
(-0.0529266492157 0.357483779647 0)
(-0.0506338120954 0.391945973747 0)
(-0.0490077068484 0.422934136383 0)
(-0.0449506493286 0.449136719902 0)
(-0.0402381436692 0.480338107899 0)
(-0.0303032589434 0.50778734676 0)
(-0.0233482230803 0.522523214878 0)
(-0.0184035791043 0.543342632728 0)
(-0.00805758121213 0.557460174606 0)
(-0.0048005323089 0.570603187972 0)
(-0.00212456399513 0.573095068397 0)
(0.0014394009563 0.581894939594 0)
(0.00273319917216 0.553029766202 0)
(0.00827611900304 0.547450811626 0)
(0.0220741103264 0.533993655821 0)
(0.0304994477513 0.52225890279 0)
(0.0325986541752 0.501084812575 0)
(0.0313610728261 0.473403694204 0)
(0.0283264354277 0.442768640962 0)
(0.0261661104057 0.41420744573 0)
(0.0236036095881 0.385965065449 0)
(0.0285189136723 0.372686379982 0)
(0.0332543623911 0.350143671886 0)
(0.0487563993062 0.311877019717 0)
(0.0659432290357 0.277161137733 0)
(0.0648537550089 0.244300824033 0)
(0.0608177773666 0.212064374774 0)
(0.058231200829 0.175978481518 0)
(0.0524445233238 0.137096175529 0)
(0.0471194937944 0.107923990651 0)
(0.037957270179 0.082538763664 0)
(0.0352509154979 0.0655687205376 0)
(0.0338022509371 0.0492431042696 0)
(0.0296331995425 0.0374598380264 0)
(0.0177085630143 0.0317699735589 0)
(0.0110650504369 0.0382496121253 0)
(0.00863061506175 0.0573831933264 0)
(0.0106916524653 0.0766003973289 0)
(0.0121341300404 0.100703950919 0)
(0.0264299728614 0.108531654576 0)
(0.0342776951032 0.106676399638 0)
(0.0209106371095 0.11215530511 0)
(0.00955837520514 0.127931087388 0)
(0.00323698983777 0.146160334751 0)
(-0.000810738883865 0.161698841413 0)
(-0.00443829022468 0.185664190193 0)
(-0.00763313382158 0.207580107548 0)
(-0.00928484587061 0.218803374098 0)
(-0.0120237346461 0.230795963968 0)
(-0.0155997647105 0.242178473097 0)
(-0.0201855411805 0.277863935664 0)
(-0.0183848797067 0.283226425827 0)
(-0.0162062981404 0.285859042228 0)
(-0.0133984754372 0.278872453329 0)
(-0.0100691579579 0.270243313029 0)
(-0.00731369763979 0.249493138788 0)
(-0.00836155693006 0.233792781835 0)
(-0.00856520345635 0.222070550012 0)
(-0.00614304651016 0.209800220032 0)
(-0.0024962261763 0.184556769446 0)
(-0.00044369407455 0.156954414388 0)
(-0.00128088384852 0.131736823439 0)
(-0.00786763118079 0.113866431061 0)
(-0.00987798462376 0.0895781846999 0)
(-0.0147858422846 0.0865781138199 0)
(-0.0137144388934 0.0846155123425 0)
(0.00601481523884 0.0832832201214 0)
(0.00933944949816 0.0668744865287 0)
(0.00860925692403 0.0552364175888 0)
(0.00711528162815 0.0460542537848 0)
(0.00471983785181 0.0378431478245 0)
(0.00226173473905 0.032266764678 0)
(0.00131513412307 0.0281950248817 0)
(0.000294442164149 0.0259384371524 0)
(-0.00215310220201 0.0249637362135 0)
(-0.00100149089097 0.0261959173378 0)
(0.00250174055908 0.0247184995053 0)
(0.00446865204116 0.0205429788043 0)
(0.0037208284001 0.0155858262119 0)
(0.0021793282913 0.013334725286 0)
(0.00238282805912 0.0115834824226 0)
(0.00318311179473 0.00991913425991 0)
(0.00254925215694 0.00776337783235 0)
(0.00187832541745 0.00541809394696 0)
(0.00127139716417 0.00360532781267 0)
(0.000903731719325 0.00230675427491 0)
(0.000708701723399 0.00101297215878 0)
(0.000827811055865 0.00027144986613 0)
(-0.107508193716 0.0192575766311 0)
(-0.110347894586 0.0641127406251 0)
(-0.109455396461 0.111063400718 -2.92955428626e-27)
(-0.106165882736 0.154298149001 0)
(-0.105431205147 0.201472731303 0)
(-0.102546741218 0.244954511404 0)
(-0.0992335838937 0.287093251661 0)
(-0.0945764571228 0.326116831999 0)
(-0.0893344802488 0.363705180488 0)
(-0.0849978688461 0.398204756632 0)
(-0.0810116601725 0.43543967606 0)
(-0.0754349785626 0.462230069291 0)
(-0.0678312188013 0.486425335372 0)
(-0.0584388874849 0.498717831362 0)
(-0.0518986745474 0.553389793277 0)
(-0.0371639195275 0.55710200627 0)
(-0.0248278405064 0.580378087226 0)
(-0.0156858269827 0.592493724162 0)
(-0.0062103643189 0.597666593736 0)
(0.00701625982962 0.598100346138 0)
(0.017792263163 0.591484077369 0)
(0.0225667370463 0.576711220845 0)
(0.0320497580159 0.549241243685 0)
(0.0442294314649 0.543375896378 0)
(0.0466156692358 0.513970814855 0)
(0.0481816360591 0.510730270939 0)
(0.0471056516771 0.501927139462 0)
(0.0523560016356 0.496133188743 0)
(0.0525298871278 0.469993069509 0)
(0.0514639828823 0.437222545408 0)
(0.0653212541847 0.420700631234 0)
(0.0841512064768 0.377386814674 0)
(0.107752624125 0.357190517657 0)
(0.112419229966 0.312830520626 0)
(0.114399719198 0.274305377777 0)
(0.116632648675 0.227326410513 0)
(0.104635463518 0.176580841991 0)
(0.0900012930676 0.131893460623 0)
(0.0671783283591 0.108690149293 0)
(0.0569461996105 0.100539698196 0)
(0.0563142011586 0.102525014657 0)
(0.0416037874922 0.106808461616 0)
(0.0116296793258 0.145920894394 0)
(-0.00651612441218 0.190478589943 0)
(-0.0251853149771 0.287947467642 0)
(-0.0491957060224 0.353396732103 0)
(-0.0903240256758 0.509404438074 0)
(-0.11817842495 0.585890031101 0)
(-0.169336126068 0.771689808242 0)
(-0.242371883419 1.09407072279 0)
(-0.271348531196 1.32190534732 0)
(-0.273522935106 1.46701983025 0)
(-0.269191925168 1.56512641758 0)
(-0.265019572009 1.6332623664 0)
(-0.256794500125 1.68289225649 0)
(-0.249984996526 1.7201962356 0)
(-0.250306807363 1.74869388814 0)
(-0.255571633979 1.76380462162 0)
(-0.245363033584 1.76981022192 0)
(-0.221075614791 1.76369015277 0)
(-0.199012841375 1.74992135584 0)
(-0.176904977256 1.72376655831 0)
(-0.150316869281 1.69302604026 0)
(-0.134715871694 1.66312645517 0)
(-0.136933032146 1.6312215974 0)
(-0.133443624782 1.59114742428 0)
(-0.114887752622 1.54211871598 0)
(-0.0890635266832 1.47818732664 0)
(-0.060812824662 1.39683713387 0)
(-0.0374930416299 1.2878316068 0)
(-0.0108707549428 1.14357473435 0)
(0.0246245337592 0.746622764228 0)
(0.0350395001002 0.641814714366 0)
(0.0216205434487 0.398980101427 0)
(0.00988376344477 0.354165031977 0)
(0.000415864942103 0.285955462632 0)
(-0.00271016717966 0.24567603631 0)
(-0.00236088440062 0.21576571584 0)
(-0.00254275133919 0.186461611158 0)
(-0.00187040435736 0.147187703097 0)
(-0.00339206202098 0.11077774862 0)
(-0.0097467031064 0.08445016829 0)
(-0.0141281066831 0.0618790625087 0)
(-0.00703448738014 0.0534873567555 0)
(0.004350147789 0.0442473576912 0)
(0.00870718594187 0.0309783836902 0)
(0.00640259414774 0.0209638346919 0)
(0.00347410165255 0.0135039377052 0)
(0.00300148881362 0.0108127153006 0)
(0.004580408449 0.00818821495457 0)
(0.00412505712219 0.00674776822317 0)
(0.00275177378142 0.00395627776231 0)
(0.00202339417376 0.00311548750706 0)
(0.00149871544357 0.00179933858889 0)
(0.0010252932983 0.000768019446444 0)
(0.00133263776931 0.000343858909223 0)
(-0.149777014974 0.0199910272128 0)
(-0.157614695426 0.0662901620379 0)
(-0.155224120143 0.112294883657 2.89660044745e-27)
(-0.152728438463 0.157588227352 0)
(-0.151901766724 0.205934874324 0)
(-0.146567647756 0.249789975905 0)
(-0.140507916126 0.292786300301 0)
(-0.134345082488 0.332844914263 0)
(-0.129730022878 0.376600970059 0)
(-0.122406740575 0.412442812921 0)
(-0.112816369114 0.445072492094 0)
(-0.100533991711 0.472857513464 0)
(-0.0936346188752 0.49429765597 0)
(-0.0951911852109 0.534451187632 0)
(-0.0786859273536 0.55211145349 0)
(-0.0570270818749 0.573747616118 0)
(-0.0412407916352 0.59321542956 0)
(-0.0258814431157 0.606036248249 0)
(-0.0083196905016 0.612572247886 0)
(0.00784700168639 0.615075341487 0)
(0.0210272533416 0.608053641847 0)
(0.0367960088548 0.611440553186 0)
(0.0455066005247 0.584463401868 0)
(0.0528953814838 0.578496368068 0)
(0.0482630269367 0.580024702414 0)
(0.0459751006646 0.580491778029 0)
(0.0528368401761 0.585125705312 0)
(0.0596908527151 0.558361427654 0)
(0.0783206453969 0.568667168334 0)
(0.0912794495129 0.531308609748 0)
(0.109051543176 0.49529263985 0)
(0.130519596225 0.447223248879 0)
(0.144759937664 0.393355461542 0)
(0.147179075691 0.342266061073 0)
(0.148911493118 0.301870479986 0)
(0.141073744621 0.248221744785 0)
(0.133359618876 0.217657842256 0)
(0.127473614215 0.182971205996 0)
(0.0823203563999 0.203892870954 0)
(0.0074431039053 0.273146975381 0)
(-0.0790185998305 0.467866826723 0)
(-0.180084887002 0.707747862361 0)
(-0.30970820222 1.11450240567 0)
(-0.326291847855 1.37850801712 0)
(-0.38722635466 1.68590852888 0)
(-0.468267029162 1.90546159506 0)
(-0.551032858957 2.09771134999 0)
(-0.639924716675 2.22695453069 0)
(-0.670682784753 2.33715663956 0)
(-0.627792284829 2.49269414006 0)
(-0.779387241854 3.49685231675 0)
(-0.726534571952 3.80039542317 0)
(-0.648281582042 3.97292770898 0)
(-0.583075303235 4.08451046233 0)
(-0.529263032329 4.16232106247 0)
(-0.485978429215 4.21768806515 0)
(-0.452880829529 4.25289607971 0)
(-0.423353741501 4.26413756272 0)
(-0.383459011038 4.25265608582 0)
(-0.333631483866 4.22459333255 0)
(-0.285613661098 4.18379601736 0)
(-0.240217298034 4.12888818834 0)
(-0.196454665864 4.06729114572 0)
(-0.162466758417 4.00527470715 0)
(-0.137789995339 3.93546554079 0)
(-0.105902256331 3.84838465643 0)
(-0.0615721054173 3.74196163786 0)
(-0.00840449689814 3.61378944652 0)
(0.0547660034787 3.46331342936 0)
(0.132155384847 3.29052096977 0)
(0.236066105266 3.09732768245 0)
(0.318511182178 2.84648077689 0)
(0.350521531935 2.61125333668 0)
(0.229594090871 1.78748495882 0)
(0.0892673863459 1.6263795149 0)
(0.0143351464272 1.47612381292 0)
(-0.0133116829258 1.34403970346 0)
(-0.0153280748855 1.21942853453 0)
(-0.00271661705256 1.09364934101 0)
(0.0164166961298 0.962688855255 0)
(0.0262321761998 0.820193226857 0)
(0.0282072755499 0.660121152035 0)
(0.0303725329828 0.383761311017 0)
(0.0314592481738 0.260627537775 0)
(0.0212837049791 0.17120040323 0)
(0.0112447578227 0.108544138089 0)
(0.00224618858002 0.0622519821728 0)
(-0.000878844411639 0.0302917847684 0)
(0.00211165583576 0.0190170580451 0)
(0.00602542137366 0.00958398461592 0)
(0.00363795123376 0.00361616022238 0)
(0.00391917544106 0.00368415517486 0)
(0.00222904982102 0.00182032786749 0)
(0.00184549575171 0.00129456921618 0)
(0.00154716585369 0.000663370478471 0)
(0.00199377268422 0.000302042586365 0)
(-0.194408260262 0.0208557300355 0)
(-0.205601481648 0.0689109754132 0)
(-0.202791974869 0.11538397794 0)
(-0.201708754162 0.163702369012 0)
(-0.198953328484 0.211975477532 0)
(-0.191615565084 0.256831076304 0)
(-0.183955260908 0.30041470097 0)
(-0.179550196463 0.347204756548 0)
(-0.169735858884 0.386759412231 0)
(-0.157658887189 0.424057200938 0)
(-0.144120232102 0.458366882742 0)
(-0.132441015168 0.484234236183 0)
(-0.131696720697 0.52956274644 0)
(-0.120584783993 0.550141843423 0)
(-0.101153266958 0.571796780026 0)
(-0.0798875257441 0.593853222623 0)
(-0.0568047016524 0.612314160999 0)
(-0.0368316674169 0.627556701166 0)
(-0.0194861862668 0.634688436211 0)
(0.00125040213307 0.656364132315 0)
(0.0239326389729 0.650185695126 0)
(0.0423925537974 0.632396894483 0)
(0.0486749090669 0.630755736226 0)
(0.0435098612762 0.6249095473 0)
(0.037242774183 0.658614966351 0)
(0.0351877395452 0.641082229936 0)
(0.0566987459181 0.668973917354 0)
(0.0759677868736 0.63804141739 0)
(0.0973417219807 0.611343386532 0)
(0.130881960492 0.574987643168 0)
(0.149591558072 0.541072205227 0)
(0.155189780315 0.489206962133 0)
(0.185913093194 0.468098885916 0)
(0.196297230091 0.412769121478 0)
(0.203286456314 0.365069980032 0)
(0.170229037433 0.313657068581 0)
(0.0759615027642 0.323443418948 0)
(-0.00455513645671 0.409229079751 0)
(-0.196363578676 0.753183981385 0)
(-0.523797632628 1.26511521699 0)
(-0.716666130401 1.63976776746 0)
(-0.751976080095 1.9391188077 0)
(-0.744151027196 2.29461209491 0)
(-0.710383958736 2.63192774447 0)
(-0.955878426313 3.84145012246 0)
(-1.03250218822 4.3325461371 0)
(-1.08031254884 4.64336015888 0)
(-1.12101966883 4.82230685766 0)
(-1.1077803994 4.90880925771 0)
(-1.03109825547 4.97404135432 0)
(-0.923711312144 5.16365528788 0)
(-0.766214145313 5.27037055754 0)
(-0.637087924629 5.35449649822 0)
(-0.537484375557 5.42028945886 0)
(-0.458198157733 5.46684331688 0)
(-0.393208380222 5.49377540914 0)
(-0.337927887946 5.49951746247 0)
(-0.285691813071 5.48237148771 0)
(-0.229388710559 5.44492392949 0)
(-0.169791597358 5.39275264415 0)
(-0.112562539411 5.32906414169 0)
(-0.058819401602 5.25519192245 0)
(-0.00861974726555 5.17514884177 0)
(0.0358165692967 5.089631152 0)
(0.0772280905819 4.99210474888 0)
(0.124177146599 4.87707416364 0)
(0.179684512087 4.74500027161 0)
(0.24328299504 4.59786282837 0)
(0.316457415649 4.43952215729 0)
(0.399909683633 4.27479194649 0)
(0.490458445693 4.11158262154 0)
(0.56105062535 3.95664859452 0)
(0.586960319571 3.82762595225 0)
(0.503758197755 3.62053032133 0)
(0.344469893214 3.45367613289 0)
(0.248169749499 3.23873453073 0)
(0.20699621676 3.00494655726 0)
(0.201067556743 2.76271558218 0)
(0.217605249216 2.51332923353 0)
(0.248917441386 2.25669545947 0)
(0.285647919517 1.98647008015 0)
(0.322576783231 1.67764603479 0)
(0.254448633917 1.03904013227 0)
(0.213442212239 0.8592059554 0)
(0.143725504243 0.695099412528 0)
(0.089162317008 0.524013130911 0)
(0.0612850488397 0.349044851841 0)
(0.0432893341906 0.177491702863 0)
(0.021828466182 0.0766021489005 0)
(0.00939047211107 0.0334757471118 0)
(0.00349321424947 0.00664965963042 0)
(0.0033163972566 0.00345260510368 0)
(0.00283874293995 0.00210007278526 0)
(0.0019788584553 0.00096068964946 0)
(0.00160646527365 0.000390266245538 0)
(0.00226310049248 0.000231645714855 0)
(-0.240333523394 0.0215739761347 0)
(-0.254872453873 0.0718008252891 0)
(-0.251807210926 0.119719939789 0)
(-0.252459380229 0.170981429855 0)
(-0.246141641312 0.219084717124 0)
(-0.237475940438 0.265799098216 0)
(-0.232228667226 0.315493187022 0)
(-0.222429386174 0.358289476046 0)
(-0.209727213937 0.399456581001 0)
(-0.194912597971 0.438537760496 0)
(-0.1786217512 0.471507310334 0)
(-0.171944041493 0.507257177326 0)
(-0.164935541397 0.546258450146 0)
(-0.143594693072 0.568623685607 0)
(-0.122523438807 0.593536575952 0)
(-0.102361187362 0.619603543321 0)
(-0.0797575353194 0.639097185929 0)
(-0.0579714323946 0.67286779817 0)
(-0.0348770636347 0.681641529967 0)
(-0.00616642627354 0.688873457485 0)
(0.0281064211732 0.679273818431 0)
(0.045015209737 0.683251657031 0)
(0.0327496874131 0.680373467189 0)
(0.0146489098658 0.708520880819 0)
(0.0209734460337 0.74168130988 0)
(0.0391222127003 0.731687224292 0)
(0.0690772692839 0.716374653632 0)
(0.110086888455 0.682672382796 0)
(0.127676318975 0.658214174912 0)
(0.135277652561 0.620495447147 0)
(0.165876211109 0.628523900622 0)
(0.176580316857 0.576463671275 0)
(0.204896235452 0.523769073616 0)
(0.210592236111 0.48124324285 0)
(0.176233324411 0.437243361939 0)
(0.0565749640133 0.474413353505 0)
(-0.240472775096 0.816808239185 0)
(-0.530391898216 1.10934779064 0)
(-0.940843841692 1.80084023272 0)
(-1.04543867887 2.22718009456 0)
(-1.10468133648 2.66030722456 0)
(-1.11452410624 3.01841160996 0)
(-1.41720154001 4.34972578493 0)
(-1.38195531515 4.86776642129 0)
(-1.31038260053 5.34800119773 0)
(-1.22040077835 5.65564405459 0)
(-1.16542600705 5.86150195929 0)
(-1.1223250068 5.97374236134 0)
(-1.04662677509 6.00997726558 0)
(-0.924357625138 6.01986638751 0)
(-0.782436071759 6.0454709407 0)
(-0.633447522443 6.06303281223 0)
(-0.504375804067 6.0793973743 0)
(-0.397972497013 6.08909858968 0)
(-0.309211946642 6.08660579972 0)
(-0.233099971204 6.06859151315 0)
(-0.165184020385 6.03326565232 0)
(-0.100852139875 5.98075915018 0)
(-0.036727326894 5.91384284434 0)
(0.0268137258792 5.83620705857 0)
(0.0875615237136 5.75001345116 0)
(0.144929224756 5.65635560016 0)
(0.198886953045 5.55611808139 0)
(0.249562421271 5.44779838031 0)
(0.299620999516 5.32772334185 0)
(0.353439051666 5.19516348744 0)
(0.412801277708 5.05289546255 0)
(0.477547942327 4.90455907748 0)
(0.547202003167 4.75466975879 0)
(0.619215195068 4.60864864658 0)
(0.686665736408 4.47360763761 0)
(0.733361651839 4.35613416373 0)
(0.740170288863 4.25482097125 0)
(0.683796350351 4.13337455983 0)
(0.595725107101 3.9735699422 0)
(0.535656483626 3.7626122582 0)
(0.509220496685 3.52315579324 0)
(0.508320184555 3.26933998392 0)
(0.525466267572 3.00852128914 0)
(0.555294278622 2.74598984948 0)
(0.591764532296 2.48486100968 0)
(0.626911413845 2.22539731697 0)
(0.614288839685 1.93555777849 0)
(0.541486165506 1.70386854472 0)
(0.453817900988 1.44729647189 0)
(0.375847807467 1.14244742547 0)
(0.243969277731 0.638854393169 0)
(0.206894482423 0.449329080749 0)
(0.147497855706 0.292309995923 0)
(0.0753109027648 0.149670973476 0)
(0.0236240031686 0.0400868277188 0)
(0.00774262858343 0.0103828339439 0)
(0.0038239514805 0.00369274015468 0)
(0.00262827558175 0.00187239744638 0)
(0.00177919531616 0.000503490289665 0)
(0.00265810688609 0.000309664376563 0)
(-0.288026134468 0.022160604885 0)
(-0.306286398213 0.0747738932734 0)
(-0.303239962523 0.125192042068 2.94663082761e-27)
(-0.303462035405 0.178452069624 0)
(-0.296930509044 0.228127022616 0)
(-0.291961998486 0.281464919792 0)
(-0.278905118845 0.32675848686 0)
(-0.266060200687 0.370666585876 0)
(-0.251580578031 0.414411185459 0)
(-0.23307769514 0.455559383549 0)
(-0.217445941536 0.488227373847 0)
(-0.215137215595 0.540146778494 0)
(-0.196942801374 0.56811271305 0)
(-0.174110054664 0.595988937751 0)
(-0.1570953037 0.641476699284 0)
(-0.131350360099 0.66723068302 0)
(-0.106613301811 0.690625478801 0)
(-0.0769795299119 0.706006264148 0)
(-0.0428698706362 0.71593281673 0)
(-0.00720710551712 0.722632882043 0)
(0.0176504991493 0.706881519295 0)
(0.0215127863703 0.735770032411 0)
(-0.00051282378831 0.756457379515 0)
(-0.0135393228991 0.793497622158 0)
(0.0141583316739 0.787816762981 0)
(0.0534282485501 0.780696907188 0)
(0.0922321067076 0.765780276938 0)
(0.112211932866 0.730772659363 0)
(0.129624903308 0.756986437634 0)
(0.138258122064 0.72401360851 0)
(0.170288738381 0.690431490944 0)
(0.203575834035 0.646109327124 0)
(0.201387185879 0.586932079919 0)
(0.177100432029 0.605163734654 0)
(-0.0195174803036 0.621653817011 0)
(-0.492748636025 1.05349129206 0)
(-1.06588232043 1.73759726574 0)
(-1.3201795921 2.23757943048 0)
(-1.49173398187 2.79034317055 0)
(-1.51976323758 3.22575356588 0)
(-1.96971420076 4.6730006757 0)
(-1.95587867301 5.20965789684 0)
(-1.81638397543 5.66532193546 0)
(-1.58210825533 5.94399614082 0)
(-1.38261482771 6.17860067343 0)
(-1.22872076796 6.34865311979 0)
(-1.11812963732 6.45508502526 0)
(-1.02086681589 6.49755979884 0)
(-0.907633775251 6.49144351592 0)
(-0.773371311246 6.46596394736 0)
(-0.6339598559 6.43951537185 0)
(-0.499107227294 6.41104697424 0)
(-0.378505568148 6.38056700025 0)
(-0.273579439759 6.34426604674 0)
(-0.181871039308 6.29834530978 0)
(-0.10020792068 6.2404203532 0)
(-0.0255052561378 6.1696847219 0)
(0.0450269016321 6.08702893774 0)
(0.113206776584 5.994621207 0)
(0.179241898886 5.89458172188 0)
(0.24258758155 5.78798930999 0)
(0.303132698108 5.67517732788 0)
(0.361036089862 5.55598355736 0)
(0.416950105139 5.42927237971 0)
(0.472625698486 5.29409888595 0)
(0.530284659238 5.15189589303 0)
(0.590538556929 5.00542678342 0)
(0.652764502558 4.85797140763 0)
(0.715427614339 4.71306046931 0)
(0.775362146568 4.57435076047 0)
(0.826982663273 4.44538537841 0)
(0.861320888654 4.32719195645 0)
(0.868871806403 4.21280040898 0)
(0.844969768416 4.08220044263 0)
(0.806882709409 3.91779637914 0)
(0.780769171782 3.71815268605 0)
(0.772373029919 3.49624670249 0)
(0.779237972544 3.26265285391 0)
(0.797342402637 3.02476735342 0)
(0.822401646558 2.7884971277 0)
(0.848516598407 2.55849925987 0)
(0.86600335573 2.33755836157 0)
(0.852711876157 2.11972253716 0)
(0.804829552663 1.90351235519 0)
(0.741575314567 1.66535192238 0)
(0.68171537299 1.40291336352 0)
(0.609651001322 1.10939058362 0)
(0.523755855734 0.860260062111 0)
(0.410107497362 0.613048815706 0)
(0.216636640751 0.286405833395 0)
(0.120688135083 0.13991275485 0)
(0.0352412937467 0.0327308845191 0)
(0.0103446981265 0.00606054345333 0)
(0.00393749913823 0.00267337449922 0)
(0.00212566005419 0.000735355151425 0)
(0.00305840648491 0.000360528801385 0)
(-0.338140460139 0.0223426261167 0)
(-0.360478615531 0.0774122118779 0)
(-0.357950470057 0.13142822854 -2.94501512455e-27)
(-0.358452179407 0.185747064201 0)
(-0.350687708581 0.236750306498 0)
(-0.338444025073 0.28799073331 0)
(-0.323212947201 0.333842352178 0)
(-0.31423221636 0.385728408368 0)
(-0.297071081405 0.432599662519 0)
(-0.276331808671 0.474468094414 0)
(-0.266772496506 0.522180280369 0)
(-0.252700944182 0.562693214849 0)
(-0.232238952557 0.592634302024 0)
(-0.219467849915 0.643761045519 0)
(-0.191397285026 0.67246338712 0)
(-0.157398894302 0.700187740201 0)
(-0.124439285739 0.723050907691 0)
(-0.089934374786 0.73978982422 0)
(-0.0527941010283 0.753118228726 0)
(-0.0154409979666 0.752408300499 0)
(-0.00958760573089 0.759856442792 0)
(-0.0304100907124 0.784584502804 0)
(-0.038384318302 0.840835031719 0)
(-0.0200946614189 0.833233504494 0)
(0.0198183878167 0.83511170093 0)
(0.0618845561484 0.829562429548 0)
(0.0801267957563 0.805971967592 0)
(0.0849399135778 0.838218049013 0)
(0.108675955129 0.8096034919 0)
(0.159057890422 0.788713603194 0)
(0.208862465485 0.747394051422 0)
(0.184031595823 0.690081762439 0)
(0.131058877811 0.717783256429 0)
(-0.0718136135735 0.738140767477 0)
(-0.657100186351 1.24773190107 0)
(-1.45112923389 2.04113918403 0)
(-1.74953560862 2.60932517302 0)
(-1.92406774646 3.20032114357 0)
(-2.59651543735 4.7540440349 0)
(-2.62899548053 5.39555828697 0)
(-2.48866012029 5.89916891709 0)
(-2.20627055899 6.16487932831 0)
(-1.90884666706 6.35456365338 0)
(-1.61624456136 6.49394169285 0)
(-1.38124771741 6.60725500828 0)
(-1.19910831353 6.68589746919 0)
(-1.0546021579 6.72208983212 0)
(-0.925213149222 6.71620926299 0)
(-0.793323835627 6.67994804773 0)
(-0.656090172631 6.62967703909 0)
(-0.521272188309 6.57447148974 0)
(-0.394086306507 6.51538785774 0)
(-0.278019467006 6.45196214366 0)
(-0.173480347503 6.38236440038 0)
(-0.0791135530396 6.30471459937 0)
(0.00700581781238 6.21783682286 0)
(0.0868295755284 6.1215900614 0)
(0.162074130302 6.01694418231 0)
(0.23397588984 5.90542685596 0)
(0.303139108052 5.78819444837 0)
(0.369780550646 5.66564643997 0)
(0.434071914403 5.53778626952 0)
(0.496168754553 5.40447068786 0)
(0.556530061248 5.26541175954 0)
(0.616179868836 5.12083367954 0)
(0.675948849282 4.97250660108 0)
(0.735867246834 4.82259837805 0)
(0.795153685029 4.67346895431 0)
(0.852255703551 4.52736153673 0)
(0.904671852497 4.38611066527 0)
(0.948821482236 4.25059095518 0)
(0.980115820152 4.11914602024 0)
(0.994734685853 3.98541863999 0)
(0.993166460668 3.83858529459 0)
(0.984599092658 3.6702344985 0)
(0.980703853358 3.48093272593 0)
(0.985379645265 3.27750867616 0)
(0.998126854508 3.06662077043 0)
(1.01664594934 2.85369435306 0)
(1.03756481546 2.6431455948 0)
(1.05603144955 2.43820635824 0)
(1.06511340672 2.24012694753 0)
(1.05515082593 2.04554344785 0)
(1.02332461129 1.8470919873 0)
(0.977075051064 1.635950556 0)
(0.923368067666 1.4131693262 0)
(0.855075461586 1.1838101302 0)
(0.768877043635 0.961427825005 0)
(0.654059183069 0.738754263691 0)
(0.492066846225 0.497459503233 0)
(0.241297339909 0.217830030862 0)
(0.119725477025 0.0918712873688 0)
(0.0299151106901 0.0134100925969 0)
(0.00692797964871 0.00167838237621 0)
(0.00265274027761 0.00117575512702 0)
(0.00325595681275 0.000404407025208 0)
(-0.388834010354 0.0222157244356 0)
(-0.417697964237 0.0795985001933 0)
(-0.414971772642 0.137119372751 0)
(-0.408166919402 0.190579507957 0)
(-0.404956955086 0.245923618993 0)
(-0.39278815457 0.300714332098 0)
(-0.376504120888 0.350793855365 0)
(-0.36652211549 0.405256223533 0)
(-0.346040789164 0.453209112755 0)
(-0.325707442537 0.496926866585 0)
(-0.313831917465 0.547534200283 0)
(-0.297347163715 0.586798971937 0)
(-0.283317989024 0.63960107499 0)
(-0.256730984227 0.674816454469 0)
(-0.22154889479 0.707260144223 0)
(-0.184117263052 0.735858122133 0)
(-0.145749620133 0.759575569138 0)
(-0.10543336189 0.778041662083 0)
(-0.0605172792594 0.791288660444 0)
(-0.029669961509 0.775580826953 0)
(-0.0465386309001 0.813956581462 0)
(-0.080020006027 0.843960464274 0)
(-0.0687759908175 0.885714943695 0)
(-0.0237438282623 0.880954536359 0)
(0.0215482270347 0.88658141067 0)
(0.0432229556612 0.873830576515 0)
(0.0462890166373 0.923917978535 0)
(0.0718808539822 0.893470172632 0)
(0.117465653932 0.878373744733 0)
(0.18126298428 0.866259477633 0)
(0.209713516322 0.795903433546 0)
(0.111641663774 0.841627920977 0)
(-0.117765547283 0.862298278178 0)
(-0.783129131044 1.42486782218 0)
(-1.73089471188 2.30597358137 0)
(-2.14801397616 2.91444306535 0)
(-2.37611787516 3.51060256555 0)
(-3.20822826351 5.16185416637 0)
(-3.28047369771 5.92710742809 0)
(-2.99647345238 6.31035676252 0)
(-2.64231378859 6.52808376758 0)
(-2.26390235639 6.64361464117 0)
(-1.91159279309 6.7194682525 0)
(-1.60751266621 6.77622458571 0)
(-1.3602876338 6.81805247612 0)
(-1.16172084204 6.83619291636 0)
(-0.996135020116 6.82528433998 0)
(-0.847037517364 6.78680365074 0)
(-0.703375639661 6.72853492205 0)
(-0.562916307424 6.65933948216 0)
(-0.428766995007 6.58389035083 0)
(-0.303176656076 6.50319969477 0)
(-0.18722937533 6.41722848135 0)
(-0.0807705759982 6.32533139062 0)
(0.017120132989 6.22673857629 0)
(0.107688315155 6.12095776376 0)
(0.192223058682 6.00808950378 0)
(0.27191931733 5.88896185749 0)
(0.347801703547 5.76467292991 0)
(0.420648289009 5.63588102702 0)
(0.490964450324 5.50266247138 0)
(0.559029792177 5.36492794039 0)
(0.624940015372 5.22270016648 0)
(0.688877357064 5.07626434193 0)