/*--------------------------------*- C++ -*----------------------------------*\
| =========                 |                                                 |
| \\      /  F ield         | OpenFOAM: The Open Source CFD Toolbox           |
|  \\    /   O peration     | Version:  v1906                                 |
|   \\  /    A nd           | Web:      www.OpenFOAM.com                      |
|    \\/     M anipulation  |                                                 |
\*---------------------------------------------------------------------------*/
FoamFile
{
    version     2.0;
    format      ascii;
    class       volScalarField;
    location    "102";
    object      pa;
}
// * * * * * * * * * * * * * * * * * * * * * * * * * * * * * * * * * * * * * //

dimensions      [0 2 -2 0 0 0 0];


internalField   nonuniform List<scalar> 
9216
(
974.818432792
974.538942696
973.912008697
972.979704533
971.736833105
970.183004979
968.321968058
966.154826692
963.687139895
960.920734142
957.862616833
954.515213603
950.886872554
946.980574259
942.80598872
938.366637334
933.673467852
928.730643378
923.55046535
918.137854599
912.506423491
906.661972997
900.619574794
894.385935591
887.977556203
881.402290282
874.678174334
867.814336723
860.830260147
853.73642403
846.553806766
839.294273495
831.980144137
824.624314304
817.250273944
809.872205489
802.514281747
795.191422584
787.92803445
780.739201745
773.648922117
766.671887503
759.830967911
753.139697432
746.61881149
740.27992167
734.141039237
728.211117287
722.504584456
717.027151394
711.789167927
706.792682924
702.043744594
697.54071066
693.285424434
689.272770409
685.500795061
681.961478398
678.649786413
675.555550598
672.671450119
669.98591928
667.49022989
665.172281417
663.022778899
661.029820348
659.184159244
657.474445845
655.891886896
654.426182004
653.069351021
651.812225615
650.647763679
649.567959383
648.566732655
647.63732145
646.774601963
645.97278336
645.227606027
644.534389901
643.889304216
643.292205623
642.752391042
642.277221728
641.866838234
641.51288699
641.207600714
640.952449984
640.75118758
640.599597004
640.49101036
640.415368733
640.363284485
640.330761182
640.314002903
640.308073096
975.102332114
974.822502092
974.211054454
973.281398597
972.037624721
970.48187735
968.617516313
966.446990924
963.974702013
961.203897501
958.140103832
954.787377774
951.152338222
947.239845083
943.057578112
938.611148385
933.909296285
928.958494393
923.768617019
918.347070638
912.704859699
906.850392586
900.796009325
894.55123437
888.129682182
881.542099256
874.803530686
867.926088727
860.926242439
853.817530356
846.617930462
839.342325475
832.009994186
824.637095635
817.244091152
809.848256638
802.470889213
795.129987457
787.847186611
780.640602124
773.531606888
766.537799818
759.679518086
752.973135825
746.437084928
740.085577692
733.934393702
727.994928476
722.279526311
716.796099225
711.553036434
706.5543237
701.804145128
697.302550182
693.049638149
689.041697428
685.275132481
681.743125654
678.43916448
675.354110352
672.479273912
669.803967112
667.318277821
665.010869326
662.871415498
660.888721161
659.052694516
657.352610118
655.778930462
654.321890857
652.972943684
651.723447512
650.565876957
649.492680552
648.497353843
647.573556836
646.715829751
645.918731756
645.177743704
644.488837612
643.849161785
643.258241585
642.722792834
642.250156115
641.840537631
641.488972914
641.188543812
640.938909365
640.738197736
640.585986075
640.479694915
640.405842905
640.353842684
640.322852786
640.307810958
640.301549814
975.740666777
975.442834009
974.829232936
973.897191918
972.64979667
971.08940117
969.219028026
967.041671833
964.56127274
961.781691394
958.707858584
955.344524427
951.697580811
947.772644001
943.576600239
939.115911686
934.398358331
929.431359384
924.223753691
918.783920022
913.121782999
907.246796459
901.170083377
894.90230544
888.455862509
881.842657151
875.076508356
868.170732382
861.140559547
854.000746545
846.76805322
839.458691081
832.090801915
824.681947016
817.251451438
809.818022471
802.401978301
795.022760764
787.701115246
780.456658526
773.309971713
766.280164249
759.386894224
752.647948175
746.08113334
739.702066908
733.525884955
727.565218434
721.83175741
716.334509855
711.081139991
706.076430901
701.323800495
696.823870653
692.575854666
688.576417267
684.821035626
681.30306534
678.015038884
674.947887215
672.092078285
669.436938017
666.971762771
664.685253278
662.566441861
660.6041881
658.787872149
657.106882962
655.55130853
654.11156342
652.778842187
651.544591694
650.401135599
649.341069233
648.35773166
647.445059843
646.597384443
645.809388152
645.07651264
644.394721131
643.760812917
643.176258099
642.651272081
642.188479261
641.785312093
641.439525288
641.151823988
640.91224779
640.712490244
640.561349119
640.459156993
640.386245669
640.33663592
640.307731938
640.29197974
640.283888235
976.69176993
976.388071158
975.77066941
974.833936071
973.580428758
972.01244635
970.132855081
967.944843245
965.452214638
962.659068573
959.570143567
956.190442646
952.52562437
948.581580538
944.364877173
939.882249346
935.141166309
930.149304595
924.915113287
919.447253512
913.755218337
907.848770042
901.738577522
895.43559148
888.951788171
882.299403694
875.491782512
868.542601026
861.466699205
854.279299062
846.996725255
839.635722207
832.214142772
824.750149638
817.262903705
809.771788294
802.297095333
794.859056597
787.478444416
780.175757028
772.971800858
765.886673576
758.940211159
752.151164358
745.537580278
739.11602734
732.901856593
726.908486397
721.147728889
715.629096851
710.360245982
705.346301037
700.590318043
696.092980184
691.852942321
687.866662591
684.12890072
680.63260055
677.3694445
674.329865427
671.503558857
668.879372184
666.445886807
664.191394271
662.104331691
660.173274136
658.387183578
656.735294685
655.207413816
653.793912756
652.485802271
651.274603865
650.152566515
649.112342447
648.147338796
647.251513417
646.419123487
645.644882595
644.92403912
644.251889089
643.624318272
643.052724979
642.54586466
642.096683989
641.704077632
641.370520553
641.094723179
640.862618791
640.673696474
640.529495432
640.425457933
640.354337892
640.307588634
640.27892645
640.262627257
640.254477281
977.965395698
977.657860707
977.035664384
976.092394147
974.830428142
973.252005781
971.359937271
969.157486188
966.648439471
963.836996111
960.7278676
957.326149595
953.637456432
949.667746217
945.423465161
940.911425177
936.138955929
931.11377143
925.844129791
920.338724575
914.606848551
908.658245336
902.503385395
896.153249516
889.619582743
882.914641456
876.051560017
869.044144916
861.90703862
854.655617026
847.306158573
839.875627427
832.381941851
824.843639792
817.28002177
809.711011871
802.157195619
794.639458426
787.17917556
779.797698959
772.516297706
765.355944266
758.337251957
751.479937152
744.802865568
738.323498698
732.057770391
726.019896594
720.222167451
714.674600175
709.384998936
704.358637228
699.598508773
695.105081105
690.87643311
686.908513192
683.195296354
679.728936329
676.500162157
673.498529391
670.712774543
668.130937704
665.740780255
663.52987396
661.485993839
659.597234754
657.852079447
656.239441447
654.748887634
653.370674266
652.095668384
650.915353912
649.821959573
648.808310582
647.8678883
646.99461586
646.182725544
645.427074738
644.723023272
644.065913948
643.452531348
642.896868036
642.405245517
641.97189401
641.596061095
641.279136602
641.017140748
640.797299824
640.614909115
640.47629782
640.377389097
640.30847302
640.262432099
640.234148397
640.217786249
640.209481429
979.56484211
979.253818511
978.62595774
977.674494487
976.401804471
974.810128148
972.902283296
970.681592227
968.151872256
965.317395676
962.182897532
958.753540748
955.034921951
951.033025764
946.754254485
942.205405637
937.393716232
932.326860951
927.012977091
921.460641546
915.678988861
909.677703821
903.467077278
897.057973537
890.461954591
883.691198804
876.758688617
869.678200738
862.464340506
855.132495963
847.699005323
840.18101211
832.596518594
824.964401975
817.304322606
809.636723672
801.98284725
794.364202733
786.802816517
779.320974162
771.940893401
764.684640121
757.573911353
750.629575822
743.871470911
737.318163804
730.986578543
724.891890854
719.047092148
713.462734486
708.146984697
703.105263155
698.340452937
693.852671763
689.639364363
685.695783742
682.014852313
678.587666053
675.403705976
672.451275375
669.718042549
667.190863287
664.856401543
662.701276649
660.712503335
658.877518443
657.18428513
655.621326682
654.177895697
652.844094514
651.610639126
650.469052007
649.411605202
648.43123228
647.521467576
646.676217462
645.889916298
645.157725237
644.474981901
643.836970073
643.240998955
642.704679104
642.235900536
641.824559201
641.467244546
641.167511502
640.914492668
640.701671287
640.531717783
640.407125929
640.312166401
640.244627374
640.200629367
640.170084866
640.152816961
640.143926735
981.493374111
981.178583581
980.544096008
979.582780784
978.297101314
976.689341015
974.762376373
972.519601648
969.964899617
967.10261626
963.937545106
960.474904861
956.720310242
952.679738865
948.359583443
943.766605357
938.907950676
933.791190144
928.424330564
922.815822269
916.974618948
910.910267215
904.632892028
898.153145753
891.482366159
884.63261076
877.616745155
870.448438698
863.142258179
855.713605083
848.178781668
840.555091451
832.86076451
825.115038655
817.338001346
809.550703466
801.775020731
794.033249624
786.348365793
778.743715351
771.242827476
763.869071501
756.645352751
749.59393859
742.736177856
736.091958725
729.679425729
723.514868912
717.612220523
711.982894446
706.635481186
701.575553454
696.805862345
692.326061747
688.132922734
684.22063798
680.580843819
677.203168514
674.075716679
671.185373772
668.517879057
666.058530445
663.792879945
661.706332589
659.785191531
658.016013368
656.386073359
654.883405332
653.497115343
652.216975886
651.033580829
649.938563023
648.924223869
647.983595304
647.110364084
646.298623543
645.543110537
644.839068343
644.181764895
643.566100577
642.995016923
642.483959388
642.039352609
641.651182433
641.313799487
641.028334334
640.787146832
640.588092299
640.432564402
640.31425075
640.22317681
640.157667706
640.11520433
640.084062775
640.066171952
640.057171231
983.7545433
983.435484116
982.793291632
981.820414118
980.519429831
978.892704164
976.9432038
974.674431981
972.09036737
969.195446482
965.994554412
962.492966452
958.696326951
954.610635546
950.242254098
945.597883236
940.684590528
935.509819795
930.081416892
924.407650702
918.497306506
912.359703451
906.004733137
899.442799005
892.685001463
885.743236083
878.630185354
871.35941488
863.945358407
856.403343315
848.749743658
841.001970408
833.178530085
825.298946754
817.383884871
809.455047964
801.534905727
793.646807114
785.814992071
778.064087659
770.418953759
762.904553231
755.5454824
748.365776542
741.388425561
734.634923111
728.125092405
721.876679704
715.90486066
710.221899547
704.837062109
699.756232429
694.981916662
690.513218926
686.346015392
682.473184955
678.884732278
675.569054623
672.511938542
669.697590282
667.109902776
664.732697813
662.549961925
660.545968391
658.705784023
657.01503321
655.460238638
654.02903741
652.710052293
651.492821703
650.368064866
649.327344845
648.363099678
647.468560205
646.637653068
645.864811509
645.145021578
644.473728938
643.84648786
643.259179624
642.715817017
642.234400171
641.817637077
641.451181919
641.134743328
640.865131128
640.638793142
640.454440639
640.309729652
640.195390997
640.110804113
640.046895558
640.003156782
639.975536909
639.956476093
639.947636615
986.352394395
986.028435039
985.377388818
984.391149828
983.07245855
981.423795002
979.44825455
977.149473895
974.531573781
971.599110714
968.357078425
964.810836817
960.966091041
956.82884834
952.405443583
947.702521957
942.727045405
937.486308411
931.987967113
926.240074815
920.251195861
914.030377905
907.587165835
900.931711305
894.0748533
887.0282344
879.804343812
872.416522759
864.879018751
857.207114775
849.417165083
841.526742717
833.55449217
825.52037175
817.445605481
809.352404199
801.264195216
793.205621941
785.202161819
777.279897507
769.465467241
761.785787156
754.267442994
746.936398043
739.817700156
732.93509247
726.310331136
719.962827407
713.909390966
708.163582627
702.735416976
697.631082335
692.852949251
688.399354151
684.265054869
680.441630289
676.917552153
673.678181425
670.706019901
667.983198193
665.491382811
663.212289091
661.128117764
659.221717333
657.476880769
655.877992482
654.410850343
653.062449506
651.821090372
650.676225305
649.618488534
648.639621604
647.732310221
646.889952648
646.106925087
645.377995897
644.69852016
644.06418291
643.470788685
642.914915874
642.40401783
641.957455485
641.567487629
641.226107065
640.931711302
640.678838801
640.467829767
640.297090199
640.161394835
640.055363801
639.973510819
639.912821249
639.869028901
639.843905201
639.823329652
639.814844755
989.29154583
988.962002547
988.300835077
987.299343406
985.960420308
984.286717987
982.281495119
979.948572302
977.292242694
974.317234264
971.028668462
967.432026511
963.533074179
959.337867767
954.852710946
950.084183428
945.039123272
939.724648504
934.148182627
928.317548106
922.241002979
915.927255912
909.385453816
902.625422391
895.657703106
888.493645687
881.145416929
873.626061932
865.949664791
858.13133203
850.187395563
842.135492086
833.9944636
825.784597007
817.527540151
809.246288158
800.965441672
792.710827307
784.509377299
776.38903516
768.378537735
760.506934741
752.803117593
745.295589081
738.011987694
730.978457923
724.219190695
717.75587543
711.607292444
705.78856209
700.310724913
695.180505014
690.400007132
685.966611284
681.87436086
678.112959373
674.667586516
671.520380442
668.650798669
666.037814757
663.660035521
661.496838611
659.528515035
657.736203741
656.101981368
654.609209945
653.242667614
651.988834209
650.835624441
649.772471931
648.790098619
647.880401309
647.036420846
646.252109611
645.522184133
644.841824488
644.206882046
643.613465824
643.057874753
642.537422579
642.065917441
641.654063052
641.29136312
640.976068376
640.701638297
640.466056672
640.272614332
640.117354582
639.992879892
639.893683943
639.813203639
639.752723351
639.712236995
639.686933747
639.666702542
639.657860149
992.577239583
992.241330448
991.568717453
990.549934769
989.188118283
987.486107924
985.447393306
983.07601915
980.376507669
977.353802554
974.013207467
970.360346609
966.401082237
962.141511329
957.587941583
952.746873479
947.625004814
942.229245187
936.566744068
930.645055928
924.472034589
918.055922487
911.405513517
904.530205549
897.440175474
890.146353502
882.660503856
874.995369488
867.164773657
859.183613882
851.067999269
842.835607701
834.505396558
826.097870567
817.635249492
809.141416455
800.641999261
792.164141361
783.736696318
775.389667833
767.153990264
759.061298708
751.143501042
743.432006836
735.95728677
728.748633088
721.833134153
715.235295854
708.976341386
703.07351396
697.539311562
692.381086986
687.60045063
683.194557966
679.155563985
675.469858564
672.120182858
669.084968318
666.339085188
663.857196626
661.614251177
659.586957364
657.753266239
656.092696404
654.585750187
653.214255396
651.961898721
650.814661166
649.76025008
648.788097238
647.888957774
647.055469461
646.281063011
645.560073515
644.887836015
644.260171662
643.673526269
643.124749489
642.610710282
642.131214758
641.701136385
641.322695195
640.989678786
640.699757614
640.445892559
640.231836129
640.057395881
639.915030089
639.798430696
639.704605846
639.629338995
639.570690873
639.529549416
639.503773404
639.485659863
639.476044542
996.215394799
995.872310546
995.186762997
994.148510188
992.7609298
991.027136299
988.950893207
986.536547449
983.788902943
980.713174912
977.314903614
973.599900071
969.574163379
965.24385472
960.61528621
955.694884283
950.489186485
945.004859488
939.248757925
933.228015181
926.950080062
920.422645427
913.654001834
906.65313912
899.429705151
891.994121871
884.357736781
876.532911515
868.533042601
860.372634003
852.067736785
843.635741685
835.09558613
826.468061189
817.775871876
809.043725244
800.298291923
791.568469609
782.884959613
774.280045561
765.787462003
757.441980939
749.278751841
741.332551612
733.637630058
726.226723304
719.130512726
712.376926673
705.99040809
699.990940427
694.39307884
689.204859049
684.428154067
680.059053812
676.085415906
672.491601656
669.259058576
666.360243969
663.763720128
661.43783588
659.353285235
657.483682338
655.805206851
654.295806816
652.934233701
651.700028976
650.576184525
649.547912598
648.602886836
647.730489402
646.922493921
646.171754933
645.472335287
644.819441815
644.209028305
643.637617852
643.102490628
642.601274268
642.131964162
641.697148782
641.307320614
640.962248298
640.661119664
640.398159337
640.168637506
639.977661363
639.818744725
639.686339881
639.577194564
639.489861076
639.4194669
639.365711777
639.324405456
639.296496285
639.281535558
639.272139866
1000.21269199
999.861469681
999.161408211
998.101279592
996.684835205
994.915499916
992.797415638
990.335294403
987.534312699
984.400015227
980.938242639
977.155043409
973.056600071
968.64917222
963.939096049
958.932722075
953.636410894
948.056543014
942.19966478
936.072353172
929.681488556
923.03424539
916.13829976
909.002036218
901.634551597
894.04568976
886.246313152
878.248231312
870.064294427
861.708646486
853.19687113
844.546071937
835.77503609
826.904675617
817.958088541
808.960644018
799.940406693
790.927835009
781.955677317
773.059121388
764.275035084
755.641570198
747.197882838
738.982958035
731.03505574
723.391239987
716.086397741
709.15269745
702.618667681
696.508106816
690.838383307
685.618963938
680.852347491
676.530542882
672.636118165
669.153725822
666.065240172
663.333907655
660.917884595
658.777250522
656.877496569
655.189664224
653.688646546
652.351651099
651.155229244
650.075767254
649.095120473
648.198287889
647.372696923
646.608952518
645.899196009
645.23699416
644.617577954
644.036820156
643.49147175
642.979017632
642.497676616
642.046116233
641.62369452
641.232685427
640.883038211
640.577079132
640.310231635
640.07378196
639.869707093
639.697284745
639.552389977
639.431871648
639.333359483
639.253193184
639.187405962
639.136640069
639.098377367
639.068791388
639.057080002
639.047823102
1004.57660555
1004.21624315
1003.49982076
1002.41515981
1000.96641164
999.157438204
996.992831183
994.477785963
991.617932068
988.419238017
984.887898434
981.030280184
976.852794414
972.361850451
967.56383008
962.465024164
957.071604856
951.389628584
945.425183324
939.184312891
932.673134282
925.89817149
918.866423791
911.58553424
904.063891955
896.310798886
888.33645223
880.151999812
871.769743432
863.203193046
854.467317696
845.578617959
836.555650995
827.419216462
818.192521175
808.901804744
799.576199869
790.247805082
780.952006905
771.726896105
762.612867089
753.652507914
744.889368079
736.367287612
728.129535309
720.21790281
712.672329212
705.530057748
698.824934683
692.585937088
686.834827229
681.585185866
676.835777973
672.574749689
668.775656628
665.425579934
662.5161926
659.992973679
657.796852117
655.876182301
654.190545256
652.709401613
651.409102557
650.267874107
649.258985727
648.353015088
647.530770311
646.777457584
646.081300302
645.434009238
644.828563863
644.260098994
643.724538854
643.218923913
642.74112818
642.289651376
641.863614356
641.462523361
641.08684342
640.741668876
640.436999756
640.169716555
639.935045935
639.725595016
639.543702848
639.389765697
639.260322164
639.154673627
639.067836544
638.99476425
638.934559835
638.887457862
638.850773753
638.823455631
638.812334233
638.803528328
1009.31547892
1008.94472605
1008.20998601
1007.09777358
1005.6128837
1003.75971697
1001.54345973
998.969889115
996.045231404
992.775941638
989.168685497
985.230192615
980.967188767
976.386281729
971.49394399
966.296441678
960.799728898
955.009523976
948.931319727
942.570510306
935.932368163
929.022523262
921.847124154
914.412993471
906.727804931
898.800124499
890.639417041
882.256203741
873.662031029
864.869485723
855.892671993
846.747381157
837.451498172
828.025425139
818.492445916
808.879191342
799.215765924
789.536327794
779.878734317
770.284345016
760.798092988
751.467288265
742.340903354
733.468437473
724.898874008
716.679669663
708.856118319
701.471575171
694.566558594
688.177483814
682.336005332
677.05681884
672.333190372
668.1556746
664.467188744
661.26479566
658.58369412
656.325472836
654.400447621
652.74043448
651.299707908
650.050030092
648.973354582
648.053277345
647.259524187
646.547362792
645.898171184
645.300113403
644.741816162
644.217306839
643.721724136
643.250715501
642.801803396
642.373479017
641.964877694
641.575678498
641.205512012
640.855593874
640.528610103
640.231669023
639.969134716
639.738477378
639.534661144
639.350572016
639.191464778
639.058119081
638.947437825
638.857690485
638.780135332
638.713242923
638.660178685
638.618062292
638.585471466
638.561019682
638.546806784
638.540072489
1014.43870387
1014.05623371
1013.30072597
1012.15755511
1010.63213545
1008.72965128
1006.45603239
1003.81779604
1000.8218784
997.475364331
993.785462612
989.759351432
985.40415129
980.726751581
975.73378526
970.431498609
964.825686824
958.921651297
952.724214482
946.237875514
939.466927188
932.415923347
925.089915089
917.49473219
909.637234915
901.525283626
893.167620465
884.57404809
875.755068835
866.722264033
857.488555444
848.068593426
838.479221316
828.740053009
818.8739964
808.907709103
798.872429924
788.803994682
778.742883858
768.734596943
758.82881713
749.078694767
739.539634744
730.267888469
721.319045707
712.746567804
704.60193281
696.934744853
689.793735747
683.228289315
677.282837831
671.974796222
667.291176955
663.24115489
659.669980283
656.602268726
654.229599641
652.322470104
650.736301359
649.383651929
648.217517906
647.218733749
646.38411127
645.715101906
645.175892539
644.678958835
644.216094436
643.783538643
643.368916736
642.972781804
642.59110665
642.219592231
641.858820027
641.508653538
641.169825999
640.842969599
640.529172816
640.230969264
639.954274156
639.704726253
639.483239646
639.288419425
639.109615396
638.951362806
638.8173031
638.704832684
638.615295421
638.5373868
638.467280316
638.410756268
638.367026046
638.330754851
638.302375618
638.280338261
638.264934969
638.260062366
1019.95682835
1019.5609074
1018.78193677
1017.60371985
1016.03274264
1014.07507062
1011.73766689
1009.02794952
1005.95370216
1002.52277951
998.743039893
994.622203657
990.167853128
985.387268412
980.28735625
974.874419109
969.154109722
963.131289823
956.810000256
950.193584723
943.285108732
936.087658818
928.604997161
920.841811228
912.804073679
904.498944294
895.934554672
887.119808967
878.064286496
868.778109376
859.272677753
849.560986475
839.658329492
829.582961478
819.356743389
809.006245945
798.563122312
788.064836166
777.554973596
767.083091575
756.704755636
746.480046272
736.472239541
726.7457107
717.363758136
708.386682316
699.871062834
691.872424294
684.449043963
677.668399903
671.598194642
666.268343932
661.635488187
657.827276911
654.357494493
651.310952789
649.418886989
648.00344701
646.845518385
645.848038754
644.9786112
644.236042425
643.64912254
643.264379532
643.043419393
642.777935012
642.506866952
642.247564413
641.979853434
641.715743164
641.450500834
641.178540852
640.90584608
640.633255484
640.363563657
640.098567086
639.841579367
639.596650123
639.370952915
639.16623493
638.982454052
638.81589816
638.663880144
638.533855191
638.424628103
638.335023616
638.262541662
638.194874857
638.138954773
638.095186355
638.059384927
638.028917183
638.003438019
637.985094936
637.970412109
637.966621576
1025.88183538
1025.4705097
1024.66459618
1023.44653065
1021.82399451
1019.80434534
1017.39580433
1014.60696171
1011.44659387
1007.92343888
1004.04609662
999.822949469
995.262129582
990.371444016
985.158174741
979.628881733
973.789127975
967.643325826
961.194609404
954.444903128
947.395550755
940.047760216
932.403549313
924.466284299
916.241060598
907.734551559
898.954430273
889.908988506
880.606450012
871.055345604
861.264968108
851.246061861
841.011639941
830.577753855
819.964799096
809.198202054
798.309608488
787.337787505
776.329286971
765.33863371
754.427789599
743.665512365
733.124835967
722.880448307
713.005092331
703.565939983
694.623274587
686.234214152
678.466822202
671.407781231
665.183548947
659.855095984
655.239926334
651.996577448
648.466597579
644.381495922
643.560051839
642.978732384
642.403581477
641.828560977
641.272587602
640.768243498
640.405894773
640.410293641
640.785661158
640.835363412
640.786943075
640.712595285
640.591624304
640.462045021
640.316154964
640.140322522
639.953842866
639.756754414
639.554776657
639.349793874
639.14728818
638.952576367
638.776028359
638.612376744
638.46257223
638.325240342
638.205235179
638.103529503
638.019269645
637.951952817
637.894797625
637.841707366
637.801526368
637.76735964
637.737826442
637.713164036
637.692528265
637.677212136
637.664761697
637.661996546
1032.22738943
1031.79797726
1030.96104779
1029.69718597
1028.01595222
1025.92631097
1023.43813546
1020.5614974
1017.306357
1013.68241544
1009.69907797
1005.36544456
1000.6903201
995.682210031
990.349013125
984.697745975
978.734090761
972.462043385
965.883677692
958.999172837
951.807434338
944.307116392
936.497781115
928.38127416
919.961904405
911.24633428
902.24234787
892.957683958
883.399452791
873.573919189
863.48765204
853.148285567
842.565574425
831.752722275
820.727297327
809.512693363
798.139632493
786.647606873
775.085930858
763.514334671
752.002836791
740.630308788
729.482615892
718.648109777
708.211938208
698.249702862
688.820339982
679.97494244
671.778395354
664.327375461
657.897031958
652.566020758
647.004340277
645.821935858
642.393347031
642.208837229
642.455755161
642.343166831
642.058599678
641.701946036
641.324912865
640.980720965
640.78191236
640.907555056
640.82895787
639.757021726
639.052080111
639.16958778
639.15973592
639.213585924
639.206637487
639.119046184
639.017651042
638.891363338
638.752489758
638.603543085
638.452581925
638.308141101
638.175205794
638.048762315
637.932621564
637.828367056
637.738359189
637.663027826
637.602781523
637.556480232
637.51246088
637.47533368
637.447301122
637.422832089
637.401795164
637.384325111
637.370888062
637.358227509
637.349750935
637.3470723
1039.00930353
1038.55862522
1037.68514377
1036.36810548
1034.61935763
1032.45017638
1029.87248353
1026.89817772
1023.53861929
1019.80452508
1015.70608271
1011.25310912
1006.45518955
1001.32169011
995.861537003
990.082585904
983.991019399
977.59059319
970.882134459
963.863623293
956.530580852
948.877845293
940.901545434
932.601313573
923.981259833
915.048989821
905.81343519
896.282573966
886.461987712
876.355274557
865.965229758
855.295194693
844.350911276
833.141185486
821.679542157
809.985856997
798.088558591
786.02681605
773.852190241
761.629801553
749.438768473
737.371101494
725.528922609
714.019797997
702.948111362
692.401925784
682.432191073
673.067721312
664.320138518
656.18311106
648.885995004
644.407868872
644.077800786
644.2324918
643.621201399
643.184829662
643.050477224
642.810781383
642.495288883
642.126497071
641.727135357
641.334484158
641.010297625
640.792104997
640.397666155
639.932326391
639.830454099
639.625816068
638.700167554
638.133300476
638.155841099
638.100090827
638.10703329
638.049853975
637.97643288
637.881252241
637.778813023
637.678008382
637.578270305
637.486423558
637.401641185
637.32744447
637.264581258
637.212997618
637.173522792
637.143778432
637.113869423
637.092876218
637.076568042
637.062981651
637.05207388
637.04338109
637.036897392
637.029093972
637.024168914
637.021408105
1046.24621768
1045.76970668
1044.85272231
1043.47294066
1041.64576581
1039.38542864
1036.70661969
1033.62342076
1030.1487546
1026.29432053
1022.07092008
1017.48895904
1012.55885638
1007.29114557
1001.6961834
995.783401005
989.560105255
983.030381582
976.193799561
969.045253125
961.575667251
953.773935954
945.630832663
937.14297462
928.314875778
919.157306673
909.6825263
899.89967478
889.812924595
879.42192997
868.724235877
857.717809094
846.402765432
834.782326937
822.864104853
810.662510506
798.201391899
785.518101208
772.665225806
759.713081762
746.750884463
733.886453927
721.243581507
708.957969521
697.165090559
685.980876872
675.45040376
665.537050111
656.085229391
646.279776848
645.415620697
645.047530195
644.836309716
644.770636566
644.430675695
644.071260021
643.76318423
643.428207376
643.062442859
642.660118149
642.233398619
641.808533511
641.417417608
641.067303594
640.646795547
640.182903488
639.81581591
639.350705371
638.942074956
638.819742148
638.468885355
637.513094189
637.320746781
637.220628771
637.249800361
637.191709289
637.127839862
637.060122102
636.990905961
636.926372695
636.869869756
636.824415908
636.786107594
636.755356716
636.73325995
636.717493104
636.704798675
636.699432888
636.693092739
636.691103767
636.691169766
636.691090766
636.691263147
636.690201785
636.687515883
636.685483396
1053.96061481
1053.45236365
1052.48187445
1051.02692023
1049.10744316
1046.74173833
1043.9480487
1040.74319906
1037.1417675
1033.15613842
1028.79729791
1024.07587439
1019.00300853
1013.5907779
1007.8517425
1001.79794817
995.439038075
988.780276333
981.820469555
974.550677946
966.954784188
959.012585872
950.705776142
942.025901129
932.97972541
923.585452016
913.862538776
903.823459194
893.470456151
882.797221369
871.793587916
860.450393249
848.76111512
836.721864516
824.332109004
811.597674607
798.535314175
785.1773793
771.57575236
757.804473912
743.963706273
730.179032581
716.602211565
703.408048366
690.784685786
678.93229665
667.874958361
657.47567054
646.961483529
645.564591576
645.808265214
645.849629316
645.73899803
645.567518501
645.248047643
644.898370756
644.529371765
644.132482053
643.710390397
643.263043605
642.801999279
642.342578328
641.900567992
641.478169674
641.027874771
640.544775551
640.087300002
639.599196905
639.127718216
638.732419962
638.28518131
638.064744305
637.787197303
636.968070543
636.655860665
636.506715559
636.496676917
636.456122366
636.416663143
636.376432664
636.345473145
636.321727645