/*--------------------------------*- C++ -*----------------------------------*\
| =========                 |                                                 |
| \\      /  F ield         | OpenFOAM: The Open Source CFD Toolbox           |
|  \\    /   O peration     | Version:  v1906                                 |
|   \\  /    A nd           | Web:      www.OpenFOAM.com                      |
|    \\/     M anipulation  |                                                 |
\*---------------------------------------------------------------------------*/
FoamFile
{
    version     2.0;
    format      ascii;
    class       volVectorField;
    location    "102";
    object      Ua;
}
// * * * * * * * * * * * * * * * * * * * * * * * * * * * * * * * * * * * * * //

dimensions      [0 1 -1 0 0 0 0];


internalField   nonuniform List<vector> 
9216
(
(-0.0955941968741 0.0959803865456 0)
(-0.0969368533428 0.29859667683 4.53140583281e-26)
(-0.0922413996913 0.503628288312 -6.02642224498e-30)
(-0.0849248042056 0.707440210843 0)
(-0.0752694049023 0.90810589094 0)
(-0.0634587576541 1.10482497205 0)
(-0.0496969553269 1.29679253581 0)
(-0.0342049287582 1.48328503498 0)
(-0.0172189292686 1.66365577822 0)
(0.00101417902874 1.83733789175 0)
(0.0202424528811 2.00384587635 0)
(0.0402142278121 2.16277572282 0)
(0.0606831267587 2.31380344003 0)
(0.0814123207393 2.45668210021 0)
(0.102178174657 2.59123770119 0)
(0.122773011081 2.71736407477 0)
(0.143007252167 2.8350171663 0)
(0.162710727536 2.94420889751 0)
(0.181733481631 3.04500088108 0)
(0.199945885861 3.13749813783 0)
(0.217238426367 3.22184300659 0)
(0.233520964316 3.29820932965 0)
(0.248721850655 3.36679702965 0)
(0.262786669495 3.42782710419 0)
(0.275676988287 3.48153709606 0)
(0.28736886008 3.5281770263 0)
(0.29785144546 3.56800580961 0)
(0.307125469786 3.60128812122 0)
(0.315201866848 3.62829172054 0)
(0.322100286073 3.64928521357 0)
(0.327847768156 3.66453630921 0)
(0.332477100251 3.67431078561 0)
(0.336024227542 3.67887237842 0)
(0.338519485562 3.67848096203 0)
(0.339953296997 3.67339451382 0)
(0.340446547476 3.66382050458 0)
(0.340058445737 3.65000082012 0)
(0.338841754584 3.63216188192 0)
(0.336849414458 3.61052227061 0)
(0.334134323898 3.58529221348 0)
(0.330749037161 3.55667372122 0)
(0.326745357004 3.52486062442 0)
(0.322174140624 3.49003866038 0)
(0.317084988369 3.45238559502 0)
(0.311526137707 3.41207137414 0)
(0.305544233413 3.36925830361 0)
(0.299184292058 3.32410124517 0)
(0.292489536348 3.27674783109 0)
(0.285501413146 3.22733868323 0)
(0.278259476772 3.17600764368 0)
(0.2708014463 3.12288200157 0)
(0.263163125607 3.06808272671 0)
(0.255378488623 3.01172469401 0)
(0.247479626505 2.95391691207 0)
(0.239496851912 2.89476273859 0)
(0.231458665944 2.83436009903 0)
(0.223391874628 2.77280168969 0)
(0.215321570008 2.71017518384 0)
(0.207271253567 2.64656342088 0)
(0.199262827327 2.58204459899 0)
(0.191316720285 2.51669245023 0)
(0.183451886422 2.45057641995 0)
(0.175685931143 2.38376182834 0)
(0.168035113984 2.31631003744 0)
(0.160514472866 2.24827860036 0)
(0.153137829859 2.17972141714 0)
(0.145917911575 2.11068887306 0)
(0.138866356869 2.04122798471 0)
(0.131993832148 1.97138252892 0)
(0.125310040203 1.90119318067 0)
(0.118823829491 1.83069763411 0)
(0.112543203566 1.75993073359 0)
(0.106475423659 1.68892458836 0)
(0.100627018335 1.61770869814 0)
(0.0950038788248 1.54631006268 0)
(0.0896112686845 1.47475330309 0)
(0.0844539115022 1.40306076748 0)
(0.0795360003883 1.33125264917 0)
(0.0748612777425 1.2593470894 0)
(0.0704330444703 1.18736029329 0)
(0.0662542315795 1.11530663073 0)
(0.0623274089806 1.04319875095 0)
(0.0586548486428 0.971047682659 0)
(0.0552385326992 0.898862948583 0)
(0.05208020754 0.826652666789 0)
(0.0491813900717 0.754423668571 0)
(0.0465434099796 0.682181607559 0)
(0.0441674076606 0.609931095316 0)
(0.0420543477556 0.537675851595 0)
(0.0402049635896 0.465418938953 0)
(0.0386196142139 0.393163187298 0)
(0.0372977994078 0.320912146443 0)
(0.0362363770929 0.248672419333 0)
(0.0354303480048 0.176423152474 0)
(0.0348013941103 0.104679861086 0)
(0.0336029980386 0.0335633391 0)
(-0.298110066199 0.100607250569 0)
(-0.317293679103 0.314539327688 0)
(-0.316643848274 0.532020584955 -4.58746885095e-26)
(-0.314841087966 0.74757932589 0)
(-0.312355861616 0.959725042553 0)
(-0.30927438986 1.16769051068 0)
(-0.305645880844 1.3706651125 0)
(-0.301518227745 1.56790184265 0)
(-0.296938468587 1.75872776432 0)
(-0.291953190383 1.94255039349 0)
(-0.28660775169 2.11886056426 0)
(-0.280945523765 2.28723296428 0)
(-0.275007082302 2.44732478508 0)
(-0.268829738647 2.59887279497 0)
(-0.262447128286 2.74168916941 0)
(-0.255889167486 2.87565635703 0)
(-0.249182014616 3.00072128882 0)
(-0.242348350229 3.11688916866 0)
(-0.235407575987 3.22421709264 0)
(-0.228376270105 3.32280766853 0)
(-0.22126848383 3.41280280756 0)
(-0.214096246253 3.49437778912 0)
(-0.206869853497 3.56773570076 0)
(-0.199598339174 3.63310229474 0)
(-0.192289696677 3.6907213087 0)
(-0.184951275146 3.74085024916 0)
(-0.177589915594 3.78375664763 0)
(-0.170212271021 3.81971475934 0)
(-0.162824878929 3.84900268536 0)
(-0.1554344599 3.8718998582 0)
(-0.148048022677 3.88868481605 0)
(-0.140673217691 3.89963299737 0)
(-0.133317884322 3.90501391071 0)
(-0.125982302255 3.90508857373 0)
(-0.118588899089 3.90010659559 0)
(-0.111230263 3.89035088284 0)
(-0.103923136452 3.87606343297 0)
(-0.0966744503317 3.85748370837 0)
(-0.0894912590035 3.83484282485 0)
(-0.0823806780975 3.80836364566 0)
(-0.0753496441926 3.77826061862 0)
(-0.0684049607844 3.74473976111 0)
(-0.0615531339144 3.70799869915 0)
(-0.0548004577497 3.66822676077 0)
(-0.0481528694313 3.62560510792 0)
(-0.0416160445319 3.58030690181 0)
(-0.0351952619365 3.53249748988 0)
(-0.0288955049135 3.48233461288 0)
(-0.0227213347834 3.42996862169 0)
(-0.0166769963447 3.3755427052 0)
(-0.0107663000331 3.31919311955 0)
(-0.00499273061461 3.26104942254 0)
(0.000640662527606 3.20123470374 0)
(0.00613115451009 3.13986581607 0)
(0.0114764469516 3.07705359946 0)
(0.0166745560411 3.0129031039 0)
(0.0217239073092 2.94751380245 0)
(0.0266232237017 2.88097980255 0)
(0.0313716135569 2.81339004623 0)
(0.0359684597093 2.74482850847 0)
(0.0404135010992 2.67537438398 0)
(0.0447067238019 2.60510227241 0)
(0.0488484366192 2.53408235208 0)
(0.0528391648753 2.46238055273 0)
(0.0566797203179 2.39005871712 0)
(0.0603710983956 2.31717476249 0)
(0.063914542723 2.24378283133 0)
(0.0673114465114 2.16993344288 0)
(0.0705634118292 2.09567363458 0)
(0.0736721557539 2.02104710505 0)
(0.0766395645979 1.9460943477 0)
(0.0794676053173 1.87085278667 0)
(0.0821583748559 1.79535690397 0)
(0.084714017259 1.71963836981 0)
(0.0871367682399 1.64372616457 0)
(0.0894288784139 1.56764670468 0)
(0.091592653178 1.49142396071 0)
(0.0936303823893 1.41507957981 0)
(0.0955443756065 1.33863300097 0)
(0.0973368984602 1.26210157506 0)
(0.0990102032501 1.18550067806 0)
(0.100566472063 1.10884382963 0)
(0.102007842488 1.03214280527 0)
(0.103336357071 0.95540775426 0)
(0.104553983011 0.878647311855 0)
(0.105662565655 0.801868717794 0)
(0.106663836942 0.725077929482 0)
(0.107559361548 0.648279740711 0)
(0.108350507619 0.571477888587 0)
(0.109038323184 0.494675137512 0)
(0.109623316255 0.417873283135 0)
(0.110104894588 0.341072730672 0)
(0.110479646948 0.264270585937 0)
(0.110732165746 0.187399988921 0)
(0.110616169762 0.11123044517 0)
(0.104820157173 0.034445440255 0)
(-0.503246520804 0.105815762822 0)
(-0.534661445809 0.316801458046 0)
(-0.530572218481 0.538038162678 -4.55838374594e-26)
(-0.523526631816 0.755853503077 0)
(-0.514159665909 0.970267297281 0)
(-0.502647969179 1.18036718473 0)
(-0.489148987945 1.38532437368 0)
(-0.47384609174 1.58437238179 0)
(-0.456937567063 1.77682547657 0)
(-0.43863146472 1.96208282297 0)
(-0.419140130873 2.13963137186 0)
(-0.398675330144 2.30904608228 0)
(-0.377443882294 2.46998812466 0)
(-0.355644053053 2.62220140588 0)
(-0.333462614385 2.76550779385 0)
(-0.31107271113 2.89980137997 0)
(-0.28863234909 3.02504210523 0)
(-0.266283586194 3.14124902587 0)
(-0.244152187626 3.24849346602 0)
(-0.222347813346 3.34689224934 0)
(-0.20096448174 3.43660116979 0)
(-0.180081391457 3.51780881201 0)
(-0.159763850817 3.59073080563 0)
(-0.140064422305 3.65560455874 0)
(-0.121024046236 3.71268449895 0)
(-0.102673278828 3.7622378224 0)
(-0.0850334242524 3.80454074225 0)
(-0.0681177194042 3.83987520885 0)
(-0.0519323615758 3.86852606825 0)
(-0.0364775489861 3.89077860993 0)
(-0.0217483165452 3.90691643415 0)
(-0.00773534619139 3.9172194412 0)
(0.00557426325557 3.9219618722 0)
(0.0181938028144 3.92141309322 0)
(0.0301090811754 3.9158433242 0)
(0.0413723399948 3.9055104183 0)
(0.0520088045434 3.89066053146 0)
(0.0620406323074 3.87153299556 0)
(0.0714906393596 3.8483594444 0)
(0.0803819018994 3.82136317064 0)
(0.0887375948277 3.79075891624 0)
(0.0965807593218 3.75675283639 0)
(0.103934204977 3.719542556 0)
(0.110820343082 3.67931728371 0)
(0.117261141119 3.63625796543 0)
(0.123278002511 3.59053746817 0)
(0.128891759836 3.5423207845 0)
(0.134122588839 3.49176525325 0)
(0.138990029083 3.43902078955 0)
(0.143512922437 3.38423012203 0)
(0.147709452228 3.32752903185 0)
(0.151597098678 3.26904659305 0)
(0.155192689769 3.20890540975 0)
(0.158512368035 3.14722185116 0)
(0.161571648106 3.08410628033 0)
(0.164385390817 3.01966327871 0)
(0.166967863787 2.95399186279 0)
(0.169332719996 2.88718569556 0)
(0.171493058794 2.81933328936 0)
(0.173461407022 2.7505182033 0)
(0.175249778648 2.68081923202 0)
(0.17686965715 2.6103105893 0)
(0.178332052576 2.53906208326 0)
(0.179647484401 2.46713928702 0)
(0.180826035249 2.39460370155 0)
(0.181877333789 2.32151291468 0)
(0.182810604639 2.24792075299 0)
(0.18363465115 2.17387743066 0)
(0.18435790125 2.09942969198 0)
(0.184988390101 2.02462095163 0)
(0.185533801802 1.94949142927 0)
(0.186001452044 1.87407828283 0)
(0.186398325691 1.79841573668 0)
(0.186731059618 1.72253520921 0)
(0.187005976253 1.64646543604 0)
(0.187229066837 1.57023259314 0)
(0.187406021039 1.49386041622 0)
(0.187542210871 1.41737032049 0)
(0.1876427165 1.34078151726 0)
(0.187712311008 1.26411113135 0)
(0.18775548246 1.18737431567 0)
(0.187776419565 1.11058436704 0)
(0.187779029853 1.03375283945 0)
(0.187766925871 0.956889658827 0)
(0.187743438597 0.88000323508 0)
(0.187711602542 0.803100575272 0)
(0.187674161237 0.726187392367 0)
(0.18763354583 0.64926821051 0)
(0.187591864002 0.572346454201 0)
(0.187550861952 0.495424504039 0)
(0.187511898361 0.41850371196 0)
(0.187475977681 0.341584119518 0)
(0.187443575978 0.264664246129 0)
(0.187406729707 0.187671519435 0)
(0.187018504039 0.111673536653 0)
(0.176975654328 0.034014647797 0)
(-0.712207394584 0.113320490131 0)
(-0.757075869066 0.318788056001 0)
(-0.751297808874 0.545256673103 4.52402987352e-26)
(-0.741387359582 0.765682319611 0)
(-0.728232204466 0.982730424068 0)
(-0.712099288168 1.19527302709 0)
(-0.693215778413 1.40246637095 0)
(-0.671845309394 1.60351951401 0)
(-0.648271506518 1.79773287479 0)
(-0.62279028437 1.98449842702 0)
(-0.595701744505 2.16330227015 0)
(-0.567303105485 2.33372404253 0)
(-0.537882609172 2.49543427101 0)
(-0.507714562276 2.64818997969 0)
(-0.477055487582 2.79182899154 0)
(-0.446141395672 2.92626331322 0)
(-0.415186038571 3.05147196076 0)
(-0.38438007752 3.16749353013 0)
(-0.353890972553 3.27441876727 0)
(-0.323863506448 3.3723833359 0)
(-0.294420747445 3.46156093419 0)
(-0.265665381578 3.54215686431 0)
(-0.237681243067 3.61440212315 0)
(-0.210535007915 3.67854804828 0)
(-0.18427791175 3.73486153074 0)
(-0.158947492488 3.78362078443 0)
(-0.134569248567 3.82511165017 0)
(-0.111158241765 3.85962440046 0)
(-0.0887205557768 3.8874510077 0)
(-0.0672546539376 3.90888283842 0)
(-0.0467525450766 3.92420874188 0)
(-0.0272007698253 3.93371349812 0)
(-0.00858099968154 3.93767675948 0)
(0.00913009049382 3.9363729947 0)
(0.0259637007821 3.9300692596 0)
(0.041935051541 3.91901715442 0)
(0.0570701115166 3.90346928161 0)
(0.0713966789016 3.88366691364 0)
(0.0849435538014 3.8598425715 0)
(0.097739960781 3.8322198576 0)
(0.109815241897 3.80101354505 0)
(0.121198598282 3.76642962913 0)
(0.131918921912 3.72866543325 0)
(0.142004635204 3.68790975516 0)
(0.15148359597 3.64434304631 0)
(0.16038299675 3.59813761617 0)
(0.168729318854 3.54945785446 0)
(0.176548272915 3.49846046582 0)
(0.183864786606 3.44529471208 0)
(0.190702973401 3.39010265866 0)
(0.197086142703 3.33301942176 0)
(0.203036787232 3.27417341443 0)
(0.208576607324 3.21368658896 0)
(0.21372650998 3.15167467504 0)
(0.218506641351 3.08824741168 0)
(0.222936392537 3.02350877309 0)
(0.227034436054 2.95755718706 0)
(0.230818734927 2.8904857465 0)
(0.234306580235 2.82238241309 0)
(0.23751460122 2.75333021395 0)
(0.240458801967 2.68340743059 0)
(0.243154571035 2.61268778126 0)
(0.245616716046 2.54124059596 0)
(0.247859471965 2.46913098558 0)
(0.249896532868 2.39642000431 0)
(0.251741058397 2.32316480703 0)
(0.253405702354 2.24941880071 0)
(0.254902617165 2.17523179154 0)
(0.256243479182 2.10065012701 0)
(0.257439491194 2.02571683447 0)
(0.258501404479 1.95047175541 0)
(0.259439519536 1.87495167704 0)
(0.260263705054 1.79919046028 0)
(0.260983397104 1.72321916578 0)
(0.261607615233 1.64706617696 0)
(0.262144960417 1.57075732173 0)
(0.262603628526 1.49431599183 0)
(0.262991407312 1.4177632613 0)
(0.263315687486 1.34111800311 0)
(0.263583458992 1.2643970053 0)
(0.263801319868 1.18761508566 0)
(0.263975471951 1.11078520622 0)
(0.264111727538 1.03391858651 0)
(0.264215504435 0.957024816608 0)
(0.264291830101 0.880111968663 0)
(0.264345335546 0.803186707482 0)
(0.26438025633 0.726254397584 0)
(0.264400425228 0.649319205402 0)
(0.26440927265 0.572384190008 0)
(0.264409829553 0.495451373147 0)
(0.264404763289 0.418521831296 0)
(0.264396504365 0.34159553649 0)
(0.264386828865 0.264672142544 0)
(0.264363672401 0.187665372766 0)
(0.263831530063 0.111995988617 0)
(0.249560461196 0.0332353948301 0)
(-0.924310056162 0.123486091901 0)
(-0.982698648159 0.321354180496 0)
(-0.975068813801 0.555006862486 0)
(-0.962050798416 0.778951119876 0)
(-0.94476699372 0.999554780768 0)
(-0.923582635709 1.2153867175 0)
(-0.898801462679 1.42558865033 0)
(-0.870775015703 1.62933664997 0)
(-0.839880435288 1.8259124802 0)
(-0.806510351795 2.01469849043 0)
(-0.771061997978 2.19517989554 0)
(-0.733927749001 2.36694302837 0)
(-0.695487066589 2.52967146876 0)
(-0.656100009285 2.68314035705 0)
(-0.616102297481 2.82720941371 0)
(-0.575801874063 2.96181511812 0)
(-0.535476804802 3.08696244861 0)
(-0.495374358479 3.20271651688 0)
(-0.45571105266 3.30919436249 0)
(-0.416673485735 3.40655710659 0)
(-0.378419748643 3.49500260576 0)
(-0.341081265907 3.57475869571 0)
(-0.304764899378 3.64607707376 0)
(-0.269555211563 3.70922783561 0)
(-0.235516769458 3.76449465772 0)
(-0.202696432127 3.81217059835 0)
(-0.171125544259 3.85255447864 0)
(-0.140822015482 3.88594779725 0)
(-0.111792237829 3.91265212913 0)
(-0.0840328460913 3.93296696231 0)
(-0.0575322892623 3.94718792747 0)
(-0.0322722370225 3.95560529577 0)
(-0.00822896448595 3.95850265473 0)
(0.0146250402203 3.95615785798 0)
(0.0363207317257 3.94884171079 0)
(0.0568931834039 3.93680962746 0)
(0.0763786550755 3.920314241 0)
(0.094814501776 3.89959756468 0)
(0.112238856 3.87489268581 0)
(0.128690243318 3.84642346345 0)
(0.144207240932 3.81440463613 0)
(0.158828185642 3.77904192526 0)
(0.172590949362 3.74053219034 0)
(0.185532753097 3.69906361664 0)
(0.197690032351 3.65481592914 0)
(0.209098326632 3.60796062564 0)
(0.219792207827 3.55866122304 0)
(0.229805222207 3.50707351174 0)
(0.239169862092 3.45334581434 0)
(0.247917543513 3.39761924526 0)
(0.256078606692 3.34002796872 0)
(0.263682317027 3.28069945311 0)
(0.270756883837 3.21975472027 0)
(0.27732947571 3.1573085884 0)
(0.283426249933 3.09346990793 0)
(0.289072375853 3.02834178977 0)
(0.294292069631 2.96202182556 0)
(0.299108621216 2.89460229996 0)
(0.303544430755 2.82617039472 0)
(0.307621036186 2.75680838504 0)
(0.311359148876 2.68659382806 0)
(0.314778679918 2.61559974411 0)
(0.317898773457 2.54389479084 0)
(0.320737830526 2.47154343075 0)
(0.32331353918 2.39860609249 0)
(0.32564289525 2.32513932642 0)
(0.327742228865 2.25119595472 0)
(0.329627221886 2.17682521677 0)
(0.331312930699 2.10207290984 0)
(0.332813800373 2.02698152598 0)
(0.334143683815 1.95159038498 0)
(0.335315852853 1.87593576437 0)
(0.336343014007 1.80005102629 0)
(0.337237316783 1.72396674195 0)
(0.338010366389 1.64771081383 0)
(0.338673229605 1.57130859595 0)
(0.339236444782 1.49478301249 0)
(0.339710025677 1.41815467503 0)
(0.340103469078 1.34144199852 0)
(0.340425756953 1.26466131642 0)
(0.340685362026 1.18782699475 0)
(0.340890248524 1.1109515457 0)
(0.341047875959 1.03404574027 0)
(0.341165198723 0.957118720438 0)
(0.34124866834 0.880178110195 0)
(0.341304232384 0.803230125434 0)
(0.341337336268 0.726279681587 0)
(0.341352924152 0.649330498245 0)
(0.341355446686 0.572385198716 0)
(0.341348878455 0.495445402295 0)
(0.341336760632 0.418511886318 0)
(0.341322303213 0.341584427366 0)
(0.341307576502 0.264663295455 0)
(0.341275664107 0.187640856933 0)
(0.340582311442 0.112394176866 0)
(0.322134240442 0.0321743017048 0)
(-1.14060343399 0.136493764419 0)
(-1.21279171117 0.324595433496 0)
(-1.20315557221 0.567494194171 0)
(-1.18682897988 0.795928504746 0)
(-1.1651532473 1.02107499627 0)
(-1.13860575416 1.24109527928 0)
(-1.10757872158 1.45511712409 0)
(-1.07252456312 1.66227499067 0)
(-1.03392639185 1.86182796348 0)
(-0.992285071774 2.05314748674 0)
(-0.948105140935 2.23571933047 0)
(-0.901882707784 2.40914023102 0)
(-0.854095288299 2.57311232729 0)
(-0.805193763298 2.72743569699 0)
(-0.755596420587 2.87199964477 0)
(-0.705684951518 3.00677327733 0)
(-0.655802182603 3.13179582381 0)
(-0.60625129114 3.24716706592 0)
(-0.557296226626 3.35303815342 0)
(-0.509163077004 3.44960299797 0)
(-0.462042126771 3.53709036934 0)
(-0.416090394828 3.61575676009 0)
(-0.371434460602 3.6858800403 0)
(-0.328173433057 3.74775389096 0)
(-0.286381936722 3.8016829808 0)
(-0.246113030457 3.8479788363 0)
(-0.207400987013 3.88695634571 0)
(-0.170263895141 3.91893083379 0)
(-0.13470605032 3.94421564408 0)
(-0.100720125651 3.9631201756 0)
(-0.0682891038526 3.97594832039 0)
(-0.0373879766103 3.98299708247 0)
(-0.00798535942429 3.98455523393 0)
(0.0199552443406 3.98090601254 0)
(0.0464750193937 3.97232148023 0)
(0.0716158405619 3.95906013108 0)
(0.0954228819382 3.94137656196 0)
(0.117942829235 3.91951392709 0)
(0.139223181037 3.8937059353 0)
(0.159311768656 3.8641766467 0)
(0.178256351198 3.83114065464 0)
(0.19610428534 3.79480325476 0)
(0.212902263775 3.75536065771 0)
(0.228696107297 3.71300022585 0)
(0.243530608022 3.66790072868 0)
(0.257449409829 3.62023261057 0)
(0.270494925506 3.57015826585 0)
(0.282708278637 3.51783231705 0)
(0.294129271355 3.46340189309 0)
(0.304796367633 3.40700690465 0)
(0.314746694468 3.34878031481 0)
(0.324016051918 3.28884840341 0)
(0.332638935233 3.22733102403 0)
(0.34064856107 3.16434185265 0)
(0.348076901676 3.0999886278 0)
(0.354954719811 3.03437338161 0)
(0.36131160873 2.96759266188 0)
(0.367176030659 2.89973774523 0)
(0.372575358338 2.83089484133 0)
(0.377535913579 2.76114528879 0)
(0.382083007573 2.69056574279 0)
(0.386240977326 2.61922835503 0)
(0.390033222984 2.54720094634 0)
(0.39348224083 2.47454717249 0)
(0.396609656652 2.40132668363 0)
(0.399436254623 2.32759527789 0)
(0.401982006266 2.25340504955 0)
(0.404266094982 2.17880453235 0)
(0.406306940544 2.10383883833 0)
(0.408122219343 2.02854979268 0)
(0.409728884585 1.95297606501 0)
(0.411143182527 1.87715329745 0)
(0.412380668705 1.80111422988 0)
(0.413456220548 1.72488882288 0)
(0.414384050071 1.64850437837 0)
(0.415177713311 1.57198565855 0)
(0.415850119943 1.49535500325 0)
(0.416413540021 1.41863244602 0)
(0.416879610977 1.34183582903 0)
(0.417259342133 1.26498091722 0)
(0.417563119537 1.18808151152 0)
(0.417800708682 1.11114956161 0)
(0.417981257641 1.03419527798 0)
(0.418113298506 0.95722724345 0)
(0.418204749452 0.880252524062 0)
(0.418262915877 0.80327677916 0)
(0.418294493056 0.726304370473 0)
(0.418305570006 0.649338470246 0)
(0.418301638271 0.572381168615 0)
(0.418287607927 0.49543357998 0)
(0.418267834112 0.418496049288 0)
(0.418246171211 0.341567884451 0)
(0.41822480734 0.264649568873 0)
(0.418182233075 0.187604913654 0)
(0.417325960581 0.112882648283 0)
(0.394715302472 0.0308369695527 0)
(-1.36214170164 0.152563754741 0)
(-1.44852295805 0.328564914961 0)
(-1.43668443491 0.582921304104 4.44492520554e-26)
(-1.4167927646 0.816873303738 0)
(-1.39039080708 1.04761172563 0)
(-1.3580849712 1.27276846768 0)
(-1.32036933066 1.49145855386 0)
(-1.27781207525 1.7027656726 0)
(-1.23101674589 1.90592281464 0)
(-1.18060583945 2.10029032433 0)
(-1.1272030098 2.28535740201 0)
(-1.07141801979 2.46073652035 0)
(-1.01383433943 2.62615556712 0)
(-0.95499956748 2.78144801599 0)
(-0.895418574702 2.92654195398 0)
(-0.835549139389 3.06144860262 0)
(-0.775799752693 3.18625085617 0)
(-0.7165292327 3.3010922316 0)
(-0.658047776074 3.40616650833 0)
(-0.60061909888 3.50170823465 0)
(-0.544463349623 3.58798419523 0)
(-0.489760525258 3.66528587025 0)
(-0.436654163838 3.73392286987 0)
(-0.385255136846 3.79421729519 0)
(-0.335645402178 3.84649895655 0)
(-0.28788161925 3.89110136892 0)
(-0.241998554694 3.9283584396 0)
(-0.198012236199 3.95860176384 0)
(-0.155922828429 3.98215844875 0)
(-0.115717223279 3.99934940313 0)
(-0.0773713346452 4.01048802596 0)
(-0.0408521067996 4.01587896122 0)
(-0.00611938052377 4.01581683774 0)
(0.02687308119 4.01059148751 0)
(0.0581751666801 4.00047562943 0)
(0.087839419248 3.98573208675 0)
(0.115920939473 3.96661703175 0)
(0.142476429555 3.94337479826 0)
(0.167563291861 3.91623964069 0)
(0.19123911548 3.88543569485 0)
(0.213561220552 3.85117723599 0)
(0.234586296061 3.81366892634 0)
(0.25437011218 3.77310609359 0)
(0.272967295988 3.729675024 0)
(0.290431162242 3.6835532654 0)
(0.306813588627 3.63490993476 0)
(0.322164929646 3.58390602627 0)
(0.336533960705 3.53069471685 0)
(0.349967848501 3.4754216664 0)
(0.362512141062 3.41822531113 0)
(0.374210775058 3.3592371484 0)
(0.385106095119 3.29858201221 0)
(0.39523888392 3.23637833867 0)
(0.404648398844 3.17273842103 0)
(0.413372414787 3.10776865429 0)
(0.421447269776 3.04156976924 0)
(0.428907913524 2.97423705623 0)
(0.43578795621 2.90586057902 0)
(0.442119718087 2.83652537893 0)
(0.44793427759 2.76631166987 0)
(0.453261518911 2.69529502472 0)
(0.458130177025 2.62354655356 0)
(0.462567881347 2.55113307427 0)
(0.466601196265 2.47811727615 0)
(0.470255659849 2.40455787703 0)
(0.473555819203 2.33050977436 0)
(0.4765252638 2.25602419104 0)
(0.47918665545 2.18114881619 0)
(0.481561756255 2.10592794162 0)
(0.483671453339 2.03040259436 0)
(0.485535781675 1.95461066563 0)
(0.487173943943 1.8785870368 0)
(0.488604328678 1.80236370267 0)
(0.48984452573 1.72596989242 0)
(0.490911340269 1.64943218852 0)
(0.491820804424 1.57277464403 0)
(0.492588187707 1.49601889843 0)
(0.493228005415 1.4191842923 0)
(0.493754026067 1.34228798103 0)
(0.494179277148 1.26534504781 0)
(0.494516050128 1.1883686159 0)
(0.494775904141 1.1113699605 0)
(0.494969669199 1.03435862014 0)
(0.495107448471 0.957342507775 0)
(0.495198620513 0.88032802153 0)
(0.495251841238 0.803320155168 0)
(0.495275046723 0.726322608469 0)
(0.495275457188 0.649337897989 0)
(0.495259583708 0.572367468829 0)
(0.495233238159 0.495411806437 0)
(0.49520154319 0.41847067276 0)
(0.495168955408 0.341542665342 0)
(0.495137811638 0.264628354086 0)
(0.495082421024 0.187556069187 0)
(0.494062233667 0.113464829682 0)
(0.467294301378 0.0292275332088 0)
(-1.59006453379 0.171967802838 0)
(-1.69112948723 0.33332156089 0)
(-1.67684104982 0.601545733751 -4.40853941757e-26)
(-1.65305740777 0.842115437804 0)
(-1.62150455653 1.07957151624 0)
(-1.58294076413 1.31087225315 0)
(-1.5379796317 1.5351224348 0)
(-1.4873245108 1.75134521613 0)
(-1.43171800402 1.95874492525 0)
(-1.37192134717 2.15667210897 0)
(-1.30869220065 2.34462425275 0)
(-1.24276628859 2.52223712631 0)
(-1.17484262837 2.68927384715 0)
(-1.10557248372 2.84561195067 0)
(-1.03555181599 2.99122952254 0)
(-0.965316856988 3.1261911495 0)
(-0.895342330777 3.25063428036 0)
(-0.826041821126 3.3647564138 0)
(-0.757769792426 3.46880337946 0)
(-0.690824814243 3.56305885522 0)
(-0.625453596538 3.64783516824 0)
(-0.561855508399 3.72346535839 0)
(-0.500187316637 3.79029643506 0)
(-0.44056794179 3.84868373014 0)
(-0.383083080974 3.89898623432 0)
(-0.327789593145 3.94156279942 0)
(-0.274719577911 3.97676909162 0)
(-0.223884109362 4.00495518641 0)
(-0.175276607746 4.02646370716 0)
(-0.128875848059 4.04162843523 0)
(-0.0846486058242 4.0507733078 0)
(-0.0425519545421 4.05421135563 0)
(-0.00253528619359 4.05224366409 0)
(0.0354593033458 4.04516763743 0)
(0.0714907360423 4.03325525844 0)
(0.105623329416 4.01677498634 0)
(0.137922884167 3.99598419946 0)
(0.168456787928 3.97112835324 0)
(0.197292896816 3.94244206964 0)
(0.224499006984 3.91014934644 0)
(0.250142361511 3.87446389095 0)
(0.274289267417 3.83558945811 0)
(0.297004793682 3.79372020213 0)
(0.318352539857 3.74904103249 0)
(0.338394464064 3.70172796967 0)
(0.357190760091 3.65194849665 0)
(0.374799775538 3.59986190327 0)
(0.391277963153 3.5456196215 0)
(0.406679859563 3.48936554979 0)
(0.421058085547 3.43123636568 0)
(0.434463363783 3.37136182589 0)
(0.446944549738 3.30986505358 0)
(0.458548672965 3.24686281274 0)
(0.469320985587 3.18246576968 0)
(0.479305016222 3.11677874209 0)
(0.48854262699 3.04990093589 0)
(0.49707407254 2.98192617044 0)
(0.504938059382 2.91294309269 0)
(0.512171804989 2.84303538077 0)
(0.518811095392 2.77228193772 0)
(0.524890341106 2.7007570761 0)
(0.530442630466 2.6285306939 0)
(0.535499780453 2.55566844263 0)
(0.540092384328 2.48223188821 0)
(0.544249856343 2.40827866511 0)
(0.548000473036 2.33386262456 0)
(0.55137141146 2.25903397734 0)
(0.554388784014 2.18383943167 0)
(0.557077670284 2.10832232678 0)
(0.559462145649 2.03252276259 0)
(0.561565307113 1.95647772614 0)
(0.56340929616 1.88022121492 0)
(0.565015319132 1.80378435779 0)
(0.566403664957 1.7271955337 0)
(0.567593720718 1.6504804885 0)
(0.56860398494 1.57366245036 0)
(0.569452079051 1.49676224381 0)
(0.570154756932 1.41979840285 0)
(0.570727912972 1.34278728325 0)
(0.571186588575 1.26574317418 0)
(0.571544977518 1.18867840947 0)
(0.57181643011 1.11160347851 0)
(0.572013456559 1.0345271369 0)
(0.57214772957 0.957456517032 0)
(0.572230086576 0.880397238654 0)
(0.572270531769 0.803353519532 0)
(0.572278238424 0.726328286543 0)
(0.5722615518 0.649323287733 0)
(0.572227993041 0.572339205735 0)
(0.572184263499 0.4953757695 0)
(0.572136243686 0.418432016309 0)
(0.572089003123 0.341505637953 0)
(0.572045094362 0.264597338699 0)
(0.571974933001 0.187492909163 0)
(0.570789564657 0.114141534909 0)
(0.53986655763 0.0273474806598 0)
(-1.82562165032 0.195042733014 0)
(-1.94196271568 0.338937376841 0)
(-1.92491555485 0.623690357959 0)
(-1.89683062364 0.872069441897 0)
(-1.85959648416 1.11746351233 0)
(-1.81415344374 1.35598755363 0)
(-1.76125784593 1.58674074061 0)
(-1.70177318143 1.80867551704 0)
(-1.63660472957 2.02096636241 0)
(-1.56667377293 2.22295750589 0)
(-1.49289015879 2.41416232119 0)
(-1.4161302367 2.59425043769 0)
(-1.33721964846 2.76303269332 0)
(-1.25692099146 2.92044418152 0)
(-1.1759259246 3.06652672902 0)
(-1.09485112193 3.20141168953 0)
(-1.0142373918 3.32530370673 0)
(-0.934551273 3.43846586585 0)
(-0.85618846404 3.54120646347 0)
(-0.779478517957 3.63386747776 0)
(-0.704690324775 3.71681471541 0)
(-0.632037996614 3.79042953937 0)
(-0.561686857062 3.85510203888 0)
(-0.493759314144 3.9112254814 0)
(-0.428340461359 3.95919188013 0)
(-0.365483305139 3.99938851552 0)
(-0.305213559002 4.03219526007 0)
(-0.247533977439 4.05798257005 0)
(-0.192428225962 4.07711002587 0)
(-0.139864298525 4.08992533709 0)
(-0.0897975015392 4.09676370522 0)
(-0.0421730457552 4.09794700631 0)
(0.00307184742997 4.09378321661 0)
(0.0460087939057 4.0845781001 0)
(0.0867059472846 4.07060112942 0)
(0.125241086587 4.05212777867 0)
(0.161691576151 4.0294159652 0)
(0.196136215906 4.00271208676 0)
(0.228653916407 3.97225083802 0)
(0.259323169619 3.93825576601 0)
(0.288221532948 3.90093967425 0)
(0.315425238867 3.86050506265 0)
(0.341008891515 3.81714455879 0)
(0.365045239249 3.77104134201 0)
(0.387605010036 3.72236955577 0)
(0.408756798769 3.67129470608 0)
(0.428566997339 3.61797404445 0)
(0.447099759337 3.56255693439 0)
(0.464416992797 3.50518520105 0)
(0.480578375065 3.44599346377 0)
(0.49564138511 3.38510945182 0)
(0.509661349038 3.32265430356 0)
(0.522691495551 3.25874284958 0)
(0.534783018343 3.19348388049 0)
(0.54598514323 3.12698040001 0)
(0.556345197905 3.05932986414 0)
(0.5659086829 2.9906244073 0)
(0.574719342303 2.92095105614 0)
(0.582819233354 2.85039193196 0)
(0.590248793971 2.77902444256 0)
(0.597046907712 2.70692146426 0)
(0.603250965587 2.63415151501 0)
(0.608896924488 2.56077891925 0)
(0.614019361916 2.48686396538 0)
(0.618651526962 2.41246305645 0)
(0.62282538739 2.33762885481 0)
(0.626571672928 2.26241042132 0)
(0.629919914718 2.18685334985 0)
(0.632898481124 2.11099989739 0)
(0.635534609931 2.03488911057 0)
(0.637854437194 1.95855694888 0)
(0.639883022801 1.88203640518 0)
(0.641644373046 1.80535762378 0)
(0.64316146032 1.7285480166 0)
(0.64445624021 1.65163237765 0)
(0.645549666124 1.57463299617 0)
(0.646461701737 1.49756976877 0)
(0.647211331394 1.42046031067 0)
(0.64781656873 1.34332006638 0)
(0.648294463652 1.26616241996 0)
(0.648661107951 1.18899880498 0)
(0.64893163967 1.11183881441 0)
(0.649120246495 1.03469031041 0)
(0.649240168328 0.957559534326 0)
(0.649303699311 0.880451216856 0)
(0.649322189482 0.803368688625 0)
(0.649306046316 0.726313991433 0)
(0.649264736267 0.649287990604 0)
(0.649206786274 0.57229048829 0)
(0.649139784309 0.495320332694 0)
(0.649070372368 0.418375708853 0)
(0.649004253534 0.341453238066 0)
(0.648944245011 0.264553905674 0)
(0.648857056185 0.187413612651 0)
(0.647504767286 0.11491242888 0)
(0.612427855143 0.0251975568439 0)
(-2.07019649222 0.222203948102 0)
(-2.20251798412 0.3455027138 0)
(-2.18232780727 0.649756697258 0)
(-2.14943249637 0.907250691631 0)