/*--------------------------------*- C++ -*----------------------------------*\
| =========                 |                                                 |
| \\      /  F ield         | OpenFOAM: The Open Source CFD Toolbox           |
|  \\    /   O peration     | Version:  v1906                                 |
|   \\  /    A nd           | Web:      www.OpenFOAM.com                      |
|    \\/     M anipulation  |                                                 |
\*---------------------------------------------------------------------------*/
FoamFile
{
    version     2.0;
    format      ascii;
    class       volScalarField;
    location    "63";
    object      p;
}
// * * * * * * * * * * * * * * * * * * * * * * * * * * * * * * * * * * * * * //

dimensions      [0 2 -2 0 0 0 0];


internalField   nonuniform List<scalar> 
9216
(
18750.3104886
18745.1954018
18734.7673535
18718.9918409
18697.9382609
18671.690005
18640.3506973
18604.042563
18562.9048726
18517.0922012
18466.7728137
18412.1267909
18353.3443637
18290.6240178
18224.1708999
18154.1950184
18080.9098217
18004.5305801
17925.2731986
17843.3528283
17758.9829416
17672.3741877
17583.7337304
17493.2643389
17401.1639676
17307.6250595
17212.8343364
17116.9722823
17020.2131097
16922.7243884
16824.6671497
16726.1956268
16627.4574554
16528.5934328
16429.7381822
16331.0198031
16232.5598839
16134.473792
16036.8710343
15939.8551928
15843.5243196
15747.9709136
15653.2823304
15559.5407689
15466.8236822
15375.2037679
15284.7493727
15195.5244822
15107.5891152
15020.9993105
14935.8075072
14852.0625277
14769.8099428
14689.0920499
14609.948221
14532.4148775
14456.5258199
14382.3121994
14309.8028292
14239.0241541
14170.000543
14102.7542568
14037.3057232
13973.673503
13911.8745474
13851.9241645
13793.836258
13737.6232952
13683.296528
13630.8659621
13580.340561
13531.7282171
13485.0359391
13440.2698248
13397.4352322
13356.5367558
13317.5783801
13280.5634597
13245.4948565
13212.3749229
13181.2056233
13151.9885203
13124.7248809
13099.4156654
13076.0616187
13054.663262
13035.2209683
13017.7349575
13002.2053549
12988.632187
12977.0154183
12967.3549322
12959.6505164
12953.9016354
12950.1100904
12948.2489058
18755.3466258
18750.2123845
18739.7580018
18723.9266046
18702.7958292
18676.4516062
18644.999185
18608.5622799
18567.2816378
18521.3133904
18470.8273694
18416.0052756
18357.0389146
18294.1283531
18227.4802201
18157.3059759
18083.8203844
18007.2399791
17927.7817705
17845.6619552
17761.094885
17674.2920331
17585.4612227
17494.8058381
17402.5242937
17308.8094628
17213.8483546
17117.8217288
17020.9039434
16923.2627198
16825.0591276
16726.4474691
16627.5753761
16528.5838446
16429.6071264
16330.7729396
16232.2028986
16134.0123395
16036.3105972
15939.2011243
15842.7817646
15747.1448689
15652.3775744
15558.5619265
15465.7751593
15374.0898176
15283.5740332
15194.2916436
15106.30246
15019.6623796
14934.4236431
14850.6349398
14768.3416522
14687.5859532
14608.4070376
14530.8412109
14454.9221075
14380.6807714
14308.1458606
14237.3437209
14168.2985769
14101.032598
14035.5660778
13971.9174932
13910.103671
13850.1398421
13792.0397953
13735.8159269
13681.479383
13629.0401041
13578.5069567
13529.8877735
13483.1894742
13438.4181023
13395.578935
13354.676517
13315.7147602
13278.6969739
13243.625955
13210.5040154
13179.3330616
13150.1146204
13122.8499081
13097.5398538
13074.185159
13052.7863183
13033.3436692
13015.8574107
13000.3276429
12986.7543838
12975.1376013
12965.4772319
12957.7732422
12952.0256412
12948.2389035
12946.3777405
18765.6435117
18760.4576719
18749.9236021
18733.9725818
18712.683393
18686.1437194
18654.4611861
18617.7622264
18576.1905382
18529.9053918
18479.0798543
18423.8989226
18364.557668
18301.2593694
18234.2137344
18163.6351637
18089.7411567
18012.7507935
17932.8833879
17850.3572307
17765.3885143
17678.1903461
17588.97194
17497.9378843
17405.2875753
17311.2147106
17215.9069304
17119.5454988
17022.3051164
16924.3537521
16825.85259
16726.9559795
16627.8114837
16528.5599251
16429.3354485
16330.2656776
16231.471889
16133.0691114
16035.1663372
15937.866687
15841.2676321
15745.4611675
15650.5340424
15556.5679381
15463.6396982
15371.8215057
15281.181109
15191.7819938
15103.6836009
15016.9414905
14931.6075499
14847.7301489
14765.354336
14684.5219834
14605.2719723
14527.640327
14451.6603888
14377.3629397
14304.7763648
14233.9267667
14164.8381162
14097.532358
14032.0295502
13968.3479619
13906.5042024
13846.5133106
13788.3888748
13732.1431145
13677.786991
13625.3302826
13574.7816862
13526.1488857
13479.4386458
13434.6568744
13391.8087074
13350.8985665
13311.9302357
13274.9069134
13239.8312817
13206.7055531
13175.5315325
13146.3106585
13119.0440583
13093.7325845
13070.376862
13048.9773203
13029.5342335
13012.0477477
12996.5179146
12982.9447156
12971.3280909
12961.6679636
12953.9642925
12948.2169843
12944.4303335
12942.5644185
18781.3126247
18776.0638674
18765.4071212
18749.2719737
18727.7394049
18700.8998952
18668.8646516
18631.7642392
18589.7468903
18542.9767009
18491.6317331
18435.902052
18375.9877632
18312.0970713
18244.4444159
18173.2486897
18098.7315839
18021.1160518
17940.6249262
17857.4796674
17771.8992707
17684.0993032
17594.2910904
17502.6810186
17409.4699718
17314.8528647
17219.0182907
17122.148245
17024.4179436
16925.9956959
16827.0428562
16727.7138114
16628.1560285
16528.5101343
16428.9100269
16329.4830285
16230.3499783
16131.6254408
16033.4179034
15935.8299634
15838.9585386
15742.8950661
15647.7257193
15553.5316095
15460.389002
15368.3695144
15277.5403278
15187.964378
15099.7005586
15012.803903
14927.3257769
14843.3140507
14760.81328
14679.8648673
14600.5072311
14522.7759562
14446.7039516
14372.3215899
14299.6568538
14228.7354654
14159.5810223
14092.2151164
14026.65746
13962.925996
13901.0370141
13841.005252
13782.8440032
13726.5652096
13672.1795614
13619.6965816
13569.1247181
13520.4714214
13473.7432281
13428.945833
13386.0841648
13345.1624514
13306.1842892
13269.152702
13234.0702034
13200.9388498
13169.7602962
13140.5358433
13113.2664869
13087.9529593
13064.5957725
13043.1952535
13023.7515819
13006.2648199
12990.7349437
12977.1618697
12965.5454814
12955.8856515
12948.1822833
12942.435175
12938.6484974
12936.781434
18802.4101896
18797.0792121
18786.2557783
18769.8700835
18748.0064562
18720.7593726
18688.2449855
18650.5995357
18607.9774858
18560.5495532
18508.5006501
18452.0277751
18391.3379126
18326.645977
18258.1728446
18186.1434961
18110.7852968
18032.3264213
17950.9944403
17867.0150617
17780.6110342
17692.0011995
17601.399693
17509.015276
17415.0507974
17319.7027624
17223.1610099
17125.6084735
17027.2210279
16928.1673999
16828.6091434
16728.7006605
16628.5892678
16528.4153292
16428.3123615
16328.4072157
16228.8201577
16129.6651155
16031.0498919
15933.0763665
15835.8407111
15739.433602
15643.9404396
15549.4415613
15456.0124576
15363.7239802
15272.6425516
15182.8303643
15094.345581
15007.2425237
14921.5718625
14837.3807936
14754.713216
14673.6098984
14594.1086433
14516.2444427
14440.0496306
14365.5540271
14292.7850802
14221.7679986
14152.5258836
14085.0798514
14019.4491549
13955.6512968
13893.7021421
13833.6160222
13775.4058387
13719.0831594
13664.6583136
13612.1404805
13561.5377767
13512.8573374
13466.1053967
13421.2873615
13378.4078847
13337.4709331
13298.4798534
13261.4374339
13226.345964
13193.2072893
13162.0228654
13132.7938068
13105.5209343
13080.204818
13056.8458189
13035.4441259
13015.9997917
12998.5127639
12982.9829156
12969.4100716
12957.7940338
12948.1345994
12940.4315972
12934.6847309
12930.8980995
12929.0307934
18829.0208732
18823.585867
18812.5499018
18795.8443725
18773.5581335
18745.7909855
18712.6655557
18674.3254718
18630.9332818
18582.6682746
18529.7242099
18472.3070173
18410.6325179
18344.9242182
18275.4112137
18202.3262313
18125.9038335
18046.3787935
17963.9846501
17878.9524397
17791.5096033
17701.8790571
17610.2784193
17516.9193784
17422.0071922
17325.7403011
17228.3100463
17129.9004775
17030.6882394
16930.8425252
16830.5250882
16729.8903012
16629.0852512
16528.2499358
16427.5173531
16327.0137106
16226.8585286
16127.1649151
16028.0397956
15929.5841306
15831.8931419
15735.0565379
15639.1587395
15544.2791033
15450.4921418
15357.8677393
15266.4713628
15176.3642679
15087.603699
15000.2430826
14914.332216
14829.9174478
14747.0418545
14665.7454082
14586.0651405
14508.0352989
14431.6874982
14357.0508652
14284.1521789
14213.0160044
14143.6648223
14076.1191523
14010.3976727
13946.5173344
13884.4934714
13824.3399058
13766.0690493
13709.6920002
13655.218637
13602.6577074
13552.0169141
13503.3029969
13456.5218112
13411.6784028
13368.7770801
13327.8214819
13288.8146429
13251.7590555
13216.6567287
13183.5092436
13152.3178065
13123.0832977
13095.8063192
13070.4872374
13047.126224
13025.7232942
13006.2783411
12988.791168
12973.2615175
12959.689098
12948.0736075
12938.4147509
12930.7122734
12924.965796
12921.1793778
12919.3121792
18861.2516091
18855.6889134
18844.3917974
18827.2931325
18804.4875214
18776.0815473
18742.2060227
18703.0138748
18658.6777984
18609.3878039
18555.3486842
18496.7774665
18433.9009147
18366.953134
18296.1733194
18221.8036776
18144.0875426
18063.2676936
17979.5848797
17893.276544
17804.5757423
17713.7102406
17620.9017796
17526.3654898
17430.3094408
17332.9343104
17234.4331573
17134.9912834
17034.7861735
16933.9874997
16832.7571791
16731.2494777
16629.6111423
16527.9816731
16426.493394
16325.2716737
16224.4350938
16124.0957416
16024.3594566
15925.3260675
15827.0896311
15729.7386715
15633.356416
15538.0210274
15443.8058314
15350.7795388
15259.0064614
15168.5467214
15079.4564548
14991.7880078
14905.5901257
14820.9081365
14737.7841264
14656.2571093
14576.3631901
14498.1357213
14421.6054536
14346.800681
14273.7473794
14202.4693405
14132.9883005
14065.3240625
13999.4946156
13935.5162482
13873.4036574
13813.1700535
13754.8272606
13698.3858135
13643.8550498
13591.2431988
13540.557467
13491.8041188
13444.9885556
13400.1153895
13357.1885151
13316.2111772
13277.1860359
13240.1152281
13205.0004262
13171.8428934
13140.6435363
13111.4029542
13084.1214857
13058.7992521
13035.4361981
13014.0321294
12994.5867473
12977.0996808
12961.5705156
12947.9988199
12936.3841677
12926.7261557
12919.0244366
12913.2785502
12909.4925207
12907.6256034
18899.2335561
18893.5176513
18881.9072736
18864.337053
18840.9086952
18811.7372109
18776.9635391
18736.7520743
18691.287979
18640.7743904
18585.4295563
18525.483982
18461.1776632
18392.757462
18320.4746722
18244.5828004
18165.335584
18082.9852482
17997.7810027
17909.9677667
17819.7851086
17727.4663839
17633.2380513
17537.3191487
17439.9209083
17341.2464941
17241.4908431
17140.8405948
17039.4740949
16937.5614602
16835.2646929
16732.7378361
16630.1271494
16527.5714702
16425.2022702
16323.1438538
16221.5136483
16120.4224992
16019.9749352
15920.2694247
15821.3986323
15723.4496713
15626.5043517
15530.6394227
15435.926808
15342.4338346
15250.2234541
15159.3544568
15069.8816777
14981.8561957
14895.3255246
14810.333797
14726.9219414
14645.1278515
14564.9865499
14486.5303437
14409.7889755
14334.7897672
14261.5577582
14190.1158385
14120.4848757
14052.6838381
13986.7299112
13922.6386112
13860.4238928
13800.0982531
13741.6728318
13685.1575063
13630.5609838
13577.8908895
13527.153851
13478.3555791
13431.5009451
13386.5940555
13343.6383223
13302.6365308
13263.5909042
13226.5031645
13191.3745913
13158.2060767
13126.9981777
13097.7511653
13070.4650708
13045.1397295
13021.7748205
13000.369905
12980.9244602
12963.4379115
12947.9096611
12934.3391139
12922.7257005
12913.0688935
12905.3682425
12899.6231996
12895.837749
12893.9712369
18943.1238909
18937.2271091
18925.2470606
18907.1205107
18882.9578306
18852.8843568
18817.0533951
18775.643297
18728.8543428
18676.9055191
18620.0312445
18558.4781435
18492.5019538
18422.3646331
18348.3317099
18270.6699095
18189.6450651
18105.5203172
18018.5545894
17929.001326
17837.1074698
17743.1126562
17647.2485993
17549.7386465
17450.7974773
17350.6309243
17249.4358985
17147.4003995
17044.7035951
16941.5159577
16837.9994452
16734.3077151
16630.5863534
16526.9733273
16423.5990514
16320.5865041
16218.051718
16116.1040543
16014.8464857
15914.3758764
15814.7832567
15716.154091
15618.5685386
15522.1017071
15426.823896
15332.8008329
15240.0939007
15148.7603552
15058.8535355
14970.423065
14883.5150441
14798.1722359
14714.4342426
14632.3376764
14551.9163214
14473.2012905
14396.221174
14321.0021837
14247.5682897
14175.9413525
14106.1412491
14038.1859945
13972.0918577
13907.8734738
13845.5439504
13785.1149714
13726.5968951
13669.9988493
13615.3288219
13562.5937486
13511.7995965
13462.9514441
13416.0535583
13371.1094681
13328.1220346
13287.0935182
13248.0256431
13210.9196576
13175.7763926
13142.5963161
13111.3795857
13082.126097
13054.8355305
13029.507394
13006.1410634
12984.73582
12965.290885
12947.8054509
12932.2787104
12918.709882
12907.0982332
12897.4430964
12889.7439055
12884.0000156
12880.2153616
12878.3493727
18993.1079378
18987.0000345
18974.5886606
18955.8132312
18930.794623
18899.6707309
18862.6098504
18819.8071894
18771.4812073
18717.869856
18659.2268007
18595.8177406
18527.9169287
18455.8039638
18379.760901
18300.0697068
18217.010064
18130.857519
18041.8819535
17950.3463524
17856.505841
17760.6069584
17662.8871369
17563.5743556
17462.8869434
17361.0335034
17258.2129377
17154.6145535
17050.4182323
16945.7946487
16840.905527
16735.9039245
16630.9345244
16526.1341699
16421.6319738
16317.54929
16214.0004904
16111.0931845
16008.9285231
15907.6015037
15807.201265
15707.8113717
15609.5100883
15512.3706437
15416.4614844
15321.8465175
15228.5853433
15136.7334784
15046.3425681
14957.4605903
14870.1320499
14784.3981645
14700.2970425
14617.8638524
14537.1309855
14458.128211
14380.8828245
14305.4197903
14231.7618776
14159.9297909
14089.9422952
14021.8163354
13955.5671519
13891.2083909
13828.7522098
13768.2093794
13709.5893813
13652.9005019
13598.1499219
13545.343803
13494.4873707
13445.5849936
13398.6402599
13353.6560499
13310.6346058
13269.5775986
13230.4861916
13193.3611009
13158.2026528
13125.0108389
13093.7853673
13064.5257122
13037.2311587
13011.9008468
12988.5338112
12967.1290185
12947.6854015
12930.2018909
12914.677444
12901.11107
12889.5018532
12879.8489696
12872.1517235
12866.4093619
12862.6257608
12860.7604259
19049.401721
19043.049335
19030.1386077
19010.612294
18984.6039761
18952.2667708
18913.7870759
18869.3803714
18819.2868703
18763.767091
18703.0974577
18637.5660742
18567.4687877
18493.1056199
18414.7776119
18332.7841014
18247.4204274
18158.9760427
18067.7330034
17973.9647955
17877.9354606
17779.8989776
17680.0988625
17578.7679488
17476.1283176
17372.3913463
17267.7578524
17162.418311
17056.5531274
16950.3329502
16843.919014
16737.4634982
16631.1099166
16524.9936953
16419.2423165
16313.9751934
16209.3047433
16105.3365298
16002.1695922
15899.8967796
15798.6050658
15698.3758509
15599.2852495
15501.4043662
15404.7995579
15309.5326844
15215.661346
15123.2391111
15032.3157314
14942.937348
14855.1466868
14768.9832447
14684.4834678
14601.6809202
14520.6064459
14441.2883227
14363.7524096
14288.0222878
14214.1193951
14142.0631548
14071.8710996
14003.5589893
13937.1409249
13872.6294569
13810.0356904
13749.369385
13690.6390511
13633.8520429
13579.0146467
13526.1321667
13475.2090066
13426.2487484
13379.2542275
13334.2276051
13291.1704374
13250.0837414
13210.9680584
13173.8235136
13138.6498739
13105.4466018
13074.2129068
13044.9477946
13017.650112
12992.3185903
12968.951885
12947.5486131
12928.1073875
12910.6268481
12895.1056906
12881.5426918
12869.9367332
12860.286817
12852.5921042
12846.8517222
12843.069478
12841.2049487
19112.2550467
19105.6210418
19092.1352024
19071.7445392
19044.5980015
19010.8671451
18970.7602071
18924.5170068
18872.4037255
18814.7076444
18751.7319843
18683.7910256
18611.2056392
18534.2993118
18453.3947068
18368.8107645
18280.8603251
18189.8482349
18096.0698877
17999.8101489
17901.3426071
17800.9291015
17698.8194763
17595.2515191
17490.4510449
17384.6320941
17277.9972147
17170.7378092
17063.0345242
16955.0576695
16846.9676551
16738.9154196
16631.0430679
16523.4842414
16416.3642814
16309.800418
16203.9027773
16098.7745476
15994.5123426
15891.2065608
15788.9417207
15687.7967792
15587.8454347
15489.1564123
15391.7937362
15295.8169863
15201.2815413
15108.2388096
15016.7364478
14926.8185673
14838.5259312
14751.8961405
14666.9638112
14583.760743
14502.3160792
14422.6564598
14344.8061671
14268.7872645
14194.6197297
14122.3215815
14051.9090016
13983.3964509
13916.7967815
13852.1213438
13789.3800893
13728.5816693
13669.7335301
13612.842004
13557.9123971
13504.9490732
13453.9555349
13404.9345012
13357.8879822
13312.8173501
13269.723408
13228.6064553
13189.4663502
13152.3025696
13117.1142654
13083.9003192
13052.6593929
13023.3899772
12996.0904372
12970.7590548
12947.3940691
12925.9937126
12906.5562464
12889.0799905
12873.5633533
12860.0048562
12848.4031577
12838.7570693
12831.065594
12825.327728
12821.5471996
12819.6836543
19181.955223
19174.9978864
19160.8517986
19139.469434
19111.0183644
19075.6925149
19033.7264957
18985.3893566
18930.9782589
18870.8121709
18805.2257781
18734.5638236
18659.1760269
18579.4126624
18495.6208268
18408.1413808
18317.3065227
18223.4379327
18126.8454168
18027.8259785
17926.6632461
17823.6271911
17718.9740787
17612.9466003
17505.7741433
17397.6731636
17288.8476296
17179.4895155
17069.7793232
16959.8866184
16849.9705699
16740.1804352
16630.6566482
16521.5305763
16412.9248524
16304.9542947
16197.7263519
16091.3414747
15985.893512
15881.4700882
15778.1529592
15676.0183469
15575.1372552
15475.5757668
15377.3953226
15280.6529852
15185.4016862
15091.6904604
14999.5646654
14909.0661901
14820.2336509
14733.1025778
14647.7055902
14564.0725642
14482.2307911
14402.2051283
14324.0181426
14247.6902475
14173.2398334
14100.683393
14030.0356403
13961.3096256
13894.5168445
13829.6673436
13766.7698216
13705.8317263
13646.8593479
13589.8579085
13534.8316489
13481.7839112
13430.7172185
13381.6333516
13334.5334229
13289.4179464
13246.2869061
13205.1398204
13165.9758042
13128.7936282
13093.5917753
13060.368494
13029.1218496
12999.849772
12972.5501012
12947.2206295
12923.8591418
12902.4634517
12883.0314366
12865.5610679
12850.0504404
12836.4977975
12824.9015543
12815.2603142
12807.5729081
12801.8381894
12798.0597978
12796.1974444
19258.8315496
19251.5036126
19236.6007448
19214.0824745
19184.1390191
19146.9915251
19102.9065336
19052.1882603
18995.1708524
18932.2107788
18863.6796067
18789.9574217
18711.4270526
18628.4691733
18541.458287
18450.7595464
18356.7263349
18259.6985139
18160.0012385
18057.9442423
17953.8215032
17847.9112086
17740.475951
17631.7630952
17522.0052697
17411.4209416
17300.215046
17188.579644
17076.6945926
16964.7282099
16852.8379287
16741.1708815
16629.8651794
16519.049586
16408.8436369
16299.3591892
16190.7006314
16082.9653013
15976.2439213
15870.6209997
15766.1752061
15662.979722
15561.1025691
15460.6069157
15361.5513635
15263.9902157
15167.9737286
15073.5483473
14980.7569267
14889.6389396
14800.2306727
14712.5654109
14626.673612
14542.5830716
14460.3190791
14379.9045664
14301.360249
14224.7047597
14149.9547775
14077.1251492
14006.2290069
13937.2778799
13870.281802
13805.2494147
13742.1880662
13681.1039068
13622.0019802
13564.8863117
13509.7599932
13456.6252643
13405.4835914
13356.335743
13309.1818622
13264.0215366
13220.8538655
13179.6775234
13140.4908222
13103.2917694
13068.0781243
13034.8474512
13003.59717
12974.3246039
12947.0270248
12921.7016951
12898.3459081
12876.9570241
12857.5325047
12840.0699443
12824.5670982
12811.0219082
12799.4325262
12789.7973302
12782.1149644
12776.3841277
12772.6083617
12770.7474421
19343.2607445
19335.5081741
19319.7381067
19295.9192129
19264.2693785
19225.0430255
19178.5455065
19125.1234691
19065.1552938
18999.0418475
18927.1978807
18850.0443735
18768.0019919
18681.4857039
18590.9005188
18496.6382554
18399.0752172
18298.5706364
18195.4657512
18090.0833915
17982.7279586
17873.685704
17763.225226
17651.5981192
17539.0397238
17425.7699343
17311.9940372
17197.9035523
17083.6770636
16969.4810257
16855.4705389
16741.7900764
16628.5748251
16515.950462
16404.0328655
16292.9304663
16182.7441615
16073.5677655
15965.488488
15858.5873591
15752.9396231
15648.6151034
15545.678542
15444.189914
15344.2047205
15245.7742602
15148.9458838
15053.7632298
14960.2664463
14868.4923977
14778.4748588
14690.2446978
14603.8300477
14519.2564686
14436.5471011
14355.7228118
14276.8023306
14199.8023827
14124.7378132
14051.6217063
13980.4655001
13911.2790953
13844.0709605
13778.8482327
13715.6168141
13654.3814654
13595.145895
13537.9128461
13482.6841792
13429.4609527
13378.2434999
13329.0315035
13281.824067
13236.6197841
13193.416804
13152.2128958
13113.0055088
13075.7918305
13040.568843
13007.3333751
12976.0821528
12946.8118471
12919.5191187
12894.2006603
12870.8532361
12849.4737184
12830.059122
12812.6066347
12797.1136466
12783.5777752
12771.9968886
12762.3691222
12754.6929189
12748.9668118
12745.1942346
12743.3350266
19435.6735111
19427.4340179
19410.6693338
19385.360022
19351.7579688
19310.1585077
19260.9144065
19204.4237158
19141.1178513
19071.4502906
18995.8863038
18914.8940636
18828.93728
18738.4693586
18643.9289772
18545.736916
18444.2939541
18339.9796373
18233.1517384
18124.146249
18013.2777673
17900.8401669
17787.1074585
17672.3347718
17556.7594029
17440.6018873
17324.067068
17207.3451378
17090.6126417
16974.0334322
16857.7595562
16741.9322711
16626.683344
16512.1343991
16398.3972577
16285.5764324
16173.7688504
16063.0643626
15953.5462566
15845.2917037
15738.3721694
15632.8537906
15528.7977241
15426.2604676
15325.2941562
15225.9468371
15128.2627236
15032.2824318
14938.0431995
14845.5790919
14754.9211927
14666.0977835
14579.1345125
14494.0545527
14410.878752
14329.6257743
14250.3122342
14172.9528242
14097.5604366
14024.1462793
13952.7199868
13883.2897264
13815.8623006
13750.4432446
13687.0369213
13625.6466114
13566.2746016
13508.9222688
13453.5901618
13400.2780795
13348.9851472
13299.7098895
13252.4503012
13207.2039146
13163.9678653
13122.738955
13083.5137116
13046.2884469
13011.0593116
12977.8223485
12946.5735416
12917.308864
12890.0243228
12864.7160006
12841.3800955
12820.0129575
12800.6111224
12783.1713433
12767.6906188
12754.1662188
12742.5957077
12732.9769608
12725.3082053
12719.5877965
12715.8190513
12713.9618723
19536.5625095
19527.7636954
19509.8560766
19482.835734
19446.9966195
19402.6847198
19350.3110908
19290.336355
19223.2557135
19149.5850578
19069.8487043
18984.569118
18894.2587173
18799.4136634
18700.5094218
18597.9978309
18492.3053997
18383.8325709
18272.953716
18160.0176657
18045.3486123
17929.2472587
17811.992113
17693.8408562
17575.0317283
17455.7848942
17336.3037639
17216.7762485
17097.3759421
16978.2632225
16859.5861619
16741.4827431
16624.0801307
16507.4945806
16391.8339939
16277.1983262
16163.6799847
16051.364383
15940.3304541
15830.6511137
15722.3936822
15615.6202729
15510.3881457
15406.7500325
15304.7544356
15204.4459024
15105.8652787
15009.0499425
14914.0340212
14820.8485927
14729.521873
14640.0793914
14552.5441548
14466.9368011
14383.2757453
14301.5773157
14221.8558846
14144.1239912
14068.3924593
13994.6705097
13922.9658671
13853.2848635
13785.6325369
13720.0127265
13656.4281642
13594.8805631
13535.3707031
13477.898513
13422.4631504
13369.0630784
13317.6961406
13268.3596325
13221.050371
13175.7647617
13132.4988628
13091.2484479
13052.0090651
13014.7760945
12979.5448028
12946.3103957
12915.0680674
12885.8130481
12858.5406481
12833.2463005
12809.9256
12788.5743397
12769.1885452
12751.7645056
12736.2988023
12722.7883346
12711.2303425
12701.622424
12693.9625761
12688.2489654
12684.484781
12682.6299905
19646.4920523
19637.0491288
19617.8244162
19588.8343203
19550.4252332
19503.0063837
19447.0610087
19383.1263271
19311.774519
19233.5955969
19149.1827898
19059.120773
18963.9767173
18864.2938959
18760.5874749
18653.3420787
18543.0107379
18430.0148688
18314.7449943
18197.5619665
18078.7985106
17958.7609471
17837.7309934
17715.9675706
17593.7085657
17471.1725171
17348.560204
17226.0561284
17103.8298863
16982.0374303
16860.8221565
16740.3173354
16620.6450038
16501.9157997
16384.2326098
16267.690305
16152.3762628
16038.3709741
15925.748572
15814.5773071
15704.9199811
15596.8343399
15490.3734315
15385.585932
15282.5164438
15181.2057679
15081.6911541
14984.0065308
14888.1827176
14794.2476213
14702.2264184
14612.1417244
14524.0137528
14437.8604635
14353.6977028
14271.5393348
14191.3973671
14113.2820686
14037.2020832
13963.1645372
13891.1751432
13821.2382988
13753.3571824
13687.5338451
13623.7692995
13562.0636053
13502.4159525
13444.8247418
13389.2876621
13335.8017658
13284.3635422
13234.9689877
13187.6136739
13142.2928143
13099.0013272
13057.7338977
13018.4850364
12981.2491363
12946.0205271
12912.7935274
12881.5624937
12852.321868
12825.0662217
12799.7902982
12776.4890518
12755.1576843
12735.7916794
12718.3868335
12702.9392847
12689.4455382
12677.9024898
12668.3074427
12660.658149
12654.9525744
12651.1937716
12649.3417744
19766.1099179
19755.9229427
19735.174852
19703.9088177
19662.537163
19611.5488681
19551.51732
19483.0740906
19406.8845891
19323.6269055
19233.9744992
19138.582934
19038.0803893
18933.0614213
18824.0833604
18711.6647426
18596.2852367
18478.3866235
18358.3744674
18236.620213
18113.463503
17989.2145767
17864.1566486
17738.5482042
17612.6251709
17486.6029433
17360.6782525
17235.0308776
17109.825208
16985.2116474
16861.3280169
16738.3021076
16616.2496154
16495.2749006
16375.4751507
16256.9395503
16139.7498953
16023.9812487
15909.7024828
15796.9767656
15685.8619996
15576.411217
15468.6729377
15362.6914934
15258.5073218
15156.157234
15055.67466
14957.0898715
14860.4301885
14765.7201682
14672.9817812
14582.2345735
14493.4958193
14406.7806625
14322.1022502
14239.4718592
14158.8990143
14080.3916025
14003.9559801
13929.5970764
13857.3184925
13787.1225965
13719.0106152
13652.9827228
13589.0381264
13527.1751491
13467.3913106
13409.683405
13354.0475768
13300.4793943
13248.9739214
13199.5257864
13152.1292493
13106.778267
13063.4665559
13022.187653
12982.934974
12945.70187
12910.4816812
12877.2677887
12846.053664
12816.8329158
12789.5993343
12764.3469332
12741.0699893
12719.7630788
12700.4211115
12683.0393625
12667.6135004
12654.1396132
12642.6142322
12633.0343476
12625.3974526
12619.7013009
12615.9487979
12614.1000466
19896.161737
19885.1124191
19862.5944998
19828.6867545
19783.8851865
19728.780562
19664.0599684
19590.471993
19508.7953265
19419.8126803
19324.290538
19222.964602
19116.5302241
19005.63688
18890.8857346
18772.8294448
18651.9734947
18528.7785148
18403.66317
18277.0073241
18149.1552746
18020.4189235
17891.0807991
17761.3968803
17631.5992002
17501.8982209
17372.4849846
17243.5330484
17115.2002166
16987.6299371
16860.954483
16735.2943758
16610.7569242
16487.4406633
16365.4362162
16244.8263625
16125.6867284
16008.0864241
15892.088591
15777.7508911
15665.1259452
15554.2617262
15445.2019127
15337.9862066
15232.6506213
15129.227741
15027.7469577
14928.2346864
14830.7145624
14735.2076224
14641.7324713
14550.305437
14460.9407146
14373.6505007
14288.4451194
14205.333142
14124.3214991
14045.4155884
13968.6193763
13893.9354966
13821.3653442
13750.9091661
13682.5661492
13616.3345048
13552.2115517
13490.1937956
13430.2770074
13372.4562985
13316.7261951
13263.0807096
13211.5134105
13162.0174904
13114.5858322
13069.2110727
13025.8856652
12984.6019395
12945.3521595
12908.1285797
12872.9234984
12839.7293099
12808.5385528
12779.3439576
12752.1384907
12726.9153967
12703.6682375
12682.3909291
12663.0777761
12645.7235028
12630.3232823
12616.8727622
12605.3680882
12595.8059211
12588.1834799
12582.498294
12578.7531123
12576.9081104
20037.5084265
20025.4568276
20000.8721219
19963.8813912
19915.087983
19855.2144968
19785.0930295
19705.6183127
19617.7070326
19522.2659164
19420.1685838
19312.2402949
19199.2491363
19081.9020861
18960.8445451
18836.6621824
18709.8842085
18580.9874335
18450.4006616
18318.5091256
18185.6587733
18052.1602956
17918.2928416
17784.3073969
17650.4298281
17516.8636059
17383.7922304
17251.3813833
17119.7808313
16989.126034
16859.5419634
16731.1406544
16604.020766
16478.2737837
16353.983053
16231.2243065
16110.0664137
15990.5720061
15872.798023
15756.7961979
15642.6134913
15530.2924761
15419.871682
15311.3859042
15204.8664797
15100.3415367
14997.8362208
14897.3728986
14798.9713447
14702.6489123
14608.4206899
14516.2996466
14426.2967666
14338.4211751
14252.6802565
14169.0797653
14087.6239321
14008.3155639
13931.1561404
13856.1459062
13783.2839597
13712.5683396
13643.9961077
13577.5634307
13513.2656585
13451.0974016
13391.0526059
13333.1246265
13277.3062988
13223.5900091
13171.9677621
13122.4312485
13074.971909
13029.5809982
12986.2496453
12944.9689143
12905.7298609
12868.5235889
12833.3413027
12800.1743595
12769.0143181
12739.8529859
12712.6824631
12687.4951849
12664.2839614
12643.0420137
12623.7630092
12606.4410926
12591.0709148
12577.6476597
12566.1670673
12556.6254504
12549.0197394
12543.3472287
12539.6104991
12537.7698037
20191.1470085
20177.929208
20150.9168535
20110.305153
20056.8368523
19991.4084368
19915.0392631
19828.8078367
19733.7991135
19631.0661186
19521.6045444
19406.3380514
19286.1116227
19161.6905253
19033.7629015
18902.9445056
18769.7845403
18634.7718946
18498.3413399
18360.8794229
18222.7299151
18084.1987594
17945.5585009
17807.0522231
17668.8970201
17531.287049
17394.396205
17258.3804645
17123.3798785
16989.5209622
16856.9200892
16725.6787036
16595.8866314
16467.6272273
16340.9758228
16216.0004545
16092.7626457
15971.3180241
15851.7168599
15734.0045428
15618.2220022
15504.40608
15392.5898606
15282.8029653
15175.0718146
15069.4198636
14965.8678131
14864.4338013
14765.1335768
14667.9806569
14572.9864728
14480.1605032
14389.510399
14301.0420984
14214.7599365
14130.6667478
14048.7639637
13969.0517057
13891.5288753
13816.1932398
13743.0415158
13672.0694503
13603.2718997
13536.6429067
13472.1757759
13409.8631471
13349.697068
13291.6690651
13235.7702131
13181.9912032
13130.3224097
13080.7539555
13033.275776
12987.8776812
12944.5494166
12903.2807221
12864.0613893
12826.8813169
12791.7305637
12758.5994002
12727.4783581
12698.3582763
12671.2303465