/*--------------------------------*- C++ -*----------------------------------*\
| =========                 |                                                 |
| \\      /  F ield         | OpenFOAM: The Open Source CFD Toolbox           |
|  \\    /   O peration     | Version:  v1906                                 |
|   \\  /    A nd           | Web:      www.OpenFOAM.com                      |
|    \\/     M anipulation  |                                                 |
\*---------------------------------------------------------------------------*/
FoamFile
{
    version     2.0;
    format      ascii;
    class       volVectorField;
    location    "130";
    object      Ua;
}
// * * * * * * * * * * * * * * * * * * * * * * * * * * * * * * * * * * * * * //

dimensions      [0 1 -1 0 0 0 0];


internalField   nonuniform List<vector> 
9216
(
(-0.00833098144174 0.00824829593097 0)
(-0.00656922418248 0.0206160049077 2.53011102797e-27)
(-0.00678437864358 0.0352613969409 -4.81205172285e-31)
(-0.0068451659225 0.04928745962 0)
(-0.00683235306538 0.0633785282498 0)
(-0.00679820888994 0.0773871872258 0)
(-0.00674056421434 0.0912762786238 0)
(-0.00667778713532 0.105008624038 0)
(-0.00659534108993 0.118561352954 0)
(-0.00651106869127 0.131904493777 0)
(-0.00640641071456 0.145017546279 0)
(-0.00630130408821 0.157872452919 0)
(-0.00617450669036 0.170448901264 0)
(-0.00604813480577 0.182720000168 0)
(-0.00589872639121 0.194665191203 0)
(-0.00575027661323 0.2062581938 0)
(-0.00557747141571 0.217477864509 0)
(-0.00540586091419 0.228298221872 0)
(-0.00520862491734 0.238697316643 0)
(-0.0050125281251 0.248649042619 0)
(-0.00478958586039 0.258130117542 0)
(-0.00456743033402 0.267114286325 0)
(-0.0043173319803 0.275576666631 0)
(-0.00406765881236 0.283490515814 0)
(-0.00378922683835 0.290829805384 0)
(-0.00351077217179 0.297567302911 0)
(-0.0032030499612 0.30367606894 0)
(-0.00289505768772 0.309128794926 0)
(-0.00255788201259 0.313898166359 0)
(-0.00222060908711 0.317958044356 0)
(-0.00185502348703 0.32128165579 0)
(-0.00149018303569 0.323845558464 0)
(-0.00109882686496 0.325625167016 0)
(-0.000710197516657 0.326601070323 0)
(-0.000298351841229 0.326754515786 0)
(0.000107747488003 0.326072214061 0)
(0.000532376077038 0.324542965009 0)
(0.000946766068189 0.322163382644 0)
(0.00137339726676 0.318932589174 0)
(0.0017838831608 0.314859889343 0)
(0.00219884173801 0.309957758646 0)
(0.0025906325457 0.304250654752 0)
(0.00297815881039 0.297766689866 0)
(0.0033348281384 0.290546821944 0)
(0.00367793701711 0.282635813408 0)
(0.00398263754276 0.274091772561 0)
(0.00426513930322 0.264975260938 0)
(0.004502794703 0.255359305522 0)
(0.00471110394656 0.24531781684 0)
(0.00487025904602 0.234935008445 0)
(0.00499551874622 0.224293251535 0)
(0.00507036294851 0.213482086302 0)
(0.00511019076244 0.202585814485 0)
(0.00510192168469 0.191692068293 0)
(0.00506117688806 0.18087983374 0)
(0.004978168469 0.170227474708 0)
(0.00486856004279 0.159801760627 0)
(0.00472519365789 0.149665708666 0)
(0.00456317788084 0.139869115351 0)
(0.00437709201179 0.130456419595 0)
(0.00418088488723 0.12145876336 0)
(0.00397001334362 0.112901890429 0)
(0.0037567008009 0.104799646991 0)
(0.00353668398597 0.0971615211927 0)
(0.00332034565358 0.0899872651535 0)
(0.00310342292176 0.0832737482505 0)
(0.00289450802872 0.0770103800985 0)
(0.00268933128705 0.0711850632942 0)
(0.00249499976893 0.065780363179 0)
(0.00230726582761 0.0607783649615 0)
(0.00213185006455 0.0561574595379 0)
(0.00196449036505 0.051896834078 0)
(0.0018098463292 0.0479732677803 0)
(0.0016637718826 0.044364997265 0)
(0.00153012780028 0.0410489375962 0)
(0.0014049111371 0.0380037936335 0)
(0.00129129868596 0.0352076791332 0)
(0.00118534340868 0.0326407230179 0)
(0.00108905662919 0.03028361941 0)
(0.000996041237752 0.0281215046196 0)
(0.000898278440995 0.0261542782752 0)
(0.000761838314343 0.0242949102941 0)
(0.000649423903142 0.0226776482528 0)
(0.000651476263287 0.0215368551583 0)
(0.000704612586252 0.0202611770961 0)
(0.000689504272302 0.0187690801196 0)
(0.000605461870643 0.0173462901062 0)
(0.00051738227607 0.016274062383 0)
(0.000589425875408 0.01538473859 0)
(0.000733727417121 0.014081688389 0)
(0.000786177060114 0.0126721381857 0)
(0.000845088382603 0.0110333342452 0)
(0.00102280708922 0.00912961271192 0)
(0.00118829344072 0.00695261209999 0)
(0.00132324108046 0.00424988058078 0)
(0.0013852314072 0.00133393956185 0)
(-0.0208366579213 0.00651688047675 0)
(-0.0216991677409 0.0215463325602 0)
(-0.0219611728673 0.0370443723007 -2.60071185282e-27)
(-0.0219460392759 0.0522231431525 0)
(-0.0218281843641 0.0672596555448 0)
(-0.0216560553527 0.0821635708483 0)
(-0.0214246781746 0.0969221696549 0)
(-0.0211609952726 0.111509922606 0)
(-0.0208446558693 0.125903224396 0)
(-0.0205023916789 0.140074517337 0)
(-0.0201079979828 0.153999893468 0)
(-0.0196910852537 0.167652372482 0)
(-0.0192214509592 0.181008348865 0)
(-0.0187316815065 0.19404142383 0)
(-0.0181882735495 0.206727962201 0)
(-0.0176263941246 0.219042026975 0)
(-0.0170096383785 0.230959688314 0)
(-0.0163752496159 0.242454952092 0)
(-0.01568448617 0.253503237208 0)
(-0.0149761029859 0.264078199809 0)
(-0.0142095753818 0.274154064054 0)
(-0.0134248097785 0.283704002139 0)
(-0.0125800295237 0.292701067738 0)
(-0.011716127046 0.301117292546 0)
(-0.0107907670477 0.308924588186 0)
(-0.00984542401545 0.316094191924 0)
(-0.00883785480117 0.322597173117 0)
(-0.00781011121563 0.328404519087 0)
(-0.00672075985752 0.333487008133 0)
(-0.00561234714446 0.337816397563 0)
(-0.00444496945598 0.341364339447 0)
(-0.00326185737824 0.344104443392 0)
(-0.00202534798423 0.346011516628 0)
(-0.000779768960293 0.347063402114 0)
(0.000509719404758 0.347239900498 0)
(0.00179807796831 0.346525728123 0)
(0.00311649131967 0.34490888762 0)
(0.00441905845657 0.342384286052 0)
(0.00573317888389 0.338951140337 0)
(0.0070123380592 0.334617694265 0)
(0.00828019896657 0.329397715105 0)
(0.00949041483432 0.323315407058 0)
(0.0106634689091 0.316401749104 0)
(0.0117542529712 0.308698987196 0)
(0.0127808768899 0.300255980747 0)
(0.01370093215 0.29113312492 0)
(0.0145317160728 0.28139707805 0)
(0.0152352053254 0.271124535107 0)
(0.0158292573682 0.260396810644 0)
(0.016281932415 0.249302935086 0)
(0.0166131859243 0.237933664707 0)
(0.0167986740073 0.226384032669 0)
(0.0168615045253 0.214746950175 0)
(0.01678542107 0.203115638595 0)
(0.0165969701665 0.191577033123 0)
(0.0162874998902 0.180214197518 0)
(0.0158861525394 0.169100720508 0)
(0.0153901454173 0.158302815247 0)
(0.0148292317368 0.147875172948 0)
(0.0142037363018 0.137863373741 0)
(0.0135415530935 0.128301338609 0)
(0.0128435890939 0.119214559001 0)
(0.0121341490744 0.110618000263 0)
(0.0114130302609 0.102519696569 0)
(0.0107002674855 0.0949194848804 0)
(0.00999407656683 0.0878122403635 0)
(0.00931037512649 0.0811866410342 0)
(0.00864585779387 0.0750281788655 0)
(0.00801293112997 0.0693182678508 0)
(0.00740707965917 0.064036656519 0)
(0.00683763752304 0.0591606315729 0)
(0.00629919742808 0.054666988305 0)
(0.00579864316835 0.0505311605427 0)
(0.00532994468666 0.0467291738785 0)
(0.0048983449794 0.043236674184 0)
(0.00449750160885 0.0400303922052 0)
(0.0041315582255 0.0370871292132 0)
(0.00379435747913 0.0343843488128 0)
(0.00348851882692 0.0318989112088 0)
(0.00320538173869 0.0296062749032 0)
(0.00293849382799 0.0274731516409 0)
(0.00264559235531 0.0254319511677 0)
(0.0023543915016 0.0232541513738 0)
(0.0021945050295 0.0214363064289 0)
(0.00217107506227 0.0199146613199 0)
(0.00211126577148 0.0184774604365 0)
(0.00178426835072 0.0169258831807 0)
(0.00153939517048 0.0160063583931 0)
(0.00169393417264 0.014819174034 0)
(0.00207224793409 0.0139165811746 0)
(0.00232932580094 0.012832255744 0)
(0.0026253927273 0.0110774023891 0)
(0.00305038767472 0.00912593952001 0)
(0.00390823382744 0.00736371730319 0)
(0.00478877956624 0.00472297075993 0)
(0.00419239413676 0.00125898676617 0)
(-0.0357159728465 0.00677304935103 0)
(-0.0373885758448 0.0219695527936 0)
(-0.0373091711832 0.0372222893604 -2.60409107103e-27)
(-0.0371317801183 0.052466111823 0)
(-0.0368868153773 0.0675850591819 0)
(-0.0365757801315 0.0825735776731 0)
(-0.0361917948836 0.0974129535806 0)
(-0.0357454576323 0.112079328509 0)
(-0.035228755674 0.126548612956 0)
(-0.0346534268516 0.140794948978 0)
(-0.0340092057593 0.154793628677 0)
(-0.0333088507354 0.168518872221 0)
(-0.0325402666456 0.181946197612 0)
(-0.0317171915533 0.195050255175 0)
(-0.0308259444857 0.207806952823 0)
(-0.0298809230872 0.220190786874 0)
(-0.0288669828534 0.232177625118 0)
(-0.0277990474156 0.243742078993 0)
(-0.0266605907032 0.254859215318 0)
(-0.0254668095568 0.265503185018 0)
(-0.0242001921742 0.275648096862 0)
(-0.0228762069638 0.285267151095 0)
(-0.0214766406397 0.294333229841 0)
(-0.0200173036423 0.302818579382 0)
(-0.01847994899 0.310694587555 0)
(-0.0168809066596 0.317932559191 0)
(-0.0152023703069 0.324502953527 0)
(-0.0134614942003 0.3303762291 0)
(-0.0116417288783 0.335522552047 0)
(-0.00976153839734 0.339912698987 0)
(-0.00780623248417 0.343517908802 0)
(-0.00579627238609 0.346310288806 0)
(-0.00371996384454 0.34826392054 0)
(-0.0016003388449 0.349354610903 0)
(0.000570638197826 0.349561306392 0)
(0.00276686927902 0.348866736923 0)
(0.00499192102004 0.347257793426 0)
(0.00721633600947 0.344727223527 0)
(0.00943917029067 0.341273524555 0)
(0.0116277793525 0.336902796764 0)
(0.0137769072592 0.331628500199 0)
(0.0158516148539 0.325473235754 0)
(0.0178436646448 0.318468409564 0)
(0.0197176043368 0.310654906122 0)
(0.0214639098699 0.30208353157 0)
(0.0230486775617 0.292814194894 0)
(0.0244636153437 0.282916363424 0)
(0.025679376781 0.272467601034 0)
(0.026691648337 0.261553026309 0)
(0.0274785428573 0.250263978213 0)
(0.0280423565858 0.238695283846 0)
(0.0283710386802 0.226945396411 0)
(0.0284756907882 0.215112002846 0)
(0.0283552365731 0.203291586777 0)
(0.0280298468929 0.19157568461 0)
(0.0275087697838 0.180050078715 0)
(0.0268195709771 0.1687915744 0)
(0.0259790805199 0.157867779524 0)
(0.0250186789127 0.147334766599 0)
(0.0239581058422 0.137237886002 0)
(0.0228276078418 0.127610643607 0)
(0.021645369042 0.11847671274 0)
(0.0204373738716 0.10984977156 0)
(0.0192177624357 0.101735590406 0)
(0.0180068789464 0.0941323529152 0)
(0.0168143319414 0.0870326244295 0)
(0.0156550703155 0.0804236535699 0)
(0.0145346117947 0.0742890083046 0)
(0.0134633002707 0.0686088226814 0)
(0.0124432294957 0.0633611388872 0)
(0.0114808322053 0.0585220804622 0)
(0.0105754459014 0.054066739493 0)
(0.0097305603017 0.0499706199262 0)
(0.00894343062236 0.046207908 0)
(0.00821555951184 0.0427549389592 0)
(0.00754323109485 0.0395874799448 0)
(0.00692702502267 0.0366822698267 0)
(0.0063637040866 0.0340167861925 0)
(0.00585461713908 0.0315678787307 0)
(0.00539970741837 0.0293101305953 0)
(0.00500972543258 0.0272078698491 0)
(0.00468411039819 0.0251783305012 0)
(0.00427528156828 0.0230189462009 0)
(0.00391400275506 0.0213644260458 0)
(0.00369900600675 0.0197910579027 0)
(0.0034990515772 0.018293151412 0)
(0.00318661866524 0.0172708188274 0)
(0.00281614353329 0.0154804578534 0)
(0.00270216538477 0.0139134350455 0)
(0.00308450613139 0.0131567881826 0)
(0.00400717164584 0.0126963847716 0)
(0.00436555677556 0.010178226556 0)
(0.00524751397365 0.00860400373353 0)
(0.0063547161613 0.00640375711373 0)
(0.0072471009651 0.00391607589001 0)
(0.00693590249681 0.00119265561852 0)
(-0.0500970653346 0.0068894622339 0)
(-0.0528882463818 0.0221874216472 0)
(-0.0527714676308 0.0374317683703 2.60374001524e-27)
(-0.0524964323553 0.0527380005249 0)
(-0.0521333903903 0.0679321962682 0)
(-0.0516807926107 0.0830008797039 0)
(-0.0511346237193 0.0979203892926 0)
(-0.0504983405312 0.112666189966 0)
(-0.0497695816133 0.127213552466 0)
(-0.0489530851522 0.141537062357 0)
(-0.048046029309 0.155611752983 0)
(-0.0470535414818 0.169412425669 0)
(-0.045972051942 0.182914408718 0)
(-0.0448067875942 0.196093016199 0)
(-0.0435531426901 0.208923705579 0)
(-0.0422161921988 0.22138201714 0)
(-0.040790476339 0.233443546978 0)
(-0.0392806206945 0.245083515915 0)
(-0.0376801170815 0.256277053039 0)
(-0.0359932026882 0.266998722225 0)
(-0.0342125754374 0.277222663865 0)
(-0.0323421746855 0.286922400162 0)
(-0.0303742585447 0.296070564651 0)
(-0.0283128370766 0.304639452784 0)
(-0.0261502677068 0.312600363433 0)
(-0.0238910272693 0.319923962162 0)
(-0.0215281744179 0.326580396884 0)
(-0.0190674040545 0.332539238583 0)
(-0.0165034088014 0.337770293401 0)
(-0.0138437888879 0.342242718536 0)
(-0.0110857481705 0.345926569495 0)
(-0.00823988180956 0.34879255856 0)
(-0.00530718425359 0.350812744969 0)
(-0.00230231097252 0.351961244296 0)
(0.000768921699827 0.352214751433 0)
(0.00388684498446 0.35155350611 0)
(0.00703988055237 0.349962373742 0)
(0.0102028158245 0.347431079381 0)
(0.0133579445662 0.343956215 0)
(0.0164746065185 0.339541453011 0)
(0.01952991469 0.334199169454 0)
(0.0224890025634 0.327949539609 0)
(0.0253250636536 0.320823456364 0)
(0.0280012566955 0.312861312635 0)
(0.0304896439659 0.304114426843 0)
(0.0327546789433 0.294644295048 0)
(0.0347711040335 0.284522258375 0)
(0.036508619889 0.273829123376 0)
(0.0379485833254 0.26265377336 0)
(0.0390703788883 0.251092096101 0)
(0.0398662446369 0.23924509778 0)
(0.0403285959382 0.22721611337 0)
(0.0404634691149 0.21510953181 0)
(0.0402785177864 0.203027683517 0)
(0.0397943729284 0.191068144653 0)
(0.0390330081685 0.179321565829 0)
(0.0380270743604 0.167869082961 0)
(0.0368089158105 0.156780852309 0)
(0.0354177134887 0.146114423644 0)
(0.0338891235957 0.135914899572 0)
(0.0322612352444 0.126214538845 0)
(0.0305659862737 0.117034430485 0)
(0.0288352642713 0.108385517611 0)
(0.0270940259206 0.100270216706 0)
(0.0253663526618 0.0926837849398 0)
(0.0236698532326 0.0856157181604 0)
(0.0220213794043 0.0790506686683 0)
(0.0204322577818 0.0729695508254 0)
(0.018913273737 0.0673502277702 0)
(0.0174704773935 0.0621685881039 0)
(0.0161096118309 0.0573989436304 0)
(0.0148323788494 0.0530149890238 0)
(0.0136404892394 0.0489902867997 0)
(0.0125322936059 0.0452983734866 0)
(0.0115069772896 0.0419146187123 0)
(0.0105615086227 0.0388144794368 0)
(0.00969414610386 0.0359750944979 0)
(0.00890205776158 0.033374939375 0)
(0.00818499969756 0.0309940051079 0)
(0.00754439735662 0.0288167354415 0)
(0.00699231688856 0.0268166167261 0)
(0.00654813264931 0.0248624088846 0)
(0.00618213886118 0.0233120938178 0)
(0.00569595201329 0.0215748517912 0)
(0.00528085739604 0.0197841100232 0)
(0.00495503980917 0.0183316886458 0)
(0.00461415982526 0.0168520502161 0)
(0.00424248944139 0.0149704341475 0)
(0.00424108962751 0.0138712222775 0)
(0.00432316370703 0.0120492584479 0)
(0.00507994898533 0.0105911753282 0)
(0.00658253819496 0.00978244722587 0)
(0.00715040492168 0.00717468718914 0)
(0.00838911927825 0.00513805742445 0)
(0.00964966908922 0.00322305611606 0)
(0.00957228569042 0.00105642521816 0)
(-0.0647187593974 0.0069564806626 0)
(-0.0684321799362 0.0223897112063 0)
(-0.0682953822686 0.0377084951229 0)
(-0.0679366620113 0.0531087728496 0)
(-0.0674612779443 0.0684030895677 0)
(-0.0668699240426 0.0835752135624 0)
(-0.0661607612082 0.0985988765758 0)
(-0.0653349798461 0.113448506279 0)
(-0.0643923465143 0.128098661278 0)
(-0.0633352011429 0.14252396272 0)
(-0.0621635658613 0.156699298236 0)
(-0.0608799843088 0.17059969133 0)
(-0.0594841631069 0.184200653525 0)
(-0.0579782876905 0.197477592902 0)
(-0.0563613223413 0.210406467582 0)
(-0.054634940115 0.222963166878 0)
(-0.0527971071755 0.235123619509 0)
(-0.0508486332445 0.246863554456 0)
(-0.0487864030231 0.258158423 0)
(-0.0466103358256 0.268983272394 0)
(-0.0443163807902 0.279312314145 0)
(-0.0419038902856 0.28911925804 0)
(-0.0393683965205 0.298377091682 0)
(-0.0367090690175 0.307057677939 0)
(-0.0339215043007 0.315132291936 0)
(-0.0310053893587 0.322570829047 0)
(-0.0279573025203 0.329343203128 0)
(-0.0247784269302 0.335417838253 0)
(-0.0214672870673 0.340763328424 0)
(-0.0180274599334 0.345347743096 0)
(-0.0144607017423 0.349139238314 0)
(-0.0107745403135 0.352106414899 0)
(-0.00697530948292 0.354219180556 0)
(-0.00307597078024 0.355448453781 0)
(0.000910844093102 0.355768198008 0)
(0.00496531686325 0.355155386945 0)
(0.00906723835043 0.353591386881 0)
(0.0131892634174 0.35106308876 0)
(0.0173033283991 0.347563659158 0)
(0.0213742552326 0.343093251942 0)
(0.0253669184119 0.337661070534 0)
(0.0292401276913 0.331286211165 0)
(0.0329534546119 0.323997891666 0)
(0.0364624101081 0.315836316629 0)
(0.0397252778847 0.306853419665 0)
(0.0426985415889 0.29711163473 0)
(0.0453438958532 0.286685502128 0)
(0.0476241868461 0.275659746136 0)
(0.0495100876786 0.264128663125 0)
(0.0509768463597 0.252194600898 0)
(0.0520099756658 0.23996588976 0)
(0.0526021632742 0.227554493681 0)
(0.0527579508544 0.215073540615 0)
(0.0524902427516 0.20263350916 0)
(0.0518241034117 0.19034058576 0)
(0.0507919895303 0.178292598547 0)
(0.0494361470366 0.166576703747 0)
(0.0478033299883 0.155266977675 0)
(0.0459450939953 0.144422704318 0)
(0.0439122724034 0.134088531261 0)
(0.0417542797169 0.124294160798 0)
(0.0395156552275 0.115057134646 0)
(0.037236702436 0.106383980509 0)
(0.0349512590295 0.0982724641236 0)
(0.0326886976333 0.0907134782695 0)
(0.0304727039402 0.0836925738518 0)
(0.0283232481355 0.0771905323679 0)
(0.0262557446598 0.071184967309 0)
(0.0242827242555 0.0656508295738 0)
(0.0224125005164 0.0605609472319 0)
(0.0206510582391 0.055887113413 0)
(0.0190009427903 0.0516006528235 0)
(0.0174630410534 0.047673476202 0)
(0.016035465226 0.044077838675 0)
(0.0147156077956 0.0407875322807 0)
(0.0134996037406 0.0377777907464 0)
(0.0123834071803 0.0350254405507 0)
(0.0113629697715 0.0325100474337 0)
(0.0104356955381 0.0302122425853 0)
(0.00960061395733 0.0281170387321 0)
(0.00886635764449 0.0261844069627 0)
(0.0082259480292 0.024234949981 0)
(0.00771923117062 0.0226531916845 0)
(0.00729017387352 0.0212521049852 0)
(0.00692128634732 0.0198131569011 0)
(0.00663174748421 0.0184436645554 0)
(0.00649202517978 0.0169666942088 0)
(0.00616038245959 0.015006443171 0)
(0.00571838956968 0.0125541165361 0)
(0.00597598593775 0.0111743018419 0)
(0.00640342119916 0.00918342279061 0)
(0.00802223865365 0.00819718208366 0)
(0.00984127210812 0.00671893376498 0)
(0.0104029011227 0.00431469037989 0)
(0.0112352923854 0.00256437496562 0)
(0.0112082048889 0.000855228553809 0)
(-0.0794879751377 0.00701577842242 0)
(-0.0840853571946 0.0226085874192 0)
(-0.0839299072778 0.0380468201589 0)
(-0.0834922197753 0.0535745705283 0)
(-0.0829073360137 0.068997559905 0)
(-0.0821786756189 0.0842996685628 0)
(-0.0813059948995 0.0994534441549 0)
(-0.0802901682394 0.114432569753 0)
(-0.0791320045417 0.129211154159 0)
(-0.0778333064873 0.143763605474 0)
(-0.0763952824864 0.15806471559 0)
(-0.0748199480741 0.172089675998 0)
(-0.0731082582742 0.185814070864 0)
(-0.0712617306489 0.199213747941 0)
(-0.0692806514821 0.21226502942 0)
(-0.0671656873983 0.224944320419 0)
(-0.0649158824566 0.237228066048 0)
(-0.062530679954 0.249092662191 0)
(-0.0600077421413 0.260513948058 0)
(-0.0573452184377 0.27146747456 0)
(-0.054539622384 0.281927953536 0)
(-0.0515882966134 0.291869439656 0)
(-0.0484870934888 0.301264786861 0)
(-0.045232902236 0.310086004521 0)
(-0.0418215868735 0.318303805662 0)
(-0.0382506858663 0.325887832809 0)
(-0.0345172668266 0.332806945188 0)
(-0.0306204507162 0.339028894453 0)
(-0.0265596069984 0.344520736414 0)
(-0.0223367201031 0.349248794012 0)
(-0.0179548094154 0.353179250811 0)
(-0.0134206592985 0.356277721809 0)
(-0.00874298386269 0.358511065329 0)
(-0.00393534285182 0.359847132067 0)
(0.000985686005134 0.360255763056 0)
(0.0059978577239 0.35970994488 0)
(0.0110750686778 0.358186802006 0)
(0.0161852666594 0.355667608418 0)
(0.021292287396 0.352142006536 0)
(0.0263538747678 0.347605825712 0)
(0.0313241044654 0.342065176289 0)
(0.0361523867533 0.335535863911 0)
(0.0407863050987 0.32804556129 0)
(0.0451704882456 0.319632918287 0)
(0.0492500755623 0.310350357649 0)
(0.0529704911266 0.300262784526 0)
(0.0562807236461 0.289447808334 0)
(0.0591337092327 0.277995659688 0)
(0.0614895144198 0.266006804364 0)
(0.0633162757387 0.253592366484 0)
(0.0645932296658 0.240870497406 0)
(0.0653110315871 0.227964122575 0)
(0.0654740373481 0.214998030898 0)
(0.0650993196913 0.202094346457 0)
(0.0642181615667 0.189370415126 0)
(0.0628739109336 0.176934440393 0)
(0.0611212574057 0.164881244379 0)
(0.0590232381828 0.153290881875 0)
(0.0566471773752 0.142224292922 0)
(0.0540606174586 0.131724968823 0)
(0.0513279737829 0.121819533369 0)
(0.0485062251668 0.112518862132 0)
(0.0456450701888 0.103823280123 0)
(0.042786460818 0.0957243351587 0)
(0.0399650614664 0.0882070444169 0)
(0.0372095502518 0.0812517080068 0)
(0.0345436193478 0.0748351503784 0)
(0.0319855211341 0.068930051448 0)
(0.0295496942663 0.063507782828 0)
(0.0272461951066 0.0585375800802 0)
(0.0250813967304 0.0539879714012 0)
(0.0230578372535 0.0498274780455 0)
(0.0211753436161 0.0460252276592 0)
(0.0194311401469 0.0425518191005 0)
(0.0178205959244 0.0393794303493 0)
(0.016337862475 0.0364825635925 0)
(0.0149767138082 0.0338386867732 0)
(0.0137307138682 0.0314275534931 0)
(0.0125948174514 0.0292314996041 0)
(0.0115670160582 0.0272426520908 0)
(0.0106576818709 0.0253897783706 0)
(0.00987998693048 0.0234973970232 0)
(0.00939271901929 0.0222646103593 0)
(0.00871378202247 0.0204524878807 0)
(0.00833414816707 0.0189718350789 0)
(0.00817007548524 0.0176117520043 0)
(0.00785912624337 0.0156019625612 0)
(0.00793801641551 0.0142387129916 0)
(0.00801163219918 0.012623283523 0)
(0.00834042890861 0.0109861048672 0)
(0.0080969100392 0.00827158836615 0)
(0.00908261772999 0.00656240415354 0)
(0.0114143401434 0.00565755683496 0)
(0.012474209532 0.00392912911826 0)
(0.0128419027465 0.00222562413015 0)
(0.0128708601238 0.000742063638731 0)
(-0.0944134795232 0.00707760199457 0)
(-0.0998868990545 0.0228582757708 0)
(-0.0997098680853 0.038448381321 2.62173767686e-27)
(-0.0991933230357 0.0541342255293 0)
(-0.098499456464 0.069714762584 0)
(-0.0976336325438 0.0851742619961 0)
(-0.0965966141925 0.100484822093 0)
(-0.0953896837942 0.115619686765 0)
(-0.0940143289347 0.130552559749 0)
(-0.0924725422796 0.145257626694 0)
(-0.0907663058401 0.159709579545 0)
(-0.0888978544217 0.173883771846 0)
(-0.0868688580357 0.187755843925 0)
(-0.0846810513391 0.201302213013 0)
(-0.0823353935642 0.214499706589 0)
(-0.0798323197689 0.227325253266 0)
(-0.0771712970091 0.239756101834 0)
(-0.0743511466025 0.251769307651 0)
(-0.0713695224638 0.263341609811 0)
(-0.0682235542366 0.274449148286 0)
(-0.064909366559 0.285067169422 0)
(-0.0614228908992 0.295170243509 0)
(-0.0577592191284 0.304731232133 0)
(-0.0539136362558 0.313722061107 0)
(-0.0498812413922 0.322113133115 0)
(-0.0456580719641 0.329873808994 0)
(-0.0412404558386 0.336971941211 0)
(-0.036626079168 0.343374102873 0)
(-0.0318137400216 0.349045989328 0)
(-0.0268042289069 0.353951503289 0)
(-0.0216005807474 0.358054260212 0)
(-0.0162091918761 0.361317169824 0)
(-0.0106398892403 0.363703154462 0)
(-0.00490707890193 0.365176067739 0)
(0.000969978941278 0.365700366399 0)
(0.00696611901756 0.365244447783 0)
(0.0130506894449 0.363778869682 0)
(0.019185925886 0.361280025466 0)
(0.0253277502109 0.357731241725 0)
(0.0314256314862 0.353123633709 0)
(0.0374234276339 0.34745857329 0)
(0.0432594832518 0.340747360103 0)
(0.0488687166499 0.333014943133 0)
(0.0541829669858 0.324299127106 0)
(0.0591334466496 0.314652563452 0)
(0.0636519845425 0.30414147816 0)
(0.0676737089438 0.292847889289 0)
(0.0711388918254 0.280867781877 0)
(0.0739958654392 0.268310636495 0)
(0.0762034089007 0.255298209965 0)
(0.0777332332137 0.241960603346 0)
(0.0785724167945 0.228435191849 0)
(0.0787251530573 0.214861842336 0)
(0.0782123729222 0.201377790769 0)
(0.0770730493813 0.188115631299 0)
(0.075362134965 0.175196156411 0)
(0.0731504705623 0.162726849694 0)
(0.0705195130494 0.150793790984 0)
(0.0675585958241 0.139462154975 0)
(0.0643556781122 0.128772430243 0)
(0.0609911251425 0.11874256299 0)
(0.0575368187919 0.10937759419 0)
(0.0540515248 0.100667134497 0)
(0.0505845403844 0.0925950058865 0)
(0.0471758150809 0.0851391962525 0)
(0.0438573135318 0.0782729838056 0)
(0.0406559681637 0.0719679344472 0)
(0.0375928873016 0.0661922580702 0)
(0.0346843833568 0.0609125634019 0)
(0.0319412808174 0.0560931848105 0)
(0.0293702069128 0.0516989925192 0)
(0.0269733307891 0.0476948713316 0)
(0.0247490420946 0.0440469318549 0)
(0.0226927365753 0.0407232472103 0)
(0.0207974377864 0.0376944778483 0)
(0.0190542744517 0.0349337174661 0)
(0.0174541849349 0.0324183318258 0)
(0.0159873377727 0.030128348801 0)
(0.014644576191 0.0280483087639 0)
(0.0134190286968 0.0261738361661 0)
(0.0123276741611 0.0243930538816 0)
(0.0114347065693 0.0226616092528 0)
(0.0109899263888 0.0215249265338 0)
(0.010443964973 0.0199083220868 0)
(0.00997848826486 0.0182872085237 0)
(0.00983634799113 0.0167878176777 0)
(0.0096614067903 0.0151016605411 0)
(0.00943189846289 0.0132004720114 0)
(0.00978662511522 0.0117549722683 0)
(0.00996078054819 0.00963688492279 0)
(0.0107206813698 0.00810240257826 0)
(0.0107479624083 0.00575700193408 0)
(0.0120763448785 0.00443705599644 0)
(0.0139690130862 0.00343973991462 0)
(0.0142379337639 0.00194961653384 0)
(0.014303376137 0.000650862081631 0)
(-0.109513876802 0.00714636672761 0)
(-0.11586730603 0.0231447360753 0)
(-0.115666275079 0.0389146631169 -2.62132353835e-27)
(-0.115069772193 0.0547883186599 0)
(-0.1142662258 0.0705549525954 0)
(-0.113262379778 0.0861996541592 0)
(-0.11205973689 0.101694164567 0)
(-0.110660084153 0.117011401899 0)
(-0.109065483845 0.13212466463 0)
(-0.107278477764 0.147007892941 0)
(-0.105301799833 0.161635738689 0)
(-0.103138177012 0.1759834725 0)
(-0.100790139806 0.190027158759 0)
(-0.098259970055 0.203743700492 0)
(-0.0955490722766 0.217110373442 0)
(-0.0926582143566 0.230105139283 0)
(-0.0895870183599 0.242706116585 0)
(-0.086334031939 0.254891377124 0)
(-0.082896529141 0.26663864038 0)
(-0.0792707867442 0.277924898135 0)
(-0.0754521249294 0.288726299162 0)
(-0.0714350592344 0.299017672695 0)
(-0.0672133991771 0.308772396647 0)
(-0.0627809166149 0.317962103807 0)
(-0.0581315270242 0.326557324907 0)
(-0.0532596152568 0.334526661788 0)
(-0.0481601579509 0.341837076566 0)
(-0.0428292881027 0.348454156157 0)
(-0.0372643527292 0.354341207902 0)
(-0.031464888243 0.359460549714 0)
(-0.0254330800903 0.363772614829 0)
(-0.0191746228575 0.367236741723 0)
(-0.012699261946 0.369811806644 0)
(-0.00602197021192 0.37145565573 0)
(0.0008361901532 0.372128334417 0)
(0.00784762950597 0.371790100693 0)
(0.0149772182878 0.37040529536 0)
(0.0221812749272 0.367943318202 0)
(0.0294082658378 0.364380378714 0)
(0.0365985795484 0.35970009785 0)
(0.0436851643491 0.353897613644 0)
(0.050594091043 0.346979793282 0)
(0.0572462697897 0.338967292339 0)
(0.0635591180106 0.329896331156 0)
(0.0694481681177 0.319818112249 0)
(0.0748293972193 0.308801946286 0)
(0.0796218459794 0.296933692869 0)
(0.0837507021677 0.284316932223 0)
(0.0871496334924 0.271070424017 0)
(0.0897653784098 0.257328931269 0)
(0.0915607866721 0.243239356634 0)
(0.0925173396043 0.228955823076 0)
(0.0926384819342 0.214637897096 0)
(0.0919489453714 0.200442191592 0)
(0.090496384773 0.186520573649 0)
(0.0883486836067 0.173011989211 0)
(0.0855953441127 0.160039249265 0)
(0.0823451639586 0.147701861379 0)
(0.0787127352397 0.136063178164 0)
(0.0748124614653 0.125160772592 0)
(0.0707456553809 0.115003042206 0)
(0.0665988377541 0.105581533675 0)
(0.0624403765124 0.0968730683725 0)
(0.0583252731663 0.0888505541617 0)
(0.0542959303596 0.0814814093184 0)
(0.0503882474789 0.0747340009424 0)
(0.0466303568818 0.0685722647711 0)
(0.043046489662 0.0629601075785 0)
(0.0396538926659 0.057857469123 0)
(0.036464789077 0.0532244134177 0)
(0.0334856018003 0.0490208516185 0)
(0.0307167084915 0.0452064446769 0)
(0.0281550513996 0.0417444006045 0)
(0.0257934420145 0.038599722673 0)
(0.0236216962935 0.0357407885341 0)
(0.0216276622488 0.0331394813708 0)
(0.019798164824 0.0307715987352 0)
(0.0181197448648 0.0286176858118 0)
(0.0165782979282 0.0266614763165 0)
(0.0151621928951 0.0249029539267 0)
(0.0138838513912 0.0231310888239 0)
(0.0130062719997 0.0216598231699 0)
(0.0124091252794 0.0202416674256 0)
(0.0118372571796 0.0186331835558 0)
(0.0115883812359 0.0173739387663 0)
(0.011360786907 0.015760645671 0)
(0.011523860761 0.0144762171096 0)
(0.01149226674 0.012672672077 0)
(0.0116416744982 0.0108380388164 0)
(0.0116581434957 0.00873049861712 0)
(0.0121032040503 0.00702015507711 0)
(0.0130264720901 0.0055714213095 0)
(0.0132319246146 0.00379044347458 0)
(0.0152850249688 0.00293280760855 0)
(0.0154748794191 0.00175445622483 0)
(0.0154942362273 0.000564184203594 0)
(-0.124812805244 0.00722280368281 0)
(-0.13205515057 0.0234710640507 0)
(-0.13182861377 0.039447987815 0)
(-0.131150727196 0.0555380083278 0)
(-0.130236253418 0.0715193091545 0)
(-0.129092957559 0.0873772270795 0)
(-0.1277228376 0.103083234811 0)
(-0.126128192868 0.118609792069 0)
(-0.124311716705 0.133929785821 0)
(-0.122276668883 0.149016852985 0)
(-0.120026609075 0.163845465734 0)
(-0.117565131896 0.178390944308 0)
(-0.114895744193 0.192629725586 0)
(-0.112021422384 0.206539073863 0)
(-0.108944437836 0.220097278551 0)
(-0.105665986178 0.233283288424 0)
(-0.102185908342 0.246076449257 0)
(-0.0985025591668 0.258456150159 0)
(-0.0946127244885 0.270401402788 0)
(-0.0905117993195 0.281890354298 0)
(-0.0861939518907 0.292900329572 0)
(-0.0816520736289 0.303406566055 0)
(-0.0768783876451 0.313382954052 0)
(-0.0718650156371 0.322801342981 0)
(-0.0666041982339 0.331631955393 0)
(-0.0610884677236 0.339842828299 0)
(-0.0553110055397 0.347400321543 0)
(-0.0492658381445 0.35426810098 0)
(-0.042948601762 0.360408341832 0)
(-0.0363569116596 0.365780727904 0)
(-0.029491220637 0.370342494292 0)
(-0.0223557609251 0.374049295033 0)
(-0.0149592402039 0.376854130141 0)
(-0.00731648179054 0.37871027747 0)
(0.000550907716866 0.379569109535 0)
(0.00861315822814 0.379383816888 0)
(0.0168309420859 0.378110374836 0)
(0.0251552064919 0.37570934526 0)
(0.0335269177738 0.372146789351 0)
(0.0418767350481 0.367398778201 0)