/*--------------------------------*- C++ -*----------------------------------*\
| =========                 |                                                 |
| \\      /  F ield         | OpenFOAM: The Open Source CFD Toolbox           |
|  \\    /   O peration     | Version:  v1906                                 |
|   \\  /    A nd           | Web:      www.OpenFOAM.com                      |
|    \\/     M anipulation  |                                                 |
\*---------------------------------------------------------------------------*/
FoamFile
{
    version     2.0;
    format      ascii;
    class       surfaceScalarField;
    location    "720";
    object      phi;
}
// * * * * * * * * * * * * * * * * * * * * * * * * * * * * * * * * * * * * * //

dimensions      [0 3 -1 0 0 0 0];
oriented        oriented;


internalField   nonuniform List<scalar> 
18240
(
-0.00019990223352
0.000199887253244
-0.000409275884479
0.000209357126029
-0.000617260935201
0.000207969780335
-0.000822229346159
0.000204951370175
-0.00102312441184
0.000200880061693
-0.00121902218878
0.0001958802276
-0.00140909477885
0.000190057720547
-0.00159262823545
0.00018351533245
-0.00176899908981
0.000176356049296
-0.00193770093491
0.000168683082218
-0.00209831173826
0.000160596019778
-0.00225052124153
0.000152190030834
-0.0023940881875
0.000143552135217
-0.00252887007983
0.000134761631435
-0.00265477217841
0.000125887227915
-0.00277178208379
0.000116988769339
-0.0028799121839
0.000108115131775
-0.00297924113994
9.93068472436e-05
-0.00306985071675
9.05944951773e-05
-0.00315187563691
8.20017255904e-05
-0.00322543483881
7.35439825913e-05
-0.00329069068513
6.52314287132e-05
-0.00334777404561
5.7068002076e-05
-0.00339685365928
4.9053803728e-05
-0.00343805390962
4.11847333924e-05
-0.00347153521486
3.34538922581e-05
-0.00349740310428
2.58522206525e-05
-0.0035158008191
1.83684460852e-05
-0.00352680802859
1.09913768447e-05
-0.00353054727425
3.7078353417e-06
-0.00352707041002
-3.49281987903e-06
-0.00351648054409
-1.06237086598e-05
-0.00349880461255
-1.76919604999e-05
-0.00347413373283
-2.47074062936e-05
-0.0034424792304
-3.16704484092e-05
-0.00340393321837
-3.85853842026e-05
-0.00335850610247
-4.54427865511e-05
-0.0033063094987
-5.22388496795e-05
-0.00324737290891
-5.89516671181e-05
-0.00318185021187
-6.5567704767e-05
-0.00310981321218
-7.2051178842e-05
-0.00303148206476
-7.8378692829e-05
-0.00294699387859
-8.45010649454e-05
-0.00285665688859
-9.0386794843e-05
-0.0027606926664
-9.59754592311e-05
-0.00265951405022
-0.000101230445013
-0.00255344038088
-0.000106082877937
-0.0024430001137
-0.000110493927295
-0.00232861869355
-0.00011438819919
-0.00221094717426
-0.000117726603827
-0.00209052174168
-0.000120429044788
-0.00196811764722
-0.00012245976267
-0.00184437727695
-0.000123740035198
-0.00172018471984
-0.000124247485787
-0.00159626049223
-0.000123918976765
-0.00147355156677
-0.000122761467118
-0.00135279791919
-0.000120742689897
-0.00123493744538
-0.00011790906687
-0.00112065617696
-0.000114264439682
-0.00101080978529
-0.000109889836406
-0.000905974393272
-0.000104813087068
-0.00080687993452
-9.91314757626e-05
-0.000713963824906
-9.28884640287e-05
-0.000627788293222
-8.62046901705e-05
-0.00054860122812
-7.9154689098e-05
-0.000476712508209
-7.19095681647e-05
-0.000412066474021
-6.46103979616e-05
-0.000354613200014
-5.74669280504e-05
-0.000303959737463
-5.06165498193e-05
-0.000259751961578
-4.4215997991e-05
-0.000221385273337
-3.83301012777e-05
-0.000188356497242
-3.30329531011e-05
-0.00016000233363
-2.83187653623e-05
-0.00013580854679
-2.41946104932e-05
-0.000115172906637
-2.060158138e-05
-9.76714834177e-05
-1.74994828304e-05
-8.28346595874e-05
-1.48042985295e-05
-7.0359494893e-05
-1.24712219526e-05
-5.98880173697e-05
-1.04408157479e-05
-5.11864628613e-05
-8.69631948656e-06
-4.39614552298e-05
-7.19628250348e-06
-3.80323686237e-05
-5.92292366737e-06
-3.31757681212e-05
-4.82978189178e-06
-2.92933449751e-05
-3.87595929623e-06
-2.634562376e-05
-2.92279113147e-06
-2.39223585151e-05
-2.41425763531e-06
-2.17126646892e-05
-2.1843345408e-06
-1.98447434344e-05
-1.8538269573e-06
-1.80222398249e-05
-1.79364915869e-06
-1.60682404291e-05
-1.93148256094e-06
-1.40550776311e-05
-1.97703487477e-06
-1.1968430439e-05
-2.05231818553e-06
-9.55398598513e-06
-2.37211609875e-06
-6.62696328282e-06
-2.87716268869e-06
-3.20978384983e-06
-3.35645575555e-06
-3.17954669435e-06
-0.000211490402432
0.000411361872556
-0.000435583765438
0.000433433483954
-0.000657462847673
0.000429832437119
-0.000875878664052
0.000423350146152
-0.00108982753425
0.000414812416279
-0.00129836280822
0.000404398236704
-0.00150061766505
0.000392295910999
-0.00169583131398
0.000378711389431
-0.00188334863039
0.000363856499113
-0.00206263016887
0.000347946635973
-0.00223323987551
0.000331188602898
-0.00239484954489
0.000313781258182
-0.00254721933677
0.000295904492463
-0.00269020019213
0.000277723520202
-0.00282371003888
0.000259379268285
-0.00294773693229
0.000240996101293
-0.00306231313074
0.000222673099428
-0.0031675209799
0.000204494466018
-0.00326346612824
0.000186520927049
-0.0033502873433
0.000168801958948
-0.00342812926569
0.000151366646862
-0.00349715671058
0.00013423704456
-0.0035575267278
0.000117418143431
-0.00360940760661
0.000100911888673
-0.0036529496529
8.47062079503e-05
-0.00368830906794
6.87894046828e-05
-0.00371561670495
5.31384806558e-05
-0.00373500713643
3.77336950752e-05
-0.00374658462295
2.25465767938e-05
-0.00375045787199
7.55443536407e-06
-0.0037467026542
-7.27135151239e-06
-0.00373540347385
-2.19511814952e-05
-0.00371661165706
-3.65081803725e-05
-0.00369039428584
-5.0954840938e-05
-0.00365678761238
-6.53026294759e-05
-0.00361585479845
-7.95500722333e-05
-0.00356763338003
-9.3690708548e-05
-0.00351220234456
-0.000107703485777
-0.0034496225752
-0.000121558743074
-0.00338001346194
-0.00013521194585
-0.00330348489099
-0.000148607546411
-0.0032202229734
-0.000161676962066
-0.00313041202183
-0.000174339950969
-0.00303432864346
-0.000186507385601
-0.0029322524599
-0.00019807932314
-0.00282456820185
-0.000208952468139
-0.00271166475156
-0.000219013453619
-0.00259404603126
-0.000228150689225
-0.00247221882138
-0.000236241539203
-0.00234681385708
-0.000243169320157
-0.00221846226041
-0.000248805037448
-0.00208792591316
-0.000253032617871
-0.00195595905066
-0.000255728485856
-0.0018234424476
-0.000256798112672
-0.00169122506868
-0.000256153908949
-0.00156025727633
-0.000253759304632
-0.00143141554242
-0.000249596777104
-0.00130563850914
-0.000243711142469
-0.00118374282449
-0.000236166903027
-0.00106657128385
-0.000227081035364
-0.000954816214542
-0.000216569202015
-0.000849187441396
-0.000204773520156
-0.000750235430864
-0.000191835246872
-0.000658503763474
-0.00017794226681
-0.000574357525696
-0.000163289434797
-0.000498085268492
-0.000148180717029
-0.000429702883057
-0.000132976231453
-0.000369079452191
-0.0001180839131
-0.000315825568625
-0.000103850786066
-0.000269468806075
-9.05629566185e-05
-0.000229383178434
-7.83946492671e-05
-0.000194949348417
-6.74549200361e-05
-0.000165481787865
-5.77645717871e-05
-0.000140364347341
-4.92986046431e-05
-0.000118982544391
-4.19612511207e-05
-0.00010083890701
-3.56283234152e-05
-8.54785461028e-05
-3.01424914736e-05
-7.25594661973e-05
-2.53749985228e-05
-6.17480033494e-05
-2.1230728348e-05
-5.27684826087e-05
-1.76604531551e-05
-4.53371298963e-05
-1.4606835068e-05
-3.92275181014e-05
-1.2017161876e-05
-3.42066324894e-05
-9.83080420306e-06
-3.00699730511e-05
-7.99766897769e-06
-2.6491511763e-05
-6.48265760819e-06
-2.34990810197e-05
-5.3908436974e-06
-2.11638858756e-05
-4.49942495242e-06
-1.92764681711e-05
-3.72207212393e-06
-1.75707455446e-05
-3.47574838228e-06
-1.58560211891e-05
-3.61965542097e-06
-1.39450643917e-05
-3.85561124509e-06
-1.18630411481e-05
-4.09948832497e-06
-9.56878583834e-06
-4.62452206952e-06
-6.80310852674e-06
-5.59339205865e-06
-3.34105005313e-06
-6.76400689318e-06
-6.49336405414e-06
-0.000214350734497
0.000625696608291
-0.000440727616862
0.000659793791792
-0.000665074016008
0.000654161967706
-0.000885879205074
0.000644138412819
-0.00110206127713
0.00063097756113
-0.00131263508124
0.000614954893078
-0.00151671582423
0.000596359546698
-0.00171353090573
0.000575509050903
-0.00190242498134
0.000552733208629
-0.00208286089324
0.000528364799075
-0.00225441519606
0.000502725220934
-0.00241677168385
0.000476119607686
-0.00256971117332
0.000448825915125
-0.0027131012729
0.00042109502862
-0.00284688378449
0.000393143271664
-0.00297106372704
0.00036515693471
-0.00308569683372
0.000337287190956
-0.00319087983479
0.00030965777177
-0.00328673943296
0.0002823609401
-0.00337342483077
0.000255467000247
-0.00345109862122
0.000229020204353
-0.00351993180453
0.000203049121998
-0.00358009642536
0.00017756179886
-0.00363176294952
0.000152556450006
-0.00367509419956
0.000128015646189
-0.00371024488549
0.000103917137813
-0.00373735635682
8.02271667071e-05
-0.00375655820655
5.69114449288e-05
-0.00376796344906
3.39279041145e-05
-0.00377167234599
1.12379147558e-05
-0.00376776776897
-1.12011164322e-05
-0.00375632157777
-3.34242655377e-05
-0.0037373900625
-5.54662811035e-05
-0.00371102345869
-7.73499205745e-05
-0.00367726131891
-9.90927913106e-05
-0.00363614564593
-0.000120695824262
-0.00358771596508
-0.000142149797834
-0.00353202635393
-0.000163424674273
-0.00346913959033
-0.000184476105993
-0.00339914783313
-0.000205236542529
-0.00332216470538
-0.000225622171743
-0.00323834874498
-0.000245526655853
-0.00314789192379
-0.000264828736507
-0.0030510446299
-0.00028338886678
-0.00294809920367
-0.000301056782743
-0.00283941569473
-0.000317670241196
-0.00272540017621
-0.000333060736719
-0.00260653212049
-0.000347052720324
-0.00248333896181
-0.00035946569519
-0.00235642740405
-0.000370113921861
-0.00222645536006
-0.000378806359428
-0.00209416724637
-0.000385351895336
-0.00196035876182
-0.000389563457166
-0.00182590877508
-0.000391275972497
-0.0016917275132
-0.000390357523322
-0.00155877672668
-0.000386733184016
-0.00142800396236
-0.000380386734045
-0.00130036013342
-0.000371372941229
-0.00117672303832
-0.00035981617525
-0.00105792843061
-0.000345888209008
-0.00094470710686
-0.000329797161235
-0.000837761042145
-0.000311725843201
-0.000737693360763
-0.00029190256353
-0.000645058873635
-0.000270576246269
-0.000560327701881
-0.000248013401693
-0.000483833730445
-0.000224667746784
-0.000415640777366
-0.000201156642582
-0.000355557402598
-0.000178155724578
-0.000303140159969
-0.000156252274732
-0.000257805311011
-0.000135883650659
-0.000218864191477
-0.000117318469214
-0.000185605898487
-0.00010069751187
-0.000157300261994
-8.60519950788e-05
-0.000133258325572
-7.33235070031e-05
-0.000112840151295
-6.2360145944e-05
-9.55138140062e-05
-5.29366620455e-05
-8.08521866798e-05
-4.47842993446e-05
-6.85380101468e-05
-3.767112843e-05
-5.82818615371e-05
-3.14674245967e-05
-4.98014398468e-05
-2.61229595225e-05
-4.28210305594e-05
-2.15682361039e-05
-3.71041060512e-05
-1.77163959855e-05
-3.24320639457e-05
-1.44844288017e-05
-2.86127657119e-05
-1.18002299932e-05
-2.54353402975e-05
-9.64242854802e-06
-2.27579406114e-05
-8.05051779322e-06
-2.03583835235e-05
-6.87897969812e-06
-1.81662745515e-05
-5.89355836073e-06
-1.64242329278e-05
-5.19433808952e-06
-1.5014020896e-05
-5.00255713451e-06
-1.31500757056e-05
-5.68732324813e-06
-1.08599038496e-05
-6.35419367633e-06
-8.40167470011e-06
-7.04337152101e-06
-5.63248973946e-06
-8.3179647847e-06
-2.86109537471e-06
-9.48805356046e-06
-9.33081384135e-06
-0.000217773138243
0.000843453638706
-0.000447505803179
0.000889509263344
-0.00067513148263
0.00088177073493
-0.000899040645481
0.000868030453659
-0.001118086301
0.000850006120227
-0.00133123771179
0.000828089046971
-0.00153758177478
0.000802686288056
-0.00173633145061
0.000774241225114
-0.00192683003458
0.000743214194929
-0.00210854915509
0.000710066106701
-0.00228108359998
0.000675241733739
-0.00244414132099
0.000639159142933
-0.00259753262556
0.000602198894217
-0.00274115633235
0.000564700114502
-0.00287498723455
0.000526955391067
-0.00299906182831
0.000489212408415
-0.00311346680439
0.000451672864601
-0.00321832641752
0.000414497698517
-0.00331379337422
0.000377808003046
-0.00340003864354
0.000341691941481
-0.00347724502879
0.000306206026981
-0.00354559938631
0.000271382420329
-0.00360528855425
0.000237229634628
-0.00365649357182
0.000203739566108
-0.00369938743872
0.000170887292993
-0.00373413089539
0.000138637713273
-0.00376087153575
0.000106944546273
-0.00377974086816
7.57567529771e-05
-0.00379085450426
4.50170733566e-05
-0.00379431047773
1.46685430423e-05
-0.00379019044496
-1.53469997426e-05
-0.00377855946589
-4.50820753313e-05
-0.00375946840826
-7.45847087333e-05
-0.0037329556513
-0.000103891111365
-0.00369905088719
-0.000133026525024
-0.00365777914626
-0.000161997630395
-0.00360916613361
-0.000190793333131
-0.00355324477867
-0.00021937762083
-0.00349006176048
-0.000247691017818
-0.00341968618967
-0.000275644973404
-0.00334221625568
-0.000303125003448
-0.00325778886515
-0.000329987730464
-0.00316658460129
-0.000356066399654
-0.00306883649662
-0.00038117093417
-0.00296483143135
-0.000405095231297
-0.00285491670058
-0.000427618777758
-0.00273949742572
-0.000448512972046
-0.00261904211973
-0.000467541218366
-0.00249407887609
-0.000484460865831
-0.00236520411847
-0.000499020396593
-0.00223308163059
-0.000510958869515
-0.0020984558922
-0.000520006852514
-0.00196214975907
-0.00052589647642
-0.00182507082984
-0.000528380408157
-0.00168818921727
-0.00052726153065
-0.00155252081533
-0.00052242204189
-0.00141908734993
-0.000513837268976
-0.00128890101663
-0.000501575206862
-0.00116289370358
-0.000485835734967
-0.00104192790059
-0.00046686537877
-0.000926730611398
-0.000445001118721
-0.000818032128067
-0.000420428816526
-0.000716460865266
-0.000393473649591
-0.000622612121152
-0.000364422190584
-0.000537122697344
-0.00033349615099
-0.000460469632748
-0.00030131180736
-0.000392771670834
-0.000268842806497
-0.000333756282962
-0.000237157970021
-0.000282842154957
-0.000207151587374
-0.000239282460283
-0.00017942822439
-0.000202262415711
-0.000154322091684
-0.00017095875996
-0.000131985013366
-0.000144551850005
-0.000112441188087
-0.000122260122508
-9.55976058218e-05
-0.000103375428868
-8.12259072087e-05
-8.73265129066e-05
-6.89663757226e-05
-7.37210975189e-05
-5.8370295294e-05
-6.23269903814e-05
-4.90462360371e-05
-5.29275611565e-05
-4.08478730381e-05
-4.52330779075e-05
-3.3798485231e-05
-3.89561005048e-05
-2.78262933801e-05
-3.38600935007e-05
-2.27938102933e-05
-2.97395936217e-05
-1.85866712057e-05
-2.64188447036e-05
-1.51033958002e-05
-2.37545692648e-05
-1.22892580367e-05
-2.12353996103e-05
-1.05506496737e-05
-1.8997147956e-05
-9.09642440903e-06
-1.70706736476e-05
-7.79799961861e-06
-1.51478783547e-05
-7.09278862094e-06
-1.31558517884e-05
-6.96745161211e-06
-1.1619936575e-05
-7.19281163704e-06
-9.44819898059e-06
-8.49128735961e-06
-6.82522095726e-06
-9.62867104284e-06
-4.5206925939e-06
-1.05841889562e-05
-2.32901604417e-06
-1.16390043161e-05
-1.1638208825e-05
-0.000222341357356
0.00106577861586
-0.000456745285903
0.00112389636587
-0.000688867095459
0.0011138752443
-0.000917002037884
0.00109614818496
-0.0011399285104
0.00107291524034
-0.001356558572
0.00104470168594
-0.00156594189093
0.0010120520666
-0.00176727352715
0.00097555518628
-0.00195989639143
0.000935819246745
-0.00214329696172
0.000893448693403
-0.00231709692147
0.000849023546241
-0.00248104027853
0.000803084148776
-0.00263497916058
0.000756119232109
-0.00277885747149
0.000708559645153
-0.00291269560708
0.000660774524305
-0.00303657464803
0.000613072177076
-0.00315062307186
0.000565701761894
-0.00325500360773
0.000518858402113
-0.00334990320002
0.000472687474258
-0.00343552306299
0.00042729133512
-0.003512071876
0.000382734038507
-0.00357975864793
0.000339047991499
-0.00363878851597
0.000296237917539
-0.00368935770712
0.000254286707446
-0.00373165120269
0.000213158285966
-0.00376583913918
0.000172802603125
-0.00379207576446
0.000133157592049
-0.00381049686852
9.41536388597e-05
-0.00382121974336
5.57151034085e-05
-0.00382434155035
1.77647676617e-05
-0.00381994031564
-1.97745317072e-05
-0.00380807446886
-5.69750493773e-05
-0.00378878521069
-9.39018829461e-05
-0.0037620977231
-0.000130607409923
-0.00372802539579
-0.000167128480714
-0.00368657326771
-0.000203480301854
-0.00363774451013
-0.000239653408619
-0.00358154644512
-0.000275607863294
-0.00351799917643
-0.000311271091196
-0.00344714382158
-0.000346533837814
-0.00336905221924
-0.00038125047514
-0.00328383586097
-0.000415238381349
-0.00319165442283
-0.000448282121853
-0.00309272275057
-0.000480137005218
-0.00298731539385
-0.000510536689474
-0.00287576920715
-0.000539198896952
-0.00275848306355
-0.00056583252433
-0.00263591721457
-0.000590139907861
-0.00250859285496
-0.00061181711115
-0.00237709582424
-0.000630548417571
-0.00224208437618
-0.00064599959516
-0.00210430464612
-0.00065781494844
-0.00196460279217
-0.000665624267954
-0.0018239349938
-0.000669072731683
-0.00168334966051
-0.000667868282285
-0.00154395284426
-0.000661837686442
-0.00140686347807
-0.000650943265535
-0.00127320763897
-0.000635245813682
-0.00114398155996
-0.000615075072661
-0.00102010479017
-0.000590752054194
-0.000902222141661
-0.000562891364993
-0.000791141932647
-0.000531511844738
-0.000687463214336
-0.000497151567105
-0.000591796679067
-0.0004600850742
-0.000505109357848
-0.000420176048299
-0.000428192028886
-0.000378219621418
-0.000361253447187
-0.000335769267965
-0.000303868100162
-0.000294529801809
-0.000255188838776
-0.00025581624244
-0.000214209521011
-0.000220391990547
-0.000179931181433
-0.000188584857821
-0.000151395706999
-0.000160503696892
-0.000127663738207
-0.000136156239657
-0.000107820733472
-0.000115422138438
-9.10364152989e-05
-9.79908603645e-05
-7.6665455127e-05
-8.33178092628e-05
-6.43725661936e-05
-7.06429769275e-05
-5.41281059297e-05
-5.92715758545e-05
-4.58639800002e-05
-4.90923257625e-05
-3.92363098166e-05
-4.04066541262e-05
-3.39018047269e-05
-3.31411709874e-05
-2.96328284086e-05
-2.70436449782e-05
-2.62376676204e-05
-2.19628707149e-05
-2.35489218557e-05
-1.77742705224e-05
-2.14669090448e-05
-1.43529951813e-05
-1.9528273092e-05
-1.24691999987e-05
-1.76179188401e-05
-1.09850577979e-05
-1.54241008934e-05
-9.9685833114e-06
-1.33663812966e-05
-9.12564583976e-06
-1.14145946282e-05
-8.89175064188e-06
-9.73402240231e-06
-8.84380890436e-06
-8.1563458356e-06
-1.00365029204e-05
-5.88323859633e-06
-1.18679261947e-05
-3.68816657701e-06
-1.27441416584e-05
-1.86236970492e-06
-1.34286804157e-05
-1.34828958916e-05
-0.000228198936215
0.00129396104224
-0.000468656143734
0.0013643358858
-0.000706581297012
0.00135178305569
-0.000940148053223
0.0013296973836
-0.0011680396971
0.00130078934171
-0.00138909692735
0.00126574124104
-0.00160232362066
0.00122526098689
-0.00180689482111
0.00118010847386
-0.00200215672985
0.00113106310232
-0.00218761923922
0.00107889298386
-0.00236294309113
0.00102432900823
-0.00252792283704
0.000968045309078
-0.00268246802596
0.000910645635666
-0.00282658337818
0.00085265598427
-0.00296034996223
0.00079452186555
-0.0030839073512
0.000736610062336
-0.00319743820636
0.000679212852464
-0.00330115453555
0.000622554668417
-0.00339528667695
0.000566799255006
-0.00348007377617
0.000512057732018
-0.00355575666559
0.000458395883461
-0.00362257167654
0.000405841561518
-0.00368074634413
0.0003543907439
-0.00373049545471
0.000304013512421
-0.00377201854362
0.000254658596403
-0.00380549728062
0.000206258012454
-0.00383109403053
0.000158730450775
-0.00384895004117
0.000111985111942
-0.00385918473648
6.59245959927e-05
-0.00386189458331
2.04486604739e-05
-0.00385715320503
-2.45426344272e-05
-0.00384501122839
-6.91445956475e-05
-0.0038254977148
-0.000113443826353
-0.00379862163614
-0.000157512836601
-0.00376437539397
-0.00020140498579
-0.00372273874721
-0.000245148143375
-0.00367368517904
-0.000288739062648
-0.00361718890053
-0.000332137087677
-0.00355323427854
-0.000375259405942
-0.00348182572803
-0.000417976743094
-0.00340299913868
-0.000460111843316
-0.00331683288959
-0.000501439713498
-0.00322345833548
-0.000541691760643
-0.0031230681236
-0.000580562196717
-0.0030159213702
-0.000617718061856
-0.00290234504635
-0.000652809386279
-0.00278273144584
-0.00068547961132
-0.00265753334689
-0.00071537051581
-0.00252726048673
-0.0007421214636
-0.00239248045889
-0.000765358288481
-0.00225383255388
-0.000784676400484
-0.0021120512543
-0.000799623441211
-0.00196800140136
-0.000809699957076
-0.00182270167127
-0.00081439610481
-0.00167731405941
-0.000813277276717
-0.00153307519278
-0.000806094734079
-0.00139122344565
-0.00079281157601
-0.00125309621294
-0.000773388424787
-0.0011197507461
-0.000748433551724
-0.000992264590709
-0.000718249994075
-0.000870935192291
-0.000684227736699
-0.00075685761968
-0.000645592180233
-0.000650399717008
-0.000603608762418
-0.000552020686086
-0.000558458725469
-0.000463416291348
-0.000508773310367
-0.00038604226862
-0.000455582472926
-0.00032025911032
-0.000401540173195
-0.000265308361468
-0.000349465827964
-0.000219840182412
-0.000301269067615
-0.000182431097894
-0.000257785267936
-0.000151850795301
-0.000219148571349
-0.000127020389014
-0.000185317302346
-0.000106865258696
-0.000156293283481
-9.02840306184e-05
-0.000131983565411
-7.6228357396e-05
-0.000112026698337
-6.38800077678e-05
-9.5643888883e-05
-5.29864649232e-05
-8.15160593584e-05
-4.39883923058e-05
-6.82489203031e-05
-3.71636840349e-05
-5.58969388578e-05
-3.19282510489e-05
-4.56212029006e-05
-2.77746816118e-05
-3.72742743079e-05
-2.45240973751e-05
-3.02740550502e-05
-2.20085417031e-05
-2.44588307672e-05
-2.0075463229e-05
-1.96886744387e-05
-1.8345553039e-05
-1.6063864141e-05
-1.67359821195e-05
-1.4058245257e-05
-1.52944722744e-05
-1.24042605447e-05
-1.39338151725e-05
-1.13050482565e-05
-1.22068033663e-05
-1.08257638783e-05
-1.02543409824e-05
-1.08159311439e-05
-8.10467195702e-06
-1.09654525647e-05
-6.57486886494e-06
-1.1536843394e-05
-5.14948860043e-06
-1.3261040397e-05
-3.25076995812e-06
-1.46119473244e-05
-1.62973844974e-06
-1.5018734548e-05
-1.50958040415e-05
-0.000235492510635
0.00152943665083
-0.000483498457318
0.00161232455058
-0.000728644182195
0.00159691093091
-0.000968942185217
0.00156997766568
-0.00120295472162
0.00153478399276
-0.00142943358238
0.00149220216056
-0.00164732855876
0.00144313789256
-0.00185579447244
0.00138855619202
-0.0020541879109
0.00132943819686
-0.00224205479904
0.0012667413676
-0.00241911152389
0.00120136705279
-0.00258522184824
0.00113413676251
-0.00274037218874
0.00106577689928
-0.00288464690316
0.000996911401574
-0.00301820530536
0.000928060733446
-0.00314126100959
0.000859645980837
-0.00325406441097
0.000791996196278
-0.00335688803178
0.000725357945294
-0.00345001496715
0.000659905534515
-0.00353372967711
0.000595751456885
-0.00360831117045
0.000532956029299
-0.0036740276706
0.000471536330526
-0.00373113287336
0.000411473789501
-0.00377986290279
0.000352720930952
-0.00382043424011
0.000295206815706
-0.00385304179957
0.0002388419136
-0.00387785761321
0.000183522001931
-0.00389502936711
0.000129131961332
-0.00390467944526
7.55490533727e-05
-0.00390690378268
2.26466263581e-05
-0.00390177140458
-2.97022139167e-05
-0.00388932399929
-8.16200562956e-05
-0.00386957661711
-0.000133220201564
-0.0038425188293
-0.000184600551348
-0.00380811769815
-0.000235837049295
-0.00376632172555
-0.000286976007229
-0.00371706729433
-0.000338026371808
-0.00366028651842
-0.00038895162948
-0.00359591784004
-0.000439662674217
-0.00352391798612
-0.000490011844912
-0.00344427583939
-0.00053978967686
-0.00335702656693
-0.000588724925672
-0.00326226497422
-0.000636489167718
-0.00316015658583
-0.000682706243026
-0.00305094351545
-0.000726966163292
-0.00293494527516
-0.000768842133094
-0.00281255150121
-0.000807906784228
-0.00268421094473
-0.00084374320934
-0.00255041906707
-0.000875944236951
-0.0024117133202
-0.000904093242265
-0.00226868864095
-0.000927729638222
-0.00212203834326
-0.000946300812493
-0.00197262404545
-0.000959140621591
-0.00182154141422
-0.000965503621147
-0.0016701239385
-0.000964716549784
-0.00151980146689
-0.000956435825664
-0.00137190203523
-0.000940728063328
-0.00122820810977
-0.000917099915838
-0.00108975384305
-0.000886903350318
-0.000958160580113
-0.000849855547805
-0.000832482980258
-0.000809913263553
-0.000714976889938
-0.000763100784377
-0.000605070061027
-0.000713510463862
-0.000502483599406
-0.000661041034566
-0.00041065879561
-0.000600584895468
-0.000332491335449
-0.000533740097259
-0.000268542578507
-0.000465471660068
-0.000217291031966
-0.000400703227166
-0.000176409897031
-0.000342130422263
-0.000143800885396
-0.000290378837707
-0.00011801466968
-0.000244914410685
-9.79660934908e-05
-0.000205349215669
-8.24732641696e-05
-0.000171764324224
-7.01694669299e-05
-0.00014426745736
-5.96078860777e-05
-0.000122563229094
-4.95418160796e-05
-0.000105688434053
-3.97451990609e-05
-9.12893673966e-05
-3.17994801829e-05
-7.61740334808e-05
-2.68628605105e-05
-6.08123606121e-05
-2.34894629765e-05
-4.89727411561e-05
-2.07397920009e-05
-4.00027078099e-05
-1.86737486556e-05
-3.23195750382e-05
-1.71797403708e-05
-2.59326583217e-05
-1.61089344741e-05
-2.07397867523e-05
-1.50217125695e-05
-1.71312204019e-05
-1.40993372498e-05
-1.49588054102e-05
-1.30111028026e-05
-1.34691756051e-05
-1.18390444397e-05
-1.24516038919e-05
-1.04340491426e-05
-1.22035049552e-05
-9.05256263975e-06
-1.21694816924e-05
-7.28863850252e-06
-1.27004740627e-05
-5.47356260209e-06
-1.33239498865e-05
-4.39716311991e-06
-1.43105152495e-05
-2.91791975217e-06
-1.60615890451e-05
-1.46519625904e-06
-1.64418646169e-05
-1.65466127482e-05
-0.000244396032792
0.00177381561377
-0.000501611288776
0.00186952144438
-0.000755540151005
0.00185082185723
-0.00100398898141
0.00181840831183
-0.00124536632366
0.00177614317914
-0.00147831557952
0.00172513312148
-0.00170172454952
0.00166652846831
-0.00191473087203
0.00160154397961
-0.00211671342401
0.00153140206931
-0.00230727262784
0.00145728172716
-0.00248620311686
0.00138027852238
-0.00265346227592
0.0013013767085
-0.00280913777392
0.0012214329806
-0.00295341647539
0.00114117046189
-0.00308655643512
0.00106118081905
-0.00320886288054
0.00098193229458
-0.00332066853921
0.000903781458155
-0.00342231815254
0.000826986865943
-0.00351415675809
0.000751723143221
-0.00359652113355
0.000678094492618
-0.003669733759
0.000606146961249
-0.00373409868309
0.000535879158117
-0.00378989873132
0.000467251322644
-0.0038373936199
0.000400192825372
-0.0038768185828
0.000334608284069
-0.00390838327036
0.000270382534422
-0.00393227068525
0.000207384749995
-0.00394863607857
0.000145472007832
-0.00395760572911
8.44926428989e-05
-0.0039592756732
2.42897136206e-05
-0.00395371050719
-3.52950717045e-05
-0.00394094246246
-9.4416701514e-05
-0.00392097109032
-0.000153221124405
-0.00389376382615
-0.00021183836783
-0.00385925806751
-0.000270374391233
-0.00381736490817
-0.00032890177729
-0.00376797543694
-0.000387449483269
-0.00371096940494
-0.00044599225386
-0.0036462271925
-0.00050444034476
-0.00357364432218
-0.000562630865883
-0.0034931487294
-0.000620321869581
-0.00340471924319
-0.000677191182802
-0.00330840376739
-0.000732841316395
-0.00320433445469
-0.000786811839294
-0.00309273655949
-0.000838599793448
-0.00297392797663
-0.000887685509987
-0.0028483068238
-0.000933561429906
-0.0027163287336
-0.000975753845406
-0.00257847692688
-0.00101382608509
-0.00243524430861
-0.00104735638809
-0.00228713781621
-0.0010758638587
-0.00213474877428
-0.0010987201957
-0.00197887571841
-0.00111504107057
-0.00182069752181
-0.00112370894137
-0.00166183972578
-0.0011235976084
-0.00150405545085
-0.00111424102068
-0.0013484880767
-0.00109631624503
-0.00119802687099
-0.0010675798105
-0.00105320105317
-0.00103174504133
-0.000917726470252
-0.000985340662367
-0.000786176365409
-0.00094146803942
-0.000665544249388
-0.000883723550545
-0.000551815214535
-0.000827228636173
-0.000442174426809
-0.000770668683118
-0.000344602593936
-0.000698138738311
-0.000265076155939
-0.000613250282011
-0.000204296919831
-0.000526233296219
-0.00015888065087
-0.000446098903884
-0.000124609658689
-0.000376385946397
-9.82659331493e-05
-0.000316699595556
-7.84265325664e-05
-0.000264737591282
-6.43537568426e-05
-0.000219400352794
-5.48815113858e-05
-0.000181214819569
-4.8237022022e-05
-0.000150889406923
-4.22879902005e-05
-0.000128487129167
-3.4670099509e-05
-0.000113286677095
-2.47659852576e-05
-0.000101170586315
-1.69652539843e-05
-8.39565085581e-05
-1.49249087805e-05
-6.28333353126e-05
-1.42810949987e-05
-4.95971949997e-05
-1.30409477353e-05
-4.12232393195e-05
-1.22477488085e-05
-3.30926217572e-05
-1.18969181878e-05
-2.62636247633e-05
-1.16740216195e-05
-2.09429849344e-05
-1.14651479523e-05
-1.73189299997e-05
-1.12750196162e-05
-1.5126212529e-05
-1.09110807986e-05
-1.38081462244e-05
-1.00975096065e-05
-1.32385014017e-05
-9.07959696499e-06
-1.31935133376e-05
-7.74971031829e-06
-1.34711010155e-05
-6.63162240856e-06
-1.37909615753e-05
-5.17034046106e-06
-1.47580412346e-05
-3.85544866932e-06
-1.559772085e-05
-2.76184079278e-06
-1.71286846063e-05
-1.36588080016e-06
-1.78113993759e-05
-1.78978387651e-05
-0.000255130831428
0.00202892884899
-0.000523431034258
0.00213780372289
-0.00078789527541
0.00211526751662
-0.00104606596622
0.00207656057985
-0.00129616024599
0.0020262188526
-0.00153669085818
0.00196564507538
-0.00176647771267
0.0018962965287
-0.00198464918362
0.00181969652938
-0.00219062551702
0.00173735932898
-0.00238408829554
0.00165072526842
-0.00256494128209
0.00156111209234
-0.00273326748727
0.00146968330417
-0.00288928660589
0.00137743228115
-0.00303331582256
0.00128517963893
-0.00316573589429
0.00119358061163
-0.00328696333774
0.0011031392067
-0.00339742879861
0.00101422611297
-0.00349756103863
0.000927098011851
-0.00358777574654
0.000841916439519
-0.00366846813493
0.000758765135779
-0.0037400084365
0.000677665145317
-0.00380273935586
0.00059858756701
-0.00385697485761
0.000521463871673
-0.00390299961775
0.000446194163677
-0.00394106882436
0.000372653539474
-0.00397140788426
0.000300697080786
-0.00399421194919
0.000230163668481
-0.00400964498018
0.000160879221488
-0.00401783845919