/*--------------------------------*- C++ -*----------------------------------*\
| =========                 |                                                 |
| \\      /  F ield         | OpenFOAM: The Open Source CFD Toolbox           |
|  \\    /   O peration     | Version:  v1906                                 |
|   \\  /    A nd           | Web:      www.OpenFOAM.com                      |
|    \\/     M anipulation  |                                                 |
\*---------------------------------------------------------------------------*/
FoamFile
{
    version     2.0;
    format      ascii;
    class       volScalarField;
    location    "215";
    object      p;
}
// * * * * * * * * * * * * * * * * * * * * * * * * * * * * * * * * * * * * * //

dimensions      [0 2 -2 0 0 0 0];


internalField   nonuniform List<scalar> 
9216
(
270.03428882
270.118088587
270.295258037
270.560532317
270.913400657
271.352143388
271.874540973
272.477992388
273.159539533
273.915970425
274.743815063
275.639454
276.599094585
277.618886281
278.694874442
279.823121677
280.999636751
282.22050271
283.481780154
284.779643962
286.110261261
287.469939227
288.854978745
290.261835666
291.686951292
293.126929183
294.578343823
296.037934405
297.502393102
298.968576732
300.433276412
301.893447583
303.345963285
304.787862097
306.216087996
307.627755538
309.019879766
310.389657095
311.734189552
313.050778831
314.336649475
315.589252635
316.805993202
317.984538439
319.122553992
320.218011531
321.268938323
322.273716721
323.2308506
324.13924843
324.99800719
325.806669189
326.565019981
327.273308658
327.93205319
328.542216857
329.10501553
329.622050606
330.095118403
330.526308494
330.917821252
331.272045393
331.591391356
331.878360317
332.135397278
332.36495887
332.569385916
332.750973828
332.911862899
333.054113324
333.179610894
333.29014634
333.38733313
333.472688962
333.547562301
333.613213588
333.670748079
333.721194995
333.76544533
333.804328207
333.838554155
333.868791059
333.895669553
333.919398435
333.939482922
333.956025771
333.969629653
333.980530285
333.988847708
333.994944253
333.999211012
334.002112177
334.004053794
334.005236428
334.005833379
334.006041966
269.950523495
270.034779669
270.210726418
270.476831743
270.831285266
271.272118588
271.797002753
272.403260755
273.087887307
273.84761307
274.678932056
275.578172108
276.541513645
277.565058955
278.644837221
279.776870317
280.957162216
282.18176128
283.446734018
284.748225299
286.082417529
287.445590824
288.834069129
290.244282428
291.672701386
293.115903411
294.57049726
296.033194391
297.500724899
298.969915282
300.437597157
301.90069207
303.356114526
304.800864756
306.231927886
307.646374888
309.041260094
310.413730538
311.760924158
313.080087222
314.368475587
315.623479284
316.842529028
318.023226212
319.163256528
320.260522839
321.313067209
322.31920318
323.277446369
324.186641272
325.045898187
325.854707348
326.612876196
327.320621351
327.978497668
328.58745975
329.148776835
329.664062753
330.135178312
330.564237704
330.953507386
331.30540239
331.622392602
331.907000207
332.161719209
332.389019049
332.591278197
332.770795725
332.929738529
333.070161722
333.193968283
333.302937148
333.398692317
333.482735663
333.55642213
333.620994456
333.677562085
333.727135906
333.770609328
333.808791518
333.842388712
333.872031461
333.898251418
333.921454406
333.941344212
333.957652757
333.970903245
333.981434744
333.989590683
333.995603086
333.999721268
334.002511074
334.004412888
334.005522489
334.006052178
334.006268679
269.77245462
269.85977609
270.037587281
270.306394607
270.66441506
271.109631708
271.639629696
272.251633523
272.942544089
273.708993318
274.54738774
275.453965141
276.4248323
277.456016179
278.543490692
279.683219679
280.871171168
282.1033521
283.375810663
284.684664259
286.02609151
287.396355569
288.791787723
290.208808101
291.643902648
293.093643011
294.554658422
296.02365613
297.497389468
298.972679996
300.446382985
301.915412161
303.376703836
304.827245341
306.264039233
307.684136307
309.084601485
310.462552356
311.815128429
313.139535846
314.43302147
315.692924006
316.916654038
318.101751098
319.245870234
320.346844016
321.402675739
322.411604628
323.372104886
324.282951088
325.143220082
325.952350361
326.710139421
327.416786594
328.072874513
328.67938463
329.237654606
329.749364283
330.216471358
330.641176607
331.025850442
331.372993113
331.685167365
331.964965691
332.21495578
332.437657908
332.635502965
332.81082027
332.965807907
333.102531774
333.222907913
333.328711142
333.421566174
333.502961719
333.574246442
333.636645402
333.691258388
333.739076982
333.780983745
333.817768405
333.850125905
333.878667257
333.903914096
333.926298921
333.94541816
333.961007362
333.973388844
333.983232474
333.991087637
333.996842044
334.000670617
334.003330532
334.005081785
334.006080864
334.006611618
334.006880383
269.503432363
269.592715893
269.773479838
270.046573248
270.410176688
270.862189618
271.400076548
272.020922849
272.721485448
273.498249947
274.347483893
275.265291887
276.247662027
277.290512402
278.389726041
279.541186266
280.740799163
281.984518223
283.268355578
284.588397888
285.940808557
287.321837289
288.727815569
290.155162116
291.600373597
293.060027756
294.530770889
296.009319999
297.492448245
298.976987188
300.459811279
301.937841165
303.408028285
304.867360357
306.312847349
307.741530315
309.150470243
310.536761532
311.897525219
313.229928246
314.531182364
315.798569885
317.02944904
318.221286275
319.371668267
320.478340342
321.539225013
322.552465801
323.516451856
324.429865608
325.291710973
326.101359462
326.858573442
327.563537753
328.216862476
328.819584174
329.37313621
329.879315331
330.340222672
330.758206736
331.135792243
331.475621471
331.780392342
332.052813232
332.295556755
332.511227841
332.702330029
332.871244781
333.020210166
333.151313231
333.266481946
333.367489047
333.455952775
333.53334625
333.601001835
333.660122423
333.711787187
333.756963381
333.796512463
333.831201497
333.861708842
333.888633437
333.912530985
333.933614497
333.951398807
333.965763325
333.977109324
333.986214419
333.99331183
333.998541417
334.002188885
334.004636111
334.00620025
334.007129987
334.007649425
334.007908718
269.141040095
269.232488034
269.417267612
269.696260737
270.067544242
270.528880246
271.077562475
271.710485146
272.424205575
273.21500905
274.078970559
275.01201387
276.009963586
277.068592239
278.18365855
279.350940621
280.566260258
281.825503536
283.124633392
284.459700334
285.826846241
287.22230819
288.642416215
290.083592714
291.542346298
293.015268599
294.499025732
295.990353759
297.486048837
298.982962281
300.477990333
301.968069702
303.450167869
304.921280209
306.378422089
307.818628851
309.238951239
310.636459802
312.008245292
313.351428957
314.663169293
315.94067923
317.181239981
318.382225358
319.54112276
320.655564423
321.723355473
322.742512293
323.711298173
324.628269182
325.492316842
326.302717365
327.059172433
327.761845217
328.411376646
329.008883827
329.555932446
330.054491069
330.506863494
330.915613136
331.283479851
331.613306782
331.907974809
332.170352044
332.403250389
332.609390912
332.791372517
332.951648117
333.092505521
333.216059236
333.324247668
333.418838902
333.501437523
333.573494751
333.636317382
333.6910785
333.738826759
333.78049721
333.816920549
333.848833892
333.876889843
333.901667231
333.923727563
333.943022738
333.959027862
333.971842461
333.981948014
333.990054632
333.996464505
334.001141608
334.004333173
334.006485478
334.007904837
334.008750581
334.009228917
334.009472043
268.683088303
268.777156423
268.967076016
269.2536781
269.634874819
270.108229289
270.670802315
271.319233528
272.049816604
272.858574723
273.741331955
274.693778843
275.71153002
276.79017359
277.925311363
279.112591069
280.347730303
281.626534174
282.94490647
284.298856652
285.684502183
287.09806856
288.535886052
289.99438558
291.470092155
292.959618424
294.459656256
295.966969085
297.47838252
298.990776235
300.501074332
302.006237484
303.503253831
304.989132409
306.460895785
307.915576187
309.350211566
310.761846228
312.147532243
313.504336433
314.829348789
316.119697085
317.372563126
318.585205237
319.754982166
320.879383126
321.956059336
322.982862482
323.957886137
324.87951598
325.7464841
326.557930533
327.313462195
328.013204537
328.657831642
329.248567805
329.787157216
330.275805477
330.717095058
331.113884185
331.469201597
331.786155328
332.06786089
332.317389398
332.537727348
332.731742714
332.902154095
333.051503899
333.182139133
333.296203956
333.395642791
333.482211899
333.557492665
333.622905137
333.679720146
333.729071346
333.771966432
333.809298588
333.841857452
333.87034056
333.895364305
333.917482057
333.937189752
333.954155199
333.968031351
333.979100827
333.987994389
333.995133986
334.000600791
334.004409738
334.00717473
334.00902408
334.010207148
334.011026987
334.011477131
334.011709311
268.126865052
268.224142906
268.420448102
268.716527158
269.110068353
269.59836755
270.178179191
270.845812859
271.597223744
272.428101928
273.333955254
274.310183556
275.352142158
276.455194391
277.614752869
278.826310748
280.085463685
281.387924345
282.729530343
284.10624747
285.514168791
286.949511175
288.408609418
289.887909199
291.383958632
292.893399443
294.412957238
295.939431796
297.469686686
299.000639103
300.5292493
302.052510449
303.567438418
305.071062576
306.560417129
308.032534359
309.484439413
310.913148127
312.315667618
313.689001027
315.030156045
316.336158208
317.604068334
318.831004471
320.014167596
321.150871309
322.238575227
323.274923808
324.257791554
325.185338868
326.056078869
326.86895707
327.623436471
328.319575796
328.958080918
329.540313306
330.068253288
330.544427007
330.971794621
331.353611653
331.693285769
331.994261357
332.259941606
332.493641735
332.698557191
332.877733648
333.034035391
333.170113288
333.288381247
333.391010581
333.479941299
333.556904669
333.623445627
333.680940595
333.730612525
333.773544209
333.810691049
333.842893278
333.870888117
333.895322475
333.916766148
333.935752789
333.952580847
333.966793026
333.978389165
333.987677546
333.995175065
334.001041677
334.005395777
334.008526139
334.010833717
334.012383451
334.013307021
334.01401221
334.014407748
334.014607081
267.469035461
267.570215399
267.774308533
268.081947652
268.490529923
268.997003758
269.597729194
270.288595213
271.065130156
271.922608487
272.856148004
273.860794308
274.931590975
276.063635007
277.252118461
278.49235758
279.779811439
281.11009195
282.478967248
283.882360051
285.316342488
286.77712845
288.261064356
289.764618915
291.284372268
292.817004799
294.359285678
295.908061284
297.460243378
299.012797177
300.56272924
302.107075336
303.642888264
305.167226234
306.677141803
308.169672373
309.641832369
311.090608475
312.512958007
313.905811912
315.266082193
316.590674895
317.876507788
319.120533199
320.319764431
321.471305977
322.57238661
323.620397664
324.61293872
325.547877895
326.423430942
327.238266352
327.991628061
328.683458975
329.314488528
329.8862506
330.401034899
330.861798013
331.272013759
331.63547272
331.956074942
332.23767948
332.484026313
332.698709132
332.885162543
333.046641365
333.186186078
333.306578066
333.410304859
333.499554565
333.576242175
333.642052146
333.698474527
333.746827087
333.788271106
333.823825869
333.854382117
333.880714884
333.903496145
333.923307688
333.940653375
333.95599855
333.969506506
333.980791755
333.989925774
333.99727761
334.003159732
334.007714685
334.011061958
334.013567463
334.015258281
334.016480543
334.017234453
334.017679701
334.018011097
334.018160592
266.705541123
266.811424459
267.024906515
267.346468174
267.773132464
268.301401594
268.927133009
269.645685029
270.452053316
271.341000148
272.307169008
273.345181214
274.449712895
275.615552907
276.83764317
278.111104087
279.431247708
280.79358157
282.19380564
283.627804601
285.09163708
286.581523177
288.093831066
289.625063343
291.171843322
292.730901525
294.299062266
295.873230349
297.450377655
299.027529541
300.60175101
302.170132477
303.729775317
305.277777425
306.81121924
308.327150781
309.822580597
311.294467472
312.739716076
314.15517741
315.537655117
316.883917831
318.190717951
319.454815428
320.673006025
321.842151296
322.959210644
324.02127503
325.025608398
325.969706055
326.851383951
327.668913665
328.421201922
329.107994741
329.730024379
330.289043256
330.787740981
331.229653339
331.618963204
331.960192429
332.257880935
332.516382202
332.739806305
332.932042355
333.096785758
333.237534225
333.357544974
333.459762627
333.546754378
333.620702008
333.683456403
333.736619685
333.781603515
333.819650341
333.851845131
333.879130103
333.902318531
333.92210754
333.939091166
333.953773238
333.966580186
333.977900043
333.987818225
333.995945716
334.002470404
334.007774899
334.011951064
334.015141481
334.017506965
334.01924597
334.020461141
334.021240769
334.021767261
334.021974299
334.022229045
334.022319751
265.831490171
265.943010515
266.16773561
266.505941537
266.954170462
267.508353084
268.16370868
268.914928979
269.756349029
270.682104873
271.686269398
272.762962473
273.906434633
275.111125691
276.371701561
277.683073049
279.040400927
280.439090965
281.874782414
283.343332416
284.840798468
286.363420127
287.90760098
289.469891152
291.046970694
292.635633673
294.232772915
295.835365072
297.440455752
299.045144365
300.646568524
302.24188773
303.828266242
305.402855578
306.962776787
308.505103489
310.026846334
311.524940518
312.996237308
314.437501577
315.845416028
317.21659363
318.547597487
319.834967696
321.07525198
322.265037207
323.400977965
324.479822032
325.498436752
326.453853599
327.343354724
328.164638769
328.916087004
329.597105881
330.208398232
330.752003248
331.231110645
331.650040515
332.013977229
332.328476794
332.598914375
332.830202543
333.026812585
333.192908859
333.332453623
333.449226661
333.546767379
333.628240929
333.69630458
333.753085512
333.800296088
333.839398462
333.871699882
333.898354146
333.920355401
333.938555153
333.953676309
333.966325115
333.97700474
333.986127724
333.994028483
334.000995807
334.007045157
334.011915008
334.01587169
334.019081
334.021493702
334.023243622
334.024521428
334.025455205
334.026206572
334.02666487
334.026842403
334.026868339
334.026988898
334.027032919
264.841021679
264.959280827
265.197428862
265.555462802
266.029304136
266.614149809
267.304408191
268.093934619
268.976247298
269.94472095
270.992747792
272.113862337
273.301830239
274.550704791
275.854856251
277.208980112
278.608090143
280.047501442
281.52280771
283.029855905
284.564720468
286.123678448
287.703186244
289.299858207
290.910447026
292.531825668
294.160970451
295.794944821
297.430883295
299.065975012
300.697446555
302.322543501
303.938510522
305.542570242
307.131901244
308.703615896
310.254739373
311.78219128
313.282771969
314.753155548
316.189891728
317.58941787
318.948081752
320.262173177
321.5279611
322.741728454
323.899799058
324.998546991
326.034395267
327.003818747
327.903397276
328.730000195
329.481160399
330.155698487
330.754247009
331.279256854
331.734497124
332.125337217
332.458437441
332.740890426
332.979172005
333.178758976
333.344373064
333.480366526
333.590945126
333.680227764
333.752150574
333.810218981
333.857204384
333.895079944
333.925272113
333.94900764
333.967474186
333.981739921
333.992694084
334.001083372
334.00752853
334.012531546
334.016492141
334.01971868
334.022439661
334.024824626
334.026862292
334.028455487
334.029787227
334.030791218
334.031437117
334.031857092
334.032139111
334.032304557
334.032421036
334.032498539
334.03245329
334.032292079
334.032227417
334.032230312
263.727132517
263.853450677
264.107624077
264.489266797
264.99349315
265.614553118
266.345821224
267.180102041
268.109905134
269.127683531
270.226023965
271.397786018
272.636193033
273.934881273
275.287916012
276.689783384
278.135366338
279.619911421
281.138991743
282.688469597
284.264461138
285.863304114
287.481529186
289.115834579
290.763063799
292.420185717
294.08427649
295.752502521
297.422103738
299.090376345
300.754654364
302.412289312
304.060627304
305.69698401
307.318617395
308.922699386
310.506287589
312.066299439
313.599490895
315.102443382
316.571561409
318.003084525
319.393113952
320.737653675
322.032659316
323.274085066
324.457911281
325.580138272
326.636732973
327.623545378
328.536265163
329.370549361
330.122523392
330.789951758
331.373379828
331.876002857
332.302045975
332.658269493
332.953609416
333.197627853
333.398260874
333.561361961
333.691588059
333.793261677
333.870779617
333.928682335
333.971523048
334.00341015
334.027295148
334.044785739
334.056715117
334.06391098
334.067483329
334.068467187
334.067624748
334.065580991
334.062845259
334.059800399
334.056731382
334.053831294
334.051214269
334.048950652
334.046945477
334.045249169
334.043890081
334.042683668
334.041678273
334.04085228
334.040183153
334.039584249
334.039099393
334.038678937
334.038378054
334.038089922
334.037822993
334.037756204
262.481452904
262.617437042
262.890791851
263.300600936
263.840919473
264.504766329
265.284191273
266.170675416
267.155483253
268.229956457
269.385736543
270.614916076
271.910125271
273.264565652
274.672004068
276.126740107
277.62355809
279.157672431
280.724672555
282.320471269
283.941258596
285.583461751
287.243711046
288.918811045
290.605716076
292.30150918
294.003383531
295.708625379
297.414597437
299.118721583
300.818459784
302.511292224
304.194691587
305.866093582
307.522863763
309.162261372
310.781402024
312.377221495
313.946444165
315.485560398
316.990817733
318.458231157
319.883615713
321.262642019
322.590908727
323.864014416
325.07760616
326.227357947
327.308848788
328.317330646
329.247431885
330.093074944
330.847938898
331.507724331
332.073091789
332.548915007
332.939033654
333.251939
333.500295656
333.69808377
333.855100702
333.976907332
334.067332156
334.130278549
334.17023857
334.192308725
334.202063359
334.204813174
334.203882979
334.200041917
334.192855113
334.182460736
334.170128892
334.157051083
334.143784202
334.13079699
334.118493161
334.107113584
334.096818841
334.087672402
334.079650405
334.072702938
334.066752852
334.06188768
334.057902727
334.054701818
334.052122756
334.050052804
334.048378317
334.047020439
334.045967027
334.045131745
334.044494281
334.044060267
334.043612038
334.043478572
261.093951526
261.241590443
261.538015258
261.981568427
262.564899803
263.279413941
264.115452486
265.06282412
266.11125678
267.250758174
268.471872142
269.765835438
271.12464903
272.54108323
274.008636972
275.521469646
277.074320442
278.66242598
280.28144328
281.927381695
283.596545213
285.285484743
286.990959298
288.709904444
290.439406608
292.176681762
293.919057386
295.663956401
297.408881798
299.151400447
300.889124357
302.619688039
304.34072018
306.049809658
307.744465361
309.422070825
311.079835154
312.714743351
314.323509927
315.90254213
317.447919677
318.95540044
320.420458718
321.838362803
323.204285115
324.513431048
325.761136252
326.942871534
328.054053709
329.089567728
330.04300919
330.905940638
331.667592828
332.319173443
332.862368762
333.306779675
333.65244415
333.909810549
334.098015971
334.240040086
334.347582772
334.423916531
334.47048631
334.490178702
334.487542701
334.468391442
334.439996048
334.410285342
334.38351861
334.358519162
334.332046036
334.302983528
334.273616525
334.245849943
334.219686303
334.195359921
334.173237737
334.153363507
334.135776968
334.120402462
334.107081003
334.09562179
334.085876367
334.078015505
334.071637856
334.066540459
334.062492019
334.059190518
334.05655015
334.054469904
334.0528575
334.0516196
334.050701563
334.050062204
334.049503804
334.049298479
259.552544371
259.714341346
260.038706827
260.522935492
261.157789787
261.932536543
262.835299941
263.853767981
264.975773751
266.189733835
267.484935
268.851683315
270.28134157
271.76628616
273.299813457
274.876021304
276.489684787
278.136139111
279.811176684
281.510961206
283.231958551
284.97088249
286.724652553
288.490361333
290.265248876
292.046682426
293.832140069
295.619197083
297.405513229
299.188819396
300.966900713
302.737574187
304.498658673
306.247936167
307.983104063
309.701718594
311.401131429
313.078421941
314.730330377
316.353199281
317.942933944
319.494995331
321.004441402
322.466029497
323.87438879
325.22424088
326.510627577
327.729020397
328.87512996
329.944183295
330.929341764
331.819508195
332.595612305
333.237550966
333.751807907
334.162264035
334.453015653
334.636452567
334.743431435
334.818350296
334.871937826
334.900392527
334.899946418
334.871976116
334.82113693
334.753891886
334.679994935
334.613539698
334.561498041
334.517992635
334.473343872
334.4239388
334.3757757
334.33302951
334.293752431
334.257765402
334.225746678
334.197349572
334.172541654
334.151091178
334.132692943
334.117109357
334.103968849
334.093280155
334.084734371
334.077878959
334.072419941
334.068013637
334.064521533
334.061802445
334.059665941
334.058042012
334.05683344
334.055995147
334.055409349
334.055117122
257.842567735
258.021731132
258.38024222
258.913896287
259.610885438
260.457616036
261.439313113
262.5409676
263.748080921
265.047189298
266.426168541
267.874350818
269.382498278
270.942682216
272.54811137
274.192943839
275.872106406
277.581135247
279.316044131
281.073220599
282.849347232
284.641343315
286.446322091
288.261559125
290.084468676
291.912585844
293.743553359
295.575111834
297.405091761
299.231405308
301.052033513
302.865006064
304.66837073
306.460150427
308.238287141
310.000572858
311.744568472
313.467513218
315.166229521
316.837032421
318.475656681
320.077223312
321.636269213
323.146874922
324.602910718
325.998416732
327.328060979
328.587544988
329.773646828
330.883446411
331.911778691
332.846671305
333.654198429
334.280521188
334.75060672
335.132353941
335.355098612
335.434984375
335.424166408
335.433642467
335.447119621
335.435854858
335.386289764
335.300889194
335.187498107
335.054525627
334.916541109
334.804471181
334.73118353
334.677572775
334.618208724
334.544062725
334.473192512
334.41643556
334.364445066
334.316330291
334.274613486
334.237780937
334.205963467
334.178733063
334.155645329
334.136290072
334.120298041
334.107221898
334.09673342
334.088403712
334.081702697
334.076354571
334.072144405
334.068827629
334.066224043
334.064260714
334.062801089
334.061799972
334.061169239
334.060813513
255.946059223
256.146779614
256.547484017
257.141788724
257.914333683
258.847655316
259.923162784
261.122410406
262.428043587
263.824407629
265.297842363
266.836723372
268.431324878
270.073578325
271.756788414
273.475351551
275.224504348
277.000115674
278.798525027
280.616423447
282.450769468
284.29873154
286.157648846
288.025004047
289.898403702
291.775564288
293.654303227
295.532534852
297.408269582
299.279614116
301.144766091
303.001998862
304.849632253
306.685986094
308.509315947
310.31773007
312.109088213
313.880882725
315.630106399
317.353115213
319.045502922
320.70201367
322.316533864
323.882217141
325.391811278
326.838240887
328.215461084
329.51945122
330.748978144
331.905566606
332.99067484
334.001099818
334.883654393
335.474214454
335.895446615
336.356113314
336.512589679
336.423009343
336.129104575
335.818912789
335.655764819
335.583156306
335.532183899
335.465378164
335.370561731
335.244355104
335.091349674
334.95538233
334.886690409
334.848546475
334.779971277
334.663938845
334.559337441
334.494113403
334.430939962
334.368880092
334.318395147
334.273278108
334.234802118
334.202250286
334.175075234
334.152563915
334.13417262
334.119245883
334.107260354
334.097739991
334.090082532
334.083963328
334.079120738
334.075326775
334.07235698
334.070116458
334.068490156
334.067347248
334.06665923
334.066272288
253.840757653
254.068623464
254.52215828
255.191758254
256.057075013
257.095352477
258.282947676
259.59703671
261.016796
262.524074183
264.103620033
265.742975884
267.432157941
269.163233294
270.929878974
272.726978603
274.550286064
276.396165245
278.261401923
280.143076309
282.038482039
283.945077152
285.860454904
287.782325053
289.70850065
291.636888576
293.565485384
295.492380282
297.415764932
299.333946556
301.245355288
303.148538095
305.042133392
306.924822532
308.795257441
310.651963777
312.493217959
314.316896065
316.120294842
317.899931789
319.651338732
321.368881725
323.045658416
324.673561842
326.243634278
327.746867465
329.175586124
330.525425109
331.79755999
333.001067615
334.155264806
335.31572121
336.520034973
336.947569086
336.4974378
336.324720215
336.350954154
336.295385203
336.129990136
335.930910013
335.768127429
335.646667926
335.545443875
335.449800317
335.353967432
335.260648856
335.181589224
335.130666342
335.107256255
335.074456085
334.972701621
334.769835263
334.601699616
334.561931246
334.494799112
334.411819234
334.356027778
334.30238144
334.257641414
334.220438488
334.189859096
334.165154727
334.145147213
334.128951264
334.115952577
334.105592666
334.097240914
334.090561519
334.085267892
334.081136275
334.077941264
334.075520394
334.07376999
334.072554705
334.071817919
334.07141794
251.498687364
251.761321664
252.282036935
253.046373658
254.026862702
255.193434982
256.515731623
257.965369272
259.51737153
261.150842384
262.849023592
264.598923565
266.390707473
268.217008585
270.072273975
271.952209093
273.853346046
275.77273408
277.707735392
279.655903165
281.614917469
283.582556985
285.556688692
287.535263106
289.516308992
291.497927627
293.478291779
295.455656433
297.428383225
299.394973906
301.354098115
303.304602582
305.245493125
307.175885066
309.094923836
311.00167565
312.894984552
314.773287497
316.634382405
318.47514772
320.291223813
322.07668356
323.823749688
325.522673201
327.161973939
328.729331169
330.213536484
331.6077228
332.912952243
334.1435832
335.339718729
336.668812038
336.681680637
336.738123412
336.666147422
336.489129118
336.380173837
336.256862665
336.084226016
335.896975107
335.734460438
335.603729333
335.495943097
335.400114557
335.307717303
335.220588678
335.145105827
335.085930519
335.038620505
334.987081622
334.922936141
334.866605299
334.832725988
334.76824933
334.59314151
334.423936795
334.383538356
334.323185691
334.272678516
334.23209032
334.198952559
334.173459724
334.152821329
334.136060289
334.122621527
334.111803234
334.103073482
334.09606448
334.090555464
334.086245531
334.082923603
334.080422444
334.078599203
334.077369388
334.076601948
334.076218414
248.884104345
249.192177249
249.799864573
250.685220486
251.810439577
253.135260993
254.620388139
256.230436502
257.935577234
259.712077652
261.542008419
263.412424149
265.314306509
267.241496963
269.189763297
271.156064676
273.138024184
275.133584963
277.140812273
279.157800597
281.182648191
283.213467045
285.248403841
287.285655186
289.323470505
291.360145322
293.394017731
295.423484816
297.447047749
299.463377188
301.471374504
303.470205174
305.459291699
307.438262982
309.406867806
311.364857363
313.311828647
315.247011724
317.168983358
319.075295963
320.962016028
322.823182856
324.65022715
326.431466898
328.151931192
329.794003378
331.339791435
332.775688272
334.097554705
335.322139237
336.520145587
336.685874201
336.772143046
336.71945732
336.608398284
336.440522057
336.291674904
336.139802151
335.967455585
335.792116468
335.636858531
335.508472511
335.402827408
335.311376856
335.227366583
335.151081221
335.084903006
335.029469252
334.98033684
334.928480212
334.869621252
334.812320584
334.763869809
334.716459601
334.672821725
334.625902408
334.516373377
334.337366971
334.270773099
334.23562995
334.200819922
334.177448993
334.157051508
334.140440463
334.127208551
334.116254437
334.107437294
334.100441007
334.094929606
334.090599447
334.087278069
334.08479236
334.082984359
334.081777422
334.081029868
334.080679982
245.950446411
246.319337618
247.041965041
248.08454112
249.394021216
250.915860922
252.598912746
254.39911486
256.281194893
258.218819578
260.193653983
262.193813876
264.212137473
266.244595618
268.289009729
270.344124637
272.409005286
274.482694522
276.564060797
278.651771575
280.744337965
282.840187556
284.93773272
287.035412905
289.131702562
291.225092366
293.314067858
295.397124733
297.47284277
299.540004621
301.597712015
303.645456877
305.683127904
307.710953447
309.729404442
311.739076402
313.740535178
315.734091652
317.719473901
319.695366505
321.65879407
323.604319958
325.523038921
327.401412235
329.220194191
330.954049646
332.573768863
334.054948434
335.393164881
336.64664408
336.7289264
336.744304695
336.727303552
336.632667162
336.485048814
336.304994542
336.128182999
335.954487413
335.779592124
335.612711836
335.466351652
335.346241661
335.248573752
335.165557271
335.09316117
335.030560026
334.977577019
334.932800102
334.892296435
334.850436641
334.804009686
334.755650575
334.70913337
334.661394103
334.612937867
334.566419086
334.52571804
334.484367895
334.397113507
334.245105785
334.18664197
334.177373421
334.157638348
334.142013655
334.129669582
334.118837863
334.110320767
334.103609713
334.09829597
334.094129751
334.090955919
334.088614103
334.086929669
334.085795589
334.085126033
334.084821104
242.635642545
243.088316959
243.96647692
245.217090434
246.764351985
248.53369681
250.458439396
252.484060681
254.569608092
256.686997739
258.818958085
260.956335097
263.095381823
265.235470904
267.377410105
269.522344731
271.671137472
273.824095507
275.980927705
278.140838165
280.302684343
282.465145173
284.626857977
286.786495634
288.942772073
291.094387908
293.239957242
295.378002989
297.507073287
299.625954097
301.73387954
303.830661423
305.916707813
307.992940705
310.060673478
312.121506464
314.177204669
316.229494327
318.279718578
320.328315882
322.374074339
324.413074376
326.437179283
328.431936948
330.373874077
332.226801728
333.94338765
335.492007147
336.916117218
336.944326948
336.841690688
336.748150611
336.635049265
336.477880571
336.287230835
336.081467733
335.881398398
335.693209465
335.517801426
335.359960477
335.226017869
335.119013609
335.034028081
334.963975943
334.906139739
334.859077023
334.821240723
334.790349754
334.763047045
334.735605463
334.705798265
334.673991324
334.640860443
334.603969722
334.562306578
334.518276352
334.474504632
334.431290835
334.393896292
334.363691467
334.303687425
334.194843987