/*--------------------------------*- C++ -*----------------------------------*\
| =========                 |                                                 |
| \\      /  F ield         | OpenFOAM: The Open Source CFD Toolbox           |
|  \\    /   O peration     | Version:  v1906                                 |
|   \\  /    A nd           | Web:      www.OpenFOAM.com                      |
|    \\/     M anipulation  |                                                 |
\*---------------------------------------------------------------------------*/
FoamFile
{
    version     2.0;
    format      ascii;
    class       surfaceScalarField;
    location    "215";
    object      phia;
}
// * * * * * * * * * * * * * * * * * * * * * * * * * * * * * * * * * * * * * //

dimensions      [0 3 -1 0 0 0 0];
oriented        oriented;


internalField   nonuniform List<scalar> 
18240
(
0.000928867100425
-0.0009286744201
0.00184742687379
-0.000918520146431
0.00277938804695
-0.000931709165375
0.00370921227245
-0.000929807418746
0.00463211078949
-0.000922574613112
0.00554431897759
-0.000912200624385
0.00644394006857
-0.000899223421911
0.00732812685007
-0.000884172162415
0.00819559976133
-0.000866996843358
0.00904371769427
-0.000848079436035
0.00987154745802
-0.000827271277057
0.0106765882774
-0.00080496269219
0.0114581980266
-0.00078096835963
0.0122140234431
-0.000755693202468
0.0129436703607
-0.000728924052947
0.0136449351579
-0.000701065946648
0.0143176138106
-0.000671879353017
0.0149596414888
-0.000641751954106
0.0155709311769
-0.000610421009432
0.0161495328338
-0.000578241978569
0.0166953954529
-0.000544935059388
0.0172066552921
-0.00051081272247
0.0176832182688
-0.000475588896739
0.0181232802752
-0.000439528149479
0.0185266383375
-0.000402352398837
0.0188915328577
-0.00036427888745
0.0192176089942
-0.000325054795219
0.0195031534325
-0.00028485623141
0.0197476481213
-0.000243474442767
0.0199494517817
-0.000201055775959
0.0201079072474
-0.000157452485865
0.0202214939635
-0.000112794916299
0.0202894835472
-6.70187597588e-05
0.020310562578
-2.02606624711e-05
0.020284043265
2.74454445602e-05
0.0202089344339
7.59363923144e-05
0.0200847412081
0.000125065295475
0.0199109405624
0.000174621890674
0.019687415176
0.000224337666833
0.0194142782205
0.000273940065727
0.0190919910628
0.000323037989941
0.018721479011
0.0003712903885
0.0183039776485
0.00041819256601
0.017841388092
0.000463342063269
0.0173358819848
0.000506141946464
0.0167904581242
0.000546153659099
0.0162083155282
0.000582727716741
0.0155935870036
0.000615440354924
0.0149504699271
0.000643655305569
0.0142841216215
0.000667044786282
0.013599533067
0.000685080220078
0.0129025780818
0.000697633369773
0.0121986331073
0.000704387138383
0.0114937817845
0.000705502933674
0.0107932265383
0.000700943031257
0.0101026577253
0.000691182233523
0.00942654044165
0.000676447068364
0.00876964869194
0.00065745572385
0.00813531737444
0.000634601289736
0.00752710691491
0.000608714979242
0.00694708307091
0.000580235975865
0.00639753076435
0.000549991165756
0.00587930373769
0.000518387060976
0.00539349950804
0.00048617766504
0.00493992227261
0.000453694898855
0.00451866109588
0.000421575875054
0.00412870121
0.000390046992227
0.00376937007825
0.000359598349589
0.00343910391745
0.000330334991444
0.00313674054759
0.000302595556956
0.00286042734935
0.000276373601037
0.00260875665481
0.000251878259779
0.00237979573685
0.000229019079632
0.00217207657379
0.000207909080501
0.0019837303897
0.000188404596696
0.00181335208643
0.000170554485022
0.0016592254559
0.000154185905513
0.00152008770829
0.000139301799717
0.0013944515203
0.000125695418099
0.00128133261189
0.000113269634301
0.00117980450702
0.000101586152162
0.00109012667806
8.98141659605e-05
0.00101564282752
7.454013476e-05
0.000952138432585
6.36327707389e-05
0.00088622188722
6.59873264089e-05
0.000819868572867
6.64907936192e-05
0.000761298880919
5.86643848956e-05
0.000710913871507
5.05412128189e-05
0.000656730050583
5.43234551823e-05
0.00059149075147
6.54347372004e-05
0.000520740074473
7.09544407477e-05
0.000444768496188
7.62210755199e-05
0.00035424643495
9.07958605738e-05
0.000243671463897
0.000110889293492
0.000117044363039
0.000126996523811
0.000117233779353
0.000923376661185
-0.00185190714124
0.00194400352381
-0.0019390568475
0.00294714084289
-0.00193467258249
0.00393958144986
-0.00192213300354
0.00492170344622
-0.00190448747215
0.00589167033752
-0.00188202729072
0.0068476589057
-0.00185495680551
0.00778729696445
-0.00182363392901
0.00870880888306
-0.00178819623002
0.00960993903525
-0.00174898463592
0.0104891536226
-0.00170610697122
0.0113443870325
-0.0016599113132
0.0121743592614
-0.00161048845204
0.0129772052233
-0.00155818527769
0.0137518773797
-0.00150306660096
0.0144966986284
-0.00144545729291
0.0152108108763
-0.00138538278431
0.0158926936524
-0.0013231245539
0.016541617774
-0.00125865841839
0.0171561738377
-0.00119220651628
0.0177356914772
-0.00112369249172
0.0182788215555
-0.0010532723153
0.0187848832491
-0.000980824558288
0.0192525412379
-0.000906442757271
0.0196810471124
-0.000829977177549
0.0200690474967
-0.000751472623371
0.0204156910801
-0.000670775639259
0.0207195963502
-0.000587904393794
0.0209798028312
-0.000502732026289
0.0211949193569
-0.000415280057692
0.0213639087662
-0.000325483398669
0.0214854240682
-0.000233399666378
0.0215584202989
-0.000139063542628
0.0215816824729
-4.26110930353e-05
0.0215542729007
5.57840312068e-05
0.0214752388602
0.000155867399494
0.0213439068146
0.000257290897197
0.0211597518837
0.000359645747617
0.0209225552392
0.000462383180102
0.0206324111717
0.000564915857901
0.0202897647681
0.000666483758991
0.0198955303255
0.000766315354506
0.0194510231213
0.00086344978298
0.0189581647856
0.0009569505981
0.0184193167112
0.00104569430374
0.0178375513897
0.00112863310229
0.0172163841559
0.00120455890622
0.0165600918279
0.00127241610695
0.0158733275579
0.00133104748125
0.0151614694491
0.00137955838466
0.0144300993867
0.00141704223016
0.0136853697913
0.0014429871062
0.0129333443657
0.00145696282683
0.0121803900709
0.00145904193454
0.0114324160118
0.00144941771096
0.0106953253244
0.00142880911793
0.0099742223786
0.0013979941615
0.00927396367001
0.00135819333723
0.00859840199283
0.00131054551826
0.00795104001125
0.00125649221551
0.00733433571245
0.00119725894375
0.00675040779954
0.00113426873209
0.0062003915155
0.00106866125632
0.00568514031031
0.00100171669199
0.00520463957561
0.000934401324459
0.0047586798804
0.000867771035499
0.00434634382608
0.000802548865186
0.00396663412631
0.000739504180773
0.00361802848914
0.000679079909339
0.00329904355825
0.000621750445902
0.00300783997341
0.000567701050114
0.0027427125844
0.000517159556138
0.00250173203108
0.000470115164594
0.00228316519019
0.000426619653334
0.00208514611309
0.000386534273723
0.00190603592114
0.000349800841734
0.00174411767797
0.000316210862568
0.00159790158503
0.000285646948368
0.00146583104568
0.000257867700213
0.00134650874
0.000232711658977
0.00123831226432
0.000209877350497
0.00113917010809
0.000189065276217
0.00104401939442
0.000169779122981
0.000954525188653
0.000153228314989
0.000875608481972
0.000144999732345
0.000804450352677
0.000137763169102
0.000744239500712
0.000118991052012
0.000693234312299
0.000101683536415
0.00064328845848
0.00010441750639
0.000588490445485
0.000120413255836
0.00052177474708
0.000137881746643
0.000445837141908
0.000152393353856
0.000360766662186
0.000176132800184
0.000257023574784
0.000214946279
0.000126022695718
0.000258341025818
0.000243419421679
0.000945505936413
-0.00279729592658
0.00195805056606
-0.00295147856406
0.00296522370648
-0.00294172015461
0.00396395276956
-0.00292073120777
0.00495244691493
-0.00289282177298
0.00592864522611
-0.00285806545355
0.00689050817844
-0.0028166175595
0.00783584869687
-0.0027687709083
0.00876270228702
-0.00271479445627
0.00966902233104
-0.00265504531077
0.0105530541951
-0.00258981975888
0.0114129641583
-0.00251949574996
0.0122472365165
-0.00244436974686
0.0130542625733
-0.00236481142278
0.013832754872
-0.00228108955535
0.0145813113718
-0.00219353381665
0.0152988362766
-0.00210235671957
0.0159840934093
-0.00200781868646
0.0166361220165
-0.00191005380151
0.0172537946243
-0.00180923347885
0.0178362178198
-0.00170540320056
0.0183823098869
-0.00159863992476
0.0188911769886
-0.00148890619777
0.0193617253805
-0.00137619546027
0.0197930050529
-0.00126040838291
0.0201838688757
-0.00114148055132
0.0205332764958
-0.0010192847498
0.0208400101951
-0.000893736136395
0.0211029342538
-0.000764723127101
0.0213207741003
-0.000632188304318
0.0214923281841
-0.000496087232827
0.0216163138748
-0.000356441847725
0.0216915336875
-0.000213333451088
0.0217167876278
-6.69272989994e-05
0.0216909962569
8.25081993958e-05
0.0216131760476
0.000234603321507
0.0214825235314
0.000388844713381
0.0212984458053
0.000544603997933
0.0210606096896
0.000701078457242
0.0207690167308
0.000857345453197
0.0204240199642
0.00101229195751
0.0200264313208
0.00116469351627
0.0195775066766
0.00131313772218
0.0190790743119
0.00145612735715
0.0185334851696
0.00159200237705
0.0179437518918
0.00171907121078
0.0173134538481
0.00183553755784
0.0166468733
0.00193966860703
0.015948834033
0.00202973442161
0.0152248146003
0.0021042199604
0.0144806939066
0.00216177677182
0.0137228220235
0.00220146670954
0.0129576607093
0.00222269689809
0.012191816386
0.00222544909305
0.0114316139179
0.00221014329075
0.0106831379087
0.00217779401057
0.00995182344721
0.00212977441826
0.00924257188714
0.00206789336898
0.00855942832863
0.00199409060211
0.00790580689919
0.00191049581373
0.00728425273211
0.00181914763109
0.00669672249915
0.00172211348021
0.00614438074788
0.00162127347007
0.00562788036702
0.00151847007995
0.00514718843851
0.00141530862904
0.00470186884598
0.00131329424051
0.00429094865389
0.00121364283274
0.00391320225966
0.00111741985813
0.00356704300238
0.00102538619792
0.00325078743309
0.000938154550816
0.00296254893885
0.000856072050405
0.00270046441076
0.000779381160041
0.00246258374895
0.000708121164212
0.00224705667334
0.000642277252448
0.00205202110717
0.000581690907558
0.0018757545059
0.000526193178823
0.00171656039174
0.000475522157775
0.00157288458694
0.000429443355292
0.00144318521358
0.000387678533995
0.0013259832004
0.0003500260448
0.00121962808603
0.000316335521607
0.00112207539489
0.000286721321607
0.00102923666282
0.00026271286582
0.000943066708564
0.000239498279892
0.000867292283319
0.000220876816855
0.000801407311691
0.000203764117133
0.00073306724915
0.000187453766575
0.000663438757239
0.000171444740888
0.000608160434838
0.000159844386004
0.000564773115731
0.000163978528627
0.000498749207902
0.00020410994158
0.000412866492256
0.000238507351458
0.000321370866246
0.00026788749979
0.000217326028621
0.000319262408711
0.000111305146053
0.000364647515794
0.000354875631345
0.000957149324002
-0.00375435139136
0.00197345543573
-0.00396771694709
0.00298660508082
-0.00395476444201
0.00399206841423
-0.00392608850254
0.00498740280743
-0.00388802470474
0.00597031742915
-0.00384083690136
0.00693861876689
-0.00378474721625
0.0078901287631
-0.00372009060392
0.00882280097183
-0.00364724115665
0.00973463966487
-0.00356663463471
0.0106238179351
-0.00347870722379
0.0114885735691
-0.00338393247549
0.0123273275446
-0.00328275823096
0.0131385618418
-0.00317564890954
0.0139209376962
-0.00306301836006
0.0146731603664
-0.00294527593284
0.015394094749
-0.00282275822504
0.0160826222664
-0.0026957789393
0.0167377517504
-0.00256456355404
0.0173584748855
-0.00242930306247
0.0179438712957
-0.00229009548986
0.0184929697412
-0.00214700263887
0.0190048468984
-0.00200000115562
0.0194785014755
-0.00184904010423
0.0199129461741
-0.00169400288584
0.0203071005896
-0.00153476250468
0.0206598752621
-0.00137115480359
0.0209700877628
-0.00120302855664
0.021236537881
-0.0010302306097
0.0214579502571
-0.000852650357153
0.0216330399912
-0.000670214634986
0.0217604843589
-0.000482924396532
0.0218389810506
-0.000290867090062
0.0218672501367
-9.42418228033e-05
0.0218440858441
0.000106618116261
0.0217683886115
0.000311230638666
0.02163921138
0.000518934394774
0.0214558182866
0.000728888705865
0.021217724719
0.000940039755074
0.0209247763306
0.00115113780282
0.0205771808355
0.00136070431454
0.0201755993804
0.00156706797793
0.019721167317
0.00176833578636
0.0192155898952
0.00196244900328
0.0186611495083
0.00214716277738
0.018060796683
0.00232012606964
0.0174181359488
0.00247888051417
0.0167374974109
0.00262097570246
0.0160238787245
0.00274400440101
0.0152829701951
0.00284576693752
0.0145210144116
0.00292435128623
0.013744749085
0.00297833294088
0.0129611569687
0.00300686455829
0.012177323143
0.00300983666077
0.0114001099148
0.0029878793447
0.0106360039789
0.00294239849696
0.00989082105596
0.0028754203728
0.00916964440636
0.00278950376854
0.00847666226131
0.00268746847806
0.00781525465103
0.00257226679366
0.00718795060396
0.00244677605605
0.00659657177059
0.00231378563679
0.00604219662147
0.00217590556039
0.00552528864269
0.00203560843143
0.00504566854857
0.00189512984918
0.00460265797589
0.00175648672496
0.00419509219411
0.00162137058534
0.00382148556059
0.00149117714299
0.00348006455569
0.00136694677639
0.00316891979133
0.00124943388207
0.00288602295411
0.00113909822823
0.00262934317553
0.00103618892025
0.00239684163613
0.000940748030918
0.0021865566958
0.000852687226826
0.00199658415026
0.000771786518184
0.00182513841792
0.000697761484819
0.00167052239552
0.000630258472785
0.00153116774559
0.000568916746268
0.00140559114715
0.000513370018894
0.00129241121314
0.000463317218097
0.00119030319056
0.000418550328292
0.00109800852316
0.000379118706871
0.00101486741765
0.000345955197913
0.000934272925147
0.000320194607842
0.000858253655507
0.000297006841996
0.00078425100256
0.000277885212501
0.000711199421204
0.00026063185315
0.00064505277448
0.000237727362993
0.000574625918519
0.000230417799089
0.000499380682252
0.000239387612729
0.00044572817021
0.000257952881528
0.000364448413121
0.000320008338364
0.00026325963444
0.000369303656221
0.000176406586796
0.000406352785161
9.22887794125e-05
0.000449021028893
0.00044729011228
0.000968150539976
-0.00472244633692
0.00199332170806
-0.00499281369414
0.00301548853569
-0.00497687314635
0.00403010438178
-0.00494062208508
0.00503452180469
-0.00489234771901
0.00602631449227
-0.00483251372485
0.00700316866752
-0.00476146270714
0.00796286141611
-0.00467961847984
0.00890328622681
-0.00458747108059
0.00982244300704
-0.00448556424172
0.0107184706123
-0.00437447186686
0.0115896288651
-0.00425479006556
0.0124343255701
-0.00412711397924
0.0132510894889
-0.00399202974471
0.0140385895717
-0.00385009179226
0.01479560003
-0.00370181455548
0.0155210114102
-0.00354765244568
0.0162137898159
-0.00338799345094
0.0168729806569
-0.00322314509899
0.0174976656617
-0.00305333239744
0.0180869619532
-0.00287869258622
0.0186399815424
-0.00269927901105
0.0191558289908
-0.00251506574946
0.0196335681098
-0.00232595687266
0.0200722211181
-0.00213179981239
0.0204707457445
-0.00193239806897
0.0208280372877
-0.001727531233
0.0211429178125
-0.00151696929155
0.0214141419148
-0.00130049794789
0.0216403992625
-0.00107793589874
0.0218203249285
-0.000849161454447
0.0219525167177
-0.000614132676281
0.0220355537667
-0.000372923623381
0.0220680298397
-0.000125743090406
0.0220485823181
0.000127028101628
0.0219759420223
0.000384818171328
0.0218489736032
0.000646830008819
0.0216667392254
0.000912027377866
0.0214285485948
0.00117910943435
0.0211340309588
0.0014465066001
0.0207831908056
0.00171236851343
0.0203764810653
0.00197457215143
0.0199148605129
0.00223072497951
0.0193998632177
0.00247818700161
0.018833654741
0.00271409013648
0.0182190953119
0.00293538154824
0.0175597873576
0.00313886846378
0.0168601229288
0.00332130353075
0.0161252961174
0.00347948118841
0.015361301849
0.00361039640086
0.0145748531651
0.00371141580797
0.0137732747554
0.00378051012262
0.0129642608747
0.00381645024582
0.0121556396799
0.0038190067811
0.0113550197028
0.00378901978801
0.0105695139716
0.0037283938978
0.0098054451442
0.00363994764683
0.00906817492212
0.00352719710734
0.00836201448937
0.00339401360751
0.00769029816693
0.00324433149953
0.00705545902023
0.0030819241544
0.00645915925593
0.00291035715904
0.00590232195691
0.00273298097811
0.00538518826881
0.00255294793917
0.00490734415849
0.00237315492018
0.00446780417313
0.00219618577735
0.0040650968225
0.00202422175432
0.00369739989666
0.00185900809046
0.0033626427396
0.001701830019
0.00305863570964
0.00155356595518
0.0027831270724
0.00141472884108
0.00253389060126
0.00128554909235
0.00230874472119
0.00116601672728
0.00210560686034
0.00105594897331
0.00192249727255
0.00095501917978
0.00175757159605
0.000862810140885
0.00160911651145
0.000778834872834
0.00147556924846
0.000702584004982
0.00135550561826
0.000633549839562
0.00124765268695
0.000571283445142
0.00115089745849
0.000515413665526
0.00106413099236
0.000465991643906
0.000988513186311
0.000421675695494
0.000918264558388
0.000390552064093
0.000849549501168
0.000365837364609
0.000779127568993
0.00034843254984
0.000703551187563
0.000336339532097
0.000610826368994
0.000330586981788
0.000523991673825
0.000317397418086
0.000443702780977
0.000319838620078
0.000378149384426
0.000323679982882
0.000320513558124
0.000377843581858
0.000231145447648
0.000458891704558
0.000143962017298
0.000493740409629
7.3449196734e-05
0.000519740913315
0.000520849822758
0.000980561552134
-0.00570298485497
0.00201783747166
-0.00603010094993
0.00305193622847
-0.0060109402895
0.00407830481271
-0.00596695613782
0.00509424737105
-0.00590823116694
0.00609723359514
-0.00583542340444
0.00708486301583
-0.00574898938825
0.00805484539643
-0.00564947195288
0.00900502113116
-0.00553748520578
0.00993335864557
-0.00541370733587
0.0108379754862
-0.00527885510669
0.0117171311612
-0.00513367394372
0.0125692434116
-0.00497890970839
0.0133928712847
-0.00481529873159
0.0141867244597
-0.00464353711601
0.0149496355647
-0.00446427259659
0.0156805619815
-0.00427807413445
0.0163785485724
-0.00408542887283
0.0170427233504
-0.00388671626247
0.0176722542251
-0.00368221385224
0.0182663420615
-0.00347207994178
0.0188241769406
-0.00325637033833
0.0193449331267
-0.00303503108384
0.0198277304506
-0.00280792515473
0.0202716345683
-0.00257483371039
0.0206756270893
-0.00233548912128
0.0210386120626
-0.00208958186927
0.0213593962791
-0.00183679658697
0.021636701493
-0.00157682347723
0.0218691563801
-0.0013093984785
0.0220553143622
-0.00103431574384
0.0221936597869
-0.000751472348159
0.0222826350459
-0.000460893603572
0.0223206642999
-0.000162775399886
0.0223061919778
0.000142485433978
0.0222377269169
0.000454250588787
0.022113892773
0.000771609588905
0.0219334912609
0.00109334936004
0.0216955615248
0.00141793033862
0.0213994567272
0.00174347325707
0.0210449067159
0.0020677472772
0.0206321000725
0.0023881773273
0.0201617461639
0.00270184480995
0.0196351572153
0.00300551399141
0.0190543131208
0.00329564508807
0.0184219429424
0.00356844142357
0.0177415958267
0.00381988698539
0.0170177172296
0.00404584023319
0.0162557035394
0.00424213935206
0.0154619307522
0.00440480050813
0.0146437103883
0.00453025090712
0.0138091640458
0.00461565073205
0.0129669656945
0.00465922072325
0.0121259977963
0.00466052479925
0.0112949091166
0.00462063009404
0.0104817148966
0.00454208172341
0.00969341359795
0.00442870578259
0.00893572781202
0.00428530057712
0.00821304279066
0.00411707649258
0.00752855997308
0.00392915011162
0.00688451605301
0.00372626185456
0.00628236483549
0.00351276259285
0.00572282017938
0.00329274169852
0.00520586719519
0.00307008438299
0.0047307727446
0.00284840626459
0.00429615806854
0.00263093771353
0.00390011823535
0.00242038599596
0.00354038274945
0.00221886035174
0.00321447400856
0.00202785402494
0.00291984163764
0.00184831423936
0.00265394667865
0.00168074275189
0.00241432487592
0.00152529247502
0.00219861713718
0.00138184870309
0.00200459955636
0.00125009107154
0.00183019800118
0.00112954629568
0.00167350151544
0.0010196309054
0.00153277192704
0.000919688390781
0.00140645207642
0.000829025148498
0.001293171084
0.000746949868005
0.00119173896676
0.000672830140273
0.00110109255087
0.000606171773886
0.0010194111355
0.000547780494639
0.000943822323501
0.000497372695548
0.000872013330336
0.00046247336374
0.000801392606037
0.000436578137114
0.000725655257558
0.000424296691385
0.000654489059128
0.000407636124198
0.000587939749847
0.000397276253713
0.000506054613734
0.000399436096154
0.00041532245977
0.000410730739515
0.000319805307143
0.000419361665003
0.000257681991502
0.000440142976133
0.000203177098149
0.00051357971874
0.000126197599601
0.000570905654879
6.33813748278e-05
0.000582743909658
0.000584320560585
0.000995090531759
-0.00669810783427
0.0020473466742
-0.00708236718637
0.00309613967701
-0.00705976719047
0.00413692298794
-0.00700774378827
0.0051669120266
-0.0069382129905
0.00618349958936
-0.00685197841245
0.00718419191124
-0.00674962525316
0.00816662772245
-0.0066318207309
0.00912858387505
-0.00649932237908
0.010067989939
-0.00635295677234
0.0109829350848
-0.00619360518508
0.0118716779356
-0.00602217756165
0.0127326458977
-0.00583959473557
0.0135644375889
-0.00564675788892
0.0143658109132
-0.00544453022398
0.0151356763168
-0.00523370420031
0.0158730724982
-0.00501498642534
0.016577150783
-0.00478896748146
0.0172471402946
-0.00455611547186
0.0178823268941
-0.00431675435394
0.0184820130918
-0.00407107108766
0.0190454976793
-0.00381910651426
0.0195720373193
-0.00356077740455
0.0200608330459
-0.00329587923662
0.0205109988447
-0.00302411940615
0.0209215579512
-0.00274512732075
0.0212914197791
-0.00245849296456
0.0216193853727
-0.0021637803651
0.0219041318716
-0.00186056872888
0.0221442266075
-0.00154847237939
0.0223381195304
-0.00122717998797
0.0224841678299
-0.000896484954722
0.0225806426677
-0.000556336820203
0.0226257680234
-0.000206874956603
0.0226177467095
0.000151517137651
0.0225548169605
0.000518172796311
0.0224353003141
0.000892093555107
0.0222576742564
0.00127191459169
0.0220206390733
0.00165587265316
0.021723198899
0.00204178521314
0.0213647401127
0.0024270428302
0.020945110283
0.0028086053429
0.0204647023545
0.00318301736651
0.0199245278664
0.00354641690365
0.0193263120029
0.00389456373583
0.0186725713436
0.00422285784209
0.0179667360111
0.00452638530473
0.0172132435907
0.00479997871202
0.0164176783414
0.00503834392761
0.0155868386869
0.00523626586164
0.0147287695095
0.00538893115256
0.0138526447197
0.005492376063
0.0129684571069
0.00554398840835
0.0120865620537
0.0055429822187
0.0112170579787
0.0054906730705
0.0103692168188
0.005390420476
0.00955097400458
0.00524741076361
0.00876846497495
0.00506822586059
0.00802601299501
0.00485989443468
0.00732649225301
0.00462900035724
0.00667177721328
0.00438125727512
0.0060630568859
0.00412171863238
0.00550082194881
0.00385517158537
0.00498477559078
0.00358628870294
0.00451379538439
0.00331951958506
0.00408598855973
0.00305885712069
0.00369886433859
0.00280761521422
0.00334955026267
0.00256827567252
0.00303502729982
0.00234247982814
0.00275229999632
0.0021311537001
0.00249847637952
0.00193468347569
0.00227082290252
0.00175307089377
0.00206677201948
0.00158602681943
0.00188394637394
0.00143304610264
0.00172015995485
0.00129346118511
0.0015734295952
0.00116648921485
0.00144198048199
0.00105126325594
0.00132426330815
0.0009468667206
0.00121897630727
0.000852357502756
0.00112513301663
0.000766791408691
0.00104221891109
0.000689199129684
0.00097086851967
0.000619242483797
0.000901528794677
0.000566824988984
0.000830412003841
0.000533707876881
0.000757362794023
0.000509752079075
0.000688116110263
0.00049367332337
0.000610868494184
0.000485019446296
0.000534731815877
0.000473555653993
0.000453045198526
0.000481272505384
0.000378582321508
0.000485347642664
0.0002927874806
0.000505312895027
0.000210203657104
0.000522884398947
0.000167887037273
0.000556063509483
0.000109510592798
0.00062944368683
5.47011962804e-05
0.000637709190635
0.000639107041906
0.00101210728005
-0.00771029268847
0.00208210707342
-0.00815249200202
0.00314841263604
-0.00812614612639
0.00420631689575
-0.00806571974113
0.00525296716539
-0.00798490697629
0.00628564478211
-0.00788468038357
0.0073017645379
-0.00776574024161
0.00829887550416
-0.00762889740519
0.00927468601785
-0.00747506216547
0.0102270711093
-0.00730523387354
0.0111540914333
-0.00712047349377
0.0120539945999
-0.00692188505042
0.0129252275715
-0.0067105813157
0.0137664265332
-0.00648766163777
0.0145764196701
-0.00625417206666
0.0153542024475
-0.00601108313646
0.0160989286519
-0.00575924903497
0.016809870814
-0.00549939157987
0.0174864008951
-0.00523206622869
0.0181279402993
-0.00495766023379
0.0187339363496
-0.004676373404
0.0193038107213
-0.00438823573063
0.0198369404787
-0.00409310567985
0.0203326141055
-0.00379070535813
0.0207900231515
-0.00348063137719
0.0212082300062
-0.00316239902448
0.0215861697036
-0.00283545739304
0.0219226277211
-0.0024992351562
0.0222162477155
-0.00215315713313
0.0224655181972
-0.00179669516762
0.0226687844629
-0.00142938373185
0.0228242479514
-0.00105088260287
0.0229299895997
-0.000661012239288
0.0229839894487
-0.000259818146498
0.0229841675861
0.000152381614118
0.0229284316112
0.000574929775148
0.0228147381348
0.0010067807792
0.022641168235
0.00144644662069
0.0224060049183
0.00189196027037
0.0221078275828
0.00234084853852
0.0217455935807
0.0027901185254
0.0213187368372
0.00323626282195
0.0208272447068
0.00367526616309
0.0202717522322
0.00410262880729
0.0196536273833
0.00451337425123
0.0189750792906
0.00490206761102
0.0182392943977
0.00526281514878
0.0174506006582
0.0055893072067
0.0166146799724
0.00587489250515
0.0157387531686
0.00611281225801
0.0148317231501
0.00629657654374
0.0139041047855
0.00642060275123
0.0129676816508
0.006481008675
0.0120348584014
0.00647639377628
0.0111177443174
0.00640834531378
0.0102274034235
0.00628126540761
0.00937308918628
0.00610218499385
0.00856137569913
0.005880330013
0.00779621476436
0.00562540583308
0.00707970997498
0.0053458150911
0.00641312553793
0.00504810052376
0.00579735989736
0.00473769708449
0.00523274308001
0.00441995394467
0.00471872793376
0.00410043232633
0.00425373028825
0.00378461630811
0.00383519444724
0.00347748075797
0.00345982201355
0.00318306552683
0.00312392452531
0.00290425524331
0.00282377485694
0.00264272174043
0.00255583266273
0.0023992027877
0.00231681285761
0.00217382289934
0.00210368667057
0.00196632593248
0.00191366803597
0.0017761789789
0.00174421516359
0.00160263179684
0.0015930252481
0.00144478321912
0.00145803048978
0.00130161387715
0.0013374049892
0.00117201717571
0.00122957071677
0.00105482666937
0.00113320876004
0.000948842799843
0.00104726749001
0.000852852373423
0.000970917922322
0.000765664940698
0.000903161230357
0.000687112913726
0.000834305625443
0.000635796636196
0.000768859265557
0.000599275937663
0.000704022362531
0.000574716610399
0.000641224041563
0.000556604477508
0.000572819661382
0.000553563593228
0.000491220660932
0.000555298930916
0.000410747957617
0.00056189201591
0.000326081689496
0.000570161980586
0.000263280891522
0.000568263709639
0.000192498552946
0.00059381790467
0.00013636470784
0.000612339700743
9.73343062037e-05
0.000668625040271
4.71843641508e-05
0.000688008604773
0.00068635957077
0.00103178389516
-0.00874223124484
0.00212245813275
-0.00924329687688
0.003209121331
-0.00921297141163
0.00428696204472
-0.00914368795112
0.00535297506593
-0.00905103546843
0.00640433220816
-0.00893612427558
0.00743832632401
-0.00879979449998
0.00845240753864
-0.00864300425439
0.00944419571622
-0.00846684002359
0.010411504565
-0.00827248965389
0.011352351873
-0.00806122410569
0.0122649765141
-0.00783436238266
0.0131478387725
-0.00759324618651
0.0139996278071
-0.00733919588374
0.014819246755
-0.00707348102802
0.015605806537
-0.00679727025862
0.0163585920794
-0.00651160330452
0.0170770407298
-0.00621734304154
0.0177606908713
-0.00591515931462
0.018409149505
-0.0056054952128
0.0190220319967
-0.00528857373971
0.019598930088
-0.00496438733287
0.0201393561084
-0.00463273095969
0.0206427234305
-0.00429321300654
0.0211083046063
-0.00394530582199
0.0215352281333
-0.00358836533075
0.021922449251
-0.00322168418474
0.0222687568904
-0.00284450916828
0.0225727497023
-0.002456091463
0.0228328476639
-0.00205570890569
0.0230472712285
-0.00164271217452
0.0232140610065
-0.00121656671293
0.0233310722783
-0.000776921673804
0.0233960124485
-0.000323662015767
0.0234064629554
0.000143008946553
0.0233599443701
0.000622504763876
0.0232539728441
0.00111377688966
0.0230861528872
0.00161525542199
0.0228542641956
0.00212479547774
0.0225563690102
0.00263964329725
0.0221909123896
0.0031564261034
0.0217568213188
0.00367115203272
0.0212535989252
0.0041792389122
0.0206814030277
0.00467552675471
0.0200411442631
0.00515430209009
0.0193345779526
0.00560927081123
0.018564486822
0.00603353409297
0.0177348806709
0.00641952247054
0.016851365988
0.00675902093995
0.0159214709836
0.00704331185026
0.0149550308174
0.00726362587055
0.0139642528587
0.00741200302345
0.0129633451595
0.00748252895524
0.0119676039584
0.00747275861563
0.0109919270973
0.00738457676838
0.0100499830665
0.0072237090393
0.00915301563547
0.00699955054277
0.00830805645913
0.00672564493183
0.00751791089246
0.00641584169422
0.00678304636097
0.00608095835045
0.00610370418508
0.00572767008551
0.0054806108803
0.00536096472746
0.00491420275863
0.00498649008072
0.00440380462382
0.00461091119488
0.00394732240011
0.00424116913311
0.00354129324448
0.00388354950832
0.00318131375691
0.00354310081128
0.00286252817374
0.00322309357451
0.00258028461254
0.00292504201055
0.00233041095211
0.00264917688374
0.0021092211071
0.00239513169749
0.00191340331452
0.00216227465153
0.00173995352834
0.00194976222339
0.00158617566859
0.00175654463248
0.00144964721925
0.00158144360502
0.00132821310178
0.00142317780405
0.00121998674575
0.00128037038508
0.0011233566894
0.00115158343615
0.00103698911469
0.00103533384943
0.000959844445197
0.000930118924987
0.000891154815319
0.000834471954166
0.000830081549272
0.000748302810301
0.000765127436489
0.000700870411914
0.000699149183319
0.000665379788961
0.000636057726074
0.000637936616986
0.0005713016253
0.000621494280605
0.000508636489622
0.000616367245284
0.000443329073896