/*--------------------------------*- C++ -*----------------------------------*\
| =========                 |                                                 |
| \\      /  F ield         | OpenFOAM: The Open Source CFD Toolbox           |
|  \\    /   O peration     | Version:  v1906                                 |
|   \\  /    A nd           | Web:      www.OpenFOAM.com                      |
|    \\/     M anipulation  |                                                 |
\*---------------------------------------------------------------------------*/
FoamFile
{
    version     2.0;
    format      ascii;
    class       volScalarField;
    location    "309";
    object      p;
}
// * * * * * * * * * * * * * * * * * * * * * * * * * * * * * * * * * * * * * //

dimensions      [0 2 -2 0 0 0 0];


internalField   nonuniform List<scalar> 
9216
(
268.376907841
268.461448039
268.634789785
268.895906584
269.243622354
269.67623383
270.191614639
270.78729239
271.460470723
272.208103981
273.026909724
273.913446612
274.864116911
275.875244721
276.943065677
278.063803175
279.23364392
280.448811467
281.705527867
283.000085048
284.328793767
285.688054054
287.074293153
288.484036366
289.913835686
291.360342316
292.820227596
294.290258247
295.767210999
297.247951502
298.7293439
300.208334248
301.681856649
303.146921905
304.60052123
306.03972133
307.461567065
308.863183872
310.241680472
311.594259464
312.918120813
314.210581138
315.468978396
316.690799763
317.873587787
319.015076221
320.113098325
321.165729212
322.171197782
323.128032711
324.034979846
324.891145402
325.695918966
326.449101566
327.150831013
327.801677125
328.402564568
328.954820029
329.460092517
329.92035016
330.337806543
330.71487891
331.054131404
331.35821035
331.629810508
331.871600911
332.086216732
332.276185749
332.443945077
332.591772728
332.721824671
332.836071726
332.936351586
333.024310677
333.101466954
333.169156174
333.228601041
333.280860487
333.326900692
333.367546548
333.403551877
333.435554893
333.464149055
333.48994971
333.512610232
333.531639003
333.54740755
333.560140954
333.569960397
333.577223467
333.582356826
333.585871904
333.588231988
333.589668591
333.590390531
333.590640333
268.292446802
268.377414257
268.550920945
268.813141313
269.162468633
269.597096476
270.114841175
270.713178454
271.38927219
272.140029159
272.962131402
273.852093089
274.80628724
275.820999111
276.892443429
278.016811747
279.190278783
280.409043196
281.669323316
282.967392123
284.299563636
285.662223508
287.051807721
288.464830343
289.897856165
291.34752703
292.810529863
294.283622765
295.7635997
297.247317375
298.731657823
300.213557051
301.689966439
303.157884306
304.614317551
306.05631706
307.480940709
308.885293809
310.266494557
311.621720422
312.948176821
314.243149962
315.503979076
316.728115721
317.913099599
319.056623918
320.156514958
321.210802891
322.217705742
323.175704621
324.083532539
324.940250589
325.745239299
326.498266828
327.199475022
327.849424567
328.449064795
328.999742114
329.503149403
329.961297297
330.376452179
330.751084373
331.087808892
331.389325051
331.658368722
331.897654007
332.109842763
332.297496059
332.463062906
332.608843437
332.736993579
332.849497414
332.948183503
333.034704577
333.110562939
333.177096061
333.23550753
333.28685581
333.332086845
333.372023685
333.407397746
333.438837035
333.466888775
333.492016784
333.51435866
333.533286909
333.548724125
333.561094691
333.570760961
333.577950509
333.582929396
333.586329008
333.588649031
333.590003281
333.59064709
333.590908662
268.118348866
268.204881915
268.380140313
268.644950521
268.997679203
269.436463893
269.95904638
270.562817657
271.244857524
272.001984796
272.830800358
273.727737107
274.689098065
275.711100426
276.789904729
277.921650482
279.102475134
280.328541026
281.596044731
282.901236463
284.240421292
285.609972704
287.006327497
288.42599521
289.865548352
291.321629222
292.790936868
294.270232533
295.756324499
297.246073216
298.7363751
300.224168338
301.706416678
303.180116999
304.642284271
306.089962059
307.520209872
308.930117835
310.316797588
311.677402141
313.009121137
314.309206467
315.574972183
316.803825812
317.993272721
319.140952756
320.244648885
321.302329037
322.312159598
323.272552875
324.182186216
325.040054082
325.845490361
326.59821769
327.298362528
327.946484578
328.543567718
329.091012417
329.590593933
330.044417975
330.454857963
330.824494298
331.156049673
331.452327822
331.716155944
331.950331805
332.157581458
332.340521784
332.501637698
332.643260049
332.76755814
332.876527709
332.97199329
333.055604366
333.12884638
333.193043879
333.249376924
333.298887123
333.342495251
333.381007185
333.415129971
333.445475295
333.472568546
333.496872692
333.518519959
333.536756226
333.551316248
333.562992541
333.572373139
333.579316878
333.583999511
333.587269726
333.589429167
333.590665073
333.591318553
333.591648235
267.853842556
267.941896856
268.119879154
268.388717172
268.746711727
269.191908958
269.721937242
270.334060719
271.025227671
271.792123536
272.631221078
273.538830817
274.511145056
275.544280188
276.63431065
277.777300838
278.969328113
280.20650458
281.484990241
282.801006283
284.150840337
285.530853362
286.937479074
288.367226354
289.816674621
291.28247334
292.76133471
294.250031485
295.745388065
297.244277617
298.743612496
300.240341634
301.731441351
303.21391402
304.684780378
306.141080773
307.579870326
308.998224104
310.393236438
311.762031202
313.101766251
314.40964941
315.682948277
316.919011733
318.115284625
319.269334116
320.378868797
321.44176988
322.45611572
323.420219741
324.332662897
325.192340265
325.998501038
326.75079818
327.449322875
328.09463563
328.68776868
329.230212542
329.723871893
330.171006459
330.574158682
330.936081969
331.259669136
331.54788471
331.803700923
332.030041078
332.229732924
332.405473014
332.559803122
332.695094492
332.813539614
332.917145944
333.007735407
333.086945918
333.156240463
333.216917165
333.270123884
333.316870653
333.358044477
333.394420869
333.42667679
333.455400135
333.481098465
333.504260202
333.524766965
333.541712036
333.555219102
333.566157397
333.574769175
333.581184821
333.585716843
333.588778445
333.590748897
333.591927996
333.592587778
333.592917056
267.497355604
267.587321284
267.769027343
268.043390571
268.408603306
268.862576614
269.402778798
270.026297775
270.729898446
271.510082275
272.363144504
273.285228564
274.272374728
275.320563684
276.425752873
277.583907399
278.791023854
280.043149612
281.336396031
282.666948533
284.031071792
285.425113209
286.845502525
288.288750879
289.75144676
291.230252268
292.721896752
294.223171414
295.730921609
297.242040651
298.753461566
300.262150976
301.765101307
303.259325694
304.741851743
306.209718873
307.65997514
309.089678553
310.495898526
311.875722593
313.226263654
314.544672835
315.828152741
317.073976021
318.279503671
319.442208049
320.559695151
321.62973187
322.650273623
323.619499539
324.535850901
325.39808107
326.205308892
326.957081386
327.653427897
328.29490476
328.882608404
329.41816053
329.903653671
330.341570961
330.734695823
331.086025191
331.398690288
331.675879959
331.920768025
332.136449854
332.325890596
332.49189046
332.637064436
332.763832557
332.874416625
332.970836555
333.054909485
333.128253563
333.192298949
333.248303537
333.297370193
333.340463151
333.378423775
333.411984695
333.441783193
333.468373352
333.49223978
333.51387748
333.532741782
333.548066229
333.560314713
333.570240239
333.578177624
333.584053941
333.588144933
333.590940418
333.592790478
333.593910518
333.594553452
333.5948785
267.04691634
267.139291998
267.325789685
267.607277802
267.981794973
268.447066505
269.000345422
269.638485523
270.358009439
271.155177577
272.026053692
272.966565403
273.972557679
275.039838908
276.164218818
277.341539027
278.567696232
279.838659443
281.150481493
282.499306393
283.881372652
285.293014024
286.73065755
288.190820195
289.670103648
291.1651885
292.672827095
294.189836242
295.713088928
297.239506247
298.766048557
300.289707347
301.807496758
303.316446229
304.813593453
306.295979353
307.760644208
309.204626771
310.624965482
312.01870356
313.38289684
314.714625827
316.011010373
317.269227923
318.486533416
319.660281315
320.787948462
321.867158737
322.895710209
323.871607892
324.793105186
325.658758986
326.467499124
327.218712154
327.912324962
328.548875989
329.129542515
329.656128541
330.130991649
330.556926233
330.937041414
331.274658539
331.573224012
331.836223015
332.067094937
332.26915762
332.445549441
332.599194991
332.732792563
332.848815669
332.949518152
333.036932804
333.112868186
333.178911766
333.23644599
333.286671436
333.33062979
333.369223739
333.403234881
333.433339548
333.460123055
333.484092862
333.505706347
333.525303812
333.54206789
333.55562614
333.566685335
333.575684613
333.582683903
333.587687088
333.591386676
333.593937407
333.59559788
333.596743524
333.597392802
333.597726537
266.500021092
266.59538287
266.787845509
267.078205485
267.464297834
267.94360315
268.513093839
269.169321258
269.908497504
270.726576672
271.619330833
272.582418378
273.611443001
274.702002731
275.849729003
277.050316512
278.299544756
279.5932926
280.927546948
282.298406841
283.702083865
285.134899887
286.593282653
288.073759966
289.572952641
291.087566724
292.614384965
294.150257886
295.69209431
297.236851699
298.781526056
300.323142007
301.858742855
303.385381092
304.900109633
306.399974482
307.882009128
309.343231573
310.780644335
312.191238271
313.572000331
314.919925611
316.232033259
317.505385636
318.73710971
319.924419189
321.064636858
322.155216105
323.193764259
324.178070182
325.106144168
325.976277753
326.787130303
327.537846618
328.228186362
328.858641629
329.430484885
329.945773289
330.407238035
330.818101752
331.181902045
331.502374059
331.783366738
332.02874606
332.242291464
332.427600845
332.588020044
332.726612016
332.84615882
332.949183283
333.037971245
333.114570663
333.180777087
333.238132687
333.287950015
333.331349921
333.369292856
333.402602005
333.431983477
333.458042872
333.481300339
333.502204359
333.521188976
333.538283171
333.552739919
333.564547486
333.574248443
333.582018498
333.587939357
333.592330023
333.595636711
333.597951244
333.599424564
333.600520798
333.601155209
333.601475111
265.853563432
265.952565207
266.152303717
266.4534776
266.85365856
267.350011356
267.939148841
268.617238105
269.380100229
270.223307449
271.142272095
272.132324447
273.188777858
274.306980798
275.482356358
276.710430528
277.986850823
279.307397061
280.667985933
282.064670936
283.493638876
284.951204025
286.433800604
287.937974235
289.460372615
290.997735745
292.546885711
294.104716181
295.668181489
297.234285447
298.800069665
300.362601824
301.918963762
303.466239684
305.00150495
306.521816123
308.024202754
309.505661975
310.963156482
312.393616995
313.793949546
315.161048111
316.491812078
317.783167692
319.032091809
320.235635366
321.390944948
322.4952799
323.546027679
324.54072
325.47706321
326.352995804
327.16679428
327.917236409
328.603806077
329.226898357
329.787887987
330.289185358
330.734065288
331.126347399
331.470112039
331.769604038
332.029171563
332.253163716
332.445793949
332.611007169
332.752389352
332.873142722
332.976112896
333.063854429
333.138682362
333.202669413
333.257599377
333.304946707
333.345919768
333.381528344
333.412627759
333.439941664
333.464083644
333.485573575
333.504850634
333.522284302
333.538227126
333.552556329
333.564585218
333.574530023
333.582697282
333.589215174
333.594208144
333.598074338
333.600861383
333.602944145
333.604345207
333.605237239
333.605860513
333.606153501
265.103756048
265.207144443
265.415646644
265.729828835
266.14692479
266.663694939
267.276295293
267.980409098
268.771370198
269.644280559
270.594115187
271.615811171
272.704339371
273.854758931
275.062256022
276.32216896
277.630002191
278.981431619
280.372303567
281.798629279
283.25657651
284.742459328
286.252726942
287.783952053
289.332819026
290.896111997
292.470702928
294.053539516
295.641632838
297.23204461
298.821873852
300.408243178
301.988284647
303.559125224
305.117872596
306.661601859
308.18734395
309.692076903
311.17272109
312.626139677
314.049145274
315.438513403
316.791002559
318.103379608
319.372448053
320.595075014
321.768213165
322.888912124
323.954320777
324.961680989
325.908333976
326.791758951
327.609689361
328.360340077
329.042734182
329.657090385
330.204853154
330.688943417
331.113480112
331.48312392
331.802620025
332.076796401
332.310605905
332.509014928
332.676796899
332.818329548
332.937468417
333.037526809
333.121361452
333.191509393
333.250311739
333.299903278
333.34207232
333.378190524
333.409300914
333.43625719
333.459784341
333.480484962
333.498863799
333.515341872
333.530265664
333.54391792
333.556573068
333.567900429
333.577406523
333.585425949
333.592024067
333.597305649
333.601448014
333.604659946
333.607094653
333.608859935
333.610141708
333.61086663
333.611483323
333.611741113
264.246035717
264.354674464
264.573655198
264.903364334
265.340601894
265.881611568
266.521970468
267.256755105
268.080695713
268.988319665
269.974075849
271.03243643
272.15797498
273.34542217
274.589701654
275.885949631
277.229521712
278.615990576
280.041137379
281.500939323
282.99155515
284.509309819
286.050679115
287.612274639
289.190829308
290.783183375
292.386270781
293.997105644
295.612768542
297.230392363
298.847147295
300.460225088
302.066822348
303.664122894
305.249279859
306.819398255
308.371518893
309.902605256
311.409534717
312.889096155
314.337995299
315.752869433
317.130311178
318.466900555
319.759241299
321.003995922
322.197911194
323.337825023
324.420648955
325.443326206
326.402784947
327.295924269
328.119713464
328.871486928
329.549476422
330.153630516
330.685294267
331.148177802
331.547798228
331.890082983
332.180474033
332.424390854
332.627501077
332.795580956
332.934153565
333.048153245
333.141718437
333.218207301
333.280355683
333.330579017
333.37124446
333.404654433
333.432672204
333.456494522
333.476877254
333.494453143
333.509799556
333.523378659
333.535570169
333.546686937
333.556971708
333.566615002
333.575758586
333.583970059
333.591061056
333.597165418
333.602174633
333.606193381
333.609424736
333.61201389
333.614149596
333.615737505
333.616781351
333.617427123
333.61798013
333.618226434
263.274942797
263.389846083
263.621312884
263.969484106
264.430600981
265.000245125
265.673259425
266.443960162
267.306331946
268.254203844
269.281397025
270.381840362
271.549653953
272.779203443
274.065129738
275.402359386
276.786100959
278.211832044
279.67528074
281.17240447
282.699368158
284.252522959
285.828386234
287.423622981
289.035028696
290.659513432
292.294086698
293.935842784
295.581946003
297.229615343
298.876108012
300.518701636
302.154674837
303.781286009
305.395751028
306.995220551
308.576758156
310.137321123
311.673746007
313.182741686
314.660892452
316.104673646
317.510480784
318.874671672
320.193616793
321.463750192
322.681606822
323.843829886
324.947131565
325.988195487
326.963535433
327.869363208
328.701574254
329.456115576
330.129774099
330.722261039
331.234218651
331.670583492
332.039558111
332.349004968
332.604822803
332.812815769
332.979494687
333.11176719
333.216231706
333.298549419
333.363159721
333.413293026
333.45131043
333.479265028
333.499547066
333.514931848
333.527555437
333.538276222
333.547289184
333.554910803
333.56160913
333.567683693
333.573373407
333.578883376
333.584339083
333.58982161
333.595339387
333.600493174
333.605213023
333.609351937
333.61282031
333.615742556
333.618219193
333.620272614
333.621978115
333.623350044
333.624310695
333.624894281
333.625331984
333.625578217
262.183966159
262.306343754
262.552683418
262.922789089
263.412177168
264.015576707
264.726896196
265.539498075
266.446446894
267.440726422
268.515414506
269.663812653
270.879532298
272.15654337
273.489192627
274.872199738
276.300638496
277.769909387
279.275708244
280.813994328
282.380959879
283.973002247
285.586698943
287.218785557
288.86613618
290.525745851
292.194714419
293.870231207
295.54955969
297.230021426
298.908978543
300.583814064
302.251909629
303.910620376
305.557247361
307.189008413
308.803008661
310.396213113
311.965423949
313.507266535
315.018187902
316.494472481
317.932277462
319.327689529
320.676797721
321.975773244
323.220934684
324.408771453
325.535889831
326.598843196
327.593847453
328.516382838
329.360920281
330.121147507
330.79096094
331.370743868
331.858180867
332.26036007
332.591169369
332.861657518
333.07692702
333.24249343
333.365924199
333.455902771
333.520644703
333.566849512
333.599209265
333.620538277
333.632294356
333.635627097
333.632917311
333.628194431
333.624451782
333.621763098
333.619088152
333.616328343
333.614062195
333.612389993
333.611377998
333.61115166
333.611699975
333.612991899
333.614923441
333.61712631
333.619498583
333.621752864
333.623891413
333.625888925
333.627705973
333.629256119
333.63059386
333.63166372
333.632541022
333.633135425
333.633437581
333.633659216
260.965341947
261.096659984
261.360754988
261.756964808
262.27985758
262.923056676
263.679275414
264.540676217
265.499188426
266.54677623
267.675644196
268.878379146
270.148033896
271.478162823
272.862821083
274.296539068
275.774282354
277.291405029
278.843602208
280.426865219
282.037441445
283.671799387
285.32659887
286.998665751
288.684970397
290.382609088
292.088787519
293.800805491
295.516041828
297.231938321
298.945981801
300.655683016
302.35855166
304.052066979
305.733644139
307.400597115
309.050099522
310.67914599
312.284517676
313.862756985
315.410157675
316.922777492
318.396479815
319.827009043
321.210097183
322.541592454
323.817579704
325.034455715
326.188885404
327.277581946
328.296791919
329.241516175
330.104433743
330.87565444
331.542250191
332.110071931
332.566218946
332.921643445
333.204183201
333.429871807
333.598726351
333.714328004
333.786021102
333.825624485
333.844006639
333.849341418
333.846498487
333.837355472
333.821480622
333.797890789
333.768598807
333.74096086
333.720455172
333.705100069
333.690904163
333.677322564
333.665933363
333.656441067
333.648622921
333.642658494
333.638336822
333.635524357
333.633982375
333.633455051
333.633647425
333.634336446
333.635324192
333.636462027
333.637613974
333.638713339
333.639756488
333.640639052
333.641359561
333.641969225
333.64215649
333.642362986
259.609789965
259.751854626
260.037241281
260.464638
261.027359135
261.717581963
262.526481513
263.444705154
264.462781318
265.571449337
266.761897598
268.025912649
269.355950914
270.74514985
272.187296609
273.676770903
275.208475643
276.777765372
278.380378908
280.01237972
281.670105275
283.350125162
285.049206953
286.764288471
288.492455123
290.230921116
291.977013479
293.728157806
295.481864463
297.235713687
298.987338264
300.734401763
302.474571262
304.205483582
305.92470482
307.629683755
309.317700401
310.985812542
312.630804402
314.249144038
315.8369581
317.390035279
318.90387045
320.373760844
321.794959319
323.162876607
324.4733044
325.722596586
326.907724061
328.026045574
329.07464257
330.048867636
330.939831175
331.732285772
332.394295553
332.958038887
333.372713906
333.656882664
333.876904343
334.05421776
334.171680868
334.228062325
334.236829064
334.215782543
334.180105103
334.139916331
334.100072585
334.060691668
334.01785688
333.965308537
333.903185432
333.847619567
333.811399926
333.78669377
333.761851683
333.736397108
333.715907944
333.698785932
333.684069069
333.672529117
333.663488119
333.656814459
333.65207589
333.649115041
333.6474903
333.646835782
333.646846957
333.647200411
333.647785608
333.64853213
333.64932956
333.650067786
333.650725347
333.651266673
333.651442245
333.651637772
258.106164829
258.261238661
258.572326219
259.037200201
259.647497538
260.393485875
261.264346515
262.248806794
263.335666684
264.514202068
265.774433904
267.10727363
268.504566769
269.959062059
271.464333262
273.014676858
274.605003474
276.230734776
277.887712696
279.572123521
281.280436894
283.009357884
284.755789817
286.516805386
288.289624043
290.071594122
291.860178496
293.652942624
295.447543535
297.241717678
299.033265748
300.820031601
302.599873483
304.37062612
306.130052884
307.875788216
309.605271191
311.315672784
313.003821271
314.666133436
316.298563293
317.896584255
319.455225851
320.969186965
322.433044237
323.841561296
325.19006951
326.474859483
327.693454192
328.844608815
329.927663313
330.940692285
331.875356155
332.711386938
333.35275703
333.943868295
334.300560043
334.461158334
334.627132622
334.790492642
334.864824905
334.847068402
334.767491873
334.660869452
334.551780015
334.454008072
334.372093494
334.302948623
334.234864293
334.147307008
334.034394977
333.938304981
333.891354126
333.866939827
333.832800621
333.791382537
333.7623259
333.738535499
333.716529663
333.699860931
333.6863248
333.676207057
333.668757176
333.663746965
333.660661376
333.65892313
333.658111296
333.657870667
333.658103469
333.658647123
333.659261846
333.659895167
333.660478299
333.660979426
333.661279248
333.661429678
256.440988465
256.611955884
256.954334243
257.46459191
258.132091495
258.944552545
259.888553412
260.950379549
262.116701153
263.375059655
264.714159146
266.123987298
267.595804538
269.12204476
270.696167256
272.312491667
273.966038103
275.652385679
277.367555309
279.107917475
280.870122352
282.651048152
284.447763237
286.257498098
288.077624363
289.905639068
291.739153176
293.575883412
295.413645935
297.250349187
299.083983199
300.912601132
302.734290455
304.547131571
306.349142515
308.138209288
309.91200187
311.667877506
313.40277505
315.11310834
316.794672557
318.442585273
320.051294251
321.614690814
323.126373378
324.580087854
325.970342455
327.293118439
328.546573749
329.731599013
330.851926665
331.912993897
332.915997368
333.858938602
334.421493727
335.269098378
335.545965222
335.347782844
334.940363067
334.803270073
334.80438307
334.800405534
334.760630116
334.696709314
334.626946106
334.566389985
334.518620416
334.474925014
334.415071244
334.308659567
334.134029708
333.973165167
333.944160152
333.953521123
333.909765855
333.837888758
333.803168815
333.7758114
333.744268116
333.723771902
333.705896791
333.692913366
333.683330681
333.676860252
333.672710217
333.670303966
333.668924708
333.668404904
333.668521559
333.668916001
333.669414548
333.670013722
333.670592127
333.671114535
333.671515442
333.671647614
254.597814891
254.788421343
255.169301926
255.735040349
256.47187112
257.364076286
258.394811281
259.547247597
260.805439895
262.154899316
263.582885047
265.078463798
266.632402816
268.236963242
269.885650797
271.57296562
273.294177685
275.045140577
276.822146945
278.621822106
280.441049288
282.276918488
284.126691686
285.98777853
287.857718782
289.734169878
291.614899336
293.497781958
295.380800645
297.262047433
299.139720591
301.012111813
302.877579418
304.734504863
306.581230467
308.415977419
310.236742493
312.041173277
313.826423069
315.588992229
317.324569965
319.027903065
320.692736044
322.311885367
323.877531696
325.381803936
326.817698226
328.180219224
329.467696089
330.683344129
331.837343282
332.951922151
334.080600997
335.455052854
335.310569938
335.242479685
335.344904523
335.294314579
335.115163429
334.963968431
334.883442135
334.822082448
334.751621611
334.671956276
334.593826343
334.524468583
334.461207888
334.39768585
334.326571506
334.247722802
334.17859908
334.149706678
334.162724026
334.152883577
334.030754074
333.84585377
333.826606777
333.812772129
333.763651408
333.743925212
333.721065879
333.706039432
333.695012687
333.687866397
333.683271855
333.680679902
333.679142457
333.678646389
333.678725202
333.679090582
333.679636371
333.680300134
333.680989746
333.68156008
333.68204551
333.682197583
252.556352855
252.771559222
253.200417642
253.83474569
254.656408538
255.644999259
256.779142292
258.038033521
259.402536656
260.855831965
262.383662187
263.974267694
265.618118551
267.307544632
269.036343211
270.799417102
272.592471655
274.411780176
276.254014631
278.116131485
279.995299527
281.888856472
283.794282976
285.709185746
287.631285233
289.558406933
291.488477964
293.419531022
295.349715427
297.277310924
299.200737596
301.118552907
303.029429967
304.932113718
306.825353057
308.707807539
310.577925229
312.433787655
314.272918426
316.092057358
317.886910258
319.651901403
321.379982208
323.062589401
324.689895931
326.2515111
327.737780589
329.141390424
330.459137103
331.693643748
332.855410124
333.970242844
335.116604598
335.337708472
335.434058234
335.35035599
335.317561048
335.232605984
335.08326767
334.943328692
334.845345964
334.766735929
334.688780752
334.609601687
334.535420087
334.468632923
334.406013692
334.344072957
334.279876761
334.215052928
334.159091433
334.123652991
334.104922112
334.079301563
334.04421658
334.03501383
334.027964383
333.912675842
333.752109584
333.756918067
333.729754301
333.71458994
333.703138125
333.696332349
333.692012758
333.689937796
333.688526336
333.6882851
333.688549773
333.689129313
333.689897527
333.690738125
333.691572805
333.69227361
333.692843524
333.693040168
250.291232017
250.537751735
251.027285436
251.747515509
252.674105182
253.780182467
255.038342058
256.422711234
257.910305907
259.481712789
261.121203177
262.816440272
264.55795205
266.338519475
268.152587869
269.995763794
271.864423149
273.75543012
275.665952676
277.593353087
279.535131292
281.48890032
283.45237727
285.423378487
287.399813564
289.379679188
291.361058239
293.342131041
295.32120067
297.296726471
299.267354348
301.23192987
303.189485179
305.139196906
307.080314419
309.012058464
310.933483935
312.843297127
314.739615525
316.619663046
318.479398977
320.313098234
322.112934568
323.86868674
325.567800354
327.196107372
328.739732986
330.187299208
331.532112222
332.77497029
333.932658061
335.069296078
335.224458521
335.32661294
335.365608556
335.305396611
335.235684927
335.131835142
334.992764007
334.858106553
334.748995578
334.658066498
334.575322251
334.499799695
334.432616469
334.371828256
334.315728839
334.262399796
334.210514334
334.161287147
334.119234692
334.089022681
334.067403294
334.042818178
334.013181733
333.990840807
333.971479654
333.952742041
333.945876767
333.888476788
333.730403256
333.710962787
333.70664563
333.701779899
333.698795597
333.698324638
333.696999308
333.697388413
333.698223581
333.699189158
333.700251111
333.701337122
333.702338755
333.703258088
333.70391065
333.704201103
247.770231082
248.057369374
248.624955894
249.454361273
250.512299898
251.762899874
253.170707052
254.703420646
256.333507415
258.038816998
259.802410201
261.611872444
263.458381183
265.335745312
267.239556226
269.166516158
271.113955189
273.07951701
275.060979222
277.056170564
279.062949844
281.079216598
283.102930278
285.132122716
287.164897952
289.199423641
291.233926876
293.266711413
295.29620248
297.321011412
299.339998525
301.352311001
303.357382437
305.354892983
307.344695062
309.326709489
311.300782823
313.266487334
315.222839208
317.167913053
319.098330613
321.008609262
322.890396605
324.731694334
326.516434711
328.224892508
329.836820013
331.334280232
332.705139256
333.954524612
335.143136523
335.250231573
335.28128453
335.304088835
335.282368096
335.202154744
335.099031823
334.974344156
334.833823165
334.698871241
334.5833631
334.486781278
334.404546483
334.335307289
334.276826625
334.225528964
334.180170971
334.139552308
334.102869581
334.070724027
334.044965283
334.02670047
334.013019407
333.997530374
333.977759971
333.958481489
333.939585832
333.918629379
333.900243585
333.882225972
333.876381178
333.837627883
333.717046808
333.6994325
333.703145428
333.706794667
333.704261299
333.706083475
333.707906334
333.709335947
333.710737278
333.712127509
333.713405198
333.714556169
333.715359556
333.715782729
244.951672353
245.292680976
245.962655992
246.93310182
248.157614724
249.587701776
251.177170594
252.885659497
254.680431667
256.536721201
258.437015399
260.369714081
262.327578583
264.306281943
266.303230899
268.316709853
270.345323745
272.387682566
274.442263139
276.507387454
278.581266988
280.662071511
282.747991488
284.83727374
286.928223054
289.019179469
291.108496038
293.194556562
295.275847413
297.351073384
299.419273752
301.479897962
303.532820251
305.578298073
307.616892457
309.649370129
311.676573937
313.699227818
315.717635583
317.731236285
319.737955567
321.733299081
323.709088447
325.651875299
327.541426632
329.349714222
331.046889276
332.605563076
334.013629604
335.325489349
335.38896426
335.335187053
335.286009796
335.232566181
335.147893691
335.028611107
334.892537217
334.747657593
334.601286418
334.465644358
334.349521047
334.254320115
334.178131333
334.118669354
334.071603038
334.032993855
334.001725431
333.976765212
333.957205111
333.942834989
333.933874483
333.929851099
333.928393263
333.925921646
333.920748126
333.914080489
333.905017584
333.891214787
333.875420895
333.858663852
333.844851457
333.832171479
333.833065194
333.802953245
333.711667976
333.716878872
333.708392769
333.714442125
333.717909841
333.719626024
333.721355382
333.723151193
333.724826712
333.726255781
333.727322278
333.727886207
241.780482144
242.194838203
243.002151026
244.158087908
245.596748516
247.251882325
249.06305888
250.980012243
252.964384411
254.989429941
257.038327311
259.101784288
261.175563632
263.25837045
265.350286502
267.451746097
269.562956611
271.683644314
273.813016592
275.949852451
278.09265311
280.239800023
282.389680386
284.540752499
286.691540249
288.840571772
290.986305759
293.127136368
295.261502394
297.388093381
299.506055883
301.615125902
303.715657177
305.808561164
307.895207651
309.977344841
312.057014595
314.136399991
316.217551135
318.301923528
320.389677459
322.478540322
324.56202986
326.626581778
328.64800101
330.584718393
332.393338422
334.04403387
335.586069575
335.633265841
335.485879295
335.349422626
335.225467576
335.093455344
334.945000974
334.782424984
334.61633622
334.454542229
334.303282772
334.169515028
334.058138191
333.970225956
333.904855363
333.858403792
333.825127745
333.801500644
333.786454863
333.77883463
333.777439684
333.781396714
333.789979454
333.802045992
333.815604032
333.828284582
333.838662638
333.846538539
333.851099334
333.851268915
333.84778958
333.840424186
333.830529825