/*--------------------------------*- C++ -*----------------------------------*\
| =========                 |                                                 |
| \\      /  F ield         | OpenFOAM: The Open Source CFD Toolbox           |
|  \\    /   O peration     | Version:  v1906                                 |
|   \\  /    A nd           | Web:      www.OpenFOAM.com                      |
|    \\/     M anipulation  |                                                 |
\*---------------------------------------------------------------------------*/
FoamFile
{
    version     2.0;
    format      ascii;
    class       volVectorField;
    location    "505";
    object      Ua;
}
// * * * * * * * * * * * * * * * * * * * * * * * * * * * * * * * * * * * * * //

dimensions      [0 1 -1 0 0 0 0];


internalField   nonuniform List<vector> 
9216
(
(-0.00662670342638 0.00662970202364 0)
(-0.00681218745903 0.0206753767472 2.38312895202e-27)
(-0.00679779813868 0.03479991286 -4.58672550533e-31)
(-0.00674934907083 0.0489147364834 0)
(-0.00668160100227 0.0628832717195 0)
(-0.00659607887768 0.076670149162 0)
(-0.0064942022081 0.0902358626415 0)
(-0.00637698922541 0.103543751511 0)
(-0.00624536230155 0.116559524939 0)
(-0.00610028914398 0.129251284913 0)
(-0.00594271795948 0.141589628351 0)
(-0.00577365850281 0.153547661624 0)
(-0.00559406238016 0.165101056087 0)
(-0.00540491983533 0.176227966581 0)
(-0.00520710865062 0.186908997648 0)
(-0.00500152268516 0.197127018771 0)
(-0.0047888900476 0.206867051 0)
(-0.00456994277842 0.216115996204 0)
(-0.00434520192558 0.224862469429 0)
(-0.00411519670473 0.23309647105 0)
(-0.0038802121429 0.240809199861 0)
(-0.00364056537174 0.247992704336 0)
(-0.00339630991185 0.254639714599 0)
(-0.00314757529746 0.260743308557 0)
(-0.0028942195646 0.266296798334 0)
(-0.0026362379863 0.271293441837 0)
(-0.00237335471795 0.275726410652 0)
(-0.00210550640202 0.279588568058 0)
(-0.00183236366707 0.282872538974 0)
(-0.00155389876675 0.285570558887 0)
(-0.00126981791923 0.287674710562 0)
(-0.000980206483755 0.289176762505 0)
(-0.000684909704066 0.290068536047 0)
(-0.000384269329164 0.29034195618 0)
(-7.83691234581e-05 0.289989456396 0)
(0.000232115398589 0.289004115338 0)
(0.00054677635411 0.287380167782 0)
(0.00086452637542 0.285113213612 0)
(0.00118457444636 0.282200782401 0)
(0.00150538492747 0.278642590688 0)
(0.00182576374551 0.274441099701 0)
(0.00214373403039 0.269601805576 0)
(0.0024577054846 0.264133724994 0)
(0.00276529180876 0.258049738153 0)
(0.00306450748425 0.251366960334 0)
(0.00335257828004 0.244107211679 0)
(0.00362708108069 0.236297259879 0)
(0.0038848442529 0.227969517181 0)
(0.00412293146352 0.219162141474 0)
(0.00433778586609 0.209919987747 0)
(0.00452597016444 0.200294462007 0)
(0.00468375166182 0.190344523704 0)
(0.00480752830015 0.180135995614 0)
(0.00489402191077 0.169742085672 0)
(0.00494031162305 0.159241739924 0)
(0.00494462299536 0.148719073012 0)
(0.00490583243881 0.13826063015 0)
(0.00482462822578 0.127953657704 0)
(0.00470239359386 0.117882857627 0)
(0.00454254617975 0.108128108038 0)
(0.00434899580702 0.0987615519866 0)
(0.00412757853823 0.0898452734034 0)
(0.0038843502888 0.0814290845224 0)
(0.0036267330227 0.0735486709666 0)
(0.00336143017942 0.0662251652998 0)
(0.00309523135732 0.0594654916584 0)
(0.002833280916 0.0532644540975 0)
(0.00258009130732 0.0476067573138 0)
(0.00233848474763 0.042469888213 0)
(0.00211070838508 0.0378260922588 0)
(0.00189775418023 0.0336446311721 0)
(0.0017003336669 0.0298930473198 0)
(0.00151836018582 0.026538523083 0)
(0.00135173456267 0.023548463607 0)
(0.0011998730949 0.02089117407 0)
(0.00106228350525 0.018536069277 0)
(0.00093810671857 0.016454101497 0)
(0.000826574140477 0.0146178974339 0)
(0.000726625982107 0.0130020869992 0)
(0.000637276259924 0.0115833796025 0)
(0.000557199656762 0.0103408971216 0)
(0.000484760271526 0.00925652311067 0)
(0.000416502408356 0.00831861046273 0)
(0.000343008276936 0.00749789673305 0)
(0.000280491276097 0.00678150720225 0)
(0.00026788419696 0.0063033690523 0)
(0.000255042859189 0.0057313950741 0)
(0.000224776597894 0.00525234770981 0)
(0.00023067905993 0.00484045681913 0)
(0.000254305238396 0.00435349167797 0)
(0.000258181195572 0.00385774946355 0)
(0.000265468448796 0.00332187541521 0)
(0.000304471360207 0.00273282498345 0)
(0.000348167240497 0.00208261080188 0)
(0.00039488693641 0.00129028526656 0)
(0.000424612498244 0.000413978727291 0)
(-0.0207061032997 0.00685226263939 0)
(-0.0218599669359 0.0219611983167 0)
(-0.0217858075325 0.0369824764101 -2.44961765182e-27)
(-0.0215993958112 0.0520062180049 0)
(-0.0213456564876 0.0668624044552 0)
(-0.0210297335222 0.0815213914394 0)
(-0.0206552272336 0.0959428320939 0)
(-0.0202256646355 0.110088260699 0)
(-0.0197446703625 0.123921336931 0)
(-0.0192160929374 0.13740818815 0)
(-0.0186438483645 0.150517582631 0)
(-0.0180319858643 0.163221003995 0)
(-0.0173844588833 0.175492690451 0)
(-0.0167052175931 0.187309581367 0)
(-0.0159979397366 0.198651244673 0)
(-0.0152661776409 0.209499712703 0)
(-0.0145130551194 0.219839315738 0)
(-0.0137414873409 0.229656429017 0)
(-0.0129538444932 0.238939240751 0)
(-0.0121522599413 0.247677443222 0)
(-0.0113382568926 0.255861973108 0)
(-0.0105131568445 0.263484686773 0)
(-0.00967765993109 0.270538114958 0)
(-0.00883236065903 0.277015162789 0)
(-0.00797726669837 0.282908916882 0)
(-0.00711242588313 0.288212403025 0)
(-0.00623736568987 0.292918474262 0)
(-0.00535183570283 0.297019648856 0)
(-0.00445515065322 0.300508096853 0)
(-0.00354705711806 0.303375575444 0)
(-0.00262696557765 0.305613499493 0)
(-0.00169491952691 0.307213066598 0)
(-0.00075073580173 0.308165406271 0)
(0.000204873136012 0.308461734723 0)
(0.00117135163161 0.308093706638 0)
(0.00214703122084 0.307053669877 0)
(0.0031303462843 0.30533510978 0)
(0.00411843756891 0.3029329886 0)
(0.00510855230751 0.299844249952 0)
(0.00609653182371 0.296068202542 0)
(0.00707838722234 0.291607027826 0)
(0.00804868339448 0.286466169857 0)
(0.00900223936552 0.280654792009 0)
(0.00993243030251 0.274186164638 0)
(0.0108329109735 0.267078053389 0)
(0.0116958909617 0.259353154401 0)
(0.0125137433332 0.251039445666 0)
(0.0132773918563 0.242170762437 0)
(0.0139776818995 0.232787157539 0)
(0.0146041524022 0.222935658829 0)
(0.015146126096 0.212670571068 0)
(0.0155922636392 0.202054218269 0)
(0.0159314106272 0.191156840384 0)
(0.0161532709546 0.180056746256 0)
(0.0162489390255 0.168839180005 0)
(0.0162125892223 0.157595174044 0)
(0.0160412211196 0.146419024535 0)
(0.0157366761337 0.135405818428 0)
(0.0153041035676 0.124648173513 0)
(0.0147538661017 0.114233387023 0)
(0.0140991518157 0.10424044821 0)
(0.0133579397071 0.0947374035844 0)
(0.0125504046183 0.0857787078105 0)
(0.0116999028233 0.0774028538464 0)
(0.0108287310229 0.0696315626357 0)
(0.00995809340553 0.0624705116232 0)
(0.00910481209176 0.0559117769534 0)
(0.0082824909843 0.049936679302 0)
(0.00750014107017 0.044518956267 0)
(0.00676409837932 0.0396272501945 0)
(0.00607743805182 0.0352273601862 0)
(0.0054417322692 0.0312837466633 0)
(0.00485665902158 0.0277607757047 0)
(0.00432139441864 0.0246233787471 0)
(0.00383413116403 0.0218375514608 0)
(0.00339296135641 0.0193705865824 0)
(0.00299523556752 0.0171914053932 0)
(0.00263824160292 0.0152707807769 0)
(0.00231872180814 0.0135815905809 0)
(0.00203346026391 0.0120988605362 0)
(0.00177876280409 0.0107997356139 0)
(0.00155059377251 0.0096630560416 0)
(0.00134329667458 0.00866828881997 0)
(0.00114498439199 0.00779291253807 0)
(0.00097095047588 0.00693452972513 0)
(0.000879780969946 0.00622579439565 0)
(0.000775619588823 0.0056208004163 0)
(0.000680881700192 0.00515442918816 0)
(0.00068055999363 0.00466491224091 0)
(0.000738829035553 0.00426787520488 0)
(0.000772621180461 0.00384133122236 0)
(0.000822985388583 0.00327772777928 0)
(0.000912063385268 0.00267300556125 0)
(0.00113020042947 0.00212233467602 0)
(0.0013850963057 0.00135906089178 0)
(0.00125288450391 0.000372438299576 0)
(-0.0349915427059 0.00690759646142 0)
(-0.0369629435364 0.0221438832477 0)
(-0.0368112034549 0.0372573832365 -2.45296921341e-27)
(-0.0364904681483 0.0523906443987 0)
(-0.0360626923261 0.0673542600521 0)
(-0.0355330028853 0.0821172108741 0)
(-0.0349061129675 0.0966381641347 0)
(-0.0341874179035 0.110878138031 0)
(-0.0333828336474 0.124800394444 0)
(-0.0324986881753 0.13837076624 0)
(-0.0315415460548 0.151557825294 0)
(-0.0305181154208 0.164332972616 0)
(-0.0294350553477 0.176670469281 0)
(-0.0282988989207 0.188547391675 0)
(-0.0271158546344 0.19994353967 0)
(-0.0258917650013 0.210841275841 0)
(-0.0246319150955 0.221225330702 0)
(-0.0233410455328 0.231082549854 0)
(-0.0220231789624 0.240401626009 0)
(-0.020681703433 0.249172789286 0)
(-0.0193192223452 0.257387506692 0)
(-0.0179377172328 0.265038159593 0)
(-0.0165384173745 0.272117756133 0)
(-0.0151220414965 0.278619639901 0)
(-0.0136886736634 0.284537256078 0)
(-0.0122380764004 0.289863926298 0)
(-0.0107695551947 0.294592696947 0)
(-0.00928233556486 0.298716201966 0)
(-0.00777540116196 0.302226610687 0)
(-0.00624793086446 0.305115587793 0)
(-0.00469911811693 0.307374369009 0)
(-0.00312863913118 0.308993817882 0)
(-0.00153642753759 0.309964605298 0)
(7.67665409596e-05 0.31027741792 0)
(0.00170969089574 0.309923258921 0)
(0.00335999142229 0.308893762855 0)
(0.00502461916703 0.307181609853 0)
(0.00669921081064 0.304780934164 0)
(0.00837861412733 0.301687806084 0)
(0.0100562681941 0.297900682839 0)
(0.0117248481099 0.293420895756 0)
(0.013375642719 0.2882530847 0)
(0.0149992737072 0.282405630901 0)
(0.0165850424531 0.275891044703 0)
(0.0181216294154 0.268726333649 0)
(0.0195963798987 0.260933385099 0)
(0.0209958794566 0.252539338329 0)
(0.0223052220876 0.243577083049 0)
(0.0235084445758 0.234085756913 0)
(0.0245880024986 0.224111468846 0)
(0.025525248214 0.21370793514 0)
(0.0263005699707 0.202937292229 0)
(0.0268942789362 0.191870495143 0)
(0.0272878700748 0.180587546741 0)
(0.0274654486101 0.169176777006 0)
(0.027415869167 0.157733439962 0)
(0.0271338631973 0.146357142308 0)
(0.02662169309 0.135148716949 0)
(0.0258887053446 0.124206670819 0)
(0.0249519286215 0.113623904028 0)
(0.0238346436809 0.1034846807 0)
(0.0225669638211 0.0938619522209 0)
(0.0211850420168 0.0848140227406 0)
(0.0197297656592 0.0763809293208 0)
(0.0182415774524 0.0685829618028 0)
(0.0167572015043 0.0614219853787 0)
(0.0153062290328 0.0548848543562 0)
(0.0139110475132 0.0489474843649 0)
(0.0125868048282 0.0435786665694 0)
(0.0113431533505 0.0387429635103 0)
(0.010184968269 0.0344029440738 0)
(0.00911397268131 0.0305207249955 0)
(0.00812939786421 0.0270590452484 0)
(0.00722925872405 0.0239817958223 0)
(0.0064105853555 0.0212542258497 0)
(0.00566989780156 0.0188430064514 0)
(0.0050028808694 0.0167164792103 0)
(0.00440470888477 0.0148449612574 0)
(0.00387002811473 0.0132010013412 0)
(0.00339339534595 0.0117594231055 0)
(0.00296926475633 0.0104972220518 0)
(0.00259240172028 0.009393167638 0)
(0.00225805113402 0.00842673072072 0)
(0.0019630966091 0.00758283497508 0)
(0.00171525217308 0.00674683394582 0)
(0.00153787750669 0.00608471821623 0)
(0.00137561327352 0.00560295494854 0)
(0.00120089423474 0.00493407851507 0)
(0.00110163795735 0.00435322095291 0)
(0.00115179941026 0.00400002462165 0)
(0.0013279988305 0.00371167657243 0)
(0.00137290369663 0.00297017029697 0)
(0.00157067667061 0.00245180613066 0)
(0.00184057996563 0.0017896219438 0)
(0.00207516853838 0.00107676050698 0)
(0.00201984859011 0.000332284018899 0)
(-0.0494741472536 0.00696507995449 0)
(-0.0522850410395 0.0223477249876 0)
(-0.0520680251972 0.0375852134021 2.45264487516e-27)
(-0.0516101622638 0.0528476951076 0)
(-0.0510002155471 0.0679369022996 0)
(-0.0502458492892 0.0828206113685 0)
(-0.0493537139844 0.0974563232912 0)
(-0.048331458051 0.111804246518 0)
(-0.0471875470098 0.125827042291 0)
(-0.0459310549094 0.139490128888 0)
(-0.0445714363914 0.152761838305 0)
(-0.0431183324185 0.16561350777 0)
(-0.0415813432973 0.178019503441 0)
(-0.0399698492239 0.189957172627 0)
(-0.0382927957636 0.201406736018 0)
(-0.0365585480719 0.212351115787 0)
(-0.0347747080425 0.222775714938 0)
(-0.0329480245363 0.232668145508 0)
(-0.0310842617645 0.242017926256 0)
(-0.029188185297 0.250816149312 0)
(-0.0272634946877 0.259055141038 0)
(-0.025312894741 0.266728116647 0)
(-0.0233380914655 0.273828855953 0)
(-0.0213399424481 0.280351396136 0)
(-0.0193185000033 0.286289767484 0)
(-0.0172732229472 0.29163776164 0)
(-0.0152030446165 0.296388755913 0)
(-0.0131066287063 0.300535577005 0)
(-0.0109824458583 0.304070428071 0)
(-0.00882906554539 0.306984849139 0)
(-0.00664524963501 0.309269786861 0)
(-0.00443024072813 0.310915641618 0)
(-0.00218386501646 0.311912441359 0)
(9.31215545116e-05 0.312250070751 0)
(0.00239899234233 0.311918565756 0)
(0.00473070379326 0.310908464432 0)
(0.00708391841363 0.309211231373 0)
(0.0094527024279 0.306819717163 0)
(0.0118296544617 0.303728662363 0)
(0.0142056785861 0.299935202276 0)
(0.0165702303546 0.295439371893 0)
(0.0189111565422 0.290244571988 0)
(0.0212150097579 0.284357994623 0)
(0.0234668856018 0.277790993062 0)
(0.0256506882726 0.270559408459 0)
(0.027748857701 0.26268388317 0)
(0.0297424569855 0.254190193817 0)
(0.0316107517368 0.24510968796 0)
(0.0333311316084 0.235479851265 0)
(0.034878762155 0.225345111236 0)
(0.03622669658 0.214757800884 0)
(0.0373462304084 0.203779312799 0)
(0.0382079496582 0.192481115566 0)
(0.038783580666 0.180945448154 0)
(0.0390484579537 0.169265061036 0)
(0.038984674322 0.157541770292 0)
(0.0385835703413 0.145883442263 0)
(0.0378477043497 0.134399943892 0)
(0.0367906682445 0.123198819398 0)
(0.0354368874664 0.112381451951 0)
(0.0338199315209 0.102040051872 0)
(0.0319825555252 0.0922556556889 0)
(0.0299790401806 0.0830935870111 0)
(0.0278720113318 0.0745966979747 0)
(0.0257238740961 0.0667825878861 0)
(0.0235896418878 0.0596460972188 0)
(0.0215124405155 0.0531649556685 0)
(0.0195231205011 0.0473060110169 0)
(0.017641797747 0.0420302217569 0)
(0.0158803503201 0.0372959037261 0)
(0.014244217111 0.0330608673105 0)
(0.0127342808281 0.0292838668219 0)
(0.011348359374 0.0259254976088 0)
(0.010082781345 0.0229484283359 0)
(0.00893312245513 0.0203171002402 0)
(0.00789435829316 0.017997403558 0)
(0.00696036879154 0.0159568595224 0)
(0.00612403676765 0.0141651512314 0)
(0.00537763435156 0.0125944914074 0)
(0.00471330004885 0.0112196699633 0)
(0.00412331284637 0.0100180009765 0)
(0.00360077041736 0.00896907816959 0)
(0.00314042287592 0.00805437569923 0)
(0.00274427261574 0.00726115716742 0)
(0.00238704946077 0.00642910493224 0)
(0.00216558508671 0.00590484148507 0)
(0.00195012809414 0.00531878130456 0)
(0.00174460284085 0.0046547504175 0)
(0.00166357872246 0.00420109353769 0)
(0.00161097591325 0.00359871798678 0)
(0.00173196750038 0.00309231272459 0)
(0.0020453493597 0.00273937265839 0)
(0.00215166150814 0.00199062749896 0)
(0.00243311996297 0.00138962239637 0)
(0.00271665879536 0.000844470661888 0)
(0.00270463291826 0.000276469699281 0)
(-0.0641036941758 0.00703931981547 0)
(-0.0677504580767 0.0226170845677 0)
(-0.0674667368808 0.0380266009746 0)
(-0.0668684991039 0.0534635497515 0)
(-0.0660715815677 0.0687216085748 0)
(-0.0650864179983 0.0837673423642 0)
(-0.0639219011224 0.0985568675614 0)
(-0.0625881833743 0.113049307486 0)
(-0.0610964950615 0.127206493575 0)
(-0.0594588681281 0.140993266297 0)
(-0.0576878466071 0.154377626959 0)
(-0.0557962099946 0.167330826925 0)
(-0.0537966871565 0.179827384078 0)
(-0.0517016948898 0.191845025672 0)
(-0.0495230739831 0.203364563113 0)
(-0.0472718661675 0.21436969947 0)
(-0.0449580981457 0.224846778888 0)
(-0.042590625587 0.234784482366 0)
(-0.0401769936187 0.244173484117 0)
(-0.0377233749965 0.253006077428 0)
(-0.0352345279791 0.261275788964 0)
(-0.0327138414809 0.268976992708 0)
(-0.0301633908428 0.276104543346 0)
(-0.0275840790254 0.282653437557 0)
(-0.0249757674495 0.28861851884 0)
(-0.0223374839947 0.293994227358 0)
(-0.019667596727 0.298774404266 0)
(-0.0169640612556 0.30295214583 0)
(-0.0142246169289 0.306519715528 0)
(-0.0114470633557 0.309468493999 0)
(-0.00862949098975 0.31178904631 0)
(-0.005770545646 0.313471150937 0)
(-0.00286969742593 0.314503972573 0)
(7.24418293063e-05 0.31487629988 0)
(0.00305390061717 0.314576848339 0)
(0.00607104370041 0.313594641574 0)
(0.00911841601742 0.311919469455 0)
(0.0121885213788 0.309542402431 0)
(0.0152717927631 0.306456348788 0)
(0.0183565059231 0.302656622994 0)
(0.0214289049567 0.298141499502 0)
(0.0244732450455 0.292912715911 0)
(0.0274720169888 0.286975903143 0)
(0.0304060117463 0.280340924371 0)
(0.0332544770412 0.273022132989 0)
(0.0359950070483 0.265038577229 0)
(0.0386034205169 0.256414224288 0)
(0.0410533313709 0.247178293044 0)
(0.0433157133419 0.237365823745 0)
(0.0453583534897 0.227018591581 0)
(0.0471455978325 0.216186445165 0)
(0.0486385622794 0.204929055852 0)
(0.0497963245989 0.193317811128 0)
(0.0505783324057 0.181437464086 0)
(0.0509482898343 0.16938671321 0)
(0.0508789095137 0.15727682182 0)
(0.0503565443547 0.145227866575 0)
(0.0493837838656 0.133362937396 0)
(0.0479789387601 0.121802414181 0)
(0.0461749957004 0.110659180301 0)
(0.0440158208783 0.100035833677 0)
(0.0415554205278 0.0900260392778 0)
(0.0388695802493 0.0807079749448 0)
(0.0360501669266 0.0721298064769 0)
(0.0331884348083 0.0643042156143 0)
(0.0303618956132 0.0572137912113 0)
(0.0276279093857 0.050821225379 0)
(0.0250243814911 0.0450794225431 0)
(0.02257418883 0.0399381987825 0)
(0.0202895366473 0.0353474364193 0)
(0.0181746618841 0.0312587056465 0)
(0.0162280388732 0.0276264990742 0)
(0.0144446493358 0.0244089988158 0)
(0.0128183247705 0.0215678514986 0)
(0.0113430314439 0.0190669516907 0)
(0.0100124995944 0.016871273619 0)
(0.0088187868052 0.0149470650431 0)
(0.00775211102351 0.0132630340439 0)
(0.00680194215403 0.0117909836984 0)
(0.00595762931848 0.0105057432056 0)
(0.00520860983 0.00938526582832 0)
(0.00454514533623 0.00841078458852 0)
(0.00395889997075 0.00757051644805 0)
(0.00345134713097 0.00682620356002 0)
(0.00303602286316 0.00612574238843 0)
(0.00280434758513 0.00565830876178 0)
(0.00261456485466 0.00508648935969 0)
(0.00238896761786 0.00443800853571 0)
(0.00215980280018 0.00369026994521 0)
(0.00215733283109 0.0032026158509 0)
(0.00219375864368 0.00258762402405 0)
(0.00252242166036 0.00221316722204 0)
(0.00288971983662 0.00173774739544 0)
(0.00297882721588 0.00110297753662 0)
(0.00313883408539 0.000641008544295 0)
(0.00312354727314 0.000212266007353 0)
(-0.0789301557081 0.00713189920284 0)
(-0.0834196971342 0.022957339148 0)
(-0.0830660054877 0.0385869344609 0)
(-0.0823220535427 0.054245958377 0)
(-0.0813310489456 0.0697184241791 0)
(-0.0801063500928 0.0849695201098 0)
(-0.0786593509914 0.0999537045937 0)
(-0.0770029871055 0.11462874752 0)
(-0.0751515346228 0.128955426617 0)
(-0.0731202680209 0.142897844256 0)
(-0.0709251015351 0.156423581958 0)
(-0.0685822329488 0.16950378866 0)
(-0.0661077863919 0.182113189568 0)
(-0.0635174714975 0.194230016458 0)
(-0.0608262539153 0.205835861761 0)
(-0.0580480587739 0.21691545879 0)
(-0.0551955018364 0.22745639415 0)
(-0.0522796746011 0.237448759466 0)
(-0.04930997561 0.24688475489 0)
(-0.0462940154752 0.255758258286 0)
(-0.0432375797053 0.264064379066 0)
(-0.0401446729464 0.271799014818 0)
(-0.0370176154743 0.278958430971 0)
(-0.0338572101594 0.285538878409 0)
(-0.0306629387101 0.291536262401 0)
(-0.0274332063178 0.296945867902 0)
(-0.0241655896236 0.301762144513 0)
(-0.0208571180844 0.305978547725 0)
(-0.017504546705 0.309587437054 0)
(-0.014104664197 0.312580009666 0)
(-0.0106546112751 0.314946364766 0)
(-0.00715217811256 0.31667550289 0)
(-0.00359618629465 0.317755497729 0)
(1.31476471491e-05 0.318173735091 0)
(0.00367387311573 0.317917228008 0)
(0.00738195373305 0.316973031414 0)
(0.0111309960294 0.315328749401 0)
(0.0149120114125 0.31297312106 0)
(0.0187133099348 0.309896659356 0)
(0.0225204617768 0.306092311176 0)
(0.0263164143926 0.301556091407 0)
(0.0300816633818 0.296287648035 0)
(0.0337945335108 0.290290709474 0)
(0.0374314140717 0.283573386627 0)
(0.0409669658841 0.27614832473 0)
(0.0443741070587 0.268032738241 0)
(0.0476237911984 0.259248424727 0)
(0.0506844278509 0.249821887966 0)
(0.0535210537258 0.239784787753 0)
(0.0560942998171 0.229174924346 0)
(0.0583594914623 0.218037959129 0)
(0.0602663695624 0.206430014789 0)
(0.0617600087887 0.194420888695 0)
(0.0627838970356 0.182097442432 0)
(0.063285404893 0.169565687779 0)
(0.0632236787598 0.156950087231 0)
(0.0625774795109 0.144388383735 0)
(0.0613497033819 0.132022403737 0)
(0.0595645046223 0.119990090948 0)
(0.0572665137422 0.10841838653 0)
(0.0545095591223 0.0974205206126 0)
(0.0513510147883 0.0871094446159 0)
(0.0478936213026 0.0775883417011 0)
(0.0442728781694 0.0689155362251 0)
(0.0406213057341 0.0610942780158 0)
(0.0370451664735 0.0540855180153 0)
(0.033615859111 0.0478273813945 0)
(0.0303744978462 0.042252232059 0)
(0.0273426655736 0.037295326263 0)
(0.0245300825785 0.0328963373936 0)
(0.0219375447615 0.0289993425659 0)
(0.0195588591138 0.0255538388501 0)
(0.0173839905866 0.0225157772513 0)
(0.0154030435912 0.0198468102494 0)
(0.0136085850492 0.0175112781108 0)
(0.011994199475 0.0154731635077 0)
(0.0105503643436 0.0136964765216 0)
(0.00926374802266 0.0121483130375 0)
(0.00812039381946 0.0108000169225 0)
(0.00710651772014 0.00962634536933 0)
(0.00620806657366 0.00860552286522 0)
(0.00541161651761 0.00771930005366 0)
(0.00470434857269 0.00695805453946 0)
(0.00408173423037 0.00625465741979 0)
(0.00362832920721 0.00563656074851 0)
(0.00337707413595 0.00514952966018 0)
(0.00310630751462 0.00448992349919 0)
(0.00296919316429 0.00398959801586 0)
(0.00287547722213 0.0034508822143 0)
(0.00286738149634 0.00291860739826 0)
(0.00270742795155 0.00217733052641 0)
(0.0028718069665 0.00167638465714 0)
(0.00333187754672 0.00136872352197 0)
(0.00348845078104 0.000926354922828 0)
(0.0035281524257 0.000518334443543 0)
(0.00351749551841 0.000171530646849 0)
(-0.093999648284 0.00724437433354 0)
(-0.0993429177854 0.023372641946 0)
(-0.0989147088813 0.0392716257081 2.47047331351e-27)
(-0.098017905343 0.0552021994855 0)
(-0.0968235583023 0.0709364527275 0)
(-0.0953481350744 0.0864378861962 0)
(-0.0936058047066 0.101658945522 0)
(-0.0916126063794 0.116555747366 0)
(-0.0893862052467 0.131087778989 0)
(-0.0869454730564 0.145218239816 0)
(-0.0843100504762 0.158914203871 0)
(-0.0814999071928 0.172146708007 0)
(-0.0785349041598 0.184890753424 0)
(-0.0754343694262 0.197125221155 0)
(-0.0722166910315 0.208832702812 0)
(-0.0688989418617 0.219999247618 0)
(-0.0654965431429 0.23061403027 0)
(-0.0620229863377 0.240668946557 0)
(-0.0584896212766 0.250158149757 0)
(-0.0549055297988 0.259077544886 0)
(-0.0512774855815 0.267424263692 0)
(-0.0476100097467 0.275196144826 0)
(-0.0439055076878 0.282391244418 0)
(-0.0401644830621 0.28900739754 0)
(-0.0363858009184 0.295041845304 0)
(-0.0325669910872 0.30049093295 0)
(-0.0287045644014 0.305349877429 0)
(-0.0247943443144 0.309612596766 0)
(-0.02083179993 0.313271595624 0)
(-0.0168123992232 0.316317878224 0)
(-0.0127319964095 0.318741006273 0)
(-0.00858718199051 0.320529054473 0)
(-0.0043757659871 0.321668776167 0)
(-9.72219634075e-05 0.322145832987 0)
(0.00424685710408 0.321945121123 0)
(0.00865231165851 0.321051221874 0)
(0.0131120317398 0.319448973471 0)
(0.0176156521275 0.317124150466 0)
(0.0221493846948 0.314064220493 0)
(0.0266959932483 0.31025913598 0)
(0.0312349498968 0.305702097354 0)
(0.0357427361428 0.300390220111 0)
(0.0401932746634 0.294325029536 0)
(0.044558379601 0.287512725699 0)
(0.0488081381476 0.279964191893 0)
(0.0529110401614 0.271694770517 0)
(0.0568337310422 0.26272392185 0)
(0.0605402404527 0.253074949646 0)
(0.0639906232218 0.242775117162 0)
(0.067139168008 0.231856489091 0)
(0.0699323786669 0.220358023526 0)
(0.0723074901889 0.208329138884 0)
(0.0741925616432 0.195834965258 0)
(0.075509578484 0.182962545631 0)
(0.0761822394963 0.169826230711 0)
(0.0761487261084 0.156568670081 0)
(0.0753761334917 0.143353690129 0)
(0.073869565104 0.130349777717 0)
(0.0716607161862 0.117719051128 0)
(0.068815351681 0.105604074233 0)
(0.0653976680949 0.0941201904453 0)
(0.061439487587 0.0834099622668 0)
(0.0570806289809 0.0736296885002 0)
(0.0525303268633 0.064857320578 0)
(0.0479844745804 0.0570763138141 0)
(0.0435869372751 0.0502081441969 0)
(0.0394196159948 0.0441503588093 0)
(0.0355175064479 0.0388060448835 0)
(0.0318935937524 0.034093621185 0)
(0.0285517433486 0.0299421793851 0)
(0.025487123682 0.0262873731017 0)
(0.0226857632815 0.0230728611062 0)
(0.0201290499204 0.0202531204702 0)
(0.017801237377 0.0177923982531 0)
(0.0156946380399 0.0156580693357 0)
(0.0138059193733 0.0138130206496 0)
(0.0121248432893 0.0122165862724 0)
(0.0106321086218 0.0108330410011 0)
(0.00930937577683 0.0096337352326 0)
(0.00813985683046 0.00859340136655 0)
(0.00710543403298 0.00769034863556 0)
(0.006188997588 0.00690690468288 0)
(0.00537432097678 0.00623558279528 0)
(0.00465451254472 0.00558404273142 0)
(0.00422421679466 0.0050886476849 0)
(0.00394595123757 0.00457538998345 0)
(0.00369555753794 0.00402340961421 0)
(0.00347084495113 0.00344179291175 0)
(0.00342553035467 0.00296080559321 0)
(0.00333369482471 0.00237132525734 0)
(0.00341244523639 0.00192053782868 0)
(0.0033188120481 0.00133478659064 0)
(0.00352660730052 0.00099153184088 0)
(0.00384170216741 0.00073813379639 0)
(0.00384185348567 0.000413268509076 0)
(0.00383188386572 0.0001367925619 0)
(-0.109361657078 0.0073779732667 0)
(-0.115572579225 0.0238674796821 0)
(-0.115064257692 0.0400874462665 -2.47009400304e-27)
(-0.114005665882 0.056341449196 0)
(-0.112596407303 0.0723870983817 0)
(-0.110856336373 0.08818581745 0)
(-0.108802737532 0.103687615833 0)
(-0.106455143492 0.118846618709 0)
(-0.103835027337 0.133620764606 0)
(-0.10096529243 0.147972176196 0)
(-0.097869744319 0.161867331641 0)
(-0.0945725598322 0.175277153423 0)
(-0.0910977601883 0.188177002032 0)
(-0.0874686963011 0.200546576076 0)
(-0.083707552812 0.212369717668 0)
(-0.0798348836012 0.223634122262 0)
(-0.0758691924376 0.234330954105 0)
(-0.0718265795023 0.244454373306 0)
(-0.0677204725107 0.254000987526 0)
(-0.0635614633284 0.26296924933 0)
(-0.0593572610499 0.271358827918 0)
(-0.0551127674794 0.279169988619 0)
(-0.0508302642833 0.286403014051 0)
(-0.0465096946665 0.293057695341 0)
(-0.0421490085275 0.299132911587 0)
(-0.0377445439598 0.304626302029 0)
(-0.0332914167853 0.309534022766 0)
(-0.0287839084093 0.313850571182 0)
(-0.0242158492554 0.3175686628 0)
(-0.0195810144904 0.320679120272 0)
(-0.014873568669 0.323170917656 0)
(-0.0100884726588 0.325031073481 0)
(-0.00522207077487 0.326244797129 0)
(-0.000272638422121 0.326795692687 0)
(0.0047590269529 0.326666087813 0)
(0.00986902261401 0.325837521111 0)
(0.0150498170073 0.324291391689 0)
(0.0202898340487 0.32200976116 0)
(0.0255732063093 0.318976272184 0)
(0.0308797408916 0.315177132528 0)
(0.0361851373374 0.31060207539 0)
(0.0414614513675 0.305245199967 0)
(0.0466777711143 0.299105568062 0)
(0.0518009865611 0.292187456064 0)
(0.0567965077697 0.284500186261 0)
(0.0616286633873 0.276057533123 0)
(0.0662605858021 0.266876836322 0)
(0.0706532133302 0.256978011707 0)
(0.0747634181369 0.246382980639 0)
(0.0785409709941 0.235115994217 0)
(0.0819248588297 0.223205660225 0)
(0.0848395159724 0.210689653846 0)
(0.0871925772175 0.197622516642 0)
(0.0888768085437 0.184086740362 0)
(0.089780184057 0.170204521935 0)
(0.0898064276964 0.156143713248 0)
(0.0889038586433 0.142108979885 0)
(0.0870865239512 0.128306756399 0)
(0.0843927581411 0.114935653457 0)
(0.0809390213414 0.102155131453 0)
(0.0768107824344 0.0900444904921 0)
(0.0719163390898 0.0787922584637 0)
(0.0664598475583 0.0686790197298 0)
(0.0607915589943 0.0598191838478 0)
(0.0552098798341 0.0521506520026 0)
(0.0499070544455 0.0455204000989 0)
(0.0449628726481 0.0397576894973 0)
(0.0403846670836 0.0347259651066 0)
(0.0361642040331 0.030329346985 0)
(0.0322976347426 0.0264896863651 0)
(0.0287740096649 0.0231332191027 0)
(0.025567435593 0.0201956576839 0)
(0.0226439983256 0.0176311743366 0)
(0.0199778317784 0.0154123425973 0)
(0.0175640610629 0.0135159156231 0)
(0.0154112366426 0.011903329486 0)
(0.0135109020992 0.0105226311583 0)
(0.0118302742772 0.00933281670854 0)
(0.010345294128 0.00830774190713 0)
(0.00903792542774 0.00742238481925 0)
(0.00788469690792 0.00665464100985 0)
(0.00686489615058 0.00598791491727 0)
(0.00596039903943 0.00541497240013 0)
(0.00515431827385 0.0048203384593 0)
(0.0047690442708 0.00442944255846 0)
(0.00444899087937 0.00392242921116 0)
(0.00426461698685 0.00348335313454 0)
(0.00406941674336 0.0029611120066 0)
(0.00393819966049 0.00244973076706 0)
(0.00379314927029 0.00191394688393 0)
(0.00376698954637 0.00147979152759 0)
(0.0038585286619 0.00112346868844 0)
(0.00379016033026 0.000742613886541 0)
(0.00412249590858 0.000546771256025 0)
(0.00408916688349 0.000324211373971 0)
(0.00406593373615 0.000103359874116 0)
(-0.125068857494 0.00753399578167 0)
(-0.132163997854 0.0244471143261 0)
(-0.131568782419 0.0410426906148 0)
(-0.13033748576 0.0576750161086 0)
(-0.128699174462 0.0740844032987 0)
(-0.126677467397 0.0902297458649 0)
(-0.124293194094 0.10605813437 0)
(-0.121569859486 0.121521323358 0)
(-0.11853325388 0.136575420951 0)
(-0.115210837097 0.151181288265 0)
(-0.111631108397 0.165304718501 0)
(-0.107822976727 0.178916524645 0)
(-0.103815136946 0.191992525518 0)
(-0.0996354567216 0.204513430927 0)
(-0.0953103796032 0.21646462262 0)
(-0.0908643566019 0.227835824924 0)
(-0.0863193245384 0.238620661676 0)
(-0.0816942580104 0.248816101321 0)
(-0.0770048243851 0.25842180308 0)
(-0.0722631719185 0.267439389057 0)
(-0.0674778718263 0.275871680174 0)
(-0.0626540229327 0.283721942071 0)
(-0.0577935072034 0.29099318934 0)
(-0.0528953673899 0.297687588851 0)
(-0.0479562618545 0.303805986955 0)
(-0.0429709494019 0.309347563137 0)
(-0.0379327634867 0.314309591234 0)
(-0.0328340572245 0.318687274899 0)
(-0.0276666236305 0.322473625656 0)
(-0.0224221184409 0.325659325809 0)
(-0.0170925447748 0.328232747638 0)
(-0.0116707125681 0.330179756215 0)
(-0.00615093593151 0.331483813464 0)
(-0.000529706646819 0.33212612818 0)