/*--------------------------------*- C++ -*----------------------------------*\
| =========                 |                                                 |
| \\      /  F ield         | OpenFOAM: The Open Source CFD Toolbox           |
|  \\    /   O peration     | Version:  v1906                                 |
|   \\  /    A nd           | Web:      www.OpenFOAM.com                      |
|    \\/     M anipulation  |                                                 |
\*---------------------------------------------------------------------------*/
FoamFile
{
    version     2.0;
    format      ascii;
    class       volScalarField;
    location    "830";
    object      pa;
}
// * * * * * * * * * * * * * * * * * * * * * * * * * * * * * * * * * * * * * //

dimensions      [0 2 -2 0 0 0 0];


internalField   nonuniform List<scalar> 
9216
(
976.213833898
975.849353972
975.108796995
973.988962911
972.493519735
970.626725143
968.393952511
965.801551678
962.856839579
959.567977554
955.943970676
951.994530715
947.730083486
943.161620978
938.300720926
933.159394029
927.750120299
922.085696737
916.179294003
910.044308629
903.694442072
897.143559603
890.405791834
883.49540043
876.426900366
869.21493059
861.874393576
854.420327587
846.868058983
839.233071403
831.53116567
823.778320582
815.990853078
808.185264658
800.378397037
792.587257268
784.829161434
777.12153337
769.482032019
761.928320505
754.478175553
747.149227284
739.959052775
732.924891027
726.063725453
719.391980336
712.925595379
706.679707774
700.668714103
694.905935175
689.403648154
684.17272599
679.222616188
674.56095541
670.193488952
666.123698146
662.352707522
658.879015241
655.698485558
652.804278218
650.186998253
647.834857127
645.733983294
643.868754253
642.222191399
640.776309271
639.512595377
638.412554737
637.458278105
636.632835356
635.920573174
635.307205706
634.779882477
634.327108453
633.93870928
633.605679076
633.32012241
633.075106097
632.864631959
632.683500996
632.527272483
632.392110195
632.274740563
632.172304827
632.081987466
632.004199477
631.940518289
631.890420044
631.852628502
631.825202705
631.806155865
631.79334541
631.784934111
631.779906509
631.777401396
631.776528122
976.577915821
976.212288013
975.470474624
974.347590735
972.847850559
970.975666362
968.73649025
966.136749407
963.183818142
959.885935992
956.252166654
952.292304272
948.016831968
943.436823449
938.563907309
933.410170064
927.988131462
922.310654157
916.39093414
910.242420829
903.878825094
897.314051625
890.56222501
883.637634136
876.554774749
869.328303686
861.973094666
854.504198654
846.936908421
839.286720296
831.569402064
823.800950003
815.997654481
808.176046888
800.352955165
792.545433287
784.770801291
777.046551441
769.390367417
761.820003696
754.353282095
747.007944738
739.801630419
732.751705918
725.875228119
719.188760748
712.708327555
706.449218628
700.425932486
694.651966635
689.139733347
683.900318404
678.943346803
674.276696765
669.906308333
665.835879048
662.066667895
658.597271227
655.423539547
652.538549392
649.932709514
647.593973377
645.508134339
643.659220975
642.029889727
640.601716377
639.355664462
638.272743574
637.334646561
636.524196076
635.82560773
635.224570907
634.708260598
634.265262914
633.885492679
633.560053692
633.281134531
633.041890891
632.836395745
632.659548976
632.5069954
632.375001641
632.26039211
632.160472705
632.0729386
631.996873183
631.93423053
631.88574631
631.848882057
631.822052144
631.803757128
631.791510541
631.783367848
631.77868121
631.776458543
631.775566854
977.32002784
976.951238775
976.205201009
975.07598279
973.567831645
971.685223967
969.433703905
966.819810515
963.851032098
960.535737383
956.883115039
952.903095778
948.606288382
944.003899737
939.10767414
933.929817643
928.482946419
922.780020765
916.834307091
910.65932545
904.268827951
897.676761629
890.897263886
883.944640251
876.833375257
869.578122574
862.193727934
854.695227662
847.097879116
839.417162615
831.668814146
823.868824654
816.033468547
808.179294584
800.323143155
792.48212078
784.673599428
776.915168164
769.224608594
761.619819423
754.118765736
746.739376656
739.499471359
732.416635612
725.508132445
718.790766927
712.280790194
705.993759016
699.94443411
694.146628368
688.613083193
683.355280719
678.383264797
673.705385438
669.32804201
665.255368414
661.488955368
658.027591928
654.867135955
652.000475402
649.417623275
647.105978461
645.050625542
643.234866682
641.640670303
640.248703295
639.038782255
637.99082157
637.085674799
636.305659468
635.634760665
635.058633236
634.56453499
634.141221468
633.778816772
633.468645786
633.203082303
632.975438805
632.779936152
632.611663903
632.46645472
632.340752873
632.231535848
632.136251671
632.052634061
631.979941712
631.921460269
631.876311785
631.841270657
631.815993769
631.799197208
631.787745533
631.780384923
631.776236454
631.774075342
631.773010523
978.447670928
978.075219892
977.322679576
976.183709114
974.662641326
972.764057402
970.493639892
967.858091289
964.865078454
961.523163496
957.84173375
953.830924844
949.501546484
944.865004434
939.933229183
934.718603554
929.233900518
923.492222192
917.506951844
911.291708466
904.860316092
898.2267759
891.40525349
884.410067903
877.255695018
869.956770607
862.528106136
854.984701513
847.341768516
839.61474807
831.819336143
823.971499369
816.08749638
808.183886014
800.27753698
792.385619576
784.525595762
776.715186865
768.972336877
761.315150641
753.761827108
746.330567802
739.039483398
731.906479782
724.949148743
718.184645137
711.629575661
705.299878977
699.210718234
693.376359859
687.8100513
682.523863821
677.528503758
672.833059667
668.444687884
664.368244095
660.605883639
657.156735708
654.016679016
651.178331099
648.631049547
646.361371059
644.35317223
642.588626902
641.048875717
639.713193875
638.559389711
637.565482004
636.710966155
635.977433295
635.348614131
634.810189089
634.349599027
633.9558995
633.619582409
633.332341932
633.086844067
632.876603019
632.696037526
632.540539399
632.406253173
632.289884915
632.188632692
632.100141963
632.02216313
631.955154702
631.902294073
631.861194504
631.829978365
631.807441015
631.792004867
631.781805619
631.775421191
631.771701021
631.769651533
631.768647355
979.963828212
979.586673677
978.825337602
977.673147717
976.134574641
974.21435265
971.918355735
969.253508862
966.227724599
962.849828816
959.129482906
955.077102098
950.70377345
946.021173613
941.041490047
935.777345421
930.241728912
924.447933598
918.409503469
912.140188546
905.653911177
898.964741054
892.08688148
885.034663454
877.822549656
870.465144162
862.977209858
855.37368895
847.66972868
839.880707293
832.022263003
824.110319103
816.161108816
808.191193883
800.217477699
792.257206963
784.327963755
776.447641033
768.634404452
760.906634208
753.282851675
745.781626424
738.421471241
731.220723534
724.197423456
717.369189326
710.753100878
704.36558958
698.222341557
692.338203507
686.727087718
681.401846204
676.374104352
671.653995607
667.249808631
663.167487265
659.410096571
655.977285454
652.865014541
650.065548002
647.567260034
645.355528499
643.412209388
641.717834233
640.253211385
638.995752415
637.919826637
637.000358832
636.214864027
635.544111074
634.971728062
634.483597566
634.0674984
633.712964694
633.411080618
633.154123873
632.935169127
632.74790849
632.586925683
632.448088874
632.328033005
632.223810801
632.132901088
632.053241821
631.982700496
631.923333279
631.877434403
631.841701844
631.814343746
631.794883823
631.781926988
631.773408919
631.767911832
631.764703873
631.762911075
631.762020803
981.873127747
981.490073877
980.717580174
979.548592403
977.987772404
976.040059946
973.711580143
971.009546663
967.942190864
964.518679718
960.749029678
956.644017125
952.215088072
947.474268472
942.434077792
937.107447027
931.507643715
925.648204808
919.542879604
913.20558298
906.650360425
899.891364193
892.942841167
885.819130772
878.534672771
871.104022657
863.541874214
855.863086805
848.082717094
840.216052751
832.278648555
824.286360242
816.255377477
808.202252508
800.143921764
792.09771719
784.081365332
776.112969739
768.210975397
760.394111661
752.68131431
745.091625865
737.644078374
730.357562159
723.250688916
716.341656922
709.6481282
703.187125727
696.974953303
691.027139813
685.35838674
679.982509528
674.912305394
670.159330544
665.733464665
661.642298691
657.890268506
654.477863141
651.401124481
648.652048196
646.217392284
644.081451015
642.222251844
640.617697958
639.25081435
638.096675793
637.123335613
636.300654156
635.603459343
635.011959371
634.510202694
634.084629806
633.72353493
633.41714824
633.157485721
632.937759874
632.751611967
632.592702274
632.455520177
632.33676331
632.233888488
632.144334342
632.065864324
631.99685272
631.935818192
631.885798578
631.846899739
631.816706677
631.794312732
631.779186809
631.76866775
631.761947553
631.757760128
631.754942572
631.7534249
631.752661509
984.18136723
983.791121484
983.00499566
981.815473411
980.227459338
978.246154994
975.878002214
973.13057729
970.012511075
966.533397314
962.70369631
958.53463543
954.038108615
949.226577185
944.112973967
938.710613018
933.033106862
927.09429331
920.908173418
914.488862001
907.850551424
901.007488959
893.973967205
886.764326653
879.392968869
871.874378675
864.223153556
856.454038756
848.581966694
840.622099419
832.589873824
824.501045598
816.371733032
808.218457814
800.058178457
791.908313842
783.786752862
775.711845826
767.70237406
759.777494126
751.956655199
744.259489259
736.705677473
729.314798462
722.106168743
715.098687733
708.310702812
701.759907268
695.463285095
689.43709663
683.696912232
678.257631803
673.133487636
668.337859368
663.882876207
659.778546316
656.031486599
652.643421546
649.610368443
646.924568336
644.569620506
642.53063356
640.776955191
639.28090806
638.036878236
637.016686248
636.175418145
635.474548155
634.885645747
634.389579672
633.972115536
633.620831683
633.324559146
633.074416965
632.863887174
632.687794523
632.540638953
632.415406511
632.305551934
632.209524108
632.126347225
632.053663879
631.989295902
631.932393411
631.882358989
631.842236244
631.811087201
631.787687157
631.771068121
631.759743941
631.75187147
631.746970092
631.744304701
631.742297949
631.741227335
631.7407041
986.895615625
986.496796196
985.694424893
984.480429117
982.860012822
980.838700632
978.423324619
975.621906451
972.443566851
968.898421937
964.997474752
960.752503391
956.175948415
951.280801697
946.080499301
940.588820529
934.819795805
928.787625443
922.506611672
915.991105308
909.255468426
902.314052988
895.181195143
887.871223501
880.398479698
872.7773487
865.022296968
857.147916384
849.16897291
841.100458688
832.957648147
824.756153486
816.511982052
808.241591908
799.96194088
791.690525889
783.445407478
775.245213725
767.109118385
759.056787877
751.10829399
743.283990729
735.604358239
728.08982085
720.760552014
713.636285429
706.736152579
700.078576145
693.681228592
687.561089475
681.734563056
676.217684748
671.02627846
666.176025798
661.682113548
657.558249894
653.814545041
650.454665829
647.473612408
644.866313208
642.607973515
640.694210432
639.071086514
637.694488922
636.601558491
635.756666591
635.085036245
634.534493564
634.073755954
633.687950572
633.367396123
633.101494478
632.878928994
632.691711462
632.535745874
632.408922177
632.307420005
632.22189432
632.141680847
632.069612923
632.00827305
631.954484937
631.905216182
631.861660423
631.82369661
631.793903898
631.771379398
631.75498151
631.743820106
631.736211297
631.731760391
631.728936129
631.727589853
631.727003576
631.726520893
631.726340781
990.024292507
989.615420033
988.794019311
987.551361743
985.893012644
983.824889524
981.354297609
978.489797818
975.241102747
971.618958721
967.635022543
963.301735016
958.632193705
953.640027658
948.339276418
942.744276251
936.869556132
930.729746638
924.339504154
917.713452922
910.866146083
903.812046411
896.565525592
889.140880371
881.552362453
873.814219283
865.940742525
857.946322362
849.845506175
841.653061327
833.384043125
825.053863584
816.678364782
808.27389269
799.85736597
791.446336181
783.059032503
774.714383679
766.432009428
758.232173649
750.135693305
742.163799214
734.337950203
726.679607674
719.209987832
711.949814755
704.919111765
698.137061575
691.621984729
685.391442665
679.462514995
673.852193862
668.577918221
663.658018755
659.111829555
654.958743318
651.214973567
647.887486819
644.965901529
642.457124085
640.307517485
638.565776244
637.108847392
635.833372642
634.929307417
634.325597759
633.873929151
633.503207136
633.182545713
632.913765316
632.700080342
632.532589663
632.394647267
632.277048645
632.179676103
632.106669912
632.059017896
632.02136754
631.969859729
631.919627662
631.882500912
631.850213934
631.815577713
631.786182206
631.760429765
631.741228241
631.727750629
631.71870779
631.713025111
631.709760115
631.708358721
631.708269041
631.708602631
631.709488193
631.709744718
631.709978168
993.577259498
993.156737943
992.313320045
991.037509499
989.335305883
987.213099199
984.678763311
981.741505585
978.411746835
974.700985905
970.621659114
966.18699635
961.410876868
956.307687077
950.892183256
945.179361881
939.184341178
932.9222572
926.408178324
919.657040963
912.683608931
905.502456782
898.127976295
890.57440293
882.855858394
874.986404432
866.980103999
858.851086896
850.613619187
842.282176612
833.871525118
825.396803906
816.873617509
808.318131535
799.747166546
791.178285333
782.629865237
774.121145644
765.672240166
757.304101962
749.03843207
740.897522742
732.904033562
725.080707014
717.450041328
710.033956032
702.853493946
695.928624901
689.278195745
682.920099921
676.871673737
671.15040369
665.774914381
660.766232209
656.148922191
651.951309804
648.201296736
644.913053948
642.05304546
639.679228933
637.621590479
636.153238285
634.911082327
633.477707773
632.768372408
632.566511581
632.443292346
632.328973334
632.222439424
632.128491036
632.044950215
631.964894789
631.88589391
631.813563616
631.759041146
631.740728583
631.772402475
631.816708859
631.796138215
631.759461736
631.752276461
631.746703052
631.721684429
631.70728643
631.693012568
631.684398993
631.680420982
631.679185769
631.679452401
631.680971917
631.682828246
631.685212456
631.687839186
631.69017326
631.691438664
631.692100438
997.565927641
997.132023119
996.263353388
994.949534672
993.197083978
991.012957343
988.40570759
985.385312369
981.963034048
978.151263742
973.963360176
969.413485872
964.516443114
959.287512361
953.742295413
947.896566815
941.766137112
935.366732911
928.713898333
921.822922675
914.708797181
907.386202433
899.869524508
892.172896044
884.310255631
876.2954188
868.142154259
859.864262072
851.475653137
842.990432399
834.422991081
825.78810465
817.10104588
808.377706948
799.634724472
790.889602056
782.160819598
773.467917131
764.831538649
756.273419735
747.81630255
739.483763341
731.299943803
723.289187674
715.475602709
707.882588228
700.532398432
693.445821151
686.642068554
680.13894218
673.953353188
668.102286517
662.604389994
657.482411031
652.766502979
648.498793827
644.731665918
641.503863419
638.680978377
636.504869267
634.15880973
633.260608777
632.668878522
632.337834911
632.301412017
632.33640138
632.328203634
632.287821214
632.230535926
632.164893761
632.096357239
632.027787904
631.961564621
631.90294535
631.862511858
631.856243333
631.878458916
631.839028787
631.642306241
631.548124244
631.600756825
631.652210378
631.621455307
631.627177463
631.622283522
631.624390114
631.630834936
631.637301577
631.643117097
631.649586275
631.655691334
631.661017536
631.665693221
631.669664691
631.672189706
631.67331823
1002.00338605
1001.5541969
1000.65674703
999.29962829
997.48997508
995.235418891
992.545321048
989.430573152
985.903433061
981.977344118
977.666750484
972.986910427
967.953710256
962.583480394
956.892816079
950.898405591
944.616870968
938.064626944
931.257765337
924.211971222
916.942476396
909.464051977
901.791038641
893.937408006
885.916845854
877.742845836
869.428804497
860.988112188
852.434240796
843.780833277
835.041805191
826.231456514
817.364607972
808.456754048
799.52422686
790.58436376
781.655666114
772.757933747
763.912356476
755.141540055
746.469441812
737.9211904
729.522769081
721.300553807
713.280720694
705.488572483
697.947876398
690.680339182
683.705352945
677.040097071
670.700053922
664.700098368
659.056481137
653.790532884
648.935382882
644.550424034
640.735612923
637.604811263
634.387657868
633.078831468
632.70718346
632.687312265
632.669137984
632.601757648
632.567347578
632.554138014
632.524789628
632.479536811
632.420013885
632.349606873
632.272691003
632.192042537
632.110472084
632.032607876
631.965731132
631.917592181
631.878999335
631.811675035
631.733733289
631.711868727
631.731096812
631.661929812
631.481810715
631.541353863
631.546796929
631.560275432
631.580113689
631.594273271
631.604681807
631.616583834
631.627259478
631.636308341
631.643381394
631.648908791
631.652808353
631.654536238
1006.90455539
1006.43798017
1005.50786794
1004.10163579
1002.2271526
999.892856418
997.109069518
993.88776571
990.242376414
986.187580896
981.739094401
976.913456465
971.727820529
966.199745678
960.346991248
954.187317553
947.738297754
941.017149315
934.040594514
926.824760599
919.385127577
911.736528245
903.893198164
895.868866944
887.676875478
879.330301657
870.842078758
862.225098914
853.492303827
844.656773904
835.731832903
826.731170915
817.669005285
808.560270079
799.420827514
790.267692894
781.119258029
771.995495302
762.918118984
753.910674174
744.998517372
736.208647899
727.569349645
719.109613899
710.858341761
702.843378627
695.090506654
687.622587136
680.459079345
673.615984626
667.106202888
660.940368035
655.128452767
649.683821783
644.62756616
639.998570579
635.795472115
633.256018265
633.04328898
633.006446172
632.996212583
633.006809585
632.991575075
632.945426753
632.894945764
632.849803517
632.80256979
632.747452294
632.68015868
632.601805792
632.51484939
632.421282616
632.324848691
632.230433358
632.144120628
632.070360685
632.002263225
631.920649805
631.833562056
631.770989102
631.726209569
631.669798066
631.651067383
631.626172218
631.468855047
631.475928582
631.529433341
631.551857979
631.564318922
631.58315481
631.599046479
631.611876223
631.621789003
631.62905723
631.634280526
631.636642098
1012.28637229
1011.80006598
1010.83298763
1009.37120442
1007.42346301
1004.99916474
1002.10977491
998.768547308
994.990293943
990.791140507
986.188284377
981.199756104
975.844184241
970.140561069
964.108008436
957.765545143
951.131862445
944.225118034
937.062763249
929.661418875
922.036813756
914.203793982
906.176401713
897.968010458
889.59149353
881.059396004
872.384084213
863.577859314
854.653041025
845.622042611
836.497467507
827.292237295
818.019778432
808.69425433
799.330835162
789.94599407
780.557813719
771.186283294
761.853559407
752.584153558
743.404997576
734.34532485
725.436297091
716.710308023
708.19992627
699.9365129
691.94868442
684.260926441
676.892813668
669.858785804
663.168237406
656.825725177
650.831767294
645.182204566
639.833458755
634.564652195
633.550254184
633.272220866
633.360373845
633.411417672
633.424478941
633.413126147
633.379156397
633.327492849
633.269986293
633.212329855
633.151905905
633.083772382
633.004232205
632.914282317
632.814913111
632.707502087
632.595929496
632.484720149
632.378654842
632.280348819
632.185533583
632.084929099
631.981903041
631.892417227
631.815081954
631.739010651
631.67909699
631.615911945
631.580977083
631.570724953
631.512595864
631.513881017
631.518965163
631.550208761
631.572524351
631.589310611
631.601902591
631.611019881
631.61741066
631.620456497
1018.16800959
1017.65933451
1016.65047743
1015.12595834
1013.09557418
1010.5698812
1007.56170612
1004.08581743
1000.15864859
995.798012671
991.022827024
985.852848556
980.308415008
974.410185794
968.178876547
961.634987333
954.79853077
947.688774993
940.324022014
932.721446406
924.897016891
916.865516707
908.640663587
900.235312043
891.661700482
882.931694237
874.056978061
865.049174797
855.91990205
846.680808343
837.343641217
827.920370429
818.423401456
808.865858997
799.261927821
789.627236246
779.979265784
770.337768708
760.7251657
751.166881107
741.691553862
732.331037219
723.120072997
714.095506761
705.294925047
696.754686819
688.507558827
680.58043026
672.99324797
665.758808389
658.882750714
652.363874611
646.190735224
640.30570175
634.284693823
633.660723886
633.790382492
633.834766121
633.893106645
633.896267645
633.888468001
633.866946374
633.829016336
633.775578401
633.713181307
633.645588233
633.571636466
633.488298562
633.394347791
633.290405439
633.176166618
633.05312276
632.924594766
632.794358244
632.666054634
632.541511049
632.418820468
632.294582736
632.171635884
632.058104979
631.954497866
631.856758835
631.768891313
631.688207238
631.62648598
631.584052421
631.573941354
631.541845155
631.444950144
631.517064688
631.54939051
631.569922781
631.584807128
631.595628823
631.603049357
631.606803088
1024.57114193
1024.03710099
1022.98104181
1021.38570317
1019.26214787
1016.62232191
1013.48067977
1009.85378484
1005.75997355
1001.21902029
996.251827444
990.880137685
985.126258164
979.012780753
972.562285742
965.797023591
958.738581834
951.407556135
943.823256683
936.003487433
927.964436847
919.720708595
911.285500808
902.670910698
893.888307193
884.948687479
875.862934202
866.641927912
857.29653912
847.837579963
838.275809432
828.62203673
818.887365759
809.083543764
799.223389753
789.321281078
779.393685965
769.459730267
759.541775474
749.665964451
739.86266511
730.166700718
720.617198633
711.256820649
702.130099838
693.280667722
684.747557461
676.561172135
668.742150308
661.301778842
654.243409842
647.560801772
641.204547262
634.764809822
633.978073013
634.168499781
634.376083359
634.424059413
634.448354897
634.441851826
634.425281408
634.395127725
634.350927864
634.293111625
634.224788193
634.147613896
634.060645852
633.962234872
633.853568081
633.734327222
633.603333501
633.462512128
633.314526927
633.162500501
633.009390348
632.856959509
632.705117617
632.553560909
632.405006868
632.264062978
632.132161737
632.008918569
631.896320747
631.794752944
631.707986242
631.640151685
631.592208801
631.542291253
631.525075594
631.517621641
631.53823974
631.55625624
631.571450059
631.583507886
631.592074181
631.596525381
1031.52026518
1030.95742284
1029.84799477
1028.17266784
1025.94403783
1023.17573454
1019.88416816
1016.08803619
1011.80790768
1007.06582764
1001.8849723
996.289348663
990.303515217
983.952293901
977.260446706
970.252304479
962.951352952
955.379802398
947.55818495
939.505038423
931.236738969
922.76753618
914.109814529
905.274556668
896.271920226
887.111785092
877.804115204
868.359043065
858.786724153
849.097121749
839.299891068
829.40444445
819.42024018
809.357223017
799.226361941
789.040253356
778.813789896
768.564901517
758.315358329
748.091599865
737.925524833
727.855121889
717.924722405
708.184500266
698.688668401
689.49168763
680.64242997
672.17610525
664.113850537
656.465804935
649.231203417
642.364837181
635.453689957
634.629731087
634.792463683
634.983887889
635.063390731
635.080137306
635.083125258
635.066329062
635.038590567
634.998581286
634.946684685
634.882794139
634.807552102
634.720744431
634.621142991
634.50814929
634.384235468
634.248341178
634.099021949
633.938286985
633.768451656
633.592230189
633.412249303
633.230476955
633.048039361
632.866182722
632.687578537
632.515580456
632.35226559
632.199022269
632.057872187
631.930424052
631.819469558
631.727538844
631.653164699
631.590628106
631.5527322
631.542609547
631.533221399
631.544672619
631.560779351
631.574702366
631.585132079
631.59047082
1039.04308497
1038.44745988
1037.27759136
1035.51178741
1033.16451749
1030.25146576
1026.7914105
1022.80559985
1018.31722449
1013.35094438
1007.93251374
1002.08848844
995.845971667
989.232341399
982.274912225
975.000504741
967.434925603
959.602391636
951.524962052
943.222066289
934.710229424
926.003090475
917.111773632
908.045595973
898.812984181
889.422354649
879.882660308
870.203403786
860.394211439
850.464299361
840.422140891
830.275477177
820.031690033
809.698388947
799.284090247
788.79893974
778.255515584
767.669755709
757.062022867
746.458287501
735.891391595
725.402308082
715.041173645
704.867588326
694.94923917
685.357126137
676.156673619
667.388911229
659.074618888
651.218763921
643.777302259
636.31913449
635.470159205
635.679888098
635.839592182
635.868006729
635.858711136
635.835269467
635.807319287
635.770861608
635.72856073
635.678126446
635.618114807
635.546841405
635.463032104
635.365127737
635.251792698
635.124021434
634.98362046
634.828875334
634.659348082
634.476878696
634.283562382
634.081807145
633.874019682
633.66231116
633.448477069
633.234507175
633.023108784
632.81732266
632.619751998
632.432755549
632.258851579
632.100474299
631.960401756
631.840643481
631.740937105
631.65969104
631.600551553
631.565420377
631.54324755
631.53208373
631.551074529
631.569112666
631.583019374
631.589623004
1047.17098953
1046.53792227
1045.29942348
1043.43103788
1040.94953921
1037.87314088
1034.22351813
1030.02499415
1025.3038449
1020.08772163
1014.40525661
1008.2858197
1001.75934059
994.856097459
987.606388239
980.040037902
972.185738326
964.070264919
955.717657487
947.148494816
938.379422282
929.423101389
920.288712421
910.983034807
901.511936084
891.881855841
882.100707003
872.177732911
862.122510356
851.94381548
841.648919184
831.243545897
820.732434886
810.120189527
799.412145583
788.615188053
777.738650399
766.795416864
755.803267542
744.786459147
733.777564083
722.819607779
711.968415467
701.29467862
690.884491284
680.834648569
671.241694745
662.15245727
653.579427616
645.47735528
637.390535067
636.497496245
636.772037715
636.946320947
636.906218756
636.818665496
636.740026084
636.670450994
636.609226874
636.551319376
636.493852628
636.432006657
636.361933966
636.280276489
636.184397917
636.071983895
635.942027213
635.797325915
635.63792688
635.461876967
635.270451896
635.065208807
634.848017478
634.62094083
634.386089219
634.145494147
633.901152198
633.655299385
633.410637613
633.170165882
632.936868255
632.713740386
632.503884266
632.310411262
632.136417341
631.984285228
631.855054374
631.748913463
631.667156764
631.609178144
631.568816906
631.54251548
631.537707668
631.566497838
631.587450602
631.595449371
1055.93963109
1055.2636089
1053.94689807
1051.96183097
1049.32803072
1046.06684936
1042.20355862
1037.7662396
1032.78481731
1027.29033255
1021.31455457
1014.88986389
1008.04924519
1000.82621572
993.254551781
985.367735458
977.198111681
968.775809639
960.127546059
951.275490649
942.236436919
933.021563774
923.637060533
914.085755392
904.369573833
894.49215223
884.460475184
874.284405778
863.974505234
853.539769078
842.986310804
832.317333276
821.5341282
810.637437588
799.628579927
788.510259045
777.287452643
765.968644804
754.567448237
743.104563518
731.610182079
720.127143889
708.71516219
697.4561159
686.459735018
675.862797395
665.830461326
656.403215862
647.526825754
638.712796614
637.734044602
638.059002123
638.257262473
638.170664745
637.988353497
637.817327993
637.678455226
637.567399229
637.477297196
637.399241763
637.325784741
637.249680459
637.165185824
637.06777685
636.954102193
636.82178552
636.670624426
636.504362292
636.322376671
636.123193014
635.908841172
635.680855133
635.440831721
635.190375352
634.931119246
634.664732981
634.393013674
634.118061669
633.842405937
633.56894895
633.300840998
633.041458233
632.794394085
632.563364293
632.352035351
632.163558681
632.000188764
631.863402933
631.754312702
631.672195222
631.613336229
631.573682103
631.552614304
631.564450529
631.602393714
631.610002597
1065.38963892
1064.66409129
1063.25781134
1061.13948727
1058.33223634
1054.86132777
1050.7565908
1046.05079937
1040.77823438
1034.97372446
1028.67232229
1021.90946045
1014.72127842
1007.1448236
999.217907951
990.978505238
982.463670635
973.708050422
964.742127148
955.590438366
946.270115711
936.790209171
927.152325909
917.35300967
907.387828521
897.25615714
886.964456976
876.525129753
865.951798271
855.254924837
844.439530326
833.505414384
822.449157691
811.266531994
799.953969671
788.509057983
776.931173046
765.222778729
753.391338428
741.451540954
729.427991951
717.359145685
705.303554183
693.349761862
681.632694357
670.346288148
659.823563938
650.010780634
640.344470831
639.205712841
639.538717352
639.74992969
639.621852006
639.353675282
639.076148676
638.841313287
638.656651031
638.513147644
638.398338787
638.299763742
638.206996745
638.111218224
638.005647442
637.885245937
637.746486435
637.587512546
637.409625829
637.216596872
637.007855168
636.783416931
636.545589602
636.295828327
636.035284006
635.764908461
635.485620572
635.198434961
634.904604236
634.605767802
634.304049758
634.002061522
633.702858532
633.409918389
633.127109881
632.858600767
632.608669254
632.381357311
632.180141791
632.007785399
631.866195361
631.755678161
631.674653606
631.620792951
631.591516067
631.588529127
631.644885853
631.636284589
1075.56748929
1074.78458681
1073.2750322
1071.00380802
1067.99812561
1064.2881282
1059.90960269
1054.901383
1049.30303308
1043.15351876
1036.49107772
1029.35392637
1021.78120402
1013.81365769
1005.49374538
996.865002392
987.970658058
978.851585039
969.543747268
960.07542399
950.464665524
940.717683463
930.829143256
920.785411016
910.571305505
900.179109665
889.615772175
878.900339196
868.053540677
857.089496267
846.012028803
834.815774019
823.490411657
812.025287096
800.411284581
788.640144332
776.704339873
764.598438686
752.321493189
739.879346196
727.286878528
714.571661634
701.780880353
688.994739164
676.35922684
664.112309547
653.019601601
642.339429323
640.9276976
641.192405052
641.397445
641.227851706
640.881033715
640.501210544
640.158974042
639.881201891
639.664638557
639.494560359
639.354940623
639.231563303
639.112864826
638.989604374
638.854816608
638.703445037
638.532085007
638.339724
638.1298507
637.904849404
637.664981143
637.41326727
637.151870841
636.881986162
636.604096329
636.31826884
636.024457456
635.72274962
635.413566707
635.097817968
634.776993537
634.453191555
634.129109923