/*--------------------------------*- C++ -*----------------------------------*\
| =========                 |                                                 |
| \\      /  F ield         | OpenFOAM: The Open Source CFD Toolbox           |
|  \\    /   O peration     | Version:  v1906                                 |
|   \\  /    A nd           | Web:      www.OpenFOAM.com                      |
|    \\/     M anipulation  |                                                 |
\*---------------------------------------------------------------------------*/
FoamFile
{
    version     2.0;
    format      ascii;
    class       volScalarField;
    location    "700";
    object      k;
}
// * * * * * * * * * * * * * * * * * * * * * * * * * * * * * * * * * * * * * //

dimensions      [0 2 -2 0 0 0 0];


internalField   nonuniform List<scalar> 
24444
(
0.040859308571
0.00252511776755
0.0005685442123
0.00063288583172
0.00062897055819
0.000585833562017
0.000578579212581
0.0511195894017
0.00532664982443
0.0025786537553
0.000636599955392
0.00118165440515
0.00123258627069
0.00347792418941
0.00122652694977
0.0312790477659
0.00701074364506
0.00100608554895
0.000276356973938
0.000524221410732
0.000319702270928
0.0386591228206
0.0485864021216
0.00181707970208
0.00197756910423
0.00403051260385
0.0044819861978
0.00472922828168
0.00524308731416
0.000626717740072
0.000565483770724
0.00187924452986
0.000582753637138
0.000667169666056
0.000221243021724
0.000647393156023
0.00119509401477
0.000490756624874
0.000464525306011
0.00052437535063
0.000473460400276
0.000551624210438
0.000475017473382
0.000476264903633
0.000538007405315
0.000460975492314
0.00055169227865
0.000600140711351
0.000531404444842
0.00056838861219
0.000459835385561
0.000528802435534
0.000497435561923
0.000498820046554
0.000560029277335
0.000512551141673
0.000638946627649
0.000559778030857
0.000730333324353
0.000532055558206
0.00162975809053
0.00181794505255
0.000591080418426
0.000541818821641
0.000591609101827
0.000636123794791
0.000630681039631
0.000554083664698
0.000506896565539
0.000522843669206
0.000523009497724
0.000529234945632
0.000533224903908
0.000477485717162
0.000478075708017
0.00112486306369
0.00351793422176
0.000542450789316
0.00180899904752
0.000644526993817
0.000518357820298
0.238236292112
0.00622759687571
0.00492147989502
0.00091554356969
0.0133307169657
0.105441119768
0.00351185096701
0.00973699187291
0.000514889779826
0.00339063778683
0.00139404629506
0.0286755183744
0.00691231920119
0.00062822391801
0.00258207194058
0.00927667964638
0.000455020864958
0.000507163278669
0.000621533542385
0.000612190826537
0.000566885944581
0.000561980590004
0.00401827329138
0.000616423232553
0.00346549426425
0.00287855300941
0.00103011975029
0.00116721243756
0.000641396189659
0.000886579207986
0.000590394278282
0.000297138095455
0.000515135430605
0.00290559673581
0.0139577329517
0.000456126997779
0.023745420704
0.0176119372006
0.00313823306035
0.00264177024048
0.00237713879922
0.0020304329019
0.00177801100617
0.00206370964812
0.000499038991414
0.000733267830006
0.000549982194418
0.001096015691
0.00192899020759
0.000581235102762
0.0018498947924
0.000536383241306
0.000412740130884
0.00040817834786
0.000480048969419
0.000483289432055
0.00053393615306
0.000498621604134
0.000507126980761
0.00542316882603
0.000844720950987
0.00139604500165
0.000442125144229
0.000521469281295
0.000809672916213
0.000535792488561
0.000465730554121
0.000550133438521
0.000521423614966
0.00064678852619
0.00320437709638
0.00381118079194
0.000550784118332
0.000581582136696
0.00332831146513
0.00289602672621
0.000639670512334
0.000640437780812
0.000338893380774
0.000326919650986
0.000640533102985
0.000519426824059
0.000564914755183
0.000530466597522
0.00058724131844
0.000532358749495
0.000546875355551
0.00054667644742
0.00140640783989
0.000555123525994
0.000632268673346
0.000632892582269
0.000490583787957
0.000487455496942
0.000493225386734
0.000491094658275
0.000484159164152
0.000480383078613
0.000478224175276
0.000483347326644
0.000313670277281
0.000602440693503
0.000515224709068
0.000510901260256
0.000640505887066
0.000593568152732
0.000633405653695
0.000408558263396
0.000594568845257
0.000598690581574
0.00049751606564
0.000507007514086
0.000527637563461
0.000640413389002
0.00149133789181
0.000494224053596
0.000648002122378
0.000850988321786
0.00281284581132
0.00184919659178
0.000521583754648
0.00064286927463
0.0739148116395
0.00552472903287
0.000400329394119
0.000391415602749
0.000540304023188
0.000535603610413
0.000835180434282
0.000584015817446
0.000650036206322
0.000198128806122
0.000575553906186
0.000313083877255
0.000929105863942
0.00188036067048
0.00121961381601
0.0627587751111
0.00624019831767
0.0025469970293
0.000857576008329
0.000664762268567
0.000651647193782
0.000647267373757
0.000619029070168
0.000581230250102
0.000547198806255
0.000386260204629
0.000383156030213
0.000504313299692
0.000508240469853
0.00102994450056
0.00108058822682
0.00109264806921
0.00343184175704
0.00266456257142
0.000588696260505
0.000554228611891
0.000648287899754
0.000441259864408
0.000623050729496
0.0029163409325
0.00947572855555
0.000601051614237
0.00061159591994
0.000612108279033
0.00049550441405
0.000644930773301
0.000446305327039
0.00049867087236
0.00057131292432
0.000575189282362
0.00057179913129
0.000753685299072
0.000907591259154
0.000987346272233
0.000551028862554
0.000509407161724
0.000642073850769
0.000183116727873
0.000512816004867
0.0016223582054
0.000567978113251
0.000757631748101
0.000168618283071
0.00123250377744
0.00157822211213
0.000523263678973
0.00262400383336
0.00296031416584
0.00403322296402
0.000544223958542
0.000557047417597
0.000484212599499
0.000482337682235
0.000597518123776
0.000467184224968
0.000619896164136
0.000622916745154
0.00111722401864
0.00107919958474
0.0036299030443
0.000610216751299
0.00159718969666
0.00069000945973
0.00160091711346
0.00025288497037
0.00120524617947
0.000618533303914
0.000620263583933
0.000351916272469
0.000341259824889
0.000616876094492
0.000492108841246
0.00059984373362
0.000646503495618
0.0011864069652
0.00118366266786
0.000905635910278
0.000713200015035
0.0010546242027
0.000670026477126
0.000524633829235
0.000613248381511
0.00109797807092
0.00124827783364
0.000536168941844
0.000637381255949
0.000589654022621
0.0018564019748
0.000571377175143
0.000619850099388
0.000532347188402
0.000603922125315
0.00324949839206
0.00147607604925
0.000739862708399
0.0022978070563
0.000610043032301
0.00177632404336
0.00647636928716
0.000909230485676
0.00156003839254
0.000644050345024
0.00168589210395
0.000656779291663
0.000632056310245
0.000633776845472
0.000587114457447
0.000592375308163
0.000636095288205
0.000723896874504
0.000586523672517
0.000463731803632
0.000454874558916
0.000469116568576
0.000480380692023
0.000470048176668
0.000471728424808
0.000642728394419
0.000547479315904
0.000204466682533
0.000562569701452
0.000640861015571
0.000644966484659
0.000645914016928
0.000675064453828
0.000494478414293
0.000500135217491
0.000504117492906
0.000647009951054
0.000398849085511
0.000566355092151
0.000622078545059
0.000203211994875
0.000575785383432
0.0076384485718
0.00135724302979
0.000565526332546
0.000536681983103
0.000542659767129
0.000534337778552
0.00174410879193
0.00186632902852
0.00159272389583
0.00180080757058
0.000523328153368
0.000613995229057
0.000578794535994
0.000576721374634
0.000640096087202
0.000505440047901
0.000505603676616
0.000541166906016
0.000582939771289
0.00128978421654
0.000608917600609
0.000611294435107
0.000599384353009
0.000602754880109
0.000612477974673
0.0104762028178
0.0275795359875
0.000598775652056
0.00090099280076
0.000626991690607
0.000643476379161
0.000643337182158
0.000646616773459
0.00061340347643
0.000645366300711
0.00183137035883
0.000620106939342
0.000623323989355
0.000474534969269
0.000593077735408
0.00191442633044
0.000740618990144
0.000752572063649
0.0011566503679
0.00059185009475
0.000589815694976
0.000433442454455
0.000318031374979
0.000512703186134
0.000629938667379
0.000737050063362
0.000766846202663
0.00047701634343
0.000480265082168
0.000603147847416
0.00213110198142
0.000527208725349
0.000516902532872
0.0011716551024
0.000616615173512
0.000602808323452
0.00045584430008
0.000344120537338
0.000651974335674
0.000618957502475
0.00074948031002
0.000458905801566
0.000615731294407
0.00061797649904
0.000300580464825
0.000565896839916
0.000599885345621
0.000585044624632
0.00060839912442
0.000531282383514
0.000457813523291
0.00018759226077
0.000183363894317
0.00105819934977
0.00051449244365
0.000518371647818
0.00954041556306
0.02571329676
0.00150784916816
0.000591076323308
0.00060565188373
0.000608615102347
0.000590126501702
0.00060462437312
0.000452041949507
0.000440730947897
0.000483022723703
0.00145661794512
0.00210211037222
0.000646835056782
0.000508027167566
0.00341429654251
0.00334245102029
0.217164949975
0.210648441555
0.0122712682987
0.011308260212
0.00830629832415
0.00868253676406
0.000579629760071
0.000476425028248
0.000638992657151
0.00169849201577
0.000376687632807
0.000515110057403
0.000524115665726
0.000620492855747
0.000591171106823
0.0016421008333
0.000263389143505
0.000268636267671
0.000649050983107
0.000609193775865
0.000928484561792
0.00112477034868
0.00364186958494
0.00292540720628
0.000492794945871
0.000641746805317
0.000609844044361
0.000566101373343
0.000565089706336
0.000635806335122
0.0261084988272
0.000629705998916
0.000629452263256
0.000635574581753
0.000634627846728
0.000613148512136
0.000436448000676
0.000584931761972
0.000557350910355
0.000555680487777
0.000528113013642
0.000528032779003
0.00220171735089
0.000834392737248
0.000612469899995
0.000485831577415
0.00438662933925
0.00118919843242
0.000614791592182
0.000612669888381
0.000507237767513
0.00020592647886
0.000645287862297
0.000547377533991
0.000184506169823
0.000555808762914
0.000631338523455
0.00634492034493
0.00377080229998
0.00690695875091
0.00415343250503
0.00163880373855
0.00172958615503
0.000434972995809
0.000434946134021
0.000427101093914
0.000428402999581
0.0004870845034
0.00048452803029
0.000594818187863
0.000548909111636
0.000526355611604
0.000563473741306
0.000559207304955
0.000559609175749
0.000448496216372
0.000566465858592
0.00406327105497
0.000646513956387
0.000168807680141
0.00101944633032
0.00307858497269
0.00245711183677
0.000631328689996
0.000512521725533
0.000628383816886
0.000586546032433
0.000643738481219
0.000531704003397
0.000542984905795
0.000558476950711
0.0256857951679
0.00234899764213
0.00314629008529
0.00204992907676
0.00553977662466
0.010990471535
0.0018115203078
0.00233854700338
0.000586991059898
0.000521092015284
0.0243028289721
0.000612380691062
0.000629013094978
0.000579594952587
0.000609421381671
0.000642872572963
0.00142388234046
0.00121305925539
0.00163643108836
0.00138320795749
0.000427334618648
0.000462568962537
0.0314791419522
0.00254581365801
0.00342244301593
0.00219329517402
0.000645607618345
0.000651954705935
0.000508536481606
0.000507915824239
0.000305165161874
0.000489383599653
0.00052005786778
0.000513153202257
0.230983949406
0.00680546669643
0.00512846085853
0.000637359379517
0.000236929360007
0.000642042440724
0.000464928219049
0.000616788508295
0.000569303195502
0.00183967515403
0.000807236458024
0.000407264591684
0.000621150451092
0.000510372081719
0.000580661726105
0.000564811248136
0.000587851820783
0.000651941936813
0.00146486077561
0.00169389507949
0.000589553143239
0.00115673016675
0.000647198415711
0.000499547790611
0.000506921339607
0.000368708184094
0.000932881386209
0.000337266755945
0.000595658035737
0.000594333403619
0.00139845863056
0.000704844659814
0.000550111867266
0.000180624961477
0.000168419341058
0.000598077973366
0.000975705528179
0.000570505532937
0.000798626706342
0.00467481433731
0.00128600253283
0.000618184299467
0.0129502937267
0.000683377698293
0.00109097503765
0.00105638814991
0.000553282311703
0.000603914651434
0.000604838815663
0.000541836561015
0.0010956354285
0.000646202365902
0.000542954823343
0.00860952623808
0.0074528722243
0.00160937152083
0.000528967800916
0.000501470965998
0.000496829568586
0.00050370212495
0.000527539593404
0.000529082707298
0.000522823936974
0.00107036787925
0.000917346626374
0.000643541720003
0.000686941404529
0.00063370204638
0.000584355877795
0.000434663413607
0.000459934061187
0.000470043153653
0.00197595167881
0.00345913149125
0.000917473085733
0.000605725751472
0.000586537059716
0.000361790875962
0.000609516142047
0.000567529918566
0.000631767868751
0.000741017134707
0.000464590323934
0.000466467988014
0.000462597586947
0.00136502817246
0.0012082673942
0.000971285593537
0.00107846115488
0.00774279742373
0.000641179312016
0.0136191511176
0.000651623369165
0.000540591129313
0.000937420195587
0.000630690512128
0.000441559698854
0.00041101412741
0.000471107603566
0.00153071030291
0.000611375864288
0.000581150181319
0.00209688767037
0.000604273837447
0.000410731745467
0.000628416803234
0.000530216752405
0.000559725034635
0.000518329421283
0.00186165594589
0.000545618220355
0.0153786539113
0.000731240832861
0.00240034592275
0.00217819380443
0.000526763482107
0.00192402408636
0.000349884384384
0.000528597484433
0.000621646504319
0.000407144309401
0.000496740025337
0.00125345691251
0.000659257020696
0.000543143916568
0.000510846008793
0.000771801533964
0.000531124374935
0.000518039181707
0.000536114695046
0.000524799522157
0.000587984700172
0.00132541131715
0.000675906238103
0.000594100206818
0.000591015533079
0.000699058064694
0.00219455288083
0.00205160696701
0.000453204902882
0.000529316950018
0.000609630909418
0.00912339143295
0.00149534709146
0.000191551672968
0.000882354623816
0.00211572415422
0.00257766519721
0.000842995180693
0.000933201182773
0.000610654206559
0.000605423178227
0.00304770025913
0.00276783266489
0.000925519077285
0.00090784024821
0.0146288041376
0.000556703693596
0.000566555541762
0.000599256129353
0.000602018746318
0.000574038671731
0.000577202730353
0.000632574279369
0.000354545072452
0.00318191099077
0.000434206579113
0.000596655482403
0.00111412368245
0.000627571611134
0.000531722643971
0.000471541851989
0.000597924909047
0.00118713774032
0.000571223649044
0.000591898163386
0.00314666745858
0.000696717402101
0.000198027063959
0.00121920361544
0.000495886188663
0.000426572448791
0.0025928342203
0.00480472238533
0.00297897324426
0.00138196712607
0.000704476628073
0.000466053147291
0.000647155754259
0.00061811158311
0.00054639731732
0.000444370444837
0.00055330757626
0.000531143344303
0.00168765323506
0.000406494595559
0.00034892948692
0.000620457707829
0.000587891447878
0.000638920849774
0.000589901146601
0.000646238439523
0.000503321817078
0.000401807778394
0.00144578167881
0.000735024084142
0.000556289524538
0.000610429020782
0.000366275429962
0.000436953848375
0.000447417738868
0.000480326665695
0.000537826294937
0.00130094482505
0.00118713101167
0.00197175641878
0.000607508140561
0.00191730543716
0.00060349460445
0.000616811305419
0.00057915473423
0.000581806513491
0.000645041835967
0.000334427856376
0.000773860501
0.000639219614748
0.000573529991512
0.000621282706748
0.000630828469775
0.000629357653113
0.000823446227538
0.000749731190798
0.000504990259938
0.000830566582979
0.000547515547316
0.00054426481638
0.00126308844765
0.000332296134049
0.0036240658739
0.000764412957042
0.00128202857819
0.000537996173702
0.00053509148054
0.000540672872244
0.000539226031779
0.00065197935633
0.000659580854452
0.000641679384273
0.000511326413273
0.00420935360827
0.000701036114492
0.00064805278966
0.000514807379351
0.000489268982923
0.000583347619802
0.000604311626964
0.000527895068033
0.000629669055591
0.000554224015897
0.00179998654191
0.000582032092602
0.000642629980527
0.000619012727467
0.000617944355736
0.00058868461678
0.000597852246276
0.00056349985178
0.00054658505336
0.000556335389676
0.00133187669475
0.000635735852296
0.000635521161093
0.000520777325734
0.000424983061255
0.000440777461626
0.000479554067841
0.000477813608135
0.000529318367735
0.000476383631582
0.000463548749416
0.000863529771645
0.00103691164071
0.00318667811513
0.00258847039577
0.000589074606006
0.000514304498543
0.00051703051904
0.000513314764131
0.000513103073683
0.000398300215197
0.00063930158377
0.000497904052865
0.00193203898885
0.000588987234389
0.00056612096021
0.000608874778825
0.00061928272308
0.000605320407111
0.00052062557595
0.000635743433662
0.000648390978061
0.000660113268627
0.000587746433262
0.000803625736086
0.000865248138861
0.000529886535264
0.000549680092283
0.00020151661683
0.000207420587325
0.000253874616207
0.00062699140426
0.000649142960983
0.0203340072173
0.00337355318058
0.000625222143269
0.00505510735479
0.000314482685101
0.000302956790911
0.000581368520807
0.000599228655893
0.000499417282712
0.0153388124223
0.0180514059579
0.00301500852009
0.00101773271399
0.000688545619139
0.000503702405981
0.000302990049523
0.000627695289503
0.000638593818174
0.00341623340423
0.00240760281751
0.00032599942575
0.00115652158475
0.00178276629493
0.00066686298206
0.000576700128604
0.000569328511014
0.000530456506029
0.000504318908766
0.000583313359706
0.000604404007502
0.000579823928507
0.000612301566137
0.000533197179308
0.00389714296754
0.000780816955137
0.00131434365145
0.000719411558754
0.000541832079011
0.000583990458376
0.000295779566556
0.000523390756379
0.000331873978925
0.00058573718359
0.000176163456058
0.000871658000124
0.00371431073971
0.000483300303946
0.00615960926518
0.001300823781
0.000575545407844
0.000632276865386
0.0005438378366
0.000581128378278
0.00073179535338
0.000617579697963
0.000465636262361
0.000472233658349
0.00632181497904
0.000450072691324
0.191568594638
0.00791287773215
0.00513494998905
0.000626986241533
0.000560877157981
0.00052216235819
0.00189410261276
0.000541834484793
0.000585857746148
0.000493580050484
0.000566901068643
0.0963508890125
0.00632187484838
0.000437395796613
0.000502359624531
0.000360116425424
0.000356926625467
0.000508015810575
0.000509591248276
0.000563242980781
0.000527542282147
0.000846054170182
0.00222815268828
0.000580544158513
0.00352793999097
0.000447803201986
0.000529420877238
0.000581410845304
0.389757179499
0.00492298569874
0.0227180509637
0.0146077742306
0.0015766084087
0.00320386526069
0.000449459784011
0.000438126458891
0.000434303865492
0.000629461809998
0.000383738736745
0.000371111810447
0.00175354273487
0.000639878263568
0.000554808676484
0.000523719363843
0.000626387169046
0.000370811248534
0.000598777624886
0.000572405670064
0.000538106664073
0.000539424018063
0.000633797041408
0.000632015394224
0.00463137925264
0.388522499859
0.0206849033792
0.0132411694907
0.000635151428811
0.000635171473598
0.00064694661598
0.000491268886732
0.000638326526573
0.000610875149064
0.000572982573703
0.000639492627729
0.00064108273229
0.000558085881405
0.000526753447786
0.000462783564535
0.000585310362197
0.000545399940472
0.000575870954815
0.000601480705196
0.000604270907925
0.000473746308565
0.000632751196681
0.000507474289491
0.00189019949862
0.000310975690783
0.000610205609021
0.000618800605995
0.000479482276805
0.000573859316691
0.000626792735335
0.000520970916511
0.000544451331378
0.0006389371952
0.000618638772565
0.000634078913182
0.000615054463342
0.00184546800592
0.00160832313984
0.000629844487947
0.00106260277221
0.0010649748046
0.000999073361262
0.000573288664916
0.000561478374509
0.000569125263236
0.000566908374426
0.000529584732025
0.000533416939616
0.000532479602687
0.00143094360669
0.000577964627794
0.000217309636991
0.000617172382507
0.000643277676187
0.0041396825022
0.00685711498944
0.00139312656795
0.000607468223198
0.0007031928362
0.000549121544271
0.00017597537666
0.000582174465064
0.000568120944843
0.000610701432712
0.00405032849641
0.000506641265138
0.000638647474419
0.000612594116428
0.000594002137832
0.000535435193647
0.000545492643292
0.00206016508904
0.00401343341463
0.00338976920003
0.00054262189394
0.000583111012827
0.000561369733152
0.000612936814002
0.000616256593146
0.000614221058078
0.000449896961947
0.000612052942648
0.000550616299806
0.000521747312569
0.000521866281819
0.000555707234329
0.000555645150993
0.000645775945224
0.000414632233401
0.000414084606548
0.000456298977299
0.000455434158029
0.00313927958288
0.000591738419913
0.000547526992167
0.000610252707967
0.00067228722618
0.000472615362248
0.0004762882604
0.000639852163815
0.000746048321631
0.000899786318747
0.000583811021572
0.000712366874766
0.000526466426451
0.00050637710287
0.000906398554912
0.00116841067297
0.000504036097698
0.000265812648748
0.00101146657745
0.00107899226623
0.000867989791017
0.000920260067044
0.000508216827912
0.000517057090849
0.000514122181816
0.000524449012713
0.0248406391969
0.00474866781088
0.000452701532383
0.00329000644763
0.000438362370065
0.00064878546317
0.000589540344592
0.000645771841766
0.000532922803623
0.000498498536898
0.000586246593993
0.000504092951965
0.000619339246956
0.000618373779487
0.000568614684393
0.000604627789832
0.000527530414802
0.00049491580247
0.00347269698574
0.000480805280785
0.000642532243317
0.000566056988506
0.00053499855179
0.000776138930764
0.000557023662715
0.00107959731402
0.000557742443579
0.000560436133563
0.000567995935531
0.000563279102099
0.000785026562035
0.000496312141493
0.000566290539207
0.000595197397009
0.000547858856011
0.000520545567362
0.000578843638183
0.000515638862696
0.000513631957002
0.000611403100685
0.00118978817664
0.00850383677196
0.00102392287566
0.00180076886832
0.000578235077775
0.00157553803206
0.000602286151745
0.00048762219963
0.000591757456599
0.000476206818009
0.000491717798769
0.000652237753422
0.000529416129455
0.000611091417951
0.000611100915768
0.00907895860113
0.00463274609763
0.00160471536563
0.0020462873034
0.000978635920366
0.00526890541753
0.000836246235564
0.00135303058968
0.00104983319507
0.000899351973787
0.000802445886026
0.000831715382141
0.00140253473906
0.000602332507606
0.0030344038606
0.00103127260504
0.000690556065314
0.000452101783652
0.000457983785091
0.000542650384293
0.00075982070824
0.000272137278454
0.000917066831965
0.000738913334275
0.000534615134825
0.000580646318137
0.000235572472939
0.000448983991207
0.000513161946345
0.000506095670823
0.000504610458325
0.00203616217868
0.000614284493427
0.000889426141839
0.00106405816653
0.000536295388719
0.00407282803219
0.0052125746955
0.000603033175677
0.000522409916718
0.000551255490809
0.000553179268386
0.000519812172959
0.000500746137746
0.00434623244186
0.00352943523831
0.000503677781236
0.00112396150657
0.000602453758443
0.000588704034399
0.00063334012109
0.000632827915559
0.000517550242665
0.00378361804032
0.00151300930297
0.000595843218198
0.000651626512869
0.000428798136776
0.000636960448002
0.000624305522424
0.0005289821155
0.000549395268738
0.000675356710179
0.000163626753607
0.000533446886871
0.00199666712948
0.00238830446522
0.000635575714207
0.000614878125818
0.000504247324866
0.000532280294584
0.000720782552682
0.000644117626093
0.000620407104733
0.000621433658604
0.000576813253107
0.000978136071473
0.00111379282789
0.000991719259039
0.00161046200258
0.00155168684691
0.000614767889789
0.00129082117709
0.0013435303213
0.000614284096698
0.000462810823996
0.00165449800284
0.00043460099514
0.000441809090835
0.000481939000241
0.0005467161941
0.000550452578518
0.0014512776093
0.000419287490817
0.00223941949647
0.000533739491605
0.000643558580184
0.000604446471932
0.000603165019874
0.000600205943039
0.000594086448931
0.000592104372649
0.00048665338192
0.000487691010982
0.000631951691018
0.000624119603188
0.000577321087264
0.00107511004105
0.000493661098521
0.000604251286825
0.00063011898975
0.00123998067065
0.000639389691386
0.000598054639109
0.000489141500629
0.000360915756402
0.00596650319919
0.000562744219931
0.000586119043033
0.000447828672413
0.000643110968503
0.000598385690911
0.000578780646468
0.000608656590264
0.000611851354211
0.000311541396434
0.000947166409627
0.000920611975669
0.000639388436202
0.000295557655416
0.000661523544806
0.000519984919709
0.000527324890794
0.000527243679544
0.000634425363345
0.000389044567437
0.000380387226673
0.000958684348911
0.000645698931845
0.00104812582281
0.000563168838757
0.000700309229296
0.000621470539799
0.000619890671281
0.00127594711127
0.00114251509272
0.000422525706345
0.000490063145356
0.00253337643506
0.00356310036158
0.0043856034608
0.000566508627369
0.000535020137215
0.000611751471902
0.000605089785453
0.000589950698206
0.000560871507867
0.000512847262479
0.000509813377533
0.000233158709376
0.000743184123709
0.00215527444309
0.00057450994225
0.000637202338707
0.00137544178509
0.00993148472433
0.00530331861707
0.00170749051805
0.00217425141675
0.000332498724639
0.000566607835306
0.000549973752871
0.000609561897859
0.000604493728207
0.000358002166325
0.000563000639773
0.000518069059588
0.000524790758531
0.00052810121239
0.00282724521885
0.000748259152013
0.000474715139234
0.00063857001728
0.000600522682865
0.000614823820035
0.000852495740809
0.000620845206914
0.000587728685622
0.000617649163829
0.00061537081907
0.00261875464686
0.00206033971989
0.000931203618103
0.0202629284007
0.00353561987745
0.000638109119563
0.0006432940897
0.000693398796371
0.000658552160854
0.000614381543481
0.00075832176967
0.00273837874928
0.00297919104592
0.000563028737158
0.000542386435949
0.000475339688272
0.0830711493799
0.00813894316794
0.0170416645857
0.000533601826355
0.000642180989178
0.000640175217929
0.000449054677694
0.000639251633768
0.000644476776476
0.00111087832247
0.000572027897154
0.000752440025053
0.000522895366113
0.0067483447005
0.0348945263463
0.000849270608941
0.000494866824404
0.00131626691772
0.000604213196069
0.0020881709017
0.00179960089952
0.000830496814283
0.000866392493208
0.000651760481657
0.000528110008318
0.000524387161094
0.000588143798486
0.000590930151716
0.000589076355781
0.000522681709439
0.00068416321767
0.000637146028908
0.000637380723435
0.000522822880984
0.000740194481618
0.000636011130096
0.00295577065335
0.000620753965379
0.00184542668105
0.000196082676256
0.000556191844553
0.00020810158253
0.00256888982868
0.00345149317011
0.00255184012595
0.00227675354794
0.00790192974339
0.000470792089112
0.000528406427645
0.00422765523446
0.000687236669187
0.000519715398643
0.0295519402196
0.00304337357107
0.00415343730153
0.00268163526432
0.000484662115012
0.000499980653672
0.000652482336542
0.000582027750862
0.000546243777103
0.0020142497089
0.000310872185232
0.0103109358429
0.000653758442798
0.000851423787137
0.00586618242515
0.000871493812235
0.00144917666401
0.000484301782822
0.00158120224756
0.000569651631291
0.000610375467145
0.000386778594497
0.000590520158672
0.000530363101794
0.00102797159258
0.000697913033654
0.000606005600995
0.000572554357776
0.0337425804171
0.00186563819244
0.000831553745608
0.000595568249211
0.000586242439176
0.000484045992711
0.000510608733284
0.000593380183704
0.000592525402077
0.000588648540541
0.000737629843647
0.000650451363493
0.000446570610319
0.000631539320484
0.000639078095955
0.000640185729206
0.000521882585984
0.000524044034732
0.000513086840947
0.000513123036208
0.000534893224795
0.000945069222806
0.000588865205312
0.000561853166656
0.000994037810941
0.00102375147801
0.000514079139518
0.000512013882902
0.000303519524806
0.00112158806242
0.000596167118575
0.00096719831291
0.00175506779997
0.000374266125711
0.000518361924557
0.000531177070476
0.000550180061297
0.00061017155659
0.000462787013173
0.000624021392791
0.000508913422413
0.000600862799485
0.000541791798631
0.00054133431388
0.000518606947181
0.000519637007652
0.000516804623356
0.000515031092352
0.000491701302604
0.000644139790712
0.00104969803238
0.00116779276884
0.000965638351073
0.00103221523529
0.00057206019395
0.00060324832704
0.00060499739801
0.000474446810272
0.000538938818775
0.00342532527659
0.00219782894707
0.000643004051293
0.000549950486549
0.000540424257838
0.000593362621054
0.000380737968962
0.000505826424237
0.000557880825166
0.000617283328877
0.000966312652293
0.000590358457202
0.000509216756118
0.000209732007701
0.000596131229372
0.000599239029749
0.000615842081317
0.000541257876759
0.000538989032515
0.000644809743481
0.00201613138584
0.000859374126899
0.000608937534585
0.000513231819278
0.000508809467819
0.000462078830022
0.000615674192471
0.00105598807135
0.000625366317204
0.000622856600988
0.000444372086018
0.000440097097592
0.000637520498484
0.000653144281305
0.000643916228001
0.000640887480435
0.000518977767053
0.000920351466934
0.00103496692005
0.000535885866903
0.000844063755916
0.000494792994122
0.000616714097677
0.000547043154223
0.000684377745022
0.000650634319258
0.000545028636312
0.00415500156003
0.0620623862787
0.00548225686858
0.000519517880519
0.000564369940148
0.000427033084909
0.00059364011233
0.000528234233791
0.000600895580464
0.000318018003767
0.000592211907733
0.000486333680173
0.00162415873987
0.000790018001567
0.000575880639403
0.0011266286106
0.000642444190889
0.000282514236412
0.000288881155974
0.0032873737313
0.000566503303194
0.00049292960915
0.000344360499562
0.000638844076047
0.00163111144521
0.000514531603641
0.000624689530433
0.0021068302665
0.00203541417586
0.000598623155637
0.000429933173426
0.000432618809317
0.000255264966518
0.000636650016219
0.000433936613123
0.000556863355978
0.000484845759479
0.000647871296371
0.16437005165
0.00649996206055
0.000594391390873
0.00490743880121
0.000487803049048
0.00464724707337
0.000632484677235
0.000516708119565
0.00063822568655
0.000857324786945
0.000575236424073
0.000269293358733
0.000568770954712
0.000551627005091
0.000546588029359
0.0108602278103
0.00305056213865
0.000253652043703
0.000623170828079
0.000593011796663
0.000555769025683
0.000531005882975
0.000627160408321
0.00106282359717
0.000525100282051
0.00052433427828
0.000556460806162
0.000522121412314
0.000464588442511
0.000472661117823
0.000262802402542
0.000542431420576
0.000771598812629
0.000714357543295
0.000602725040036
0.000573645576261
0.000569864874938
0.000469080500558
0.00047071315827
0.000421659391726
0.000639416926271
0.000642901853225
0.000484065909073
0.000654127350335
0.00191490089743
0.000556960996205
0.00055527686854