/*--------------------------------*- C++ -*----------------------------------*\
| =========                 |                                                 |
| \\      /  F ield         | OpenFOAM: The Open Source CFD Toolbox           |
|  \\    /   O peration     | Version:  v1906                                 |
|   \\  /    A nd           | Web:      www.OpenFOAM.com                      |
|    \\/     M anipulation  |                                                 |
\*---------------------------------------------------------------------------*/
FoamFile
{
    version     2.0;
    format      ascii;
    class       surfaceScalarField;
    location    "32";
    object      phi;
}
// * * * * * * * * * * * * * * * * * * * * * * * * * * * * * * * * * * * * * //

dimensions      [0 3 -1 0 0 0 0];
oriented        oriented;


internalField   nonuniform List<scalar> 
18240
(
0.0119202090291
-0.0119211882782
0.0244561167099
-0.0125372432705
0.0369448061714
-0.0124896307727
0.0492939120653
-0.0123505132606
0.061451553141
-0.0121584761698
0.0733700662623
-0.0119199668883
0.0850078393625
-0.0116384917916
0.0963245060317
-0.011318151214
0.107286009283
-0.0109621039553
0.117859272578
-0.0105747656863
0.128018250525
-0.0101594603688
0.137737592686
-0.00972085158349
0.146999439467
-0.00926221483169
0.155786122747
-0.00878819028988
0.164087628269
-0.00830176242416
0.171893446376
-0.00780731497597
0.179200655133
-0.00730736103624
0.186005044442
-0.00680586920886
0.192309772017
-0.00630477991409
0.198115880122
-0.00580756553806
0.203431480298
-0.0053155600388
0.208261770025
-0.00483171975211
0.212618690752
-0.0043567931135
0.216510539367
-0.00389324735032
0.219952046501
-0.00344129957052
0.222953663815
-0.00300298109852
0.225531999769
-0.00257805304158
0.227698853587
-0.00216817972255
0.229471952671
-0.00177274774781
0.230863795358
-0.00139312801882
0.231892633964
-0.00102842287579
0.23257119651
-0.000679806109905
0.232917914079
-0.000346244251927
0.232945843856
-2.91307523415e-05
0.232672904537
0.000273467200518
0.232110247575
0.000561501835565
0.231274780768
0.000836044237638
0.230177543704
0.0010961317124
0.228834988591
0.00134318005462
0.227257473519
0.00157646297675
0.225460645605
0.00179749528517
0.223454036267
0.00200561366644
0.221252384991
0.00220235819018
0.218864354609
0.00238709342322
0.21630373933
0.00256135614718
0.213578337521
0.00272452574469
0.21070099187
0.00287811727067
0.207678660769
0.00302151740307
0.204523249573
0.00315620796474
0.201240919038
0.00328158060156
0.19784266346
0.00339907419744
0.19433389384
0.00350808416114
0.190724728082
0.00361000073417
0.187019882862
0.00370422484708
0.183228638168
0.00379209269281
0.179355070504
0.00387301233414
0.175407662985
0.00394826324329
0.171389908533
0.00401726404437
0.167309534304
0.00408123439895
0.163169501996
0.0041396061536
0.158976823639
0.00419353802197
0.154733982228
0.00424247886962
0.150447313775
0.00428752457164
0.146118870053
0.00432814380528
0.141754349104
0.00436536914923
0.137355418394
0.00439869262631
0.132927173897
0.00442908218743
0.128470940965
0.00445605573457
0.123991248188
0.0044805163219
0.11948912038
0.00450201077153
0.114968551478
0.00452137612579
0.110430303347
0.0045381902736
0.105877867101
0.00455322395343
0.101311778702
0.0045660885698
0.0967350569559
0.00457748759619
0.0921480456636
0.00458706759198
0.0875533216235
0.00459546453192
0.0829510695889
0.0046023618093
0.0783434541757
0.00460832730308
0.0737305314464
0.00461308213766
0.0691140841511
0.00461712618413
0.0644940696907
0.00462021899176
0.0598719193875
0.00462279225241
0.0552475213443
0.00462464415144
0.0506219861929
0.00462613791288
0.0459951636726
0.00462711041588
0.0413678743307
0.00462785460539
0.0367399620471
0.00462824383087
0.0321119964491
0.00462849378547
0.0274838677404
0.00462849717417
0.0228559979664
0.00462835044447
0.0182285408337
0.00462784727802
0.0136023599421
0.00462660541741
0.00897940640782
0.00462336097541
0.00437426624637
0.004605538079
0.00437445741868
0.0126089734684
-0.0245312728018
0.026018236183
-0.0259477595371
0.0393341375209
-0.0258066839967
0.0524883980966
-0.0255060355097
0.0654331313917
-0.0251043120968
0.078121041435
-0.0246091212378
0.0905079686514
-0.0240264613866
0.102552055351
-0.023363453583
0.114216236876
-0.0226272609372
0.125466359671
-0.0218260673045
0.13627369643
-0.020967702256
0.146612491918
-0.0200607830209
0.156462627036
-0.0191131823131
0.165806694916
-0.0181333468591
0.174632827061
-0.0171286542015
0.182931377637
-0.0161069041131
0.190697922432
-0.0150745929096
0.197929628274
-0.0140385615435
0.204628435047
-0.0130042030942
0.210797181836
-0.0119772457331
0.216442976768
-0.0109619021497
0.221573140347
-0.00996276310949
0.22619876
-0.0089828934556
0.230330499997
-0.00802581354391
0.233982330017
-0.00709354576273
0.237167239348
-0.00618866321497
0.239901122405
-0.00531229065119
0.242198426585
-0.00446620368907
0.244076173544
-0.00365078949401
0.245549561025
-0.00286718280979
0.246636092383
-0.00211519221062
0.247351132429
-0.00139546209034
0.247712063245
-0.000707358845707
0.247733495672
-5.11291923668e-05
0.247432379806
0.000574451619719
0.246823791909
0.00116957464516
0.245924368432
0.0017353879254
0.244747998953
0.00227203767588
0.243310312824
0.00278083675005
0.24162429471
0.00326206975983
0.239704657339
0.00371715274252
0.237563460805
0.00414645132569
0.235214455401
0.00455143120842
0.232668748391
0.00493249374849
0.229939105115
0.00529111302219
0.22703567988
0.00562769604821
0.223970256811
0.00594369750042
0.220752059465
0.00623951075658
0.217391914091
0.0065165521321
0.213898151233
0.00677518947766
0.210280674743
0.00701678842262
0.206546968877
0.00724168477386
0.202706058442
0.00745118559098
0.198764633552
0.00764559181838
0.194730886919
0.00782614751736
0.190610768376
0.00799311857281
0.186411687299
0.00814768375347
0.182138907493
0.00829007536095
0.177799103266
0.00842140625329
0.173396905013
0.00854187769989
0.168938299325
0.0086525368828
0.164427334111
0.00875355715679
0.159869353504
0.00884592094563
0.155267871041
0.00892977705416
0.150627631817
0.00900604424334
0.145951660908
0.00907485015426
0.141244145367
0.0091370511359
0.13650766485
0.00919275690516
0.131745887488
0.00924276251079
0.126960988568
0.00928716278526
0.122156154273
0.00932669249791
0.117333194102
0.00936143432669
0.112494847778
0.00939206355189
0.107642596046
0.00941865315157
0.102778766119
0.00944181955956
0.0979045450512
0.00946162811977
0.0930218806162
0.00947863689368
0.0881317001188
0.00949290534113
0.0832356041026
0.00950493354035
0.0783342925232
0.00951477635519
0.0734290506225
0.00952287620515
0.0685203829505
0.00952928431194
0.0636092912871
0.0095343855771
0.0586961163962
0.0095382280841
0.0537816085879
0.00954113886159
0.0488659767491
0.00954316290742
0.0439497503416
0.00954456764798
0.0390330358405
0.00954539275573
0.034116168965
0.00954584060214
0.0291991740461
0.00954593465537
0.0242821903047
0.00954579257982
0.0193650751338
0.00954539376142
0.0144473971074
0.009544720209
0.00952780640384
0.00954337776371
0.00460844043082
0.00952531188368
0.00898309512007
0.012749624113
-0.0372820353797
0.0262646132394
-0.0394639766235
0.0397000995496
-0.0392433666844
0.0529734125711
-0.0387805635909
0.0660325419774
-0.0381646034281
0.0788288168692
-0.0374065774286
0.0913168503311
-0.0365156100984
0.103454434159
-0.0355021762963
0.115203649831
-0.0343775384552
0.126530395831
-0.0331539030661
0.137405358255
-0.0318436677006
0.147803204098
-0.0304596647882
0.157703466979
-0.0290143866195
0.167089474396
-0.0275203331829
0.175949186793
-0.0259892443446
0.184273921148
-0.0244325587301
0.192059182871
-0.0228606686379
0.199303245422
-0.0212834848439
0.206008009101
-0.0197097168427
0.212177489427
-0.0181475273641
0.217818730743
-0.0166038309256
0.222940244376
-0.0150850189494
0.227552992626
-0.0135962673054
0.231668806633
-0.0121423116241
0.235301448902
-0.0107267537616
0.238465029863
-0.00935287101043
0.24117514705
-0.00802291471116
0.243447311909
-0.00673893932
0.245298160484
-0.00550208812348
0.246743895151
-0.00431343318797
0.247801555024
-0.00317324641175
0.248487472478
-0.002081841762
0.248818596191
-0.00103882393395
0.248811008247
-4.39516315679e-05
0.248481136188
0.000904035312289
0.247844349264
0.00180600371801
0.246916449135
0.00266305155092
0.245712112
0.00347606909672
0.244246301153
0.00424646290038
0.242532803298
0.00497531367999
0.240585653948
0.00566416796012
0.238417689313
0.00631421339982
0.236041969405
0.00692706694837
0.233470351784
0.00750395916788
0.230714906605
0.00804652216842
0.227786515199
0.00855598462473
0.22469626872
0.00903395497592
0.221454095057
0.00948162948889
0.21807013547
0.00990056755083
0.214553402637
0.0102919138789
0.210913128097
0.0106571621386
0.20715745522
0.0109973938607
0.203294753093
0.0113140277332
0.199332347432
0.0116080765437
0.195277795036
0.0118808789081
0.19113765646
0.0121333768565
0.186918727691
0.0123668277314
0.182626857492
0.012582103796
0.178268131518
0.0127803815091
0.173847737876
0.0129624656652
0.169371101135
0.013129454109
0.16484279871
0.0132820877441
0.16026764087
0.0134213882821
0.155649641073
0.0135480364495
0.150993040053
0.0136629810917
0.14630133233
0.0137668468469
0.141578231168
0.0138605125132
0.136826754006
0.0139445503323
0.132050126754
0.0140197721077
0.127250930035
0.0140867013264
0.122431940159
0.0141460851654
0.117595338562
0.0141984014239
0.112743488179
0.014244335017
0.107878207679
0.0142843209004
0.103001481095
0.0143189834113
0.0981147987596
0.0143487169277
0.0932197993136
0.0143740868291
0.0883176783837
0.0143954488953
0.0834097615682
0.0144133106149
0.0784969820403
0.0144279906288
0.0735803842622
0.0144399395285
0.0686606709257
0.0144494399477
0.0637386369208
0.0144568860696
0.0588147860016
0.0144625251889
0.0538896951391
0.0144666951945
0.0489637001829
0.0144696082119
0.0440371894119
0.0144715450005
0.0391103577361
0.0144726815493
0.0341834260539
0.014473239149
0.029256462555
0.0144733552495
0.0243295191636
0.0144731914461
0.0194024958676
0.0144728542666
0.0144751788287
0.0144724672
0.00954742453187
0.0144715636737
0.00462699403576
0.0144461541354
0.0136102828177
0.0129062686556
-0.0501894470419
0.0265737139321
-0.0531326335798
0.0401616473101
-0.0528325057738
0.053583156978
-0.0522032714484
0.0667834982754
-0.0513661168014
0.0797122307627
-0.0503364712538
0.0923224914276
-0.0491269992058
0.104571169981
-0.0477519710238
0.116419502562
-0.0462269489893
0.127833081749
-0.0445685470083
0.138782263884
-0.0427938724235
0.149241924269
-0.0409203340601
0.159191696855
-0.0389651227704
0.168615524705
-0.0369451112316
0.17750178166
-0.0348764042132
0.185842678825
-0.032774345983
0.193634320858
-0.0306531518949
0.200876026547
-0.0285260199574
0.207570367001
-0.0264048371005
0.213722448948
-0.0243003782619
0.219339970269
-0.022222070917
0.2244325012
-0.0201782589467
0.22901158057
-0.018176005432
0.233090017723
-0.0162213989722
0.236682041064
-0.0143193768684
0.239802632533
-0.0124740548794
0.242467731934
-0.0106885563991
0.24469360851
-0.00896535166594
0.246497118171
-0.00730608349881
0.247895110992
-0.00571190627965
0.248904735732
-0.00418330189139
0.249542879815
-0.00272041180117
0.249826522563
-0.00132284411982
0.249772175462
1.00219918383e-05
0.249396195015
0.00127969161255
0.248714391688
0.00248748702278
0.247742435221
0.00363473675774
0.24649535123
0.00472288552613
0.244987937065
0.00575365774742
0.243234291007
0.00672874401319
0.241248245685
0.00765004536156
0.239042912075
0.00851938236001
0.236631119962
0.00933874127815
0.234024974074
0.0101099903561
0.231236296753
0.0108351307752
0.22827619529
0.011516020082
0.225155503285
0.012154625651
0.221884359071
0.0127527548516
0.218472642418
0.0133123087937
0.214929563819
0.0138350191486
0.211264093931
0.0143227005226
0.207484564218
0.0147769938719
0.203599086741
0.0151996157791
0.199615166491
0.0155921087328
0.195540109673
0.0159560860414
0.191380648631
0.01629298925
0.187143336924
0.0166043273363
0.182834187473
0.0168914417276
0.178459053076
0.0171557388298
0.174023278846
0.0173984630606
0.169532066928
0.0176209216371
0.164990143939
0.0178242661928
0.160402108901
0.0180097090632
0.155772116727
0.0181783139872
0.151104208449
0.0183312030179
0.146402011474
0.0184693569045
0.141669051307
0.0185938119926
0.136908469558
0.0187054708277
0.13212331645
0.0188052883053
0.127316287247
0.018894093099
0.122489994876
0.0189727624901
0.117646725654
0.0190420551788
0.112788691464
0.0191027741504
0.107917805397
0.0191556114513
0.103035912888
0.0192012985691
0.0981445880335
0.0192404637133
0.0932453432747
0.019273769169
0.0883394468367
0.019301781584
0.0834281105254
0.019325095864
0.0785123288393
0.0193442188983
0.0735930446602
0.0193596796211
0.0686710104177
0.0193719265092
0.0637469314827
0.0193814234921
0.0588213495402
0.0193885615403
0.0538947637775
0.019393740127
0.0489675355726
0.0193972932709
0.0440399866375
0.0193995560927
0.0391123241107
0.0194008058804
0.0341847138488
0.0194013141482
0.0292572267042
0.0194013032222
0.0243298825043
0.0194009864733
0.0194026245646
0.0194005508709
0.0144753676748
0.0194001605276
0.00954829952487
0.0193990571889
0.00463001607067
0.0193648439024
0.0182404956548
0.0131121822859
-0.0633027697396
0.0269917707194
-0.0670134324409
0.0407878282395
-0.0666297641281
0.0544101110872
-0.0658267443219
0.0678012326245
-0.0647584072407
0.0809085569453
-0.0634449467837
0.093683386152
-0.0619029547364
0.106081269966
-0.0601509602723
0.118062430162
-0.058209186431
0.129591921255
-0.0560990919559
0.140639830414
-0.0538428044742
0.151181193711
-0.0514626953455
0.161195991011
-0.0489808853397
0.170668867865
-0.0464189275612
0.179588985139
-0.0437974270529
0.187949613731
-0.0411358541964
0.195747903989
-0.0384522873558
0.202984416558
-0.0357633518398
0.209662866668
-0.0330840718023
0.215789641183
-0.0304279119673
0.221373558262
-0.0278067126013
0.226425404547
-0.0252308049101
0.230957734548
-0.0227090006972
0.234984447422
-0.020248752953
0.238520638263
-0.0178561748653
0.241582222551
-0.0155362227512
0.244185841619
-0.0132927253992
0.246348535338
-0.0111285724715
0.24808769892
-0.00904574103104
0.249420799874
-0.00704547883355
0.25036537998
-0.00512832071821
0.250938809845
-0.00329425878624
0.25115834501
-0.00154276473488
0.25104078324
0.00012721946567
0.250602631948
0.00171751146645
0.249860048244
0.00322976059257
0.248828799279
0.00466570745531
0.247524125273
0.00602730222086
0.24596085003
0.00731670718378
0.244153227363
0.00853616134857
0.24211506497
0.0096880333357
0.239859584312
0.0107747087176
0.237399552924
0.011798648714
0.234747152903
0.0127622858994
0.231914118507
0.0136680902087
0.228911611279
0.0145184712965
0.225750360034
0.0153158495971
0.222440541371
0.0160625643803
0.218991920359
0.0167609483523
0.215413735373
0.0174132401769
0.211714837547
0.0180216610686
0.207903579452
0.0185883312671
0.203987952392
0.0191153475915
0.19997547852
0.019604703126
0.195873344663
0.0200583646698
0.191688297906
0.0204781955102
0.187426775523
0.0208660320815
0.183094803962
0.0212236094533
0.178698124018
0.0215526364483
0.174242093511
0.0218547239459
0.169731807525
0.0221314580426
0.165172004911
0.0223843309856
0.160567182981
0.0226148118454
0.155921508235
0.0228242803217
0.151238925479
0.0230140946454
0.146523072975
0.0231855282076
0.141777385519
0.0233398342979
0.137005014444
0.0234781858617
0.132208924676
0.0236017368702
0.127391819806
0.0237115652391
0.122556232758
0.0238087305227
0.117704456339
0.0238942203229
0.112838627545
0.0239690041381
0.107960663812
0.0240339833456
0.103072340649
0.0240900409573
0.0981752339657
0.0241379954929
0.0932707910534
0.0241786464947
0.0883602791532
0.0242127323924
0.0834448495226
0.0242409715849
0.0785254925978
0.0242640245668
0.073603095119
0.0242825304626
0.0686784021424
0.0242970734777
0.0637520671069
0.0243082147744
0.0588246207812
0.0243164634664
0.0538965144897
0.0243223037264
0.0489680948956
0.0243261704732
0.044039639955
0.0243284717046
0.0391113390924
0.0243295693154
0.0341833196908
0.0243297966138
0.0292556367385
0.0243294461417
0.0243282930984
0.0243287841129
0.0194012390378
0.02432804241
0.0144744254956
0.0243274010049
0.00954809570601
0.024325816513
0.00463083531779
0.0242825139415
0.0228715228127
0.0133729032301
-0.0766768089132
0.0275251697718
-0.0811668955842
0.0415878898721
-0.0806936809684
0.05546666324
-0.079706698654
0.0691009660453
-0.0783938729182
0.0824354602738
-0.0767805838416
0.095419193737
-0.0748878083741
0.108005998774
-0.0727388626528
0.120154875185
-0.070359134246
0.131830189849
-0.0677754527574
0.143001788328
-0.0650154207899
0.153644925764
-0.0621068235443
0.163740143571
-0.059077064021
0.173272996686
-0.055952713507
0.182233771485
-0.0527591040273
0.190617090345
-0.0495200466827
0.19842154871
-0.0462575883071
0.205649269658
-0.0429918867842
0.212305523618
-0.0397411087764
0.218398287014
-0.0365214299034
0.223937887613
-0.0333470369343
0.228936600941
-0.0302302138855
0.233408345567
-0.0271814106239
0.237368334072
-0.0242093790837
0.240832827755
-0.021321276245
0.243818846649
-0.0185228221891
0.246343983749
-0.0158184136401
0.248426171205
-0.0132112842952
0.25008354844
-0.0107036135368
0.251334277524
-0.00829667696933
0.252196458024
-0.00599094160403
0.252687981765
-0.00378619679758
0.252826500119
-0.00168166991587
0.252629152568
0.000324205711739
0.252112713896
0.00223361761609
0.251293622628
0.00404854519913
0.25018783734
0.005771213989
0.248810785175
0.00740410086183
0.247177388553
0.00894987763783
0.245302013779
0.0104113347153
0.243198503961
0.0117913686201
0.240880138722
0.0130929235861
0.238359675371
0.0143189878909
0.235649315499
0.0154725451605
0.232760751327
0.0165565792907
0.229705137072
0.0175740332761
0.226493138429
0.0185278206268
0.223134907216
0.0194207900405
0.219640132309
0.0202557415174
0.216018016391
0.0210353955216
0.212277327228
0.0217624124469
0.208426375829
0.0224393651428
0.20447306713
0.0230687605333
0.200424879008
0.023653014713
0.19628891184
0.0241944758873
0.192071868161
0.0246954014049
0.187780100592
0.025157981272
0.183419591988
0.0255843166849
0.17899600151
0.0259764436674
0.174514645284
0.026336312772
0.169980540418
0.0266658123749
0.165398386173
0.0269667493768
0.160772605856
0.0272408718947
0.156107328667
0.0274898508252
0.151406429387
0.027715301663
0.146673510984
0.0279187668851
0.141911942103
0.0281017367619
0.137124840625
0.0282656325387
0.132315108942
0.0284118260769
0.127485418583
0.0285416238662
0.122638243294
0.0286562854262
0.117775844924
0.0287570081896
0.112900304323
0.0288449445638
0.108013508612
0.0289211877553
0.103117179913
0.0289867874471
0.098212864179
0.0290427366412
0.093301957766
0.0290899858914
0.0883856979354
0.0291294312272
0.0834651872221
0.0291619269301
0.0785413858186
0.0291882746133
0.0736151336996
0.029209234503
0.0686871451241
0.0292255157424
0.0637580285494
0.029237786165
0.0588282832275
0.0292466639063
0.0538983171609
0.029252725682
0.0489684447905
0.0292564998508
0.044038902733
0.0292584731809
0.0391098479384
0.0292590856259
0.0341813708853
0.0292587363001
0.0292534977169
0.0292577794336
0.0243262002559
0.0292565298841
0.0193994148898
0.0292552647905
0.0144730772385
0.0292541738485
0.00954737483804
0.0292519405091
0.00463078437054
0.0291995069482
0.0275025028398
0.0136929535535
-0.090370891478
0.028181108847
-0.0956562473899
0.042572083241
-0.0950858422792
0.0567660697026
-0.0939018593033
0.0706986430801
-0.0923276009687
0.0843111332516
-0.0903942087798
0.0975498455535
-0.0881276332156
0.110366522593
-0.0855566289038
0.12271872698
-0.0827124029528
0.134570040988
-0.0796278051012
0.145890116588
-0.0763365076387
0.156654564823
-0.0728722552726
0.166844737399
-0.0692681916425
0.176447395054
-0.0655562974306
0.185454320317
-0.0617669263387
0.193861865624
-0.0579284598558
0.201670492472
-0.0540670535277
0.208884284387
-0.0502064878045
0.215510484744
-0.0463680886946
0.221559033366
-0.0425707290243
0.227042148432
-0.0388308731671
0.231973919808
-0.035162677687
0.236369957117
-0.0315781113219
0.240247053047
-0.0280871101368
0.243622903451
-0.0246977331544
0.246515840843
-0.0214163382476
0.248944622358
-0.0182477455073
0.250928226468
-0.0151954113046
0.25248569989
-0.0122615819115
0.253636007625
-0.00944745257377
0.254397928975
-0.00675330289859
0.254789948163
-0.00417862905329
0.254830206542
-0.00172231459832
0.254536215035
0.000617837304785
0.253925091905
0.0028444090468
0.253013574553
0.00495975769448
0.251817848768
0.00696666213347
0.250353528427
0.00886816978603
0.248635662994
0.0106675182989
0.246678720214
0.0123680783335
0.244496597231
0.0139733184619
0.242102612893
0.0154867598007
0.239509526004
0.0169119520526
0.236729533202
0.0182524395367
0.233774291725
0.0195117469854
0.230654920842
0.0206933539437
0.227382027163
0.0218006879574
0.223965708137
0.022837105424
0.220415578662
0.0238058903197
0.21674077557
0.0247102397628
0.212949984504
0.0255532667069
0.209051444688
0.0263379889665
0.205052975515
0.0270673347108
0.200961981131
0.0277441338802
0.196785476215
0.0283711255016
0.192530090138
0.028950950807
0.188202091766
0.0294861616983
0.183807393045
0.0299792149267
0.179351572598
0.0304324811659
0.174839878748
0.030848239906
0.170277251932
0.0312286887629
0.165668327162
0.0315759387645
0.16101745519
0.0318920235823
0.156328704524
0.0321788950779
0.151605881436
0.0324384322833
0.146852531619
0.0326724370483
0.142071959033
0.0328826426084
0.137267227335
0.0330707093205
0.132441177699
0.0332382327475
0.127596430115
0.0333867394223
0.122735400183
0.0335176943732
0.11786030044
0.0336324969609
0.112973156251
0.033732487833
0.108075807243
0.0338189448292
0.103169922314
0.0338930893179
0.0982570013234
0.0339560822598
0.0933383892967
0.0340090299296
0.0884152784496
0.0340529801506
0.0834887215514
0.0340889273981
0.0785596344715
0.0341178092834
0.0736288086934
0.0341405110521
0.0686969146167
0.0341578623447
0.0637645132621
0.034170641103
0.0588320603191
0.034179570702
0.0538999173527
0.0341853232883
0.0489683555068
0.0341885173354
0.0440375661856
0.0341897205609
0.0391076642589
0.0341894480917
0.0341786964178
0.0341881646081
0.029250648947
0.0341862844238
0.0243234579234
0.0341841729894
0.0193970168174
0.0341821409038
0.0144712149334
0.0341803987046
0.00954618797695
0.0341773942437
0.00463030559173
0.0341157961595
0.0321329982311
0.0140770131448
-0.104449027717
0.0289685210791
-0.110548935791
0.043753407239
-0.109871909876
0.0583250930268
-0.108474709664
0.0726143197655
-0.106617974683
0.086558355284
-0.104339370538
0.100100208057
-0.101670590269
0.113189147261
-0.0986466491174
0.125781092923
-0.0953054047222
0.137838792299
-0.091686534986
0.149331805434
-0.0878305242624
0.16023631487
-0.0837777409247
0.170534803789
-0.079567628447
0.180215623115
-0.0752380364413
0.189272493294
-0.0708246872585
0.197703956586
-0.0663607852427
0.205512818746
-0.0618767486184
0.212705586926
-0.0574000601753
0.219291933366
-0.0529552102423
0.225284182613
-0.0485637247205
0.230696843513
-0.0442442516571
0.235546176941
-0.0400127003045
0.239849814495
-0.0358824095889
0.243626414881
-0.0318643431533
0.246895369514
-0.0279672923216
0.249676542046
-0.0241980875559
0.251990051438
-0.0205618039331
0.253856082693
-0.0170619640556
0.255294734103
-0.0137007272525
0.25632588526
-0.0104790704694
0.256969096071
-0.00739695302434
0.2572435175
-0.00445346217188
0.25716784969
-0.00164703215314
0.25676000996
0.00102531852965
0.256037515446
0.00356657295316
0.255017425332
0.00597954463828
0.253716172956
0.00826763835439
0.252149564284
0.0104345289885
0.250332785553
0.0124840738875
0.248280401645
0.0144202651272
0.246006364998
0.0162471836852
0.24352402233
0.0179689563891
0.240846129478
0.0195897238096
0.237984862391
0.0211136101684
0.234951835272
0.0225447018938
0.231758114005
0.0238870268482
0.228414235974
0.0251445410317
0.224930224604
0.026321114855
0.22131560968
0.0274205258312
0.217579442099
0.0284464500264
0.213730313966
0.0294024590728
0.20977637298
0.0302920153078
0.2057253418
0.0311184717695
0.201584531716
0.0318850699018
0.197360861009
0.0325949415477
0.193060867746
0.0332511083509
0.188690726992
0.033856484973
0.184256262626
0.0344138795687
0.179762963388
0.0349259976915
0.175215993763
0.0353954433727
0.170620208859
0.035824723301
0.165980164412
0.0362162481905
0.161300130583
0.0365723369719
0.156584101194
0.0368952182218
0.151835806525
0.037187034165
0.14705872187
0.0374498420299
0.142256079465
0.0376856177571
0.137430876478
0.037896257191
0.132585886173
0.0380835794183
0.127723665437
0.0382493277528
0.122846565287
0.0383951726921
0.117956738051
0.0385227126809
0.113056147321
0.0386334766577
0.108146574883
0.0387289246241
0.103229630205
0.0388104498009
0.0983067572134
0.0388793790167
0.0933792434007
0.0389369744973
0.0884482265172
0.0389844341041
0.0835147033175
0.039022892793
0.0785795363225
0.0390534227384
0.0736434621855
0.0390770344948
0.0687070987664
0.039094677044
0.0637709532125
0.0391072387031
0.0588354292903
0.0391155471376
0.0539008355002
0.0391203700723
0.0489673917086
0.039122415366
0.0440352372143
0.0391223315009
0.0391044360943
0.0391207077819
0.0341749851876
0.039118075213
0.0292468213602
0.0391149055468
0.024319827077
0.0391116119989
0.0193938505102
0.0391085514823
0.0144687282284
0.0391059540443
0.00954451607855
0.0391020237914
0.00462951293434
0.0390311976732
0.0367627055124
0.0145305856988
-0.118980728177
0.0298983859909
-0.125917917125
0.04514800695
-0.125122701107
0.0601645372738
-0.123492397491
0.0748728227255
-0.121327397855
0.0892052289461
-0.118672894384
0.103100853053
-0.115567309919
0.11650609445
-0.112052962657
0.129375048044
-0.108175405997
0.141669636929
-0.10398214571
0.153359508688
-0.0995213914828
0.164421733291
-0.0948409335652
0.174840346296
-0.0899871819496
0.184605781657
-0.0850043840401
0.193714234977
-0.0799340246839
0.202166993242
-0.0748143990459
0.209969760695
-0.0696803432706
0.217132003409
-0.0645631015013
0.223666330001
-0.0594903071034
0.229587918527
-0.0544860551011
0.234913997545
-0.0495710443499
0.239663382281
-0.044762770583
0.243856068085
-0.0400757530028
0.247512876625
-0.0355217815283
0.250655154311
-0.0311101721924
0.253304515575
-0.0268480235354
0.255482629881
-0.0227404654783
0.257211044027
-0.0187908981295
0.258511039048
-0.015001214884
0.259403513314
-0.0113720104099
0.25990889347
-0.00790277123149
0.260047061322
-0.00459204059796
0.259837327122
-0.00143768190344
0.259298046934
0.00156424156593
0.258447179982
0.00441711084843
0.257302123094
0.00712429995171
0.255879567395
0.00968991971128
0.254195512089
0.0121183366562
0.252265279895
0.0144140849202
0.250103525031
0.0165818247895
0.247724247695
0.0186262915789
0.245140809039
0.0205522508503
0.242365949981
0.022364463719
0.239411808946
0.0240676565406
0.236289942689
0.025666497758
0.233011345205
0.0271655776216
0.22958646914
0.0285693938374
0.226025244742
0.0298823387948
0.222337100995
0.0311086916762
0.2185309839
0.0322526110909
0.214615376752
0.0333181317981
0.21059831735
0.034309161147
0.206487417126
0.0352294790061
0.202289877071
0.0360827367588
0.198012505556
0.0368724593504
0.193661732906
0.0376020459304
0.189243627905
0.0382747732256
0.184763911042
0.0388937971355
0.180227969727
0.0394621568363
0.175640870299
0.0399827768555
0.171007372062
0.0404584714993
0.166331938176
0.0408919470543
0.161618748612
0.0412858062384
0.156871710064
0.0416425503187
0.152094467979
0.0419645834001
0.147290415623
0.0422542143063
0.142462705303
0.0425136605784
0.137614256728
0.0427450500527
0.13274776757
0.042950424508
0.127865721239
0.0431317408971
0.122970396889
0.0432908746075
0.118063876742
0.0434296203567
0.113148055646
0.0435496950678
0.108224648065
0.0436527384422
0.103295197272
0.0437403154591
0.0983610821112
0.0438139166713
0.093423525911
0.0438749603573
0.0884836030991
0.0439247925777
0.0835422478496
0.0439646890082
0.078600260708
0.0439958548155
0.073658316955
0.0440194262067
0.0687169734942
0.0440364701685
0.0637766770148
0.0440479857711
0.058837771123
0.0440549038405
0.0539005046344
0.0440580880501
0.0489650378766
0.0440583345421
0.0440314511694
0.0440563729425
0.0390997501542
0.0440528660023
0.0341698723613
0.0440484099382
0.0292416963674
0.0440435354239
0.0243150502939
0.04403870726
0.0193897162947
0.0440343170958
0.0144654643473
0.0440306243161
0.009542296809
0.0440256148366
0.00462843040347
0.0439454676495
0.041391323494
0.0150603001127
-0.134042136955
0.0309841374207
-0.141842917596
0.0467756696648
-0.140915397996
0.0623098833307
-0.1390277583
0.0775044815572
-0.136523125537
0.0922859744216
-0.13345549568
0.106588867684
-0.129871289589
0.120356288592
-0.125821446695
0.133540367833
-0.121360523652
0.146102297683
-0.116545088635
0.158012105022
-0.111432185326
0.16924819075
-0.106077979052
0.179796699434
-0.100536622775
0.189650772941
-0.0948593622098
0.198809744268
-0.0890938726191
0.20727831098
-0.0832838145849
0.215065726481
-0.0774685794463
0.222185030467
-0.0716831983337
0.228652339035
-0.0659583804687
0.234486201079
-0.0603206541953
0.239707028504
-0.0547925809857
0.244336597733
-0.0493930214659
0.248397622356
-0.0441374317358
0.251913390029
-0.039038175974
0.254907459785
-0.0341048414548
0.257403411785
-0.0293445478591
0.259424644406
-0.0247622433148
0.260994211334
-0.0203609831688
0.262134693575
-0.0161421882228
0.262868100201
-0.0121058812896
0.263215794144
-0.00825090218442
0.263198438099
-0.0045750936549
0.262835974887
-0.00107560123393
0.262147245534
0.00225261545327
0.261150674709
0.00541335421243
0.259864000462
0.0084106745169
0.258304171351
0.0112494763472
0.256487374402
0.0139348880477
0.254429059025
0.0164721811019
0.252143955338
0.0188667354069
0.249646095718
0.0211239837287
0.246948838144
0.0232493663234
0.244064890051
0.0252482945441
0.241006332762
0.0271261211638
0.237784645769
0.0288881161197
0.234410730994
0.0305394475469
0.230894936392
0.0320851667618
0.227247079208
0.0335301972171
0.223476468241
0.0348793261427
0.219591925632
0.0361371991802
0.215601807478
0.0373083167128
0.211514023928
0.0383970324468
0.207336058008
0.0394075529119
0.203074983991
0.0403439386857
0.198737484434
0.0412101059361
0.194329866882
0.0420098293083
0.189858079212
0.04274674467
0.185327724785
0.0434243529516
0.180744076242
0.0440460234991