/*--------------------------------*- C++ -*----------------------------------*\
| =========                 |                                                 |
| \\      /  F ield         | OpenFOAM: The Open Source CFD Toolbox           |
|  \\    /   O peration     | Version:  v1906                                 |
|   \\  /    A nd           | Web:      www.OpenFOAM.com                      |
|    \\/     M anipulation  |                                                 |
\*---------------------------------------------------------------------------*/
FoamFile
{
    version     2.0;
    format      ascii;
    class       surfaceScalarField;
    location    "696";
    object      phi;
}
// * * * * * * * * * * * * * * * * * * * * * * * * * * * * * * * * * * * * * //

dimensions      [0 3 -1 0 0 0 0];
oriented        oriented;


internalField   nonuniform List<scalar> 
18240
(
-0.000352288984876
0.000352327888533
-0.000738016484353
0.000385776116562
-0.00112340176282
0.000385424216589
-0.00150381417231
0.000380463071891
-0.00187719604396
0.000373418294167
-0.00224178733238
0.000364643683808
-0.00259609164513
0.000354338159242
-0.00293872691942
0.000342689206024
-0.00326855527197
0.000329859525751
-0.00358453416767
0.000316034136037
-0.00388587572794
0.000301369904539
-0.0041718648682
0.000286045460478
-0.00444204029664
0.000270200866906
-0.00469598008424
0.000253996950643
-0.00493350556573
0.000237547893332
-0.00515443816593
0.000220990364819
-0.00535882815709
0.00020440934232
-0.00554668645662
0.000187916410825
-0.00571823904341
0.000171568788111
-0.0058736366458
0.000155455805299
-0.00601323461127
0.00013961102648
-0.00613728260247
0.000124106023883
-0.00624622848743
0.000108955755456
-0.00634038962611
9.42187486509e-05
-0.00642027888357
7.98959955226e-05
-0.00648625883154
6.60368833289e-05
-0.0065388873959
5.26321624818e-05
-0.00657855631955
3.97249497125e-05
-0.0066058541209
2.7298364186e-05
-0.00662119042638
1.53911931647e-05
-0.00662517421924
3.98135162795e-06
-0.00661822355291
-6.89712684492e-06
-0.00660095446318
-1.72743921138e-05
-0.00657378402715
-2.71184532348e-05
-0.00653733098894
-3.64611395221e-05
-0.00649200726777
-4.52734804739e-05
-0.00643842603155
-5.3591962453e-05
-0.00637698706698
-6.13906423178e-05
-0.00630829080941
-6.87095172287e-05
-0.00623271930355
-7.55252538351e-05
-0.00615085414193
-8.18807558518e-05
-0.00606305509237
-8.77550102212e-05
-0.00596987977135
-9.31931364826e-05
-0.00587166202417
-9.8176038589e-05
-0.00576893146956
-0.000102750376211
-0.00566199361926
-0.000106898581337
-0.00555134721279
-0.000110668104904
-0.0054372680106
-0.000114042457787
-0.00532022214368
-0.000117069217472
-0.00520045538842
-0.000119732611358
-0.00507840056331
-0.000122079686983
-0.00495427402896
-0.000124095043811
-0.00482847547669
-0.000125824696556
-0.00470119326298
-0.000127253420785
-0.00457279477422
-0.000128425766984
-0.00444344213885
-0.000129326562607
-0.00431347167019
-0.00012999865283
-0.0041830213681
-0.000130426964485
-0.00405239781955
-0.000130652486984
-0.00392171684354
-0.000130660369507
-0.00379125655103
-0.000130489764783
-0.00366111236541
-0.000130126301123
-0.00353153486245
-0.000129607361264
-0.00340260034881
-0.000128919327506
-0.00327453242003
-0.00012809796956
-0.00314738916364
-0.000127130743793
-0.00302136732298
-0.000126051929005
-0.00289650713911
-0.000124850310146
-0.00277297830108
-0.000123558795757
-0.00265080331751
-0.000122167714117
-0.00253012439947
-0.000120708626248
-0.00241094618521
-0.00011917350281
-0.00229338295417
-0.000117592531071
-0.00217742139341
-0.000115959351505
-0.0020631475148
-0.00011430264846
-0.0019505300727
-0.000112617653583
-0.00183962676392
-0.000110931378997
-0.00173038877134
-0.000109240517046
-0.00162284580927
-0.000107570173248
-0.00151693219641
-0.000105918307386
-0.00141265047237
-0.000104307872091
-0.00130991929996
-0.000102737876558
-0.00120871537078
-0.000101228833004
-0.00110894342201
-9.97805259765e-05
-0.00101055628905
-9.84106691308e-05
-0.000913447341012
-9.71193738467e-05
-0.000817548744325
-9.59207982533e-05
-0.000722747094288
-9.48140022988e-05
-0.000628961442196
-9.38065900378e-05
-0.000536085982214
-9.28894901217e-05
-0.000444059264148
-9.20459818594e-05
-0.000352862338521
-9.12119687397e-05
-0.000262660315884
-9.02184978118e-05
-0.0001742111666
-8.84647972468e-05
-9.06116679503e-05
-8.36179892425e-05
-9.06214205674e-05
-0.000389396300029
0.000741767360871
-0.0008241239052
0.00082055213942
-0.00125638217207
0.000817727921062
-0.0016823322466
0.000806461777792
-0.00210005597241
0.000791186596875
-0.00250776243615
0.000772398855706
-0.00290380471195
0.000750423999568
-0.00328667735338
0.000725610501086
-0.00365508920872
0.000698313741282
-0.00400791160993
0.000668904940451
-0.00434424156337
0.000637740850725
-0.00466332587801
0.000605177731656
-0.00496462570174
0.000571540138203
-0.00524772326827
0.000537141831271
-0.00551239228134
0.000502254670194
-0.00575849185145
0.000467136415695
-0.00598604597107
0.000431999381191
-0.00619512815316
0.000397044046996
-0.00638595193859
0.000362426527676
-0.00655874854665
0.000328296655887
-0.00671386903529
0.000294763364492
-0.00685165617981
0.000261936018401
-0.00697255785259
0.000229887080326
-0.0070769936287
0.000198695817201
-0.0071654783063
0.000168408020514
-0.00723848335599
0.000139081512388
-0.00729656919246
0.000110742984909
-0.00734024152544
8.34350140834e-05
-0.00737009093855
5.71703320509e-05
-0.00738664413944
3.19801535344e-05
-0.00739050879823
7.86611279177e-06
-0.00738222249241
-1.51497482388e-05
-0.00736240461687
-3.70746549324e-05
-0.00733159689551
-5.78946616335e-05
-0.00729041751003
-7.76253921231e-05
-0.0072394015484
-9.62601737926e-05
-0.00717915890152
-0.000113821960077
-0.00711021174651
-0.000130310835189
-0.007033154618
-0.000145756438492
-0.00694849035735
-0.000160164899271
-0.00685679173773
-0.000173571583601
-0.00675853676104
-0.000185987748797
-0.00665427107715
-0.000197453376148
-0.00654444347076
-0.000207983795025
-0.0064295683402
-0.000217622357703
-0.00631006214968
-0.000226387311783
-0.00618640520095
-0.000234324110425
-0.0060589797985
-0.000241452774268
-0.00592823058544
-0.000247819618719
-0.0057945050971
-0.000253445363786
-0.00565821190694
-0.000258376089816
-0.00551966421307
-0.000262632311919
-0.00537923508973
-0.000266258964063
-0.00523720468163
-0.000269275666165
-0.00509391184219
-0.000271725561273
-0.00494960548421
-0.000273626959854
-0.00480459195153
-0.000275020843177
-0.00465909101637
-0.000275924074254
-0.00451337833463
-0.000276375399131
-0.00436764656703
-0.000276390369504
-0.00422214235473
-0.000276005663174
-0.00407703300118
-0.000275235864792
-0.0039325374288
-0.000274115943491
-0.00378879885841
-0.00027265999953
-0.00364600930938
-0.000270901734814
-0.00350428868361
-0.000268855278372
-0.00336380240396
-0.000266553507131
-0.00322464730809
-0.000264011036341
-0.00308696211748
-0.000261260257701
-0.00295082050972
-0.000258316591397
-0.00281633413267
-0.000255212134502
-0.00268355320474
-0.000251963253437
-0.00255256186702
-0.000248601752008
-0.00242338660919
-0.000245144892167
-0.00229608375802
-0.00024162401311
-0.00217065599064
-0.000238057051524
-0.00204713181725
-0.000234474558115
-0.00192549038531
-0.00023089478978
-0.00180573280961
-0.000227347081912
-0.00168781543388
-0.000223849565932
-0.00157171291067
-0.000220429865076
-0.00145736004345
-0.000217105482647
-0.00134470651243
-0.000213901784063
-0.00123366740338
-0.000210835074523
-0.00112416951929
-0.000207927810318
-0.00101611067381
-0.000205194329453
-0.000909397491604
-0.000202653125309
-0.000803913374876
-0.000200314972753
-0.000699547301082
-0.000198191757017
-0.000596168349725
-0.000196285949514
-0.0004936380514
-0.000194594484558
-0.000391768062853
-0.000193098996814
-0.000290240878793
-0.000191763381502
-0.000188213649458
-0.000190509104311
-8.33558545463e-05
-0.000188492671811
-0.000173985885346
-0.000396353995886
0.00113816534621
-0.000836726904905
0.00126097234156
-0.00127524025889
0.00125628832033
-0.00170737720571
0.00123864627226
-0.00213101035404
0.00121486624581
-0.00254426759966
0.00118570337177
-0.00294544862623
0.00115165087767
-0.0033330304417
0.00111323912848
-0.00370569746387
0.0010710258213
-0.00406232909916
0.00102558273597
-0.00440201659798
0.000977472422451
-0.00472403435676
0.000927240811872
-0.00502785005073
0.000875398756107
-0.00531308584342
0.0008224219219
-0.00557952705631
0.000768737473774
-0.00582707817141
0.000714730628338
-0.00605577399192
0.000660735307294
-0.00626573387012
0.000607045644733
-0.00645717768997
0.000553908793438
-0.00663038023844
0.000501539380827
-0.00678569293687
0.000450112716064
-0.00692349901219
0.000399780566978
-0.00704424077632
0.000350663552506
-0.00714837546665
0.000302867137696
-0.00723640732956
0.000256472544086
-0.0073088436097
0.000211552448862
-0.00736623040623
0.000168160274808
-0.0074091082593
0.000126345443758
-0.00743805086231
8.61411952539e-05
-0.00745361982528
4.7579516065e-05
-0.00745640554586
1.06777737102e-05
-0.00744698096027
-2.45461843895e-05
-0.0074259440137
-5.80880151272e-05
-0.00739387042152
-8.99424227344e-05
-0.00735135716418
-0.000120117472195
-0.00729897449371
-0.000148619371457
-0.00723731043366
-0.00017546725122
-0.00716692230944
-0.000200677877244
-0.00708838195995
-0.000224280449187
-0.00700222703899
-0.000246301136904
-0.00690900681204
-0.000266777870968
-0.00680923351399
-0.000285744764709
-0.00670342851833
-0.00030324682439
-0.00659207403571
-0.000319324376421
-0.00647565950456
-0.000334027676592
-0.00635463385522
-0.000347401416428
-0.00622945187344
-0.000359499182593
-0.00610052724947
-0.000370368164752
-0.00596827872873
-0.000380063453322
-0.00583308410469
-0.000388633017622
-0.00569532588039
-0.000396131796689
-0.0055553463627
-0.000402607055629
-0.0054134926244
-0.000408112255957
-0.00527007280223
-0.000412692842261
-0.00512540007166
-0.000416399842589
-0.00497975025752
-0.000419276170439
-0.00483340460758
-0.000421369928708
-0.00468660878304
-0.000422721252774
-0.00453961416092
-0.000423375252868
-0.00439263829468
-0.000423369448379
-0.0042459045649
-0.000422746299443
-0.00409960417992
-0.000421541225596
-0.00395393396437
-0.000419794643585
-0.00380906000976
-0.000417540588768
-0.0036651534898
-0.000414818196249
-0.00352235606343
-0.000411660901368
-0.00338081358951
-0.000408107283977
-0.00324064342409
-0.00040419085964
-0.00310196599587
-0.000399950237494
-0.00296487412437
-0.000395419490065
-0.00282946239456
-0.000390637573465
-0.00269579864284
-0.000385639303539
-0.00256395113092
-0.000380464019648
-0.00243396231399
-0.000375147178568
-0.00230587377838
-0.000369728244272
-0.00217970240671
-0.000364242941945
-0.00205546308172
-0.000358730377815
-0.00193314732117
-0.000353225976048
-0.00181274371215
-0.0003477678282
-0.00169421908342
-0.00034239035185
-0.00157753666017
-0.000337129876069
-0.00146263980506
-0.000332019036554
-0.00134946785286
-0.000327091591069
-0.0012379424425
-0.000322377564671
-0.00112798099295
-0.000317907273229
-0.00101948556643
-0.000313707189749
-0.000912353796117
-0.000309803114389
-0.000806469961598
-0.000306216701161
-0.000701712479303
-0.000302967673543
-0.000597945293031
-0.000300071210613
-0.000495017901413
-0.000297540190867
-0.000392748087523
-0.000295386192025
-0.000290899781842
-0.000293628396357
-0.000189165996695
-0.000292260842121
-8.76998489602e-05
-0.000289976718143
-0.000261693938489
-0.000402558669832
0.00154076827124
-0.000849050099481
0.00170751163067
-0.00129366578874
0.0017009513918
-0.00173166283794
0.00167669087787
-0.00216077648149
0.00164402694171
-0.00257904603308
0.00160402001988
-0.00298471142326
0.00155736280888
-0.00337622000074
0.0015047942405
-0.00375224071635
0.00144709237825
-0.00411166139745
0.00138504921329
-0.00445358867301
0.00131944465904
-0.00477733135978
0.0012510283726
-0.00508239117157
0.00118050245822
-0.00536843839111
0.00110851291074
-0.00563529935112
0.00103564108363
-0.00588292980502
0.000962403569771
-0.0061114036431
0.000889250372498
-0.00632088752536
0.000816570557976
-0.00651163334716
0.000744694261127
-0.00668395582513
0.000673901268775
-0.00683822951354
0.000604424303151
-0.00697486960487
0.000536458291961
-0.00709433318265
0.000470163147571
-0.00719710267947
0.000405672353974
-0.00728369046826
0.000343094332334
-0.00735462408415
0.000282519746176
-0.00741045313599
0.00022402120812
-0.00745173543834
0.000167659286708
-0.00747904535713
0.000113480777299
-0.00749296023071
6.15236993289e-05
-0.00749406960669
1.18145274976e-05
-0.00748296130685
-3.56274749437e-05
-0.0074602312099
-8.07930898602e-05
-0.00742646939494
-0.000123679588645
-0.00738227014538
-0.00016429408854
-0.00732821787474
-0.000202649388448
-0.00726489733464
-0.000238767580441
-0.00719287956856
-0.000272675807407
-0.00711273242856
-0.000304409800509
-0.00702500665077
-0.000334009500281
-0.00693024668236
-0.000361522475396
-0.00682897700263
-0.000386999444
-0.00672171326706
-0.000410497592181
-0.0066089489887
-0.00043207604385
-0.0064911669736
-0.000451799094913
-0.0063688264326
-0.000469731701888
-0.00624237466315
-0.000485942672966
-0.00611223464593
-0.000500500232593
-0.00597881689768
-0.000513475190802
-0.0058425075663
-0.000524936648569
-0.00570368036483
-0.000534955181296
-0.00556268516757
-0.000543598730982
-0.00541985991318
-0.000550935817221
-0.00527551967029
-0.000557031664956
-0.00512996838868
-0.000561951462952
-0.00498348839987
-0.00056575675275
-0.00483635188555
-0.000568508726344
-0.00468881075951
-0.000570264893492
-0.00454110772832
-0.000571082407025
-0.00439346651653
-0.000571014995223
-0.00424610240959
-0.000570116269929
-0.00409921278907
-0.000568436899513
-0.00395298707504
-0.000566027850805
-0.0038075975747
-0.000562937755067
-0.00366320877657
-0.000559216014892
-0.0035199685354
-0.00055491031853
-0.00337801670442
-0.000550069555129
-0.00323747671658
-0.000544741431732
-0.00309846357263
-0.000538975143659
-0.00296107588834
-0.000532819069875
-0.00282540327236
-0.000526323172388
-0.00269151892446
-0.000519536759237
-0.00255948644724
-0.000512510600876
-0.00242935306801
-0.000505294773191
-0.00230115592054
-0.000497940501819
-0.00217491595668
-0.000490498106242
-0.0020506437281
-0.000483018589501
-0.00192833402948
-0.000475551713789
-0.00180797119092
-0.000468147360132
-0.00168952448174
-0.000460853762241
-0.00157295291686
-0.000453718656374
-0.00145820142718
-0.000446787696205
-0.00134520516245
-0.000440105406995
-0.00123388641207
-0.00043371379349
-0.00112415836119
-0.000427653104004
-0.00101592267127
-0.00042196064027
-0.000909072514495
-0.000416671340806
-0.000803490494164
-0.000411816840291
-0.000699050476177
-0.000407426090058
-0.000595615057805
-0.000403525025072
-0.00049303474246
-0.000400138287578
-0.000391145766116
-0.000397292588651
-0.00028977420016
-0.000395017971064
-0.000188789910372
-0.0003932624647
-8.86822317902e-05
-0.000390101740248
-0.00035038508864
-0.000410558611511
0.00195137148148
-0.000865541048045
0.00216254147676
-0.00131842225709
0.00215388049939
-0.00176426819065
0.00212258443127
-0.00220067846656
0.00208048466268
-0.0026255876885
0.00202897647468
-0.00303716207414
0.00196898410699
-0.00343380775587
0.0019014865911
-0.00381417874679
0.00182750960918
-0.00417717405233
0.00174809043822
-0.0045219294163
0.0016642454049
-0.0048478002632
0.00157694420108
-0.00515434332377
0.00148708986282
-0.00544129278375
0.00139550623011
-0.00570853889205
0.00130293031114
-0.00595610358987
0.00121001082312
-0.00618412116268
0.00111730966642
-0.00639281713192
0.00102530760244
-0.00658249345016
0.000934410724723
-0.00675351208205
0.000844959327586
-0.00690628524175
0.000757235876968
-0.00704126347775
0.000671474151232
-0.00715893023019
0.000587866429516
-0.00725979340898
0.000506571212666
-0.00734438306467
0.00042771850871
-0.00741324521313
0.000351415508788
-0.00746694137568
0.000277749763696
-0.00750604355441
0.000206792910913
-0.00753113468768
0.000138602088655
-0.00754280402394
7.32222241237e-05
-0.00754164792382
1.06863044034e-05
-0.00752826493765
-4.89836003172e-05
-0.00750325695407
-0.00010577555463
-0.00746722428912
-0.00015968777772
-0.00742076655345
-0.000210728714875
-0.00736447782871
-0.000258916056348
-0.00729894753244
-0.000304277195499
-0.00722475568315
-0.000346848037651
-0.00714247394154
-0.000386673305848
-0.00705266107492
-0.000423805188263
-0.00695586426936
-0.000458303477815
-0.00685261489071
-0.000490234073377
-0.00674343011591
-0.000519668984477
-0.00662880906288
-0.000546684751074
-0.00650923477892
-0.000571362377803
-0.00638517077032
-0.000593785730383
-0.006257063331
-0.000614041454089
-0.00612533847896
-0.000632217419372
-0.00599040460377
-0.000648402687847
-0.0058526497835
-0.000662686057759
-0.00571244468362
-0.000675156122209
-0.00557014021212
-0.00068589997364
-0.0054260706039
-0.000695003403196
-0.0052805513441
-0.000702549798376
-0.00513388233205
-0.00070862050999
-0.00498634599426
-0.000713293977407
-0.00483821043356
-0.000716646281161
-0.00468972763796
-0.000718750494355
-0.00454113649975
-0.00071967740465
-0.00439266104084
-0.000719495076078
-0.00424451322092
-0.000718269706195
-0.00409689111254
-0.000716065342603
-0.00394998142687
-0.000712944808346
-0.00380395761191
-0.000708969510896
-0.00365898207984
-0.000704200364147
-0.00351520423155
-0.000698697609669
-0.00337276239091
-0.000692521658267
-0.00323178180077
-0.000685732863992
-0.00309237631662
-0.000678392231329
-0.00295464643579
-0.000670561093497
-0.00281868080595
-0.000662301650918
-0.00268455436574
-0.000653676542618
-0.00255232974083
-0.000644749214378
-0.00242205556273
-0.000635583388563
-0.00229376780316
-0.000626243278165
-0.00216748832997
-0.00061679298674
-0.00204322622535
-0.000607296601547
-0.00192097661223
-0.000597817556169
-0.00180072197216
-0.000588418636439
-0.00168243126244
-0.000579161344877
-0.0015660612409
-0.000570105851873
-0.00145155587005
-0.00056131038921
-0.00133884763102
-0.000552831170942
-0.00122785719144
-0.000544721842863
-0.0011184946715
-0.000537033395373
-0.00101065949031
-0.000529813695202
-0.000904241458594
-0.00052310744057
-0.000799120680204
-0.000516955880151
-0.000695168178624
-0.000511396942522
-0.000592245847842
-0.000506465627608
-0.000490207469816
-0.000502195068885
-0.000388900148057
-0.000498617441073
-0.000288174021215
-0.000495760677854
-0.000187931322821
-0.000493523453627
-8.86380074826e-05
-0.000489413409854
-0.000439031360117
-0.000420730991381
0.00237214723715
-0.000886741598131
0.00262860046976
-0.00135030385585
0.00261749073716
-0.0018062424595
0.00257857104589
-0.00225199395923
0.00252628386287
-0.0026853651381
0.00246239517631
-0.00310443332402
0.00238809952393
-0.0035075555359
0.00230465575309
-0.00389337300534
0.00221337365778
-0.004260804383
0.00211556802155
-0.00460903057102
0.00201251733209
-0.00493747224576
0.0019054311492
-0.00524576397395
0.00179542629717
-0.00553372566991
0.0016835120788
-0.00580133490967
0.00157058303973
-0.00604869980668
0.0014574185666
-0.00627603526766
0.00134468721169
-0.00648364126278
0.00123295495652
-0.00667188538086
0.00112269534926
-0.00684118749766
0.00101430114451
-0.00699200856978
0.000908095709005
-0.00712484089386
0.000804344357911
-0.00724020183567
0.000703264238272
-0.007338628103
0.000605033403472
-0.00742067271075
0.000509797954063
-0.00748690160277
0.000417678241021
-0.00753789230667
0.000328773165978
-0.00757423155716
0.000243163814622
-0.00759651451775
0.000160915510242
-0.00760534254962
8.20796324065e-05
-0.00760132251102
6.69441133735e-06
-0.00758506391221
-6.52151711869e-05
-0.00755717831196
-0.000133635393939
-0.00751827646538
-0.000198565002867
-0.00746896710535
-0.000260014739172
-0.00740985411416
-0.000318006866253
-0.0073415352879
-0.000372575140117
-0.00726459956125
-0.000423764041491
-0.00717962592293
-0.000471628522717
-0.00708718085092
-0.000516232997947
-0.00698781750182
-0.000557650863655
-0.00688207346795
-0.000595963293564
-0.00677047032541
-0.00063125859866
-0.00665351178229
-0.000663630902225
-0.00653168362068
-0.000693179415672
-0.00640545226059
-0.000720007081081
-0.00627526510009
-0.000744219846138
-0.00614154948952
-0.00076592535092
-0.00600471343929
-0.000785232270167
-0.00586514496898
-0.000802249117123
-0.00572321313267
-0.000817083720078
-0.00557926768712
-0.000829842203123
-0.00543364035751
-0.000840628648968
-0.00528664474253
-0.000849544310939
-0.00513857772711
-0.000856687507552
-0.00498971952683
-0.000862153098898
-0.00484033513446
-0.000866032630643
-0.0046906743941
-0.000868414083566
-0.0045409733702
-0.000869382258882
-0.00439145434968
-0.000869018770925
-0.00424232703472
-0.000867402622749
-0.00409378839233
-0.000864610379909
-0.00394602360693
-0.000860716858353
-0.00379920573864
-0.000855795387785
-0.00365349641366
-0.000849918511892
-0.00350904529549
-0.000843158244913
-0.00336599053781
-0.000835586690867
-0.00322445811711
-0.000827276207049
-0.00308456210776
-0.000818299867474
-0.00294640395002
-0.000808731478859
-0.00281007262729
-0.000798645851145
-0.00267564395547
-0.000788118646118
-0.00254318074348
-0.000777226451816
-0.00241273218019
-0.000766046479431
-0.00228433404556
-0.000754656469822
-0.00215800825455
-0.000743134275766
-0.00203376316464
-0.000731557643558
-0.00191159331074
-0.000720003728065
-0.0017914798309
-0.000708548797928
-0.00167339040549
-0.000697267728588
-0.00155727980402
-0.000686233673538
-0.00144309002117
-0.0006755175739
-0.00133075093073
-0.000665187831461
-0.00122018059137
-0.000655309866226
-0.00111128597615
-0.000645945824314
-0.00100396338976
-0.000637154223762
-0.000898099208801
-0.0006289897464
-0.00079357031977
-0.000621503043233
-0.000690244930557
-0.000614740807863
-0.000587983303731
-0.000608745799264
-0.000486638829531
-0.000603557295537
-0.000386061846051
-0.000599211916441
-0.000286106786487
-0.000595734034121
-0.000186667429595
-0.000592980191456
-8.81657571541e-05
-0.000587932522572
-0.000527206192639
-0.000433339106476
0.00280553154467
-0.000913083741295
0.00310839303885
-0.00138992069413
0.00309437624688
-0.00185835990154
0.00304705846123
-0.00231563025467
0.00298360232265
-0.00275938133423
0.00290619409931
-0.00318758463301
0.00281635042211
-0.00359854307076
0.00271566149089
-0.00399089126517
0.00260576880843
-0.00436358231147
0.00248830563714
-0.00471586404029
0.00236484518804
-0.00504724793447
0.00223686068706
-0.00535747432542
0.00210569779489
-0.00564647642826
0.00197255870569
-0.00591434581936
0.00183849632282
-0.00616130063545
0.00170441659472
-0.00638765781363
0.00157108687918
-0.00659380950243
0.00143914835914
-0.00678020400586
0.00130913075574
-0.00694733069958
0.00118146787749
-0.00709570878023
0.00105651293899
-0.00722587900741
0.000934552788449
-0.00733839813151
0.000815820602672
-0.00743383515084
0.000700506645747
-0.00751276910856
0.000588767109994
-0.00757578768848
0.000480730938494
-0.0076234864355
0.000376504951602
-0.00765646804832
0.000276177334932
-0.00767534172898
0.000179819975865
-0.00768072220311
8.74897136968e-05
-0.00767322880976
-7.70536253383e-07
-0.0076534836439
-8.49331048029e-05
-0.00762211004961
-0.000164982946974
-0.00757973091594
-0.000240919336313
-0.0075269664468
-0.000312755618384
-0.00746443202318
-0.000380518955533
-0.0073927361069
-0.000444249941134
-0.00731247810972
-0.000504002187403
-0.00722424642498
-0.000559841578777
-0.0071286165255
-0.000611845531163
-0.00702614929503
-0.000660101944272
-0.00691738948544
-0.000704708208482
-0.00680286444373
-0.000745769951029
-0.00668308299845
-0.000783399896699
-0.00655853462947
-0.00081771651928
-0.00642968880368
-0.000848842858604
-0.0062969945864
-0.000876905176621
-0.00616088041183
-0.000902031826174
-0.00602175411076
-0.000924352001914
-0.00588000307354
-0.000943994739298
-0.00573599463815
-0.000961087835922
-0.00559007658085
-0.000975757055124
-0.00544257779012
-0.00098812528919
-0.00529380899363
-0.000998312028639
-0.00514406361237
-0.00100643282197
-0.00499361861035
-0.00101259905767
-0.00484273540877
-0.00101691775306
-0.00469166072954
-0.00101949165759
-0.00454062743826
-0.00102041935999
-0.00438985525887
-0.00101979568036
-0.00423955143562
-0.00101771203871
-0.00408991122244
-0.0010142570523
-0.00394111828741
-0.00100951706338
-0.00379334492912
-0.00100357682691
-0.00364675220561
-0.000996520074253
-0.00350148988428
-0.000988430162273
-0.00335769632785
-0.000979390550891
-0.00321549823685
-0.000969485305154
-0.00307501037271
-0.000958799396306
-0.00293633518331
-0.000947418984897
-0.00279956246086
-0.000935431498986
-0.00266476895258
-0.000922925677979
-0.00253201805301
-0.000909991431348
-0.00240135948847
-0.000896719664383
-0.00227282912024
-0.000883201955774
-0.00214644876792
-0.000869530217999
-0.00202222617436
-0.00085579625288
-0.00190015500213
-0.000842091307316
-0.00178021497949
-0.00082850556758
-0.00166237208075
-0.000815127669865
-0.00154657885227
-0.00080204418652
-0.00143277476678
-0.000789339139177
-0.0013208867115
-0.000777093518492
-0.00121082949148
-0.00076538484032
-0.0011025064564
-0.000754286735019
-0.00099581010447
-0.000743868581859
-0.000890622805386
-0.000734195215191
-0.000786817539354
-0.000725326703243
-0.000684258628997
-0.000717318157156
-0.000582802908722
-0.000710219857359
-0.000482301532668
-0.000704077252568
-0.000382601518218
-0.000698929568471
-0.000283551709291
-0.000694800306129
-0.000185034675615
-0.000691515728992
-8.74375878723e-05
-0.000685548207917
-0.000614652026318
-0.000448661826252
0.00325423876128
-0.000945103120356
0.00360488346651
-0.00143804517787
0.00358736696924
-0.00192159394676
0.00353065595768
-0.00239271722484
0.00345477402763
-0.00284887215314
0.00336239728353
-0.00328790723693
0.00325543349827
-0.00370806998389
0.00313587195046
-0.00410800091727
0.00300574711702
-0.00448671056889
0.0028670622854
-0.00484354402807
0.00272172520869
-0.00517813776493
0.00257150050823
-0.00549037331621
0.00241797889196
-0.00578033135643
0.00226256171759
-0.00604824903709
0.00210645833412
-0.00629448215377
0.00195069337172
-0.00651947327065
0.00179612091396
-0.00672372578177
0.00164344302645
-0.00690778393088
0.00149323022359
-0.00707221790649
0.00134594232407
-0.00721761360222
0.00120194817947
-0.00734456586022
0.00106154366651
-0.00745367477133
0.000924967129326
-0.00754554383709
0.00079241233357
-0.00762077973676
0.000664038557534
-0.00767999262365
0.00053997832195
-0.00772379694952
0.000420342642297
-0.00775281192937
0.000305224579361
-0.00776766193678
0.000194701067188
-0.00776897614187
8.88338597228e-05
-0.00775738762487
-1.2330335181e-05
-0.00773353260963
-0.00010876057982
-0.00769804865071
-0.000200440623197
-0.00765157247243
-0.000287370433173
-0.00759473805379
-0.000369566232945
-0.00752817417462
-0.000447060246134
-0.00745250226854
-0.000519900548329
-0.00736833399087
-0.0005881503872
-0.00727626922653
-0.000651887557747
-0.00717689391426
-0.000711203278072
-0.00707077839948
-0.000766201182138
-0.00695847566546
-0.00081699587614
-0.00684052013975
-0.000863711685605
-0.00671742640634
-0.000906481033961
-0.00658968850505
-0.000945443080237
-0.00645777914177
-0.000980742053434
-0.00632214947616
-0.00101252590224
-0.0061832288101
-0.00104094469604
-0.0060414248271
-0.00106614938498
-0.00589712371352
-0.00108829036256
-0.00575069079255
-0.00110751642429
-0.00560247100993
-0.00112397357689
-0.00545278987754
-0.00113780427636
-0.00530195422589
-0.00114914656418
-0.00515025334328
-0.001158133657
-0.00499795986725
-0.0011648934699
-0.00484533097641
-0.00116954859899
-0.00469260927099
-0.00117221625292
-0.0045400238656
-0.00117300862084
-0.00438779111258
-0.00117203317318
-0.00423611545916
-0.00116939334289
-0.00408518989892
-0.00116518909527
-0.00393519650465
-0.00115951779497
-0.00378630655176
-0.00115247489706
-0.00363868070328
-0.00114415483889
-0.00349246881852
-0.00113465169142
-0.00334780983628
-0.00112405992105
-0.00320483134533
-0.00111247486238
-0.00306364926408
-0.00109999323363
-0.0029243672886
-0.00108671334552
-0.00278707649221
-0.00107273531613
-0.00265185477567
-0.00105816099418
-0.00251876650473
-0.00104309388072
-0.00238786206848
-0.00102763880251
-0.00225917764455
-0.00101190159586
-0.00213273493764
-0.000995988599452
-0.00200854112541
-0.000980006177858
-0.00188658881125
-0.000964060113718
-0.00176685616923
-0.000948255049191
-0.00164930711578
-0.000932693849191
-0.00153389164744
-0.000917477026025
-0.0014205462155
-0.000902702130016
-0.00130919423793
-0.000888463207383
-0.00119974664777
-0.000874850259509
-0.00109210255502
-0.000861948772197
-0.000986149932085
-0.000849839280039
-0.000881766401357
-0.000838596994444
-0.000778820006975
-0.00082829148688
-0.000677170246938
-0.000818986517433
-0.000576669136452
-0.00081073965335
-0.000477162116438
-0.000803602030961
-0.000378491078233
-0.000797618176492
-0.000280497850532
-0.000792812128486
-0.000183050217155
-0.000788980740323
-8.65129985393e-05
-0.000782102863335
-0.000701174220881
-0.000467037336416
0.00372132204739
-0.000983482738265
0.00412137751497
-0.00149566621562
0.00409959981146
-0.00199718768917
0.00403222642819
-0.0024846887404
0.00394232400832
-0.00295539478827
0.00383315200738
-0.00340701504321
0.00370710221023
-0.00383774641851
0.0035666514991
-0.00424625723372
0.00341430578386
-0.00463164986528
0.00325250239479
-0.00499340882194
0.00308353121952
-0.00533134108591
0.00290947934846
-0.00564551466999
0.00273219852714
-0.00593620001875
0.00255329253196
-0.00620381740871
0.00237412056342
-0.00644889218338
0.00219581229393
-0.00667201842701
0.00201929058154
-0.00687383098586
0.00184529821506
-0.00705498499145
0.00167442604322
-0.00721614199441
0.00150714025217
-0.00735796137958
0.00134380759071
-0.00748109610132
0.00118471743946
-0.00758619141735
0.0010301005228
-0.00767388587947
0.000880143822844
-0.00774481342627
0.000735002093713
-0.00779960614178
0.00059480591122
-0.00783889676467
0.000459667046499
-0.00786332087854
0.000329681306052
-0.00787351816119
0.000204929825748
-0.00787013296731
8.54789249619e-05
-0.00785381349753
-2.86207238824e-05
-0.00782521177567
-0.000137334476986
-0.00778498117277
-0.000240644609329
-0.00773377456856
-0.000338551704195
-0.00767224188838
-0.000431074806328
-0.00760102771033
-0.000518251616972
-0.00752076858542