/*--------------------------------*- C++ -*----------------------------------*\
| =========                 |                                                 |
| \\      /  F ield         | OpenFOAM: The Open Source CFD Toolbox           |
|  \\    /   O peration     | Version:  v1906                                 |
|   \\  /    A nd           | Web:      www.OpenFOAM.com                      |
|    \\/     M anipulation  |                                                 |
\*---------------------------------------------------------------------------*/
FoamFile
{
    version     2.0;
    format      ascii;
    class       volVectorField;
    location    "406";
    object      U;
}
// * * * * * * * * * * * * * * * * * * * * * * * * * * * * * * * * * * * * * //

dimensions      [0 1 -1 0 0 0 0];


internalField   nonuniform List<vector> 
9216
(
(0.00271509772668 -0.00271733898176 0)
(0.00286273628859 -0.00876931503122 1.17280843031e-27)
(0.00285464711634 -0.0149156522137 1.84428539475e-31)
(0.00281743041993 -0.0210626137251 0)
(0.00276574785985 -0.0271069138687 0)
(0.00270107650152 -0.0330243216148 0)
(0.00262508429386 -0.0387890449021 0)
(0.00253913592962 -0.0443781318655 0)
(0.00244450777344 -0.0497714390756 0)
(0.00234249830253 -0.0549515838108 0)
(0.00223434127971 -0.0599039471807 0)
(0.00212127407797 -0.0646165702985 0)
(0.00200441580921 -0.0690800742909 0)
(0.00188486309341 -0.0732874593909 0)
(0.0017635530561 -0.0772339553567 0)
(0.00164139606422 -0.0809167658365 0)
(0.00151912136624 -0.0843348962427 0)
(0.0013974474948 -0.0874888879889 0)
(0.00127690466731 -0.0903806613023 0)
(0.00115804153774 -0.0930132693583 0)
(0.00104121805189 -0.0953907772394 0)
(0.000926847567947 -0.0975180503363 0)
(0.000815155318041 -0.099400675682 0)
(0.000706455423989 -0.10104478629 0)
(0.000600871319834 -0.102457021341 0)
(0.000498648250517 -0.103644381265 0)
(0.000399833887073 -0.104614217906 0)
(0.000304627098622 -0.105374112041 0)
(0.000213018003327 -0.105931884362 0)
(0.000125175241366 -0.106295489673 0)
(4.10480902309e-05 -0.106473030812 0)
(-3.9225291415e-05 -0.10647271121 0)
(-0.000115762598211 -0.106302766362 0)
(-0.000188443533704 -0.10597137805 0)
(-0.000257396528315 -0.105486794407 0)
(-0.000322513845455 -0.104857190529 0)
(-0.000383965565747 -0.104090706318 0)
(-0.000441661580629 -0.103195362139 0)
(-0.000495804134578 -0.102179087893 0)
(-0.000546316120767 -0.101049646923 0)
(-0.000593427734501 -0.0998146656007 0)
(-0.000637071916271 -0.0984815654181 0)
(-0.00067750211116 -0.0970575921686 0)
(-0.000714657799668 -0.0955497569224 0)
(-0.000748810807873 -0.0939648650809 0)
(-0.000779903759777 -0.0923094676553 0)
(-0.000808221400205 -0.0905898892207 0)
(-0.000833705870752 -0.0888121896756 0)
(-0.000856649742646 -0.0869821908965 0)
(-0.000876991739597 -0.08510544972 0)
(-0.000895027174243 -0.0831872816881 0)
(-0.000910688772441 -0.0812327446999 0)
(-0.00092427046653 -0.0792466591327 0)
(-0.000935697620982 -0.0772336022373 0)
(-0.000945259184419 -0.0751979225601 0)
(-0.000952872578741 -0.0731437439395 0)
(-0.000958819509693 -0.071074973269 0)
(-0.00096301033069 -0.0689953137029 0)
(-0.000965717972143 -0.0669082636681 0)
(-0.000966847414619 -0.0648171378988 0)
(-0.000966662569228 -0.0627250570337 0)
(-0.00096506592426 -0.0606349760462 0)
(-0.000962312571083 -0.0585496629897 0)
(-0.000958305718542 -0.0564717337092 0)
(-0.000953292565608 -0.0544036199754 0)
(-0.000947180688914 -0.0523476104274 0)
(-0.000940210113513 -0.0503058078126 0)
(-0.000932295984479 -0.0482801756002 0)
(-0.000923671860017 -0.0462724856717 0)
(-0.000914263282615 -0.0442843709626 0)
(-0.000904297279796 -0.0423172643983 0)
(-0.000893711609673 -0.0403724573652 0)
(-0.000882726255526 -0.0384510319388 0)
(-0.000871292236003 -0.036553925558 0)
(-0.000859621097859 -0.0346818578525 0)
(-0.000847677100826 -0.0328354012495 0)
(-0.00083566154687 -0.0310149044789 0)
(-0.00082355122978 -0.0292205691168 0)
(-0.000811534811433 -0.0274523709944 0)
(-0.000799600165325 -0.0257101421133 0)
(-0.000787920752517 -0.0239934916296 0)
(-0.000776493602567 -0.0223018927932 0)
(-0.000765474013514 -0.0206346045776 0)
(-0.000754865429798 -0.0189907633077 0)
(-0.00074480107824 -0.0173693070147 0)
(-0.000735285608066 -0.0157690731994 0)
(-0.000726420963375 -0.0141887314286 0)
(-0.000718194898327 -0.0126268968832 0)
(-0.000710637876643 -0.011082098629 0)
(-0.000703621665942 -0.00955297357977 0)
(-0.000696849798058 -0.00803842826332 0)
(-0.000689404764014 -0.00653840129301 0)
(-0.000678839801344 -0.00505583312409 0)
(-0.00065401525177 -0.00361382083392 0)
(-0.000609533906375 -0.00204819368479 0)
(-0.00102637213838 -0.00102608024783 0)
(0.00878972158206 -0.00289263860478 0)
(0.00971924554533 -0.00978894178122 0)
(0.00969708907434 -0.0166725368921 -1.23158304979e-27)
(0.00956784970391 -0.02356179153 0)
(0.00938896458256 -0.0303266756578 0)
(0.0091678175507 -0.0369454857476 0)
(0.008908781656 -0.0433908427889 0)
(0.00861609839372 -0.0496375379756 0)
(0.00829403750919 -0.0556632055064 0)
(0.00794695626606 -0.0614485315979 0)
(0.00757909645005 -0.0669773042789 0)
(0.00719462510046 -0.0722363335232 0)
(0.00679740757267 -0.0772153351008 0)
(0.0063911137599 -0.0819067200169 0)
(0.00597899394738 -0.0863053897834 0)
(0.00556406287938 -0.0904084673053 0)
(0.00514887106264 -0.0942150663074 0)
(0.00473576132209 -0.0977260176712 0)
(0.00432661929569 -0.100943656963 0)
(0.00392319279956 -0.103871580098 0)
(0.00352680491198 -0.106514472255 0)
(0.00313872790131 -0.108877907369 0)
(0.00275984595891 -0.110968224653 0)
(0.00239107872439 -0.112792372314 0)
(0.00203298526457 -0.114357826641 0)
(0.00168623576193 -0.115672472179 0)
(0.00135115275885 -0.116744553098 0)
(0.00102823199208 -0.117582579307 0)
(0.000717620130771 -0.11819529864 0)
(0.000419687642418 -0.118591617649 0)
(0.000134446267823 -0.118780590609 0)
(-0.000137839201432 -0.118771309915 0)
(-0.000397300617111 -0.118572980321 0)
(-0.000643756670257 -0.118194854209 0)
(-0.000877423680045 -0.117646142392 0)
(-0.00109819287784 -0.116935998464 0)
(-0.00130638634068 -0.116073510428 0)
(-0.00150196626408 -0.115067647605 0)
(-0.00168534578491 -0.113927258404 0)
(-0.00185654723048 -0.112661020562 0)
(-0.00201606256141 -0.11127744041 0)
(-0.00216396304137 -0.109784809308 0)
(-0.00230080534744 -0.108191205274 0)
(-0.00242669680774 -0.106504456741 0)
(-0.0025422432758 -0.104732146929 0)
(-0.00264757453487 -0.102881585607 0)
(-0.00274332916385 -0.100959816086 0)
(-0.002829645689 -0.0989735952909 0)
(-0.00290717946326 -0.0969294030389 0)
(-0.00297606534375 -0.0948334302979 0)
(-0.00303696066808 -0.0926915898965 0)
(-0.00308998612752 -0.0905095124889 0)
(-0.00313578874482 -0.0882925576939 0)
(-0.00317446768265 -0.0860458169613 0)
(-0.00320665022173 -0.0837741236934 0)
(-0.0032324100159 -0.0814820619184 0)
(-0.00325234894777 -0.079173974017 0)
(-0.00326651522715 -0.0768539739884 0)
(-0.003275483189 -0.0745259511745 0)
(-0.00327927919469 -0.0721935868448 0)
(-0.00327845144731 -0.0698603527373 0)
(-0.00327301132154 -0.0675295299064 0)
(-0.00326348470223 -0.0652042010069 0)
(-0.00324987670193 -0.0628872705827 0)
(-0.00323269632601 -0.0605814507845 0)
(-0.00321195202369 -0.0582892827641 0)
(-0.00318814133044 -0.0560131158154 0)
(-0.00316128481949 -0.0537551298615 0)
(-0.00313187305122 -0.0515173088116 0)
(-0.00309994582367 -0.0493014645767 0)
(-0.00306598905495 -0.0471092055902 0)
(-0.00303006610569 -0.044941962893 0)
(-0.00299265820227 -0.0428009552808 0)
(-0.00295385375054 -0.0406872181707 0)
(-0.00291412651774 -0.0386015666557 0)
(-0.00287358844499 -0.0365446276652 0)
(-0.0028327008971 -0.0345168023675 0)
(-0.00279159546264 -0.0325183020709 0)
(-0.00275071430194 -0.0305491109875 0)
(-0.00271020277757 -0.0286090259812 0)
(-0.00267047590624 -0.0266976206879 0)
(-0.00263168553198 -0.0248142891428 0)
(-0.00259421042909 -0.0229582118696 0)
(-0.00255819968644 -0.0211284032601 0)
(-0.00252398413139 -0.0193236804542 0)
(-0.00249169518331 -0.0175427145688 0)
(-0.00246159259015 -0.0157840030206 0)
(-0.00243374977538 -0.0140459231191 0)
(-0.0024082766078 -0.0123267018912 0)
(-0.00238501915121 -0.0106244448275 0)
(-0.0023635548994 -0.0089370023045 0)
(-0.00234261295827 -0.0072616534697 0)
(-0.00231900993287 -0.00559361334786 0)
(-0.00228379797433 -0.00392185096486 0)
(-0.00219362190169 -0.00218863004824 0)
(-0.00204685276277 -0.000607373245007 0)
(0.01504711072 -0.00293851126293 0)
(0.0166612769041 -0.00994974471235 0)
(0.0166009709606 -0.0169235662132 -1.22953972964e-27)
(0.0163703198531 -0.0239134639468 0)
(0.0160590348341 -0.0307753286882 0)
(0.0156769074546 -0.0374859490711 0)
(0.0152304251721 -0.0440169054143 0)
(0.0147265376678 -0.0503424406211 0)
(0.0141725468264 -0.0564398629306 0)
(0.013575925769 -0.0622897255735 0)
(0.012944039713 -0.0678758436009 0)
(0.012284037118 -0.0731852008369 0)
(0.0116026244731 -0.0782077947837 0)
(0.0109060514269 -0.0829364079803 0)
(0.0101999448772 -0.0873663621225 0)
(0.00948938583099 -0.0914952356967 0)
(0.00877878756887 -0.0953225980477 0)
(0.00807204562695 -0.098849732363 0)
(0.00737243475118 -0.102079396029 0)
(0.00668280904676 -0.105015582965 0)
(0.00600549314574 -0.107663332621 0)
(0.00534251330498 -0.110028544041 0)
(0.00469546450695 -0.112117837137 0)
(0.00406576025355 -0.11393841576 0)
(0.00345446499653 -0.115497973753 0)
(0.00286255718677 -0.116804596716 0)
(0.0022907230624 -0.117866700458 0)
(0.00173963260405 -0.118692958868 0)
(0.00120969525623 -0.119292262591 0)
(0.000701350980988 -0.119673662041 0)
(0.000214789367209 -0.119846338639 0)
(-0.000249733582875 -0.11981955575 0)
(-0.000692205571117 -0.119602630531 0)
(-0.00111253263917 -0.119204895024 0)
(-0.00151087647317 -0.118635668577 0)
(-0.00188729196166 -0.117904218335 0)
(-0.00224209100869 -0.117019735886 0)
(-0.00257546241409 -0.115991299016 0)
(-0.00288785620844 -0.114827852366 0)
(-0.00317957970244 -0.113538172801 0)
(-0.00345120238523 -0.112130853063 0)
(-0.00370313014269 -0.110614272312 0)
(-0.00393602919423 -0.108996583519 0)
(-0.00415038071905 -0.107285690002 0)
(-0.00434692218953 -0.10548923734 0)
(-0.00452618495524 -0.103614596596 0)
(-0.00468895111722 -0.101668860671 0)
(-0.00483577697673 -0.0996588341876 0)
(-0.00496746340454 -0.0975910342821 0)
(-0.00508456820395 -0.0954716870018 0)
(-0.00518788762266 -0.0933067316566 0)
(-0.00527796094341 -0.0911018229123 0)
(-0.00535556057131 -0.0888623379909 0)
(-0.00542119220688 -0.0865933836056 0)
(-0.00547559060006 -0.0842998044806 0)
(-0.00551921882126 -0.0819861937176 0)
(-0.00555276652892 -0.0796569014582 0)
(-0.00557665173764 -0.0773160474043 0)
(-0.0055915180622 -0.0749675278621 0)
(-0.00559774238813 -0.0726150288764 0)
(-0.00559592732621 -0.0702620305831 0)
(-0.00558641793822 -0.0679118198906 0)
(-0.00556978534236 -0.0655674908706 0)
(-0.00554635559411 -0.0632319560429 0)
(-0.00551668036122 -0.0609079425555 0)
(-0.00548108082188 -0.0585980018623 0)
(-0.00544010132882 -0.0563045014925 0)
(-0.00539407120303 -0.054029633193 0)
(-0.00534353762331 -0.0517754011051 0)
(-0.00528884803495 -0.0495436290813 0)
(-0.00523055881847 -0.04733594602 0)
(-0.00516904107214 -0.0451537931424 0)
(-0.00510486216234 -0.0429984078964 0)
(-0.00503841744295 -0.040870832248 0)
(-0.0049702822382 -0.0387718961813 0)
(-0.00490087197608 -0.0367022278234 0)
(-0.00483076271704 -0.0346622378197 0)
(-0.0047603818339 -0.0326521320482 0)
(-0.00469029558487 -0.0306718975656 0)
(-0.00462093219529 -0.0287213182872 0)
(-0.00455283537543 -0.0267999632127 0)
(-0.00448642111943 -0.0249072052507 0)
(-0.00442219618188 -0.0230422118489 0)
(-0.0043605492567 -0.021203966727 0)
(-0.00430193317254 -0.0193912627797 0)
(-0.00424668964154 -0.0176027256316 0)
(-0.00419519232659 -0.0158368065782 0)
(-0.00414770091716 -0.0140918021476 0)
(-0.00410445836979 -0.0123658336082 0)
(-0.00406556604007 -0.0106568306566 0)
(-0.00403103839356 -0.00896242566552 0)
(-0.00400076461409 -0.00727974272825 0)
(-0.00397475422685 -0.00560478819651 0)
(-0.00395346988439 -0.00393070486341 0)
(-0.0039229671702 -0.00226609761643 0)
(-0.0036049855536 -0.000648151832456 0)
(0.0214523573078 -0.00298380135974 0)
(0.0237718911573 -0.0100999962533 0)
(0.0236827492715 -0.0171692278493 1.22896785102e-27)
(0.0233486437449 -0.0242552549796 0)
(0.0228986043404 -0.0312079027315 0)
(0.0223470996337 -0.0380024663489 0)
(0.0217035638899 -0.0446093478824 0)
(0.0209780907266 -0.0510020870298 0)
(0.0201813252691 -0.0571576389457 0)
(0.019324126132 -0.0630565054019 0)
(0.0184172035843 -0.0686826991177 0)
(0.0174708812754 -0.0740236077455 0)
(0.0164948459822 -0.079069783648 0)
(0.0154980408708 -0.0838146718192 0)
(0.0144885281836 -0.0882543129389 0)
(0.0134735008543 -0.0923870275544 0)
(0.0124592316455 -0.0962131118175 0)
(0.0114511695796 -0.0997345423227 0)
(0.0104539373322 -0.102954713087 0)
(0.00947147517775 -0.105878194439 0)
(0.00850705132555 -0.108510530914 0)
(0.00756342348192 -0.110858062497 0)
(0.00664283710348 -0.112927782723 0)
(0.00574718588275 -0.114727214997 0)
(0.00487798430332 -0.116264318996 0)
(0.00403651892734 -0.117547407643 0)
(0.00322379115679 -0.118585086347 0)
(0.00244065885572 -0.119386195508 0)
(0.00168775143034 -0.119959768521 0)
(0.000965605700692 -0.120314987706 0)
(0.000274558080361 -0.120461150095 0)
(-0.000385116646335 -0.120407640312 0)
(-0.00101332853301 -0.120163873873 0)
(-0.00161003596337 -0.1197392793 0)
(-0.00217538127759 -0.119143270413 0)
(-0.00270953954679 -0.118385207117 0)
(-0.00321286345618 -0.117474367185 0)
(-0.00368572564199 -0.116419913102 0)
(-0.00412867001045 -0.115230866117 0)
(-0.00454224445575 -0.11391607661 0)
(-0.00492715811726 -0.112484201666 0)
(-0.00528410529997 -0.110943680147 0)
(-0.00561392825492 -0.109302714874 0)
(-0.00591743365219 -0.107569253439 0)
(-0.00619556069652 -0.105750975688 0)
(-0.00644919157438 -0.103855280727 0)
(-0.00667932462531 -0.101889279961 0)
(-0.00688688046468 -0.0998597904005 0)
(-0.00707287994539 -0.0977733330501 0)
(-0.00723824752604 -0.0956361321098 0)
(-0.00738399354344 -0.0934541181068 0)
(-0.00751101658607 -0.0912329322819 0)
(-0.00762028955405 -0.0889779335091 0)
(-0.00771266257788 -0.0866942067204 0)
(-0.00778905206058 -0.0843865723093 0)
(-0.00785024576524 -0.0820595972492 0)
(-0.00789709388145 -0.0797176054807 0)
(-0.00793031751799 -0.0773646901236 0)
(-0.00795070042678 -0.0750047232301 0)
(-0.0079589020553 -0.07264136758 0)
(-0.00795564831463 -0.070278084361 0)
(-0.00794154986055 -0.067918143197 0)
(-0.00791728991101 -0.0655646266159 0)
(-0.00788344836065 -0.0632204374626 0)
(-0.0078406845705 -0.0608882996055 0)
(-0.00778956760499 -0.0585707624048 0)
(-0.00773075184541 -0.0562701976559 0)
(-0.00766481381842 -0.0539888014164 0)
(-0.00759241875373 -0.0517285878279 0)
(-0.00751416443841 -0.0494913890606 0)
(-0.00743073710439 -0.0472788470009 0)
(-0.00734276309369 -0.0450924124065 0)
(-0.00725095292968 -0.0429333357372 0)
(-0.00715596162373 -0.040802666688 0)
(-0.00705852012627 -0.038701245362 0)
(-0.00695930536371 -0.0366297032583 0)
(-0.00685905865432 -0.0345884558937 0)
(-0.00675846647175 -0.032577706081 0)
(-0.00665826560924 -0.0305974387418 0)
(-0.00655913569032 -0.0286474269802 0)
(-0.00646179102618 -0.026727229552 0)
(-0.00636688559448 -0.0248361998806 0)
(-0.00627509148273 -0.022973486146 0)
(-0.00618701677186 -0.0211380428616 0)
(-0.00610327025955 -0.0193286329443 0)
(-0.00602439210232 -0.0175438403495 0)
(-0.00595090427645 -0.0157820713702 0)
(-0.0058832540201 -0.0140415630414 0)
(-0.00582185228807 -0.0123203738403 0)
(-0.00576703928342 -0.0106163711146 0)
(-0.00571914117907 -0.00892718797145 0)
(-0.00567853927335 -0.00725016025207 0)
(-0.00564586743339 -0.00558224217462 0)
(-0.00562129342563 -0.00391880055765 0)
(-0.00557943659492 -0.00228183226304 0)
(-0.00502912165452 -0.000667227237961 0)
(0.0279642879456 -0.00304326975604 0)
(0.0309910450206 -0.0102975294241 0)
(0.0308704602133 -0.0174991229911 0)
(0.030427567973 -0.024714352388 0)
(0.0298314962608 -0.0317881884117 0)
(0.0291018430531 -0.0386942175141 0)
(0.0282514778963 -0.0454014090888 0)
(0.0272940757711 -0.0518823896594 0)
(0.0262440029822 -0.0581136718178 0)
(0.0251158345965 -0.0640757354334 0)
(0.0239238908164 -0.0697529247769 0)
(0.0226818837331 -0.0751332426497 0)
(0.0214026217402 -0.0802080636755 0)
(0.0200978373492 -0.0849717925758 0)
(0.0187780592145 -0.0894214998852 0)
(0.0174525960124 -0.0935565529861 0)
(0.0161295338034 -0.0973782652956 0)
(0.014815824068 -0.100889570855 0)
(0.0135173508402 -0.104094737109 0)
(0.0122390692774 -0.106999114183 0)
(0.0109850940644 -0.109608926211 0)
(0.00975884758311 -0.111931097394 0)
(0.00856313684106 -0.113973114308 0)
(0.00740028695071 -0.115742914618 0)
(0.00627219000014 -0.117248802293 0)
(0.00518041414253 -0.118499379123 0)
(0.00412622049713 -0.11950349282 0)
(0.00311064855173 -0.120270192537 0)
(0.00213450533837 -0.120808693274 0)
(0.00119843357511 -0.121128341705 0)
(0.000302880828698 -0.121238583408 0)
(-0.000551841679978 -0.121148949363 0)
(-0.00136559752437 -0.120868982837 0)
(-0.00213837413038 -0.120408245106 0)
(-0.00287032901232 -0.119776274562 0)
(-0.00356173073065 -0.118982551843 0)
(-0.00421300953205 -0.118036469287 0)
(-0.00482469413538 -0.116947299029 0)
(-0.00539746301333 -0.115724164069 0)
(-0.00593207626067 -0.114376009525 0)
(-0.0064294269405 -0.112911577524 0)
(-0.0068904685299 -0.111339383216 0)
(-0.0073162665992 -0.109667694759 0)
(-0.00770792285091 -0.107904515137 0)
(-0.00806662764783 -0.106057568096 0)
(-0.00839358185035 -0.104134286356 0)
(-0.00869005078981 -0.102141803714 0)
(-0.00895728515183 -0.10008694963 0)
(-0.00919657691204 -0.0979762473558 0)
(-0.00940918046897 -0.0958159145492 0)
(-0.00959637099995 -0.0936118667248 0)
(-0.00975936700503 -0.0913697230423 0)
(-0.00989939140693 -0.0890948141501 0)
(-0.0100175965515 -0.086792192006 0)
(-0.010115128231 -0.0844666406703 0)
(-0.0101930540195 -0.0821226885954 0)
(-0.0102524301053 -0.0797646208027 0)
(-0.0102942335089 -0.077396491957 0)
(-0.0103194312498 -0.0750221380799 0)
(-0.0103289166097 -0.0726451886256 0)
(-0.0103235797006 -0.0702690761695 0)
(-0.0103042474768 -0.067897046038 0)
(-0.0102717543858 -0.065532162637 0)
(-0.010226885512 -0.0631773156096 0)
(-0.0101704457291 -0.0608352222387 0)
(-0.0101032051647 -0.0585084298531 0)
(-0.0100259652586 -0.0561993142815 0)
(-0.00993950582733 -0.0539100788491 0)
(-0.00984464663905 -0.0516427496661 0)
(-0.00974219558507 -0.0493991721909 0)
(-0.00963300477072 -0.0471810044524 0)
(-0.00951791970393 -0.0449897124368 0)
(-0.00939782935473 -0.0428265626998 0)
(-0.00927361661788 -0.0406926179726 0)
(-0.00914620221902 -0.0385887304508 0)
(-0.00901649703907 -0.0365155388288 0)
(-0.00888544007183 -0.0344734634499 0)
(-0.00875395334474 -0.032462705725 0)
(-0.00862297432238 -0.0304832458653 0)
(-0.00849341422695 -0.0285348452214 0)
(-0.0083661853485 -0.0266170470073 0)
(-0.00824216345851 -0.024729181689 0)
(-0.00812221042908 -0.02287037054 0)
(-0.00800714130304 -0.0210395336431 0)
(-0.00789774257707 -0.0192353955647 0)
(-0.00779474449837 -0.0174564946471 0)
(-0.00769883590005 -0.015701188757 0)
(-0.00761064386509 -0.0139676628543 0)
(-0.0075307501942 -0.0122539306158 0)
(-0.00745968984541 -0.0105578367092 0)
(-0.00739799296123 -0.00887705952641 0)
(-0.00734624278247 -0.00720912499916 0)
(-0.00730510685877 -0.00555147582397 0)
(-0.00727366357078 -0.0039001309363 0)
(-0.00721598342114 -0.00227923375927 0)
(-0.006479297118 -0.000670058724018 0)
(0.034620765985 -0.00311861816045 0)
(0.0383656838989 -0.0105503956417 0)
(0.0382090472996 -0.0179238160507 0)
(0.0376493514637 -0.0253055507269 0)
(0.0368968796181 -0.0325348789789 0)
(0.0359768573814 -0.0395832923666 0)
(0.0349061503836 -0.046418022382 0)
(0.0337025744413 -0.0530105951229 0)
(0.0323847298958 -0.0593370359015 0)
(0.0309713586141 -0.0653778905553 0)
(0.0294807549151 -0.0711180343786 0)
(0.0279303012327 -0.0765463665958 0)
(0.0263361159064 -0.0816554189737 0)
(0.024712835035 -0.0864409161381 0)
(0.0230734899208 -0.0909013225407 0)
(0.0214294922637 -0.0950374013184 0)
(0.0197906760736 -0.0988518058456 0)
(0.0181654099408 -0.102348714819 0)
(0.0165607251848 -0.105533518673 0)
(0.01498248187 -0.108412557218 0)
(0.0134355190515 -0.110992907905 0)
(0.0119238218563 -0.113282218566 0)
(0.0104506531311 -0.115288580175 0)
(0.00901869235142 -0.117020431251 0)
(0.00763012975922 -0.118486488614 0)
(0.00628676708121 -0.119695696362 0)
(0.00499007150498 -0.120657188764 0)
(0.00374124128022 -0.121380260516 0)
(0.0025412268776 -0.121874341966 0)
(0.00139077147068 -0.122148974893 0)
(0.000290410663119 -0.122213784841 0)
(-0.000759504208562 -0.122078481356 0)
(-0.00175880626643 -0.121752763967 0)
(-0.00270750398252 -0.121246360433 0)
(-0.00360578886369 -0.12056896533 0)
(-0.00445401413722 -0.119730211438 0)
(-0.00525270826065 -0.118739636872 0)
(-0.00600254825615 -0.117606652519 0)
(-0.00670437099063 -0.116340511184 0)
(-0.00735914239052 -0.114950278006 0)
(-0.00796796624578 -0.113444803626 0)
(-0.00853204985435 -0.111832699573 0)
(-0.00905271105679 -0.110122317061 0)
(-0.00953134146636 -0.10832172862 0)
(-0.00996941278584 -0.106438713413 0)
(-0.0103684388873 -0.104480745653 0)
(-0.010729982462 -0.102454986715 0)
(-0.0110556172368 -0.10036828038 0)
(-0.0113469359645 -0.0982271515016 0)
(-0.0116055139267 -0.0960378075948 0)
(-0.0118329191468 -0.0938061434152 0)
(-0.012030678301 -0.0915377480489 0)
(-0.0122002899696 -0.0892379143328 0)
(-0.0123431939019 -0.0869116501571 0)
(-0.0124607879147 -0.0845636912507 0)
(-0.0125544012851 -0.0821985150611 0)
(-0.0126253156195 -0.0798203550734 0)
(-0.0126747426877 -0.0774332153068 0)
(-0.0127038490697 -0.0750408841641 0)
(-0.0127137382611 -0.0726469475774 0)
(-0.0127054783518 -0.0702548004876 0)
(-0.0126800875875 -0.0678676569061 0)
(-0.0126385637608 -0.0654885575635 0)
(-0.0125818720065 -0.0631203757761 0)
(-0.0125109742608 -0.06076582052 0)
(-0.0124268177979 -0.0584274377594 0)
(-0.0123303630396 -0.056107609036 0)
(-0.0122225715028 -0.053808548767 0)
(-0.0121044305342 -0.0515322992177 0)
(-0.011976939666 -0.0492807249203 0)
(-0.0118411313193 -0.0470555054186 0)
(-0.0116980551556 -0.044858128353 0)
(-0.0115487943878 -0.0426898816022 0)
(-0.0113944482027 -0.040551846628 0)
(-0.0112361438225 -0.038444891543 0)
(-0.0110750175511 -0.0363696661183 0)
(-0.0109122231225 -0.0343265970316 0)
(-0.0107489121458 -0.0323158855632 0)
(-0.0105862394733 -0.0303375058347 0)
(-0.0104253439559 -0.0283912057654 0)
(-0.0102673516269 -0.0264765086567 0)
(-0.0101133576108 -0.0245927174967 0)
(-0.00996442786491 -0.0227389197247 0)
(-0.00982158304163 -0.0209139944553 0)
(-0.00968579955513 -0.0191166197893 0)
(-0.00955799635988 -0.0173452819901 0)
(-0.00943903673385 -0.0155982841597 0)
(-0.00932972035889 -0.0138737562693 0)
(-0.00923079009317 -0.0121696646645 0)
(-0.00914293662523 -0.0104838254054 0)
(-0.00906682096296 -0.00881392684098 0)
(-0.00900309733809 -0.00715756401422 0)
(-0.00895232002928 -0.00551231501527 0)
(-0.00891262923224 -0.00387422152361 0)
(-0.00883882687356 -0.0022672220634 0)
(-0.00792805893828 -0.00066777797721 0)
(0.0414588063041 -0.00321195419365 0)
(0.0459377483444 -0.0108643058644 0)
(0.0457386213298 -0.0184516195711 1.21937881469e-27)
(0.0450512679053 -0.0260399673747 0)
(0.0441286013415 -0.0334614864362 0)
(0.0430021468815 -0.0406850399677 0)
(0.0416934815874 -0.0476757516622 0)
(0.0402252845546 -0.0544038742984 0)
(0.0386210594327 -0.0608449581741 0)
(0.0369042967669 -0.0669797871414 0)
(0.0350977315228 -0.0727940647913 0)
(0.0332227645139 -0.0782779698989 0)
(0.0312990495335 -0.0834256234119 0)
(0.0293442470836 -0.0882345170817 0)
(0.0273739159658 -0.092704945827 0)
(0.0254015272207 -0.0968394743166 0)
(0.0234385612254 -0.100642459067 0)
(0.0214946722066 -0.104119636811 0)
(0.0195778830596 -0.107277783517 0)
(0.0176948030778 -0.110124441583 0)
(0.0158508383773 -0.112667710084 0)
(0.0140503977644 -0.114916089443 0)
(0.0122970704601 -0.116878371897 0)
(0.0105937870557 -0.118563567731 0)
(0.00894294469934 -0.119980858673 0)
(0.00734651430918 -0.121139569587 0)
(0.00580611334021 -0.12204915167 0)
(0.00432306627026 -0.122719170808 0)
(0.00289843692374 -0.123159297066 0)
(0.00153305708793 -0.123379291644 0)
(0.000227535559099 -0.123388986699 0)
(-0.0010177385612 -0.123198301195 0)
(-0.00220257725218 -0.122817116692 0)
(-0.00332700813434 -0.122255361208 0)
(-0.00439126718053 -0.121522917479 0)
(-0.00539579201256 -0.120629603078 0)
(-0.00634122247343 -0.119585134148 0)
(-0.00722838636483 -0.118399091244 0)
(-0.00805829571854 -0.117080886282 0)
(-0.00883212766316 -0.11563973131 0)
(-0.00955121659317 -0.114084609839 0)
(-0.0102170311012 -0.112424251078 0)
(-0.0108311632696 -0.110667107514 0)
(-0.0113953031352 -0.108821335997 0)
(-0.0119112265759 -0.106894782545 0)
(-0.0123807688641 -0.104894970872 0)
(-0.0128058125922 -0.102829094642 0)
(-0.0131882617546 -0.10070401338 0)
(-0.0135300310013 -0.0985262519037 0)
(-0.0138330215604 -0.0963020031454 0)
(-0.0140991130086 -0.0940371340255 0)
(-0.0143301422545 -0.0917371942626 0)
(-0.0145278989141 -0.0894074275887 0)
(-0.0146941084671 -0.0870527851999 0)
(-0.0148304321724 -0.0846779406941 0)
(-0.0149384552556 -0.0822873063145 0)
(-0.0150196919186 -0.0798850495846 0)
(-0.0150755789225 -0.0774751101429 0)
(-0.0151074856514 -0.0750612157461 0)
(-0.0151167127534 -0.0726468973573 0)
(-0.0151045064428 -0.0702355023115 0)
(-0.0150720610851 -0.0678302056361 0)
(-0.015020536208 -0.0654340186342 0)
(-0.0149510612912 -0.0630497950913 0)
(-0.0148647534765 -0.060680234437 0)
(-0.0147627225337 -0.0583278824839 0)
(-0.0146460872041 -0.0559951293101 0)
(-0.0145159784708 -0.0536842051635 0)
(-0.0143735528188 -0.0513971741756 0)
(-0.0142199924545 -0.0491359268769 0)
(-0.0140565144262 -0.0469021714306 0)
(-0.0138843671645 -0.044697424612 0)
(-0.0137048351469 -0.0425230025065 0)
(-0.0135192318368 -0.0403800118523 0)
(-0.0133289002336 -0.038269341965 0)
(-0.0131352028531 -0.036191658048 0)
(-0.0129395189597 -0.0341473957526 0)
(-0.0127432325606 -0.0321367576051 0)
(-0.0125477273546 -0.0301597110601 0)
(-0.0123543738511 -0.0282159886463 0)
(-0.0121645231174 -0.0263050898524 0)
(-0.0119794940994 -0.0244262850655 0)
(-0.0118005671834 -0.0225786210872 0)
(-0.011628972726 -0.0207609284545 0)
(-0.011465885421 -0.0189718300355 0)
(-0.0113124151336 -0.0172097510336 0)
(-0.0111696034029 -0.0154729300426 0)
(-0.0110384183794 -0.013759431602 0)
(-0.0109197559381 -0.0120671604229 0)
(-0.0108144417213 -0.0103938798118 0)
(-0.0107232386596 -0.00873724024813 0)
(-0.010646844613 -0.00709480999361 0)
(-0.010585731907 -0.00546412301899 0)
(-0.0105373593293 -0.00384106375333 0)
(-0.0104479494005 -0.0022489958687 0)
(-0.00936815223024 -0.000662842073078 0)
(0.0485194833056 -0.00332538603842 0)
(0.0537523864157 -0.0112458924711 0)
(0.0535024124908 -0.0190930426238 -1.21872879172e-27)
(0.0526733251901 -0.0269316378983 0)
(0.0515626571747 -0.0345849203016 0)
(0.0502091769239 -0.0420184723153 0)
(0.0486401306807 -0.0491948957412 0)
(0.046884006969 -0.0560830251113 0)
(0.0449700782779 -0.0626580309463 0)
(0.0429273206899 -0.0689012253559 0)
(0.0407834878844 -0.0747995732513 0)
(0.038564411805 -0.0803450550296 0)
(0.0362935336976 -0.0855339427604 0)
(0.0339916505838 -0.090366056047 0)
(0.0316768429527 -0.0948440487817 0)
(0.0293645480765 -0.0989727625087 0)
(0.0270677358868 -0.102758667398 0)
(0.0247971537221 -0.106209399617 0)
(0.0225616044667 -0.109333394522 0)
(0.0203682363698 -0.1121396087 0)
(0.0182228213177 -0.114637320083 0)
(0.016130012369 -0.116835993401 0)
(0.0140935676181 -0.118745197842 0)
(0.0121165405311 -0.120374564001 0)
(0.0102014307282 -0.121733768374 0)
(0.00835030159838 -0.122832534757 0)
(0.00656486292772 -0.123680643858 0)
(0.00484652869605 -0.124287944007 0)
(0.00319644999291 -0.124664358214 0)
(0.0016155342937 -0.12481988284 0)
(0.000104457889016 -0.124764578688 0)
(-0.00133635742735 -0.124508601622 0)
(-0.00270670803139 -0.124062041043 0)
(-0.0040066377841 -0.123435057748 0)
(-0.00523643344919 -0.122637756461 0)
(-0.00639662066814 -0.121680173839 0)
(-0.0074879607363 -0.120572238178 0)
(-0.00851144024616 -0.119323732553 0)
(-0.00946826111473 -0.117944259098 0)
(-0.0103598238343 -0.116443205315 0)
(-0.0111877119382 -0.114829713312 0)
(-0.011953670444 -0.113112652305 0)
(-0.0126595865818 -0.111300594954 0)
(-0.0133074654067 -0.109401797585 0)
(-0.01389940875 -0.107424184599 0)
(-0.0144375899065 -0.105375336921 0)
(-0.0149242325846 -0.103262484652 0)
(-0.0153615863538 -0.101092503629 0)
(-0.0157519071457 -0.0988719159434 0)
(-0.0160974349342 -0.0966068940338 0)
(-0.0164003771929 -0.0943032683395 0)
(-0.0166628902162 -0.0919665379848 0)
(-0.0168870669013 -0.0896018843795 0)
(-0.0170749230379 -0.0872141870563 0)
(-0.0172283906401 -0.0848080414917 0)
(-0.0173493102954 -0.0823877780754 0)
(-0.0174394308718 -0.0799574818298 0)
(-0.0175004084159 -0.0775210119555 0)
(-0.0175338122944 -0.0750820207441 0)
(-0.0175411302486 -0.0726439709568 0)
(-0.0175237800489 -0.0702101512535 0)
(-0.0174831192816 -0.0677836889581 0)
(-0.0174204606193 -0.065367559917 0)
(-0.0173370840999 -0.062964595059 0)
(-0.0172342534902 -0.0605774836522 0)
(-0.0171132284267 -0.0582087732588 0)
(-0.0169752792533 -0.0558608666351 0)
(-0.0168216966199 -0.0535360159404 0)
(-0.0166538026627 -0.0512363146645 0)
(-0.0164729563483 -0.0489636879014 0)
(-0.0162805597238 -0.0467198814201 0)
(-0.0160780582631 -0.0445064502884 0)
(-0.0158669418852 -0.0423247474185 0)
(-0.0156487404637 -0.0401759127927 0)
(-0.0154250201291 -0.0380608635764 0)
(-0.0151973748048 -0.0359802858041 0)
(-0.0149674188657 -0.0339346276453 0)
(-0.014736775951 -0.0319240948132 0)
(-0.0145070693127 -0.0299486479319 0)
(-0.0142799093049 -0.0280080022879 0)
(-0.0140568827959 -0.026101629619 0)
(-0.0138395406679 -0.0242287622316 0)
(-0.0136293875524 -0.0223883989755 0)
(-0.0134278705352 -0.0205793132721 0)
(-0.0132363703323 -0.0188000627308 0)
(-0.0130561922748 -0.0170490004597 0)
(-0.0128885600089 -0.0153242878469 0)
(-0.0127346098533 -0.0136239092012 0)
(-0.0125953880137 -0.0119456883934 0)
(-0.0124718486461 -0.0102873091193 0)
(-0.0123648523345 -0.00864634203861 0)