/*--------------------------------*- C++ -*----------------------------------*\
| =========                 |                                                 |
| \\      /  F ield         | OpenFOAM: The Open Source CFD Toolbox           |
|  \\    /   O peration     | Version:  v1906                                 |
|   \\  /    A nd           | Web:      www.OpenFOAM.com                      |
|    \\/     M anipulation  |                                                 |
\*---------------------------------------------------------------------------*/
FoamFile
{
    version     2.0;
    format      ascii;
    class       volVectorField;
    location    "612";
    object      Ua;
}
// * * * * * * * * * * * * * * * * * * * * * * * * * * * * * * * * * * * * * //

dimensions      [0 1 -1 0 0 0 0];


internalField   nonuniform List<vector> 
9216
(
(-0.00662962189364 0.00663254399622 0)
(-0.0068151609351 0.0206842865093 2.3819103255e-27)
(-0.00680073056674 0.0348148578628 -4.58848690661e-31)
(-0.00675218489462 0.0489356027916 0)
(-0.00668433454916 0.0629098275394 0)
(-0.0065986634546 0.0767021361514 0)
(-0.00649664842467 0.0902729584206 0)
(-0.00637925436615 0.103585623891 0)
(-0.0062474749373 0.116605802146 0)
(-0.00610221247356 0.129301609881 0)
(-0.00594449980999 0.141643631943 0)
(-0.00577526921906 0.153605016762 0)
(-0.00559556956157 0.165161452941 0)
(-0.0054063016318 0.176291165476 0)
(-0.00520845232917 0.186974805263 0)
(-0.00500281408255 0.197195339915 0)
(-0.00479023567751 0.206937865052 0)
(-0.00457133600273 0.216189407531 0)
(-0.00434676809107 0.224938683485 0)
(-0.00411693625639 0.233175844533 0)
(-0.00388226912846 0.24089221603 0)
(-0.00364294733858 0.248080023436 0)
(-0.00339917998098 0.254732148044 0)
(-0.00315094815706 0.260841871485 0)
(-0.00289827842645 0.266402682316 0)
(-0.0026410054365 0.271408070512 0)
(-0.0023790357605 0.275851410589 0)
(-0.00211213223798 0.279725829582 0)
(-0.00184016328991 0.28302418462 0)
(-0.00156291299633 0.285739010163 0)
(-0.00128030226277 0.287862651681 0)
(-0.000992212329445 0.289387216572 0)
(-0.000698719715353 0.290304823153 0)
(-0.000399942841815 0.290607770034 0)
(-9.62140099324e-05 0.290288817874 0)
(0.000212038158426 0.289341445356 0)
(0.000524143593515 0.287760229065 0)
(0.000839291071226 0.285541165557 0)
(0.00115642218878 0.282682103241 0)
(0.00147431501145 0.279183089428 0)
(0.00179151865069 0.275046805918 0)
(0.00210641764649 0.27027889501 0)
(0.00241720281081 0.264888359321 0)
(0.00272190783799 0.258887843464 0)
(0.00301840592546 0.252293991707 0)
(0.0033044084992 0.245127707447 0)
(0.00357747703755 0.23741450403 0)
(0.00383498534869 0.229184801043 0)
(0.00407414846831 0.220474308013 0)
(0.00429197908945 0.211324384138 0)
(0.00448535815303 0.201782398812 0)
(0.00465104985093 0.191902029981 0)
(0.00478584470427 0.181743346461 0)
(0.00488669046348 0.171372712082 0)
(0.00495087989984 0.160862208639 0)
(0.00497625661869 0.150288828969 0)
(0.00496130777021 0.139733143681 0)
(0.00490532353969 0.12927793154 0)
(0.00480833413718 0.119006535181 0)
(0.00467132503297 0.109001246002 0)
(0.00449627459274 0.099341328002 0)
(0.00428661767187 0.0901005567689 0)
(0.00404734944424 0.0813440950899 0)
(0.0037853182236 0.0731248676024 0)
(0.0035085769809 0.0654802133749 0)
(0.00322552734943 0.0584301956561 0)
(0.00294371780356 0.0519781526164 0)
(0.00266936019511 0.0461131597543 0)
(0.00240692785448 0.0408133118683 0)
(0.00215951531976 0.0360490960313 0)
(0.00192889724922 0.0317861827213 0)
(0.00171602395168 0.0279876510991 0)
(0.00152100935577 0.0246157024444 0)
(0.00134356144591 0.0216328851453 0)
(0.00118295978707 0.0190029901997 0)
(0.00103840327464 0.0166914554516 0)
(0.00090891564712 0.014665681995 0)
(0.000793500472955 0.0128951172918 0)
(0.000691009687323 0.0113515211688 0)
(0.00060025979552 0.0100090673674 0)
(0.000519938763101 0.00884454336529 0)
(0.000448534010945 0.00783756199508 0)
(0.00038383195252 0.00697133626892 0)
(0.0003201102138 0.00623832946288 0)
(0.000250361487278 0.00554429272537 0)
(0.000228384305351 0.00514418019599 0)
(0.000219857162634 0.00465601438901 0)
(0.000193848285537 0.00424176225678 0)
(0.00019567533967 0.00388567128084 0)
(0.000211249814804 0.00347679396391 0)
(0.00021170866779 0.00306600944795 0)
(0.000214799340444 0.00262907503863 0)
(0.000242748484173 0.00215592477321 0)
(0.000275127213018 0.00163944379462 0)
(0.000311053601759 0.00101528856554 0)
(0.000334466102272 0.00032609708584 0)
(-0.0207152647265 0.00685522958185 0)
(-0.021869610756 0.0219707896468 0)
(-0.0217952902797 0.036998577715 -2.44836455574e-27)
(-0.0216085703925 0.0520287031656 0)
(-0.0213544660532 0.0668910203915 0)
(-0.0210380693995 0.0815558459921 0)
(-0.0206630728298 0.0959827784896 0)
(-0.0202329356872 0.110133327019 0)
(-0.0197513972293 0.12397112186 0)
(-0.0192222224423 0.137462292018 0)
(-0.0186494623865 0.150575605647 0)
(-0.0180370659056 0.163282577833 0)
(-0.0173891399316 0.175557477645 0)
(-0.0167095167981 0.187377306556 0)
(-0.0160020445383 0.198721694247 0)
(-0.0152701398128 0.20957276518 0)
(-0.01451711271 0.219914941042 0)
(-0.0137457250355 0.229734717967 0)
(-0.0129585489704 0.239020403702 0)
(-0.0121575470122 0.247761838968 0)
(-0.0113444606527 0.255950106811 0)
(-0.0105204234384 0.263577238973 0)
(-0.0096863711071 0.270635938974 0)
(-0.00884269324244 0.277119314667 0)
(-0.0079896522268 0.283020652473 0)
(-0.00712707400433 0.288333209988 0)
(-0.00625476188601 0.293050069129 0)
(-0.00537222580641 0.297164012046 0)
(-0.00447907980565 0.300667469908 0)
(-0.00357481142414 0.303552499564 0)
(-0.00265915571235 0.305810813809 0)
(-0.00173187517732 0.307433947702 0)
(-0.000793135667518 0.308413367018 0)
(0.000156660635061 0.308740666783 0)
(0.00111658747987 0.308407872505 0)
(0.00208532631416 0.307407742333 0)
(0.00306093128578 0.305734153665 0)
(0.00404095024586 0.303382484061 0)
(0.00502226520171 0.30035005319 0)
(0.00600120987509 0.296636531301 0)
(0.00697348943254 0.292244381887 0)
(0.0079342871887 0.287179242733 0)
(0.00887824747133 0.281450321321 0)
(0.00979954337394 0.275070717539 0)
(0.0106918868273 0.268057763575 0)
(0.0115485209627 0.260433312128 0)
(0.0123622235873 0.252224070866 0)
(0.0131252192631 0.243461932486 0)
(0.0138291904399 0.234184376796 0)
(0.0144651923003 0.224434895218 0)
(0.015023775473 0.21426343643 0)
(0.0154950928728 0.203726799255 0)
(0.0158692841172 0.192888842725 0)
(0.0161369397639 0.181820431737 0)
(0.0162897123362 0.170598902639 0)
(0.0163209668406 0.159307107608 0)
(0.016226155248 0.148031950114 0)
(0.016003168634 0.136862771927 0)
(0.0156522148571 0.12588967035 0)
(0.0151762640159 0.115201898495 0)
(0.0145813793025 0.104886035375 0)
(0.013878107179 0.0950234505872 0)
(0.0130822226369 0.0856868092699 0)
(0.0122157774525 0.07693543048 0)
(0.0113052436528 0.068810526549 0)
(0.0103780545628 0.0613328209406 0)
(0.00945874375012 0.0545035211615 0)
(0.00856696872287 0.048307776361 0)
(0.00771668215358 0.0427190505838 0)
(0.00691711956135 0.0377031898188 0)
(0.00617352101435 0.0332215273462 0)
(0.00548836192521 0.0292331687118 0)
(0.00486170072079 0.0256967384388 0)
(0.00429215474253 0.0225716637985 0)
(0.00377722661926 0.0198190349503 0)
(0.00331409394243 0.0174019530139 0)
(0.00289960387062 0.015285662635 0)
(0.00253045433253 0.0134375994954 0)
(0.00220296374707 0.0118276330343 0)
(0.00191331373727 0.0104282117495 0)
(0.00165751430628 0.00921437282971 0)
(0.00143138821761 0.00816350983275 0)
(0.0012300627472 0.00725452237818 0)
(0.00104642463908 0.00646927006813 0)
(0.000870011646662 0.00573298283007 0)
(0.000759094586621 0.00507113104806 0)
(0.000671056291764 0.00456531106765 0)
(0.000588137926755 0.00415593168221 0)
(0.000578528079382 0.00373856487027 0)
(0.000615514007517 0.00339966440953 0)
(0.000634017004302 0.0030422778807 0)
(0.000665381010984 0.00258451352055 0)
(0.000727454783113 0.00209979235568 0)
(0.000891842901454 0.00166061978612 0)
(0.00108729642989 0.00106115655458 0)
(0.000983966474312 0.0002911370905 0)
(-0.0350071297412 0.00691063994944 0)
(-0.0369793700861 0.0221537073096 0)
(-0.036827322466 0.0372738534465 -2.45171766303e-27)
(-0.0365060721834 0.0524136311726 0)
(-0.0360776469925 0.067383497582 0)
(-0.0355471690388 0.0821523845135 0)
(-0.0349194098703 0.0966789068828 0)
(-0.034199759721 0.110924049475 0)
(-0.0333942071774 0.124851048305 0)
(-0.0325090725038 0.138425731042 0)
(-0.0315510038544 0.151616673873 0)
(-0.0305266964355 0.164395303704 0)
(-0.0294429010709 0.176735917672 0)
(-0.0283061307444 0.188615649557 0)
(-0.0271226919037 0.200014366573 0)
(-0.025898398675 0.210914519247 0)
(-0.0246386393238 0.221300935267 0)
(-0.0233481175099 0.231160576998 0)
(-0.0220309642741 0.240482262311 0)
(-0.0206905225304 0.249256365407 0)
(-0.0193295100489 0.257474505095 0)
(-0.017949855912 0.265129233142 0)
(-0.0165529111566 0.272213735541 0)
(-0.0151393358642 0.278721552879 0)
(-0.0137093451475 0.284646335038 0)
(-0.012262637845 0.289981628717 0)
(-0.0107986618921 0.294720713979 0)
(-0.00931657489093 0.298856481096 0)
(-0.00781551620146 0.302381365825 0)
(-0.00629459240054 0.305287324632 0)
(-0.0047531662067 0.307565896815 0)
(-0.00319083513966 0.309208278239 0)
(-0.00160771364185 0.31020548531 0)
(-4.45865128082e-06 0.310548579834 0)
(0.00161749410146 0.310228952389 0)
(0.00325591236062 0.309238652265 0)
(0.00490758084152 0.307570779999 0)
(0.00656831511372 0.305219905522 0)
(0.00823285265302 0.302182523031 0)
(0.00989491779713 0.298457499604 0)
(0.0115471988822 0.294046526456 0)
(0.0131814550614 0.288954529129 0)
(0.0147885513012 0.283190052409 0)
(0.0163585572408 0.276765587525 0)
(0.0178807733539 0.269697875543 0)
(0.0193437482148 0.262008177194 0)
(0.0207352293118 0.25372256399 0)
(0.0220420681597 0.244872241589 0)
(0.0232501184052 0.235493959213 0)
(0.0243441473465 0.225630504783 0)
(0.0253078903163 0.215331279886 0)
(0.0261242936031 0.204652880349 0)
(0.0267760803376 0.193659542035 0)
(0.0272466428997 0.182423267191 0)
(0.0275211914359 0.171023398207 0)
(0.0275879385103 0.15954552335 0)
(0.0274389521173 0.148079760494 0)
(0.0270704319559 0.13671880374 0)
(0.0264824953677 0.125556269289 0)
(0.025679395548 0.114685435282 0)
(0.0246703170329 0.104198089617 0)
(0.0234719436588 0.0941823337879 0)
(0.0221104473468 0.0847189203092 0)
(0.0206247470869 0.0758747945261 0)
(0.0190632873653 0.0676950166927 0)
(0.0174760102127 0.0601989535853 0)
(0.0159068160166 0.0533823474621 0)
(0.0143894964005 0.0472229730034 0)
(0.0129471476059 0.0416870977787 0)
(0.0115942373269 0.0367346227766 0)
(0.0103387997854 0.0323222934274 0)
(0.00918415960522 0.0284056900428 0)
(0.00812984055472 0.0249407919841 0)
(0.00717275732591 0.0218852573745 0)
(0.00630826828463 0.0191991851748 0)
(0.00553128151532 0.016845211517 0)
(0.00483654123333 0.0147882334663 0)
(0.00421847650793 0.0129952726876 0)
(0.00367085841174 0.0114358184492 0)
(0.00318719402411 0.0100821319206 0)
(0.00276100716308 0.00890919667895 0)
(0.00238606340161 0.00789446227444 0)
(0.00205662552853 0.00701709136364 0)
(0.00176817486293 0.00626182363392 0)
(0.00152335403984 0.0055511558842 0)
(0.001336188317 0.00493475154255 0)
(0.00118951346376 0.00452784683578 0)
(0.00103248618395 0.00396104592363 0)
(0.000937271099363 0.00347364659965 0)
(0.000964155535811 0.00317010520557 0)
(0.00108827799579 0.00292007112301 0)
(0.00110854403342 0.00232791852018 0)
(0.00125127016997 0.00191102927847 0)
(0.00145061385642 0.00138836546263 0)
(0.00162516388181 0.000832476043181 0)
(0.00157990957192 0.000256865551045 0)
(-0.0494963736966 0.00696822440644 0)
(-0.0523084757303 0.022357870917 0)
(-0.0520910051968 0.037602207748 2.45139345992e-27)
(-0.0516323977954 0.0528713953703 0)
(-0.0510214964858 0.0679670192839 0)
(-0.0502659889255 0.082856799722 0)
(-0.0493725758546 0.0974981822876 0)
(-0.0483489366593 0.111851336034 0)
(-0.0472035991481 0.125878895308 0)
(-0.0459456726184 0.139546269143 0)
(-0.0445846814433 0.152821794561 0)
(-0.0431303019884 0.165676832222 0)
(-0.0415922079218 0.178085786297 0)
(-0.0399798119307 0.190026060185 0)
(-0.0383021339595 0.201477944648 0)
(-0.0365675669648 0.212424448998 0)
(-0.0347837870666 0.222851076296 0)
(-0.0329575657892 0.232745554575 0)
(-0.0310947414546 0.24209753045 0)
(-0.0292000977497 0.250898238852 0)
(-0.0272774093439 0.25914016002 0)
(-0.0253293960455 0.266816677547 0)
(-0.0233578418025 0.273921750457 0)
(-0.0213636180238 0.280449609802 0)
(-0.0193468602052 0.286394491009 0)
(-0.0173070420564 0.291750406608 0)
(-0.015243187881 0.296510967359 0)
(-0.0131539793722 0.30066925112 0)
(-0.0110379881328 0.304217726962 0)
(-0.00889380577662 0.307148221502 0)
(-0.00672030548066 0.309451985481 0)
(-0.00451675499576 0.311119748088 0)
(-0.00228309869641 0.312141887003 0)
(-2.01120118129e-05 0.312508663751 0)
(0.00227036460222 0.312210514475 0)
(0.00458529132551 0.311238405344 0)
(0.0069202474839 0.309584250736 0)
(0.00926936328545 0.307241373198 0)
(0.011625235997 0.304204996317 0)
(0.0139789615652 0.300472740971 0)
(0.0163201660228 0.296045109597 0)
(0.0186371287582 0.290925926899 0)
(0.0209168892116 0.285122726862 0)
(0.02314538606 0.278647068473 0)
(0.0253075315892 0.271514793388 0)
(0.0273872398101 0.263746240686 0)
(0.0293673456399 0.255366468367 0)
(0.031229440992 0.246405532687 0)
(0.0329536419918 0.236898895748 0)
(0.0345183771503 0.226888008371 0)
(0.0359003196013 0.216421086156 0)
(0.0370746506424 0.205554015944 0)
(0.0380158065661 0.19435121406 0)
(0.038698890472 0.182886156208 0)
(0.0391015288403 0.171241133089 0)
(0.0392060277041 0.159505999648 0)
(0.0390007146938 0.147775798342 0)
(0.0384802721428 0.136148077576 0)
(0.0376444064346 0.124721145778 0)
(0.0364977980332 0.113593479015 0)
(0.035050512925 0.102864235569 0)
(0.0333232730232 0.0926319111682 0)
(0.0313504922209 0.0829915279214 0)
(0.029191127659 0.0740247784586 0)
(0.026922969682 0.0657839710791 0)
(0.0246255310099 0.058285326189 0)
(0.0223662241436 0.0515139087899 0)
(0.0201937253227 0.045434043416 0)
(0.0181386598717 0.0399998272383 0)
(0.0162186474007 0.0351619865691 0)
(0.0144429037998 0.0308706446829 0)
(0.0128145253933 0.0270763254699 0)
(0.0113313883078 0.0237311709482 0)
(0.00998757525774 0.0207903717469 0)
(0.00877531605669 0.018212942851 0)
(0.00768682942396 0.0159613063962 0)
(0.00671485791927 0.0140001671193 0)
(0.00585172892564 0.0122959307681 0)
(0.00508838817526 0.0108174921114 0)
(0.0044153355255 0.00953700412067 0)
(0.00382333760855 0.00842971883905 0)
(0.00330371488863 0.00747372862242 0)
(0.00284887813136 0.00664956347594 0)
(0.00245460645235 0.00594573678419 0)
(0.00211577925195 0.00525095656298 0)
(0.00188681292065 0.00475608616723 0)
(0.00168304404823 0.00426564942673 0)
(0.0014930173964 0.00370690009401 0)
(0.00140785684439 0.00332095798467 0)
(0.00134587398023 0.00282703324683 0)
(0.00142019422695 0.00241312527073 0)
(0.00164546816068 0.002120931096 0)
(0.00171026880952 0.00153323836658 0)
(0.00191314113894 0.00106365340364 0)
(0.00211941526202 0.000643177570267 0)
(0.00210475711283 0.000210343624723 0)
(-0.0641328104675 0.00704260110843 0)
(-0.0677811498337 0.0226276747088 0)
(-0.0674968129794 0.0380443230478 0)
(-0.0668975745364 0.0534882411945 0)
(-0.0660993683334 0.0687529469509 0)
(-0.0651126696276 0.083804940718 0)
(-0.0639464269095 0.0986002776461 0)
(-0.0626108467408 0.113098035567 0)
(-0.061117228092 0.12726001575 0)
(-0.05947766502 0.141051046036 0)
(-0.057704777005 0.154439131875 0)
(-0.0558114079572 0.167395546917 0)
(-0.0538103638905 0.179894848005 0)
(-0.0517141241125 0.1919148188 0)
(-0.0495346049341 0.203436342728 0)
(-0.0472829063695 0.214443210995 0)
(-0.044969127564 0.224921870048 0)
(-0.0426021776792 0.234861117801 0)
(-0.0401896714149 0.244251758164 0)
(-0.0377378311406 0.253086227537 0)
(-0.0352514833025 0.261358207495 0)
(-0.0327340645119 0.269062239632 0)
(-0.0301877193471 0.27619335766 0)
(-0.0276133992997 0.282746750046 0)
(-0.0250110391669 0.288717463916 0)
(-0.0223797194028 0.294100156747 0)
(-0.0197178890299 0.298888900259 0)
(-0.0170235635503 0.303077037091 0)
(-0.0142945739389 0.306657092992 0)
(-0.0115287892961 0.309620730036 0)
(-0.00872440377287 0.311958814311 0)
(-0.00588014225557 0.313661449781 0)
(-0.00299558718504 0.314718151696 0)
(-7.14308224066e-05 0.315118088452 0)
(0.00289024610556 0.314850386164 0)
(0.0058857457948 0.313904513825 0)
(0.00890953693803 0.312270741956 0)
(0.0119541214863 0.309940658504 0)
(0.0150099492411 0.30690772352 0)
(0.0180654366387 0.303167833143 0)
(0.0211070473503 0.298719862402 0)
(0.0241194622628 0.293566150887 0)
(0.0270857772614 0.287712903471 0)
(0.0299877188728 0.281170485423 0)
(0.0328057976892 0.273953614589 0)
(0.0355193655126 0.266081476266 0)
(0.0381065090923 0.257577822054 0)
(0.0405437730689 0.248471141424 0)
(0.0428057297551 0.238795022815 0)
(0.0448644975393 0.228588813861 0)
(0.0466894077367 0.217898671222 0)
(0.0482470826968 0.206778955885 0)
(0.0495023410649 0.195293826948 0)
(0.0504201035501 0.183518478332 0)
(0.0509685628301 0.171539457187 0)
(0.0511226420124 0.159453056194 0)
(0.0508668794363 0.147361774359 0)
(0.050195121688 0.135369690666 0)
(0.0491069455115 0.123580425331 0)
(0.0476063611049 0.112097621082 0)
(0.0457000224039 0.10102911 0)
(0.0434085538187 0.0904873438494 0)
(0.0407668085044 0.0805913100243 0)
(0.0378592420668 0.0714513330798 0)
(0.0348078440304 0.063133035015 0)
(0.0317346400122 0.0556454116096 0)
(0.0287371142769 0.0489533731965 0)
(0.0258785631103 0.0429979083218 0)
(0.0231928572495 0.0377142258875 0)
(0.0206964499057 0.0330408139134 0)
(0.0183974121713 0.0289198906046 0)
(0.0162974476779 0.0252956927701 0)
(0.0143913854231 0.0221151826099 0)
(0.0126686204315 0.0193303686906 0)
(0.0111165834466 0.0168994831628 0)
(0.00972425798489 0.0147856728274 0)
(0.00848306059886 0.0129539421487 0)
(0.00738395798601 0.011369515201 0)
(0.00641444125961 0.0100000527684 0)
(0.00556131233265 0.00881763559957 0)
(0.00481219646336 0.00779806638804 0)
(0.00415533809035 0.00692043336477 0)
(0.00358000626599 0.0061682338718 0)
(0.00308080947174 0.00552524988696 0)
(0.0026502645677 0.00488074573619 0)
(0.0024348641924 0.00450421025471 0)
(0.0022431750202 0.00402210265001 0)
(0.00202795291605 0.00348645679205 0)
(0.00181542918625 0.00288097035951 0)
(0.00179136388563 0.00247833858901 0)
(0.00179513776755 0.00198607557144 0)
(0.00202515413679 0.00168332061814 0)
(0.00228379969859 0.00131014156791 0)
(0.00233173961378 0.000825987615457 0)
(0.00243918314998 0.00047750893526 0)
(0.00241994410701 0.000157960383892 0)
(-0.0789665019799 0.00713535954591 0)
(-0.0834579930025 0.0229685121258 0)
(-0.0831035032432 0.0386056124575 0)
(-0.0823582601124 0.0542719531354 0)
(-0.0813655906336 0.0697513686795 0)
(-0.0801389100399 0.0850089734908 0)
(-0.0786896800069 0.0999991562342 0)
(-0.0770309093473 0.114679634446 0)
(-0.0751769569757 0.129011150963 0)
(-0.0731431810689 0.142957792131 0)
(-0.0709455855909 0.156487142194 0)
(-0.0686004549296 0.169570371826 0)
(-0.0661240034216 0.182182246147 0)
(-0.0635320248546 0.194301054667 0)
(-0.0608395714171 0.205908464113 0)
(-0.0580606470759 0.216989298031 0)
(-0.055207948806 0.227531247881 0)
(-0.05229264109 0.237524524164 0)
(-0.0493241987785 0.246961458772 0)
(-0.0463103008856 0.255836073768 0)
(-0.0432568063259 0.264143634362 0)
(-0.0401677861608 0.271880205481 0)
(-0.0370456342701 0.279042230932 0)
(-0.0338912214806 0.285626151345 0)
(-0.0307041072632 0.29162807308 0)
(-0.0274827705768 0.297043494407 0)
(-0.0242248745084 0.301867091061 0)
(-0.0209275326842 0.306092559019 0)
(-0.0175875997509 0.309712514112 0)
(-0.0142019629638 0.312718428053 0)
(-0.0107678790403 0.315100695119 0)
(-0.00728325280558 0.316848635633 0)
(-0.0037470362781 0.317950671252 0)
(-0.000159570512319 0.318394567956 0)
(0.00347705930011 0.318167756794 0)
(0.00715870083996 0.317257753773 0)
(0.0108788519221 0.31565267344 0)
(0.0146284612372 0.313341819885 0)
(0.0183958204624 0.310316331588 0)
(0.0221665806715 0.306569843714 0)
(0.0259238851198 0.302099123543 0)
(0.029648619823 0.296904628444 0)
(0.0333197368361 0.290990938537 0)
(0.0369146025428 0.284367028181 0)
(0.0404092814254 0.27704636513 0)
(0.043778669379 0.269046865701 0)
(0.0469963782858 0.260390781977 0)
(0.0500343163131 0.251104657133 0)
(0.0528619532466 0.241219528191 0)
(0.0554453884375 0.230771605683 0)
(0.0577464426094 0.219803608936 0)
(0.0597222830677 0.208366910669 0)
(0.0613260961114 0.196524222716 0)
(0.0625097570405 0.184352391035 0)
(0.0632285327161 0.171943705047 0)
(0.0634477535115 0.159404363399 0)
(0.0631481305071 0.146848333227 0)
(0.0623257674627 0.134388204581 0)
(0.0609813209665 0.122132452472 0)
(0.0591184442757 0.110186631608 0)
(0.0567318567468 0.0986665111895 0)
(0.0538366345069 0.08769878453 0)
(0.0504427306754 0.077442293576 0)
(0.0466708162782 0.0680658651149 0)
(0.042718571706 0.0596593847053 0)
(0.0387740324644 0.0522145779543 0)
(0.0349744711787 0.0456577887209 0)
(0.0313941921049 0.0398897308217 0)
(0.0280598658687 0.0348176567894 0)
(0.0249783952636 0.0303664899766 0)
(0.0221541514469 0.0264716010368 0)
(0.0195873843906 0.0230702694884 0)
(0.0172683872994 0.0201023268359 0)
(0.0151787054477 0.0175155636675 0)
(0.0132978547413 0.0152685819408 0)
(0.0116107636378 0.0133277889409 0)
(0.0101097504262 0.0116598733865 0)
(0.00878674498891 0.0102273174697 0)
(0.0076239972912 0.00899485246217 0)
(0.0066031655504 0.00793476550185 0)
(0.0057085854197 0.00702375007473 0)
(0.00492498138762 0.0062415157118 0)
(0.00423747186142 0.00557410789548 0)
(0.00363839184821 0.0049862499943 0)
(0.00315878327876 0.00442544651637 0)
(0.00291255599988 0.00403328897705 0)
(0.00265137143628 0.00349213723434 0)
(0.00250365779913 0.00307732245977 0)
(0.00239762123449 0.00263635340292 0)
(0.0023605051907 0.00220484245548 0)
(0.00220087183909 0.00162828009804 0)
(0.00229817155705 0.00123871089513 0)
(0.002621104481 0.0010008002836 0)
(0.00271345773512 0.000672406299916 0)
(0.00272638119679 0.000373856373569 0)
(0.00270931157448 0.000123522651915 0)
(-0.0940436622589 0.00724806133117 0)
(-0.0993892656839 0.0233845562306 0)
(-0.0989600480607 0.039291520667 2.4692298726e-27)
(-0.0980616191701 0.0552298531319 0)
(-0.0968651759131 0.0709714419765 0)
(-0.0953872578131 0.086479701815 0)
(-0.0936421173909 0.101706998249 0)
(-0.0916458864651 0.116609387322 0)
(-0.0894163312296 0.131146315767 0)
(-0.0869724281671 0.14528096338 0)
(-0.084333926216 0.158980405424 0)
(-0.0815209023935 0.172215700564 0)
(-0.0785533249712 0.184961891414 0)
(-0.0754506252951 0.197197919091 0)
(-0.0722312927952 0.208906452552 0)
(-0.0689124962937 0.220073634495 0)
(-0.0655097506801 0.230688747779 0)
(-0.0620366355825 0.240743810028 0)
(-0.0585045875554 0.250233108804 0)
(-0.0549227706266 0.25915269515 0)
(-0.0512980408601 0.267499857717 0)
(-0.0476349988687 0.275272602579 0)
(-0.0439361319617 0.282469163356 0)
(-0.0402020249774 0.289087562756 0)
(-0.0364316292897 0.295125239711 0)
(-0.0326225629583 0.300578748093 0)
(-0.0287714333733 0.305443525022 0)
(-0.0248741654266 0.309713721696 0)
(-0.0209263413157 0.313382090672 0)
(-0.0169235497557 0.31643990135 0)
(-0.0128617803528 0.318877000914 0)
(-0.00873776808013 0.320681774496 0)
(-0.00454948149145 0.321841315888 0)
(-0.000296559811016 0.322341662475 0)
(0.0040192286923 0.322168129644 0)
(0.00839355232932 0.321305769921 0)
(0.0128191354372 0.319739955369 0)
(0.0172854756946 0.317457068335 0)
(0.0217786914858 0.314445271769 0)
(0.026281535989 0.31069531388 0)
(0.0307735896916 0.30620130511 0)
(0.0352316296799 0.30096139435 0)
(0.0396301322511 0.294978267424 0)
(0.0439418356936 0.288259402795 0)
(0.0481382427054 0.280817048853 0)
(0.0521899177541 0.272667939676 0)
(0.056066419242 0.26383284085 0)
(0.059735726666 0.25433610168 0)
(0.0631631025172 0.24420550361 0)
(0.0663094247714 0.233472746438 0)
(0.0691293159277 0.222175054711 0)
(0.0715695903102 0.210358152973 0)
(0.0735692508608 0.1980809039 0)
(0.0750622988631 0.185420575572 0)
(0.0759852362354 0.172477163452 0)
(0.076288860234 0.159372400473 0)
(0.0759509251102 0.146239561922 0)
(0.0749777815393 0.133202679285 0)
(0.073374745768 0.120372928471 0)
(0.0711509284838 0.107848019785 0)
(0.0682710085004 0.095747200151 0)
(0.0647473530244 0.0841981606794 0)
(0.0604835789866 0.0734254499321 0)
(0.0556631137054 0.0637271131353 0)
(0.0506298302307 0.055236150275 0)
(0.0456792133083 0.0479011689612 0)
(0.0410011701428 0.0415733640077 0)
(0.0366681405031 0.0360831267542 0)
(0.0326754002286 0.0312982611952 0)
(0.0290041940979 0.027134949628 0)
(0.025654974023 0.023528752751 0)
(0.0226307845638 0.0204098267457 0)
(0.0199162272996 0.0177064270376 0)
(0.0174790338287 0.015359782451 0)
(0.0152843589295 0.0133315054994 0)
(0.01331151589 0.0115975433072 0)
(0.0115599133862 0.0101299025809 0)
(0.0100293507484 0.00888374310439 0)
(0.00869123349442 0.00781645700483 0)
(0.00751865108689 0.00690221041001 0)
(0.00649384889357 0.00611986906584 0)
(0.00559820282347 0.00544922577888 0)
(0.00481171311193 0.00487882776114 0)
(0.00412395197521 0.0043545005594 0)
(0.00365556820689 0.00391059647221 0)
(0.00338111946902 0.0035027399084 0)
(0.00313431083475 0.00305145506803 0)
(0.00291346106649 0.00258285237481 0)
(0.00283927114766 0.00219228394783 0)
(0.00272460895733 0.00173294231881 0)
(0.00274673910341 0.00138162679238 0)
(0.00263682663768 0.000942521089999 0)
(0.00276106630679 0.000689988284267 0)
(0.00296903894587 0.000510097906585 0)
(0.00294901231187 0.000283446152935 0)
(0.00293121233881 9.35857616599e-05 0)
(-0.109413889311 0.00738194363639 0)
(-0.115627543782 0.023880318915 0)
(-0.115117966582 0.0401088590851 -2.46885071515e-27)
(-0.114057360792 0.0563711727529 0)
(-0.112645504997 0.0724246388721 0)
(-0.110902343346 0.0882305810215 0)
(-0.108845262701 0.103738915762 0)
(-0.106493909814 0.118903698264 0)
(-0.103869880451 0.133682820059 0)
(-0.100996205355 0.148038380561 0)
(-0.0978968197865 0.161936858062 0)
(-0.0945960293781 0.17534919774 0)
(-0.0911179820038 0.18825080404 0)
(-0.0874861508297 0.200621439235 0)
(-0.0837228382756 0.212445027111 0)
(-0.0798487102118 0.223709361092 0)
(-0.0758823775333 0.23440571806 0)
(-0.0718400420674 0.244528383956 0)
(-0.0677352293307 0.254074104164 0)
(-0.063578624956 0.263041479798 0)
(-0.0593780298815 0.271430338562 0)
(-0.0551384358757 0.279241113606 0)
(-0.0508622151693 0.286474264241 0)
(-0.0465494023681 0.293129766935 0)
(-0.0421980425057 0.299206694836 0)
(-0.037804573022 0.304702890272 0)
(-0.0333642166619 0.309614722264 0)
(-0.0288713700235 0.31393691215 0)
(-0.0243199907165 0.317662412457 0)
(-0.0197039936757 0.320782298284 0)
(-0.0150177000016 0.323285815583 0)
(-0.0102562429538 0.325160278626 0)
(-0.00541615762635 0.326391223545 0)
(-0.000495927479346 0.326962617997 0)
(0.00450342509951 0.326857201169 0)
(0.00957776144223 0.326056982293 0)
(0.0147193091106 0.324543905923 0)
(0.0199162607012 0.322300670829 0)
(0.0251525452854 0.319311671594 0)
(0.0304078261481 0.315564006044 0)
(0.035657760225 0.311048465892 0)
(0.0408745268044 0.305760404851 0)
(0.0460275862524 0.299700364882 0)
(0.0510845729753 0.29287434762 0)
(0.0560121595971 0.285293648259 0)
(0.0607766727165 0.276974240615 0)
(0.065344196791 0.267935794177 0)
(0.0696799157931 0.258200559057 0)
(0.0737464759243 0.247792473695 0)
(0.077501323644 0.236737110954 0)
(0.0808931674791 0.225063127147 0)
(0.0838583153832 0.212806273092 0)
(0.08631837451 0.200016441149 0)
(0.0881822458911 0.186767965541 0)
(0.0893564348248 0.17316991907 0)
(0.0897667017002 0.159369743774 0)
(0.0893883438542 0.145536967401 0)
(0.0882594439661 0.13181175734 0)
(0.0863944895626 0.118305360405 0)
(0.0838336705337 0.105082709694 0)
(0.0804640734609 0.092262805297 0)
(0.0763580804073 0.0799113294978 0)
(0.0710498255398 0.0683580743337 0)
(0.0648701290686 0.0582121100378 0)
(0.0584734462364 0.0496754076897 0)
(0.0523299401106 0.042585764807 0)
(0.0466955622276 0.0366465138044 0)
(0.0416055178101 0.0315637456893 0)
(0.0369683276257 0.0271535080422 0)
(0.0327082799235 0.0233458843855 0)
(0.0288331186392 0.0200980382074 0)
(0.0253662399228 0.0173313986528 0)
(0.0222859366812 0.0149504837465 0)
(0.019533532475 0.0128836344065 0)
(0.0170454627906 0.0111010288304 0)
(0.0147912212565 0.00960332183646 0)
(0.0127930814266 0.00837768735047 0)
(0.0110791859572 0.00735861447007 0)
(0.00959164734575 0.00648413162459 0)
(0.00828645834934 0.00573736371085 0)
(0.00715000744139 0.00510328303853 0)
(0.00616203120538 0.00455919669985 0)
(0.00529476377337 0.00409413649323 0)
(0.00453556613254 0.00364086584886 0)
(0.00410542836732 0.00330138303315 0)
(0.00379170272386 0.00290349511127 0)
(0.00359392505598 0.00254546336061 0)
(0.00339089084731 0.00213133408894 0)
(0.003238719649 0.00173200072447 0)
(0.00307686532883 0.00132515308204 0)
(0.00300988188443 0.00100019410999 0)
(0.00303577869503 0.000740091081555 0)
(0.00294488881528 0.000474987079221 0)
(0.00316174302492 0.000344292433109 0)
(0.00311349597559 0.000204187674042 0)
(0.00308501071402 6.45033426238e-05 0)
(-0.125129990129 0.00753831407917 0)
(-0.132228278 0.024461093265 0)
(-0.131631515402 0.0410659742256 0)
(-0.13039774842 0.0577072893772 0)
(-0.128756252726 0.074125086115 0)
(-0.12673075725 0.0902781400276 0)
(-0.124342216733 0.10611343417 0)
(-0.121614274785 0.121582642103 0)
(-0.118572869664 0.136641818074 0)
(-0.11524561391 0.15125179654 0)
(-0.111661160786 0.165378370515 0)
(-0.107848571184 0.178992377862 0)
(-0.103836687782 0.192069685379 0)
(-0.09965351999 0.204591071843 0)
(-0.095325646396 0.216542006619 0)
(-0.0908776456358 0.227912318175 0)
(-0.0863315752584 0.23869574887 0)
(-0.0817065238739 0.248889398319 0)
(-0.0770182674067 0.258493067919 0)
(-0.0722790579026 0.267508531771 0)
(-0.0674975672605 0.275938771512 0)
(-0.0626789928463 0.283787221494 0)
(-0.0578253149607 0.291057072371 0)
(-0.0529356757347 0.297750674085 0)
(-0.0480068362692 0.303869062865 0)
(-0.0430336631945 0.309411615045 0)
(-0.0380096057603 0.314375808783 0)
(-0.0329271431519 0.318757060641 0)
(-0.0277782081669 0.322548605466 0)
(-0.022554612588 0.325741361672 0)
(-0.0172485365267 0.328323954923 0)
(-0.0118529885276 0.330282525282 0)
(-0.00636250675118 0.331600839675 0)