/*--------------------------------*- C++ -*----------------------------------*\
| =========                 |                                                 |
| \\      /  F ield         | OpenFOAM: The Open Source CFD Toolbox           |
|  \\    /   O peration     | Version:  v1906                                 |
|   \\  /    A nd           | Web:      www.OpenFOAM.com                      |
|    \\/     M anipulation  |                                                 |
\*---------------------------------------------------------------------------*/
FoamFile
{
    version     2.0;
    format      ascii;
    class       volScalarField;
    location    "668";
    object      p;
}
// * * * * * * * * * * * * * * * * * * * * * * * * * * * * * * * * * * * * * //

dimensions      [0 2 -2 0 0 0 0];


internalField   nonuniform List<scalar> 
9216
(
268.319143259
268.40442357
268.577513455
268.838771616
269.186768143
269.619771709
270.135645288
270.731910687
271.405772985
272.1541856
272.973870772
273.861387977
274.813146121
275.825471612
276.894608701
278.016784988
279.188198159
280.405078553
281.663662152
282.96025112
284.291173858
285.652845111
287.041714404
288.454327409
289.887264124
291.337203061
292.800850547
294.275008915
295.756498238
297.242229461
298.729119934
300.214171998
301.694384267
303.166835883
304.628595343
306.076810408
307.508617092
308.921234566
310.311877039
311.677852246
313.016478944
314.325186617
315.601440936
316.842841175
318.047055011
319.211909511
320.335335472
321.415448174
322.450500564
323.438952243
324.379431401
325.270794908
326.112101183
326.902669149
327.642065229
328.330167963
328.967165232
329.553619362
330.090456013
330.579011295
331.020989834
331.418478172
331.773859652
332.089792956
332.369090407
332.614679928
332.829484861
333.016415943
333.178281068
333.317802769
333.437537374
333.53990495
333.627119498
333.701236295
333.764095369
333.817375938
333.862541778
333.900895898
333.933537236
333.961426139
333.985355363
334.006015538
334.023969648
334.039712673
334.053705969
334.06582115
334.075811296
334.083811704
334.089958638
334.094509689
334.097736963
334.099957744
334.101447864
334.102357352
334.102821215
334.102988596
268.233934196
268.319640699
268.493366601
268.755841101
269.105490618
269.540525898
270.058768165
270.657694237
271.334470421
272.086004669
272.90898264
273.799920844
274.755197417
275.771101401
276.843854435
277.969653753
279.144683267
280.365149855
281.627283983
282.9273702
284.261738428
285.626790209
287.018982182
288.434849748
289.870984248
291.324055555
292.790784325
294.267964749
295.752433107
297.24109167
298.730874831
300.218775015
301.701807483
303.177039049
304.641553291
306.0924826
307.526975317
308.942231628
310.335474309
311.703988433
313.045097092
314.356204161
315.63477572
316.878384071
318.084694567
319.251508156
320.376752207
321.458518583
322.495056599
323.484804925
324.426386241
325.318635124
326.160597982
326.951564509
327.691079779
328.378986912
329.015451324
329.601007913
330.136578137
330.623497406
331.063500464
331.458709968
331.811575728
332.124822471
332.401346675
332.644137641
332.856179957
333.040416869
333.199696998
333.336762248
333.45419961
333.554435511
333.639700177
333.712042284
333.773310735
333.825176166
333.869108488
333.906394539
333.938127058
333.965241003
333.988518185
334.008624164
334.026109136
334.041434695
334.054984672
334.066833628
334.076675816
334.084448116
334.090482465
334.094970496
334.098102248
334.100252362
334.101715609
334.102578312
334.102999001
334.103172584
268.060070298
268.146869958
268.322346386
268.587425035
268.940489019
269.379688111
269.902770097
270.507129066
271.189847743
271.947747153
272.777431431
273.67533642
274.637769539
275.660952227
276.741051046
277.874211561
279.056579416
280.284325465
281.553657352
282.860837049
284.202184426
285.574088926
286.973006886
288.395469104
289.838073541
291.297490306
292.770451128
294.253752987
295.744245507
297.238834268
298.734467187
300.228138442
301.716874921
303.197741701
304.667829868
306.124264529
307.564195331
308.984807998
310.38331887
311.756990623
313.103131781
314.41911663
315.70238986
316.950489604
318.161056166
319.331855851
320.460791446
321.545923549
322.585479781
323.577870901
324.521697278
325.415761148
326.259074773
327.050878425
327.79066234
328.478203455
329.113607472
329.697358013
330.230354788
330.71393856
331.149894772
331.540431346
331.888126095
332.195858273
332.466693907
332.703765363
332.910167519
333.08891766
333.242931194
333.37500284
333.48776917
333.58368358
333.664993118
333.733744209
333.791788216
333.840793929
333.882232935
333.91737311
333.947279615
333.972845709
333.994818497
334.013826584
334.030392563
334.04494945
334.057871362
334.069200042
334.078427637
334.085727876
334.091539223
334.095848344
334.098794168
334.100858743
334.102225862
334.103020514
334.103446982
334.10365958
267.795395775
267.883602471
268.061785011
268.330888873
268.689220489
269.134832753
269.665358722
270.278065795
270.969905166
271.737564823
272.577520535
273.486085902
274.459457136
275.49375485
276.585058837
277.729439405
278.922981303
280.161804889
281.442080302
282.760040115
284.11198571
285.494293513
286.903415625
288.335881582
289.788295007
291.25733247
292.739737539
294.232317935
295.731938068
297.235515452
298.740012664
300.242433936
301.739817565
303.229233654
304.707778134
306.172572854
307.620762567
309.049518667
310.456040494
311.837563816
313.191367473
314.514787077
315.805227114
317.060179134
318.277237988
319.454122108
320.588690746
321.678962218
322.723127526
323.719561875
324.666831119
325.563696042
326.409116406
327.202260627
327.942527821
328.629587765
329.263439036
329.844477669
330.373557095
330.852021661
331.281729499
331.665024392
332.004684844
332.303853347
332.565882245
332.794143256
332.991887487
333.162233465
333.308186264
333.432626928
333.538268065
333.627609279
333.702913245
333.76621782
333.819368453
333.864041218
333.901715783
333.933637372
333.960817992
333.984082705
334.004118551
334.021502061
334.036712925
334.050148454
334.062172179
334.072628786
334.081043426
334.08779364
334.093095299
334.097061752
334.099889951
334.101822078
334.103080003
334.103845677
334.104281544
334.104496729
267.438594943
267.528669059
267.710557588
267.985177834
268.350722936
268.80510703
269.345801472
269.969896862
270.674160656
271.455096779
272.309003175
273.232026187
274.220209531
275.269537796
276.375973128
277.535486076
278.744079798
279.997809303
281.292795099
282.625233231
283.991400973
285.387660281
286.810457973
288.256324789
289.72187197
291.203787542
292.698830656
294.203826225
295.715657987
297.231262348
298.747620964
300.261754619
301.770716271
303.271585918
304.761465229
306.237474725
307.696751501
309.136450295
310.553745902
311.945839661
313.309967901
314.643414788
315.943527185
317.207733417
318.43356321
319.618669747
320.760850891
321.858069067
322.908467088
323.910377977
324.862327926
325.763031625
326.611385008
327.40646236
328.147531464
328.834098564
329.465989955
330.043456405
330.567271264
331.038764531
331.459891329
331.833181491
332.161692513
332.448979787
332.69885759
332.915064181
333.1010305
333.259968689
333.394986341
333.509090946
333.605111552
333.685615833
333.752872823
333.808884496
333.85547191
333.894337999
333.927002012
333.954684763
333.978306257
333.998577652
334.016097315
334.031374023
334.044829894
334.056818378
334.067666462
334.076967402
334.084398878
334.090422935
334.095249092
334.098860179
334.101419025
334.103196805
334.10439143
334.105133009
334.105570102
334.105788208
266.987725027
267.080191186
267.266858598
267.548594364
267.923436419
268.38911143
268.942874315
269.581580907
270.301755934
271.099661946
271.971365021
272.912795315
273.919800723
274.988192991
276.113785856
277.292425643
278.520014724
279.79252882
281.106028824
282.456668258
283.840696942
285.25446188
286.694405703
288.15706348
289.639057979
291.137094054
292.647952022
294.168480621
295.695589313
297.226240476
298.757441223
300.286235515
301.809696338
303.324918588
304.829012709
306.319099824
307.792308532
309.245774163
310.676640747
312.082066454
313.459232601
314.805356827
316.117710035
317.393637303
318.630581622
319.826109878
320.977938959
322.083960031
323.142257632
324.151119924
325.109036682
326.014682666
326.866890423
327.664623289
328.406971648
329.093200251
329.722862629
330.295975151
330.813185697
331.275760917
331.685790092
332.046026548
332.359873788
332.631523109
332.865556196
333.06627214
333.237230288
333.381649238
333.502735031
333.603687687
333.687526551
333.75691991
333.814115936
333.861008731
333.899343618
333.930901149
333.957331635
333.979839543
333.999174974
334.015850455
334.030343555
334.043088783
334.054435431
334.064688042
334.074030416
334.08195454
334.088451913
334.093794629
334.098014785
334.101107415
334.103436571
334.105087388
334.106196655
334.106969225
334.107424394
334.107654875
266.440297407
266.535741064
266.7283644
267.018963164
267.405371707
267.885071256
268.455035457
269.111817175
269.851630152
270.670430224
271.563991326
272.52797389
273.557983915
274.649622107
275.798523069
277.000385306
278.250992923
279.546230373
280.882091321
282.254682964
283.660226664
285.095055944
286.555612367
288.038440004
289.540178735
291.057556816
292.587382753
294.126536779
295.671961853
297.22065445
298.769655004
300.316038458
301.856904837
303.389370255
304.910558678
306.417595
307.907599932
309.377687416
310.82496518
312.246539233
313.639522722
315.001049903
316.32829496
317.618496206
318.868984224
320.077213924
321.24079744
322.357536151
323.425446477
324.442773835
325.40798711
326.3197462
327.176843177
327.978129606
328.722469842
329.408773852
330.036162214
330.604265846
331.113577998
331.565168045
331.961358929
332.305122777
332.600177158
332.851717718
333.065694067
333.247316342
333.399990644
333.526674454
333.630651563
333.715461641
333.784461534
333.840483801
333.885692753
333.921702408
333.950038799
333.972681946
333.991671295
334.008216295
334.022722333
334.035324488
334.046361132
334.056221488
334.065162997
334.073436373
334.081070111
334.087600175
334.093092874
334.097619357
334.101183774
334.103923381
334.106048104
334.107595548
334.108640071
334.109416926
334.109884481
334.110119216
265.793212997
265.892291718
266.092183767
266.3935881
266.794075896
267.290812384
267.88041129
268.559040843
269.322523372
270.166432424
271.086181691
272.077102898
273.134511003
274.25375632
275.430264157
276.659563222
277.937304429
279.259271826
280.621387394
282.019711157
283.450437951
284.909891792
286.394518679
287.900878297
289.425635076
290.965548736
292.517464525
294.078303105
295.645050182
297.214745761
298.784473108
300.351347496
301.912504932
303.465090866
305.006249637
306.533114892
308.04280196
309.532402693
310.998984
312.439590728
313.851254036
315.231005842
316.575899842
317.883039328
319.149611224
320.372925675
321.55045917
322.679898248
323.759178514
324.786508925
325.760369065
326.679460226
327.542599007
328.34856415
329.09595237
329.783157061
330.408586303
330.971207665
331.471465767
331.909821687
332.289221298
332.612685314
332.883857573
333.109569928
333.298473887
333.457416068
333.588702257
333.694352874
333.777751412
333.843125062
333.894484669
333.9349466
333.966477914
333.990016661
334.006458215
334.018273569
334.028595389
334.038683533
334.048155158
334.056369413
334.063582086
334.070288146
334.076593535
334.082698784
334.088499814
334.093630915
334.098080633
334.101832034
334.104869024
334.107339934
334.109234691
334.110711198
334.111769053
334.11248425
334.112975076
334.113210281
265.042689054
265.146150699
265.35480033
265.66920479
266.086597742
266.603740049
267.216788468
267.921427127
268.71299079
269.586582311
270.537177525
271.559714312
272.649164331
273.800587632
275.009171502
276.27025574
277.579346786
278.932123245
280.324435025
281.752298064
283.211886122
284.699520854
286.211660878
287.744890445
289.295907921
290.861514297
292.438601625
294.02414143
295.615172842
297.208790441
298.802131526
300.392363047
301.976668077
303.552231961
305.11622877
306.665808502
308.198085999
309.710132442
311.198970806
312.661576382
314.094883823
315.495801731
316.861235628
318.188120038
319.473458875
320.714375282
321.908166978
323.052369088
324.144813153
325.183678052
326.167503343
327.095134272
327.965555895
328.777597698
329.529594012
330.219191926
330.8435754
331.400417022
331.890859149
332.313312948
332.672900041
332.971992854
333.212642287
333.404429137
333.561987229
333.69543764
333.802992051
333.884231161
333.942965017
333.984995091
334.015626047
334.038490797
334.055208637
334.065178066
334.06748218
334.065691909
334.066025781
334.069807212
334.074722659
334.078396821
334.081364418
334.084758457
334.08826861
334.092104018
334.09607025
334.099845214
334.103324951
334.106396256
334.109019023
334.111214849
334.113006872
334.114409297
334.115482394
334.116169393
334.116699105
334.116935857
264.184165781
264.292874678
264.511996869
264.841920007
265.279444163
265.820813623
266.461606203
267.196899164
268.021423396
268.929706765
269.916198442
270.975370669
272.10179694
273.290207762
274.535526684
275.832889974
277.177653677
278.565391431
279.991886087
281.453117459
282.945248057
284.464607967
286.007679747
287.57108367
289.151563583
290.745973267
292.351263253
293.964467762
295.582691584
297.2030965
298.822887001
300.439295218
302.049565024
303.650935108
305.240621911
306.815802706
308.373600123
309.911069019
311.425187685
312.912854657
314.370893407
315.796066144
317.185098506
318.534715308
319.841689235
321.10289951
322.315406577
323.476533362
324.583964755
325.635838445
326.630815323
327.568051343
328.446975997
329.266779526
330.0256793
330.72030092
331.345623528
331.896213455
332.377258397
332.779810161
333.117362769
333.388793679
333.589657557
333.734032706
333.851418459
333.958958202
334.042210249
334.09542917
334.124203921
334.138063524
334.144573296
334.148350241
334.150546804
334.147375729
334.132410628
334.111745996
334.100496376
334.099706543
334.102071245
334.101075344
334.098905028
334.099067929
334.0996824
334.101246112
334.103504477
334.106048628
334.108699697
334.111204494
334.113476618
334.115499392
334.117280355
334.11871895
334.119775856
334.120504957
334.121056825
334.121312159
263.212186605
263.327156856
263.558759173
263.907135699
264.368528137
264.938518851
265.61195156
266.383143251
267.246079015
268.194588057
269.222491281
270.323716884
271.49238391
272.722856682
274.009774607
275.348062754
276.732928367
278.159848084
279.624549583
281.122990627
282.651337411
284.20594353
285.783330163
287.380167803
288.993259395
290.619524796
292.255986076
293.899753386
295.548010755
297.198001462
298.847012279
300.492356532
302.13135558
303.761318503
305.379520759
306.983182263
308.56944614
310.135359557
311.677858857
313.193760998
314.679764145
316.132459597
317.548356557
318.923923213
320.255638973
321.540070459
322.773952265
323.954308383
325.078581525
326.144817388
327.151836754
328.099338318
328.987691443
329.817124335
330.586271121
331.290604745
331.921078892
332.463097303
332.939421992
333.312372569
333.628437666
333.871638123
334.019329681
334.091993053
334.166688188
334.269553722
334.337470566
334.356312387
334.341467483
334.314172624
334.287644055
334.268674465
334.258587282
334.245027191
334.203942517
334.150917799
334.125902495
334.126439261
334.131673729
334.124863875
334.114686054
334.112616442
334.110263976
334.109591916
334.110421967
334.111863433
334.113954949
334.11613991
334.118245013
334.120242212
334.122038934
334.123553908
334.124706988
334.125508133
334.126065404
334.126350893
262.120243395
262.242684745
262.489153407
262.85945505
263.34910677
263.952838745
264.664560503
265.477635309
266.385128111
267.380022522
268.455395588
269.604547341
270.821087122
272.098982226
273.432576401
274.816586085
276.246081832
277.716461049
279.22341687
280.762906392
282.331120442
283.924455858
285.539490774
287.172962749
288.8217495
290.482851675
292.153377181
293.830526327
295.511577171
297.193870186
298.874791522
300.551754289
302.22217747
303.883461778
305.532963401
307.167965864
308.785651551
310.383074441
311.957136985
313.504573583
315.021945087
316.505645824
317.951930121
319.356951134
320.71682957
322.027721858
323.285936398
324.488046153
325.631096616
326.712869728
327.732289845
328.689838166
329.587630852
330.428304836
331.212379126
331.9349891
332.580510489
333.101549499
333.594267955
333.912628349
334.258366589
334.50968828
334.581216372
334.477484601
334.282822236
334.24718908
334.292403863
334.330155814
334.341960082
334.339848597
334.337650537
334.342955979
334.353523605
334.348243426
334.28186399
334.160288289
334.120093409
334.145666458
334.170271908
334.152062589
334.124843269
334.125393097
334.119526954
334.116384172
334.116506772
334.116902728
334.118984152
334.121159235
334.123239054
334.125358006
334.12730815
334.128934191
334.130225144
334.131148125
334.131701924
334.132005532
260.900575517
261.031953579
261.296170509
261.692565915
262.21570926
262.859225481
263.615829394
264.47768451
265.436720641
266.484901608
267.614430661
268.817892321
270.088336155
271.419312484
272.804871742
274.239539186
275.718275014
277.236427952
278.78968792
280.37404143
281.985731545
283.621223124
285.27717315
286.95040566
288.637890439
290.336724777
292.044117351
293.757373499
295.473880727
297.191093542
298.906516285
300.617683186
302.322134696
304.017389416
305.700912077
307.370078045
309.022135604
310.654168317
312.263060297
313.845468976
315.397808639
316.916253576
318.396756048
319.835100322
321.226955891
322.567984341
323.853912586
325.080691822
326.244671569
327.343014338
328.374383518
329.340093617
330.245126694
331.097082186
331.90161026
332.658545927
333.350567188
333.811663309
334.481759623
334.542824712
334.37135546
334.418437262
334.486293187
334.462180279
334.392492853
334.3458784
334.340847041
334.345210387
334.3414921
334.332528828
334.323891006
334.316354233
334.306283587
334.284872231
334.248376398
334.218854526
334.223877838
334.260570938
334.278076878
334.19669862
334.105745503
334.136240263
334.126891325
334.120206847
334.121923542
334.120513069
334.123799456
334.126248949
334.128282326
334.130748441
334.133037223
334.134906293
334.136326515
334.137376381
334.137924109
334.138249132
259.5439063
259.686026846
259.971527092
260.39909757
260.96205452
261.652577596
262.461843987
263.380502689
264.399082852
265.508323353
266.699410791
267.964128532
269.294928499
270.684942475
272.127951014
273.618326538
275.150964272
276.721210885
278.324797367
279.95777953
281.616487498
283.297483892
284.997529813
286.713557192
288.442646346
290.182007433
291.9289649
293.680943728
295.435456335
297.190088482
298.942482939
300.690318901
302.431286206
304.163053243
305.883228595
307.589316679
309.27866887
310.948432018
312.595498901
314.216463838
315.807594438
317.364817653
318.883746476
320.359714561
321.787876431
323.163268567
324.480931143
325.735944246
326.923581362
328.039661277
329.081589402
330.050758608
330.956180678
331.814751435
332.644083751
333.475541589
334.390437164
334.396133503
334.429641238
334.511482849
334.485471511
334.4627302
334.470093762
334.441719959
334.392777834
334.35631334
334.342909374
334.337024466
334.328261284
334.31806947
334.308495195
334.298118522
334.28501056
334.266428459
334.243344844
334.226123145
334.224125438
334.233163831
334.230525579
334.218090928
334.235503092
334.240656164
334.138520285
334.110317335
334.127393455
334.120460828
334.128851841
334.131580551
334.133146811
334.136400605
334.139281109
334.141488871
334.143079789
334.144173847
334.144745707
334.145080441
258.039094502
258.194219059
258.50541044
258.970444151
259.580960184
260.327229621
261.198437028
262.183312217
263.270656406
264.449745095
265.71059703
267.044119536
268.442152216
269.897436329
271.403536871
272.954740667
274.545948071
276.172570209
277.830438356
279.515728219
281.224898946
282.95464525
284.701860193
286.463606348
288.237093253
290.019659764
291.808760045
293.601952163
295.396887705
297.191300516
298.982992511
300.769813887
302.549635915
304.320315108
306.079647911
307.825316396
309.554825446
311.265434539
312.954086518
314.617343148
316.251329562
317.851713936
319.413706761
320.932137515
322.401527145
323.816237055
325.170499684
326.45840092
327.673670668
328.809699416
329.860348167
330.824136774
331.713645775
332.560376844
333.394103521
334.297601499
334.408058726
334.469847996
334.469971189
334.491741602
334.476443169
334.455916316
334.443095767
334.413307248
334.37299412
334.340619762
334.321978936
334.309585745
334.298571811
334.28911689
334.280226648
334.27056569
334.259254105
334.245621587
334.231063266
334.220750744
334.21859267
334.221060658
334.218786507
334.212472715
334.213916347
334.207542466
334.210999767
334.2199876
334.165374735
334.104181837
334.135524721
334.137471239
334.137076267
334.142382309
334.146257386
334.148849762
334.150509033
334.151570192
334.152189418
334.152483671
256.372666972
256.543678887
256.886148774
257.396549037
258.064246679
258.876966392
259.821291356
260.883510848
262.050297189
263.309191724
264.648895973
266.059392463
267.531934092
269.05894514
270.633873677
272.251026955
273.905411996
275.59259445
277.308581659
279.049730495
280.812677506
282.594287125
284.39161366
286.201873118
288.022422205
289.850742665
291.684430141
293.521186473
295.35881409
297.195209649
299.028354385
300.85629687
302.677125865
304.488931145
306.289751325
308.07750816
309.849928128
311.604451982
313.338138145
315.047562891
316.728738873
318.377051575
319.987269851
321.553597304
323.069850493
324.529621625
325.926418958
327.253426364
328.502720096
329.66404365
330.7235756
331.669387639
332.513640816
333.325173688
334.167957537
334.320835766
334.419614657
334.454786791
334.461385322
334.464066282
334.445296126
334.420531082
334.395599899
334.362987306
334.32638529
334.295406864
334.273711765
334.258074153
334.246961788
334.239382576
334.232604377
334.225819735
334.218667322
334.211170469
334.20453226
334.201247714
334.202522901
334.205905728
334.20683665
334.204506852
334.203760861
334.200768246
334.20008251
334.197287721
334.199755272
334.205334071
334.177034102
334.145622106
334.137537648
334.149087745
334.154473319
334.15725735
334.158731265
334.159601089
334.160157172
334.160384148
254.528183963
254.718826694
255.099783281
255.665642538
256.402645668
257.295082178
258.32611471
259.478920542
260.737557851
262.087538275
263.516118132
265.012357827
266.567015125
268.172339034
269.821821103
271.50994597
273.231967316
274.98372216
276.761486508
278.561869091
280.381736432
282.21816149
284.068388487
285.929808279
287.799940548
289.676421358
291.556995759
293.439515554
295.321940754
297.202341462
299.078895836
300.949878404
302.813634729
304.668540194
306.512941012
308.345077089
310.162985364
311.964384776
313.74654289
315.506136085
317.239108729
318.940574091
320.60476842
322.225150032
323.794631631
325.305994832
326.752247263
328.126442481
329.420003381
330.619067244
331.69616946
332.612429255
333.359733223
334.143128782
334.260299658
334.340399009
334.401938325
334.425599313
334.424883775
334.41167433
334.384218371
334.351037279
334.31694446
334.280922251
334.245506812
334.215697532
334.193727134
334.178632374
334.169920175
334.165475951
334.162666447
334.160887272
334.159893431
334.159745631
334.161116042
334.165002992
334.171458071
334.17881944
334.184736745
334.188666553
334.192365909
334.194206671
334.194588775
334.194470783
334.196101111
334.198852082
334.214393653
334.200451906
334.12003036
334.156281562
334.164739727
334.16703853
334.167769068
334.168128745
334.168505181
334.168661982
252.485362211
252.700594199
253.129507961
253.763928477
254.585730523
255.574518136
256.708926287
257.968159558
259.333087215
260.786890998
262.315310544
263.906578495
265.551153035
267.241348739
268.970945159
270.734825877
272.528676363
274.348749943
276.191698851
278.054460053
279.934182846
281.828184941
283.733925872
285.648989434
287.571070892
289.497968013
291.427577862
293.357901289
295.28705482
297.213285185
299.134979944
301.050665228
302.958985085
304.858659502
306.748419802
308.626920211
310.492623562
312.343656935
314.177637725
315.991470527
317.781135713
319.541490607
321.266160692
322.947597948
324.577469596
326.147452171
327.650400391
329.080955766
330.433539413
331.696177146
332.826592041
333.744689328
334.251517147
334.283487699
334.319231141
334.355126008
334.377435691
334.375316415
334.354653601
334.323259562
334.283878113
334.241778263
334.200857904
334.162226037
334.127767723
334.100123539
334.080443933
334.069300334
334.065516445
334.06574899
334.068639952
334.073672473
334.080455766
334.08882244
334.098909671
334.110883675
334.124332394
334.138048128
334.150638901
334.161610715
334.171381813
334.179219989
334.185283366
334.189895929
334.192813755
334.194667158
334.198529884
334.189117226
334.19385014
334.190866232
334.183306966
334.179310171
334.177509196
334.17688133
334.177054876
334.177187265
250.218842098
250.465372806
250.95493422
251.675218712
252.601903686
253.708132941
254.966516563
256.351194631
257.839191608
259.411097129
261.05117919
262.747091456
264.48934685
266.270707006
268.085595008
269.929593726
271.79905496
273.690819256
275.602031685
277.530032408
279.472299511
281.426423678
283.39009812
285.361112651
287.337346757
289.316762907
291.297405753
293.277414236
295.255047924
297.228721431
299.197034923
301.158787346
303.112963469
305.05869285
306.995180621
308.92161056
310.83701511
312.740103971
314.629041438
316.501170329
318.352685674
320.178290249
321.970903649
323.721585394
325.419975081
327.055660797
328.621092583
330.114946731
331.543758016
332.924164407
334.21953217
334.483095757
334.437690193
334.383035104
334.35876509
334.34344754
334.321200194
334.286407716
334.241911587
334.192389883
334.140913614
334.091039667
334.045630156
334.006133016
333.973883748
333.950271232
333.935845817
333.930761516
333.933067075
333.939814559
333.950156102
333.963548603
333.979429749
333.997378245
334.017122028
334.038350581
334.060434496
334.082381704
334.103173582
334.122244722
334.139476461
334.154448815
334.167164119
334.17757985
334.185553083
334.191114153
334.194800497
334.193712711
334.198058784
334.209586023
334.204698287
334.190201121
334.186181572
334.184980319
334.185511138
334.185878627
247.696416823
247.983546183
248.551122283
249.380530198
250.438504632
251.689196525
253.097173903
254.630154659
256.260618306
257.966419535
259.73061564
261.540780004
263.388070751
265.266272002
267.170947145
269.098769099
271.047038923
273.013372583
274.995521732
276.99129077
278.998515088
281.015070513
283.038890918
285.067978857
287.100403835
289.134292658
291.167825348
293.199253669
295.226947927
297.249462631
299.26559908
301.274442184
303.275358699
305.267956993
307.252013984
309.227374322
311.193813386
313.150845741
315.097458467
317.031750418
318.950462584
320.848402391
322.717807996
324.547832645
326.324656262
328.03306701
329.66224054
331.215059166
332.729744343
334.325770219
334.703899841
334.661826848
334.527298422
334.426533949
334.351856349
334.285369422
334.219706042
334.152378814
334.084531728
334.018657029
333.956938792
333.901578109
333.854346831
333.816272444
333.788101222
333.77045245
333.763398163
333.766016581
333.77557371
333.790204834
333.809269554
333.832105497
333.857994331
333.886302631
333.91646998
333.947899166
333.97983188
334.011355058
334.041580797
334.06986997
334.095842237
334.119093099
334.139442204
334.156748428
334.170931583
334.181936552
334.190064182
334.194519595
334.198202164
334.20371088
334.204553549
334.197854751
334.192340374
334.191491746
334.193887398
334.194933557
244.876428814
245.217400518
245.887312323
246.857688802
248.082155702
249.512252798
251.10181955
252.810521131
254.605639449
256.462416646
258.363336186
260.29678228
262.25549082
264.235102643
266.232988724
268.247397067
270.276897604
272.320068151
274.375356585
276.441059065
278.515363237
280.596415383
282.68238037
284.771474524
286.861964593
288.952143061
291.040305843
293.1247725
295.203962048
297.276510631
299.341386205
301.397961356
303.446024249
305.485734569
307.517543273
309.542096209
311.560106773
313.572164524
315.578442025
317.578261885
319.569476953
321.547595834
323.504594059
325.427432702
327.296816795
329.086826896
330.773325504
332.349325284
333.917174574
334.748210122
334.795005851
334.677426011
334.535875168
334.404610774
334.283596362
334.171592873
334.06804739
333.972345764
333.884833323
333.806453791
333.73810469
333.680633575
333.634684828
333.600581521
333.578503808
333.56862655
333.570244298
333.581124095
333.598622389
333.621914364
333.650354151
333.683122293
333.719378236
333.758337584
333.799252454
333.841353038
333.883794946
333.92567561
333.966131795
334.004451145
334.040089528
334.072567042
334.101554048
334.12680257
334.148155749
334.165543396
334.179135036
334.188693597
334.195163231
334.199344858
334.199367807
334.193799729
334.188969056
334.194928712
334.202947676
334.205070821
241.703832463
242.11811238
242.925287702
244.08105478
245.519555551
247.174586379
248.985762106
250.902855127
252.887534445
254.913066922
256.962626671
259.02690048
261.101616738
263.185437747
265.278399062
267.380889366
269.493073805
271.614641406
273.744767925
275.882205995
278.025434354
280.172813479
282.322707666
284.473546037
286.623812582
288.771981204
290.916441177
293.05550672
295.18753538
297.311137214
299.425378018
301.529905572
303.624970603
305.711361351
307.790301695
309.863371754
311.932421225
313.999414845
316.066152396
318.133812503
320.202242202
322.268827945
324.326666404
326.36155568
328.347993183
330.241028853
331.987823526
333.541509489
334.843381272
334.854970437
334.784041103
334.654744174
334.490143457
334.317230169
334.152077593
334.001518217
333.867694457
333.750662399
333.649917861
333.564875709
333.494921259
333.439513077
333.398186501
333.37052649
333.356280691
333.355458194
333.365871145
333.384460158
333.410096569
333.44219758
333.479938811
333.522399094
333.568679169
333.617915858
333.669262746
333.721859692
333.774810235
333.827196444
333.878134278
333.926835704
333.972630032
334.01493323