/*--------------------------------*- C++ -*----------------------------------*\
| =========                 |                                                 |
| \\      /  F ield         | OpenFOAM: The Open Source CFD Toolbox           |
|  \\    /   O peration     | Version:  v1906                                 |
|   \\  /    A nd           | Web:      www.OpenFOAM.com                      |
|    \\/     M anipulation  |                                                 |
\*---------------------------------------------------------------------------*/
FoamFile
{
    version     2.0;
    format      ascii;
    class       surfaceScalarField;
    location    "668";
    object      phia;
}
// * * * * * * * * * * * * * * * * * * * * * * * * * * * * * * * * * * * * * //

dimensions      [0 3 -1 0 0 0 0];
oriented        oriented;


internalField   nonuniform List<scalar> 
18240
(
0.000847330276274
-0.000847313823035
0.00173660163928
-0.000889269773755
0.00262381153668
-0.000887185698228
0.00350379142113
-0.000879981253707
0.00437373984466
-0.000869916720114
0.00523104519711
-0.000857308899207
0.00607340742635
-0.00084232232713
0.0068985376813
-0.000825134802091
0.0077044535015
-0.000805866568168
0.00848915182246
-0.000784702514379
0.00925097663838
-0.000761764771787
0.00998822504889
-0.000737250770147
0.0106995751262
-0.000711277803604
0.0113836211802
-0.000684044899792
0.0120393599186
-0.00065565250101
0.0126656558674
-0.000626289342576
0.0132617858074
-0.000596027976986
0.0138268371443
-0.000565036984598
0.0143603102042
-0.000533353249924
0.0148614540571
-0.000501119051459
0.0153299259383
-0.000468332083566
0.0157650708731
-0.000435106439752
0.0161666352687
-0.000401402112217
0.0165339988763
-0.000367307577183
0.016866937188
-0.000332751094818
0.017164816858
-0.00029780152138
0.0174273969259
-0.000262365254054
0.0176540025366
-0.000226500043375
0.0178443504783
-0.000190103166108
0.0179977210465
-0.000153231543681
0.0181137863386
-0.000115788442958
0.018191803752
-7.78384300518e-05
0.0182314212852
-3.93074108664e-05
0.0182319291777
-2.82337398347e-07
0.0181930033784
3.9269168551e-05
0.0181140512082
7.92302231069e-05
0.0179948513831
0.000119574416056
0.01783503805
0.000160148049207
0.0176345871353
0.000200852077203
0.0173934839616
0.000241495439851
0.0171120039549
0.000281899828578
0.0167906054276
0.000321843970525
0.0164299586548
0.000361073357798
0.016031095017
0.000399350947027
0.0155951549933
0.000436358126112
0.0151238067535
0.000471858566312
0.0146187133718
0.000505485143948
0.0140822109647
0.000537011036538
0.0135165309091
0.000566028182253
0.0129247031829
0.000592308457807
0.0123096001148
0.000615394117631
0.0116750043298
0.000635027144154
0.0110245432385
0.000650689168352
0.0103628296184
0.000662083730264
0.00969432315054
0.000668673809277
0.00902442667506
0.000670204316503
0.00835827512898
0.00066626705275
0.00770169931003
0.000656829525568
0.00705996241542
0.000641812621599
0.00643859632388
0.000621577186213
0.00584214728193
0.000596496135678
0.0052749586562
0.000567366271048
0.00474003726343
0.000534946863496
0.00423992353284
0.000500261143024
0.0037758629606
0.000464066287936
0.00334881126729
0.000427164366174
0.00295869766521
0.000390097471354
0.00260521423732
0.000353559841144
0.00228710713404
0.000318072348774
0.0020029303521
0.000284224657329
0.0017505284898
0.000252357147
0.00152775141888
0.000222807458602
0.00133201583502
0.000195688125332
0.00116090696503
0.000171127787024
0.00101178022905
0.000149077999365
0.0008822843492
0.000129503628788
0.000770018709617
0.000112214349748
0.000672962127404
9.70528193463e-05
0.000589136108402
8.37723835429e-05
0.000516931648059
7.21912594686e-05
0.000454809441527
6.20681063764e-05
0.000401582056279
5.32080884834e-05
0.000356207381485
4.53222708468e-05
0.0003182068027
3.79791558847e-05
0.000288282607468
2.98750163959e-05
0.000262279824012
2.59765217592e-05
0.000237723982742
2.45052696595e-05
0.000216180699307
2.15075556328e-05
0.000194943987368
2.11783077692e-05
0.000172162875721
2.27296722168e-05
0.000149015811737
2.30729922069e-05
0.000125534746778
2.34071970297e-05
9.92793036048e-05
2.61675185864e-05
6.83901433293e-05
3.07844139563e-05
3.31290452432e-05
3.51300636233e-05
3.30634172986e-05
0.000894629938189
-0.00174193070439
0.00184454392597
-0.00183917579341
0.00278923615928
-0.00183186191781
0.00372534118914
-0.00181607656
0.00465038448852
-0.00179494054587
0.00556182214776
-0.00176873500783
0.00645722037117
-0.00173769656021
0.00733421097319
-0.00170211098134
0.00819063442322
-0.0016622601304
0.0090244238907
-0.00161847331508
0.00983375538188
-0.00157105905016
0.0106168961351
-0.00152036709387
0.0113723716561
-0.00146670716288
0.0120987815246
-0.00141042286721
0.0127949844139
-0.00135179853153
0.0134598826162
-0.00129114622734
0.0140926258778
-0.00122870162698
0.0146923667493
-0.00116472486705
0.0152584844052
-0.00109938627167
0.015790314025
-0.00103288140808
0.016287391799
-0.000965307550717
0.0167491625033
-0.000896792573058
0.0171752462517
-0.000827362940215
0.0175651292524
-0.000757085204369
0.0179184515004
-0.000685926463669
0.0182346863844
-0.000613906213905
0.0185134463769
-0.000540950767052
0.0187541582127
-0.000467052387326
0.0189563812844
-0.00039212028374
0.0191194863591
-0.000316142955758
0.0192429801349
-0.000239040883638
0.0193261998009
-0.000160825293634
0.0193686296078
-8.1456981973e-05
0.0193696224989
-9.98607150224e-07
0.0193286985917
8.05149487145e-05
0.0192453104405
0.000162942474921
0.019119103817
0.00024614555634
0.0189497421132
0.000329883042649
0.0187371083305
0.000413891561542
0.0184812041674
0.00049782049402
0.0181822702465
0.000581275149872
0.0178407729466
0.000663803077595
0.0174574215055
0.000744891244846
0.0170332513123
0.000824010839899
0.0165695238144
0.00090056059901
0.016067909733
0.000973970573412
0.0155302720233
0.00104358503578
0.0149589474648
0.00110881724877
0.0143564328217
0.0011689690145
0.0137257592331
0.0012234228378
0.0130701183595
0.00127140562423
0.0123933145055
0.00131221225139
0.0116993618594
0.00134494588645
0.0109929682355
0.00136879044927
0.0102790917982
0.00138278711236
0.00956336456078
0.00138617899759
0.00885155516944
0.00137825485599
0.00814985178747
0.00135872553598
0.00746422573344
0.00132757236714
0.00680060022406
0.00128535534944
0.00616417127569
0.00123302676654
0.0055595437875
0.00117211654912
0.00499012075453
0.00110444657416
0.00445837904571
0.00103210017862
0.00396566071184
0.000956836406598
0.00351275839823
0.000880132096344
0.00309970279354
0.000803175040084
0.00272601579503
0.000727278769146
0.00239040871068
0.000653675844702
0.00209112960344
0.000583512248877
0.00182587027794
0.000517599031144
0.00159214787517
0.000456527208567
0.00138721745653
0.000400595738711
0.00120835719612
0.00034997925392
0.00105276009809
0.00030464800097
0.000917794226227
0.000264453007825
0.000800933049635
0.00022904219776
0.000699953850725
0.00019800702919
0.000612810152356
0.000170877016273
0.000537743101827
0.000147226804052
0.000473149915605
0.000126619036343
0.000417658453655
0.000108664528304
0.000369962087869
9.29762185939e-05
0.000328681304597
7.92247430883e-05
0.000291214662908
6.73013531161e-05
0.000258440102864
5.87145280072e-05
0.000231937443188
5.09645530589e-05
0.000209775844083
4.36261413732e-05
0.000189429192691
4.14744246592e-05
0.000168969881669
4.31316987429e-05
0.000146678842754
4.52956771417e-05
0.000123210905065
4.68014308134e-05
9.8249882925e-05
5.10407958094e-05
6.92657523618e-05
5.96647152623e-05
3.39571122678e-05
7.03220690918e-05
6.69614004812e-05
0.000902847704713
-0.00264476703442
0.00185844295413
-0.00279475962201
0.00280985327207
-0.0027832599052
0.00375275069787
-0.00275896168868
0.00468440797904
-0.00272658254133
0.0056022119184
-0.00268652419778
0.00650367053683
-0.00263913612186
0.00738640734774
-0.00258482929856
0.00824821929906
-0.00252404804321
0.00908704829883
-0.00245727867728
0.00990103550992
-0.00238501578593
0.0106884747854
-0.00230777607392
0.0114478664346
-0.00222606033783
0.0121778544376
-0.00214037222056
0.0128772808077
-0.00205117660555
0.0135451078036
-0.00195892429625
0.0141804742027
-0.00186400788917
0.0147826043159
-0.00176679354939
0.0153508679211
-0.00166757551036
0.01588467877
-0.00156661576721
0.016383560512
-0.00146409802164
0.0168470379988
-0.00136017553974
0.0172747112691
-0.00125492489484
0.0176661431848
-0.00114840118007
0.0180209428945
-0.00104059131734
0.0183386530284
-0.000931475109663
0.0186188425916
-0.000820977962329
0.0188609968456
-0.000709035831896
0.0190646185284
-0.000595547838432
0.0192291238718
-0.000480443292553
0.0193539499463
-0.000363636615214
0.0194384607439
-0.000245092222597
0.0194820578984
-0.000124783308668
0.0194841024443
-2.75601055783e-06
0.0194440240616
0.000120908316896
0.019361263565
0.000246036867642
0.0192353745173
0.000372396053998
0.0190659908023
0.000499649102448
0.0188529114479
0.000627378684723
0.0185960961331
0.000755065067488
0.0182957219428
0.00088209908787
0.0179522077008
0.00100778670782
0.0175662306318
0.00113134964467
0.0171387785272
0.0012519588251
0.0166711168976
0.00136871793729
0.0161648671262
0.00148072172659
0.0156219236802
0.00158701479656
0.0150445590262
0.00168666217633
0.0144353057635
0.00177867266308
0.0137970965424
0.00186206442647
0.0131331438932
0.00193574985002
0.0124471270044
0.00199859436015
0.0117430961502
0.00204929609628
0.0110256885475
0.00208648872492
0.0103000204245
0.00210870087695
0.00957183702101
0.00211458336149
0.00884728002264
0.00210299364779
0.00813286596447
0.00207330592494
0.00743509648814
0.00202547763477
0.00676033177534
0.0019602479198
0.00611429824915
0.00187916606714
0.0055019207871
0.00178459477676
0.00492680336194
0.00167964681848
0.00439117780042
0.00156780432617
0.00389612068968
0.00145195067872
0.00344219258725
0.00133410625872
0.0030294764134
0.0012159135563
0.00265742067644
0.00109934677744
0.00232462119921
0.000986469801233
0.00202902986956
0.000879095551698
0.00176810008025
0.000778511468712
0.0015390782126
0.000685534413532
0.00133906493854
0.000600589149369
0.00116514529062
0.000523881175809
0.00101437507675
0.000455394469194
0.000883940031708
0.000394863943657
0.000771238375361
0.00034171303662
0.000673989418897
0.000295224342261
0.00059017104124
0.000254658193013
0.000518019648212
0.000219340937077
0.000455969147131
0.000188628830762
0.00040266083346
0.000161933189468
0.000356860637667
0.000138735306579
0.000317401800661
0.000118645266044
0.000282867289189
0.000101796290385
0.000252409128744
8.91328303754e-05
0.000224118294871
7.92112950487e-05
0.000197742686008
6.99565800661e-05
0.000176246413985
6.29200972543e-05
0.000158586620465
6.07329622633e-05
0.000136690270902
6.71237145421e-05
0.000110985802418
7.24309168162e-05
8.45760108344e-05
7.73685762485e-05
5.60835866959e-05
8.80637773039e-05
2.84822010501e-05
9.78220152013e-05
9.53926002148e-05
0.000911290236718
-0.00355604680993
0.00187489282554
-0.00375835362832
0.00283440013785
-0.00374275582395
0.0037852624387
-0.00370981248867
0.00472462357717
-0.00366593006446
0.00564978968057
-0.00361167579557
0.00655820362975
-0.0035475330711
0.00744745173165
-0.00347405890506
0.00831529208318
-0.00339186665676
0.00915965428409
-0.00330161705747
0.00997866144498
-0.00320399504633
0.010770618458
-0.00309970244669
0.0115340275903
-0.00298943380758
0.0122675657933
-0.00287387128467
0.0129700947272
-0.00275366034745
0.0136406281358
-0.00262940815532
0.0142783375954
-0.00250166055998
0.0148825117069
-0.00237090549168
0.0154525596941
-0.00223755276614
0.0159879651136
-0.00210194384818
0.0164882901273
-0.00196433560937
0.0169531270605
-0.00182491701076
0.0173821063528
-0.00168379693286
0.017774849232
-0.00154102708428
0.0181309815922
-0.00139659298227
0.0184500902307
-0.00125044140463
0.0187317436654
-0.00110247322871
0.0189754535677
-0.000952573741553
0.019180702587
-0.000800606783398
0.0193469124812
-0.000646446919797
0.0194734788025
-0.000489976278092
0.0195597474015
-0.000331115524943
0.0196050561623
-0.000169824156568
0.0196087229276
-6.13381638543e-06
0.0195700933139
0.000159851454773
0.0194885417389
0.000327925037254
0.0193635236715
0.000497776531372
0.0191945900663
0.000668969422124
0.0189814394078
0.000840941745872
0.0187239435303
0.00101299702866
0.0184221922855
0.00118430936868
0.0180765261862
0.00135393184782
0.0176875641926
0.00152080718877
0.0172562370119
0.00168379408587
0.0167837880125
0.00184168054664
0.0162718022331
0.00199322185961
0.0157221757472
0.00213714606452
0.0151371418601
0.0022721867027
0.0145192200558
0.00239705911314
0.0138712591801
0.00251046240144
0.0131964037852
0.00261100348805
0.0124981962376
0.00269716385828
0.0117806078213
0.00276720206155
0.0110482076607
0.00281916682393
0.0103062201094
0.00285092571089
0.00956062477599
0.00286037919678
0.00881805034013
0.00284573914699
0.00808560774716
0.00280589120164
0.00737055577862
0.00274065404567
0.00668005387822
0.00265085978428
0.00602062661544
0.00253868904988
0.00539790370484
0.00240740484623
0.00481577022633
0.00226185539711
0.00427595548459
0.00210768781582
0.00377879500042
0.00194916049095
0.00332452608976
0.00178840710542
0.00291343294604
0.00162701785523
0.00254501378646
0.00146776103817
0.00221761888622
0.00131384867919
0.00192872110427
0.00116797157962
0.00167531444831
0.00103189437645
0.00145426444115
0.00090656221816
0.00126242931504
0.000792401469647
0.00109666842045
0.000689619943825
0.000953790719429
0.000598246582595
0.000830702124462
0.000517924614571
0.000724652742788
0.000447729939214
0.000633330884343
0.000386510938812
0.000554763760776
0.000333186639123
0.000487224456026
0.000286839556569
0.00042920164268
0.000246609506179
0.000379411589899
0.00021168096291
0.000336750646632
0.000181354535429
0.000300225806689
0.000155129739201
0.000269106602332
0.00013287590845
0.000238530143295
0.000119666708304
0.000210406936195
0.000107288967547
0.000185604449721
9.47110517367e-05
0.000161150325993
8.73221561027e-05
0.000136500523848
8.53249624069e-05
0.000117923343936
8.56366560892e-05
9.36583743e-05
9.66230664721e-05
6.61098961643e-05
0.000104838326145
4.31309803477e-05
0.000110962728366
2.21709284217e-05
0.000118695388552
0.000117516839328
0.000922209557264
-0.00447824766988
0.00189696711891
-0.00473310125114
0.0028674751266
-0.00471325481153
0.00382906450414
-0.00467139112084
0.00477877081758
-0.00461562457126
0.00571380826541
-0.00454669984108
0.00663154112427
-0.00446525061256
0.00752949796464
-0.00437199838863
0.00840539068842
-0.00426773938471
0.00925712316858
-0.00415332685858
0.0100828030511
-0.00402964884945
0.0108807405997
-0.00389761050563
0.0116494520644
-0.00375811155703
0.0123876487574
-0.00361203001611
0.0130942324091
-0.00346020086469
0.0137682753133
-0.00330340272605
0.0144090089189
-0.00314233958376
0.0150157967867
-0.00297763245788
0.0155881186891
-0.00280980626368
0.0161255393092
-0.00263928845039
0.0166276912522
-0.00246640259445
0.0170942432788
-0.00229137494665
0.0175248859286
-0.00211433488896
0.0179193028906
-0.00193532848116
0.0182771620838
-0.00175432412686
0.0185980924243
-0.0015712308311
0.0188816815088
-0.00138590680482
0.0191274586318
-0.00119818028833
0.0193348992062
-0.00100785988223
0.0195034145515
-0.000814757321878
0.0196323634792
-0.000618700918578
0.0197210499732
-0.000419557771915
0.0197687433127
-0.000217251367987
0.0197746862485
-1.17881378127e-05
0.0197381246925
0.000196725976998
0.0196583277051
0.000408059785063
0.019534626966
0.000621841473326
0.0193664478418
0.000837539108182
0.0191533557032
0.00105445169437
0.0188950944001
0.00127170222941
0.0185916326834
0.00148824014109
0.0182432035583
0.00170285271165
0.017850339702
0.00191418157981
0.0174139047845
0.00212075442853
0.0169351042668
0.00232101347038
0.0164154993585
0.00251336068082
0.0158569828833
0.00269618605042
0.0152617726829
0.00286790414858
0.0146323610384
0.0030269497
0.0139715098891
0.00317175897854
0.0132822320434
0.00330068553406
0.0125678636782
0.00341189221543
0.0118321736432
0.00350320369568
0.0110795800848
0.00357202881337
0.0103153513265
0.00361537310322
0.00954579354814
0.00363012352328
0.00877818871839
0.0036134889439
0.00802056124177
0.00356364677906
0.00728119870672
0.0034801200268
0.00656853031347
0.00336362075107
0.00589024314392
0.00321705831501
0.00525338876507
0.00304433197781
0.00466242764304
0.00285288302054
0.00411789702049
0.00265227516775
0.00361835977822
0.00244873562527
0.00316359985293
0.00224318251311
0.00275472928244
0.00203588087514
0.00239159386565
0.00183087388211
0.00207209071423
0.00163331847057
0.00179285350137
0.00144717391447
0.00155009582998
0.0012746185621
0.00134016395151
0.00111646382095
0.00115965641055
0.000972881807087
0.00100521950919
0.000844028971577
0.000873295120015
0.000730142342127
0.000760295322484
0.000630891714046
0.00066323286881
0.000544757276428
0.000579831430179
0.000469873939207
0.000508253343561
0.000404723388437
0.000446842960916
0.000348206177502
0.000394143584053
0.000299264203793
0.000348986120019
0.000256793534394
0.000310422570329
0.000219874138575
0.000277574862213
0.000187936061766
0.000249954756529
0.000160454337198
0.000223214604975
0.000146362344684
0.000196512626606
0.000133943532728
0.000166948743324
0.000124225315111
0.000139700193708
0.000114517820741
0.000114581066731
0.000110386106752
9.4125785631e-05
0.000106029687077
7.65752638521e-05
0.000114105598268
5.33517683491e-05
0.00012799151515
3.25186741593e-05
0.000131722605977
1.63212927919e-05
0.000134815670808
0.000133800153041
0.000935915845121
-0.00541415592847
0.00192495269031
-0.00572213274966
0.00290949050933
-0.00569778438421
0.00388471626083
-0.00564660831092
0.00484754681276
-0.00557844480863
0.00579508617759
-0.00549422755263
0.0067246043214
-0.00539475516964
0.00763355476773
-0.00528093318084
0.00851959282476
-0.00515375925607
0.00938058703329
-0.00501430011715
0.0102146282799
-0.00486366590506
0.0110200314303
-0.00470298594731
0.0117953347325
-0.00453338310449
0.0125392914544
-0.00435595062426
0.0132508598955
-0.0041717282371
0.0139291856489
-0.0039816820748
0.0145735832732
-0.0037866847902
0.0151835108581
-0.00358750115867
0.0157585457942
-0.00338477508193
0.0162983549465
-0.00317902369232
0.0168026685502
-0.0029706336267
0.017271250597
-0.00275986509497
0.0177038755396
-0.00254685763163
0.0181003032447
-0.00233164288408
0.0184602619082
-0.00211415730507
0.0187834298758
-0.00189426020302
0.0190694257266
-0.00167174976959
0.0193177970267
-0.00144638334598
0.0195280170217
-0.00121789501691
0.0196994800425
-0.000986017680816
0.0198315051981
-0.000750504265375
0.0199233394351
-0.000511149768488
0.0199741704232
-0.000267818218631
0.0199831406391
-2.04709701823e-05
0.0199493719733
0.000230806869574
0.0198719928422
0.000485777187577
0.0197501762548
0.000744023976308
0.0195831794074
0.00100493016419
0.0193703931408
0.00126766151025
0.019111389477
0.00153115789752
0.0188059761038
0.0017941338515
0.0184542425396
0.00205509169396
0.0180566075286
0.00231234483253
0.0176138508948
0.00256405597397
0.0171271357401
0.00280828394657
0.0165980106513
0.00304304172558
0.0160283871631
0.00326635631501
0.0154204986823
0.00347631908575
0.014776829626
0.00367111479829
0.0141000547061
0.00384899100738
0.0133929926752
0.00400815884241
0.0126586539439
0.00414658944772
0.0119004133414
0.00426175444035
0.0111223261484
0.00435036453601
0.0103295781567
0.00440833275865
0.00952881734343
0.00443103950939
0.00872826238652
0.00441417936294
0.00793721020522
0.00435479413455
0.00716526401564
0.00425215322909
0.0064227740748
0.0041061847355
0.00571885274035
0.0039210477429
0.00506362886978
0.00369961764388
0.00446302163828
0.00345354544681
0.00391470609298
0.00320063736029
0.00341289278482
0.00295057103857
0.00295689763862
0.00269916910018
0.00255057770487
0.00244217037666
0.0021947606938
0.00218664083733
0.00188639068444
0.00194163464918
0.00162050731408
0.00171300303944
0.00139202934791
0.00150304866296
0.00119664437933
0.00131180748066
0.00103084016733
0.00113864804625
0.000891238690564
0.000983595171295
0.000773755204898
0.000847588305015
0.000673822128622
0.000730788123488
0.000588067458124
0.000630471905963
0.000514464414948
0.000543435984725
0.000451530152583
0.00046761291542
0.00039769805309
0.000401991624472
0.000351498809714
0.000345415228441
0.000311919849814
0.000296324710867
0.00027815979001
0.000253587892513
0.000249563251164
0.000216488738058
0.000222027216243
0.000187947027335
0.000195404029291
0.000172940259381
0.000171059174903
0.000158240607626
0.000148529018681
0.000146704446733
0.000122981440431
0.000140009128067
9.75361215542e-05
0.000135772399954
7.2161117256e-05
0.000131346422888
5.5563320686e-05
0.000130641946132
4.20942950639e-05
0.000141393235645
2.54095131192e-05
0.000148342770319
1.25726354516e-05
0.000147586912185
0.000146336754099
0.000952617121743
-0.00636676801674
0.00195913955135
-0.00672864859017
0.00296084351088
-0.00669948322251
0.00395273330702
-0.00663849100533
0.00493157608914
-0.00655727963328
0.00589434297493
-0.00645698475184
0.00683818890228
-0.00633858967219
0.00776047525322
-0.00620320594974
0.00865878849106
-0.00605205647653
0.00953095350812
-0.00588644631123
0.0103750419607
-0.00570773238265
0.0111893746954
-0.00551729316013
0.0119725193615
-0.00531649831088
0.0127232820361
-0.0051066794481
0.0134406942285
-0.0048891017389
0.0141239940516
-0.00466493784568
0.0147726033547
-0.00443524415763
0.0153860999101
-0.00420094128273
0.0159641871775
-0.00396279881032
0.0165066612521
-0.00372142641022
0.0170133782025
-0.00347727068996
0.0174842216105
-0.00323061925532
0.0179190735536
-0.00298161014533
0.0183177883382
-0.00273024710472
0.0186801713942
-0.00247641773481
0.0190059616539
-0.00221991468453
0.0192948187608
-0.0019604569166
0.0195463129771
-0.00169771220644
0.0197599188283
-0.00143131898227
0.0199350110372
-0.00116091012793
0.0200708644972
-0.000886138822532
0.0201666573189
-0.000606703063029
0.0202214803366
-0.000322379569934
0.0202343520768
-3.3057306654e-05
0.0202042421335
0.000261227785531
0.0201301015818
0.000560255780647
0.0200109037102
0.000863589092804
0.0198456899919
0.00117054104034
0.0196336272727
0.00148015320301
0.0193740644464
0.00179118062828
0.0190665989789
0.00210209080586
0.0187111339897
0.00241107691458
0.0183079388756
0.00271608665723
0.0178576912363
0.00301487093941
0.0173615076461
0.00330504698355
0.0168209489509
0.00358418363426
0.0162379850785
0.00384989140056
0.0156149334901
0.00409992313024
0.014954327405
0.00433223633898
0.0142587904129
0.0045450027817
0.0135308921389
0.00473647581531
0.0127731518974
0.00490469614672
0.01198821871
0.00504698328252
0.0111794162526
0.0051594173486
0.0103514775236
0.00523645049715
0.00951140683029
0.00527125814261
0.00866871348138
0.00525696771202
0.00783465882135
0.00518893562986
0.00702006048523
0.00506681222883
0.0062384292335
0.00488787663298
0.00549943025414
0.00466010393906
0.00482058159008
0.00437851802253
0.00421198772459
0.00406218945743
0.0036643759127
0.00374828158182
0.00316078320389
0.00345416276521
0.0027008033057
0.00315911512799
0.00229652482684
0.00284638153296
0.00195085093037
0.00253223773776
0.00165827740251
0.00223412368916
0.00141066694675
0.00196053939305
0.00120076991188
0.00171287786184
0.00102354823861
0.00148897359408
0.000875931234339
0.0012862141211
0.000755165562314
0.0011043140979
0.000656441391731
0.000946269592188
0.00057294390958
0.000814242051759
0.000500653781251
0.000702721351828
0.000438423520961
0.000605621886146
0.000385672883975
0.000520318557526
0.000340848758501
0.000446766112654
0.000302190961387
0.000384022711965
0.000268985792135
0.000329478191004
0.000240580883116
0.000281943672481
0.000216641837208
0.000240381273213
0.000191551278572
0.000212991826832
0.000168560371036
0.000195883936474
0.00014438693942
0.000182364863959
0.000121156838497
0.000169882339427
9.79332462448e-05
0.000163177145463
7.81381257221e-05
0.000155510174286
5.71018829743e-05
0.000152323023089
3.85009380156e-05
0.000149184500474
2.98181130493e-05
0.000150019912822
1.87149545962e-05
0.000159384355494
9.18483529102e-06
0.000157054444335
0.000155491026289
0.000972508466196
-0.00733927305755
0.00199987406265
-0.00775601365338
0.00302203652713
-0.00772164184192
0.00403376293999
-0.00765021342902
0.005031638984
-0.00755514988817
0.00601247271111
-0.00743781138737
0.00697328102832
-0.00729938900774
0.00791131406619
-0.00714122795337
0.0088240762193
-0.00696480513975
0.00970934034398
-0.00677169419768
0.0105651563398
-0.00656352899367
0.0113898534311
-0.00634196737584
0.0121820369059
-0.00610865498153
0.0129405786445
-0.00586519005736
0.0136646020103
-0.00561308915423
0.0143534604483
-0.00535375503929
0.0150067106279
-0.00508844723135
0.0156240800856
-0.00481825720795
0.0162054310171
-0.00454408913283
0.0167507212271
-0.00426664825407
0.0172599647053
-0.00398643730321
0.0177331935362
-0.00370376191498
0.0181704234807
-0.00341874377636
0.018571624458
-0.00313134067701
0.0189366967523
-0.00284137060562
0.0192654527974
-0.0025485381959
0.0195576034613
-0.00225246093057
0.0198127480646
-0.0019526947886
0.0200303664462
-0.00164875889563
0.0202098137164
-0.00134016104056
0.0203503169782
-0.00102642663717
0.0204509761103
-0.000707125943235
0.0205107697327
-0.000381914694723
0.0205285692537
-5.05740467696e-05
0.0205031608194
0.000286945063135
0.0204332786037
0.000630475112172
0.0203176483106
0.000979586704394
0.0201550415625
0.00133354709055
0.0199443410858
0.00169128662741
0.0196846111361
0.00205137738325
0.0193751777389
0.00241202609219
0.0190157019844
0.00277108737694
0.0186062590865
0.00312609562627
0.0181473959067
0.00347432469686
0.0176401814438
0.00381286895486
0.0170862172219
0.00413875893076
0.0164876093284
0.00444910247206
0.0158468661379
0.00474124552193
0.015166712599
0.00501293365108
0.0144498235663
0.00526238590059
0.0136985287997
0.00548821011376
0.0129146239619
0.00568896372492
0.0120995634273
0.00586235107586
0.0112551550851
0.00600404500442
0.0103850211938
0.00610675980997
0.00949624952181
0.00616014338729
0.00860048439758
0.00615282683652
0.00771230602261
0.00607716443548
0.00684239222185
0.00593677617595
0.00601063023505
0.00571968168112
0.00522090503122
0.00544986904773
0.00451030711724
0.00508915776213
0.00390136038621
0.00467116596242
0.00336784755929
0.00428180408648
0.00286266117169
0.00395932837553
0.00238993604825
0.0036317729779
0.00198528853374
0.00325092582076
0.00165447345823
0.00286294747563
0.00138519454475
0.00250329515281
0.00116282154971
0.00218282285616
0.000976588643394
0.00189902910182
0.000820894289231
0.00164460537265
0.000694552965553
0.00141249330713
0.00059729794602
0.00120152328026
0.000523415203627
0.0010201030351
0.000460423973897
0.000877196075548
0.000403086174881
0.000760018328404
0.000353031266042
0.000655639223296
0.000311886400485
0.000561418030874
0.000277693039581
0.000480910214378
0.000247396281906
0.000414266378827
0.000221162004553
0.000355658318638
0.000198324071304
0.000304729213517
0.000178584655483
0.000260071101065
0.000157261675304
0.000234265901855
0.000137372351551
0.000215724131043
0.000117025621427
0.00020266064155
9.48795382524e-05
0.000191975281079
7.49826181485e-05
0.000183018761578
5.51505891685e-05
0.000175285087857
4.15535359958e-05
0.000165863498146
2.77359692602e-05
0.000162945283222
1.81371942166e-05
0.000159560755414
1.27560935801e-05
0.0001647104572
5.9950382527e-06
0.00016376031713
0.000161455421204
0.000995802781007
-0.00833507602355
0.00204758118306
-0.00880779047794
0.00309368664757
-0.00876774770243
0.0041286041182
-0.00868512914525
0.00514869502382
-0.00857523830168
0.0061505727395
-0.00843968486243
0.0071310886208
-0.00827989896622
0.00808736112703
-0.00809749240016
0.00901679793484
-0.00789423150849
0.00991711144029
-0.00767199449404
0.0107863272241
-0.00743272848676
0.011622786262
-0.00717840662124
0.0124251407197
-0.0069109857931
0.0131923435135
-0.0066323648701
0.0139236310039
-0.00634434392258
0.0146184988471
-0.00604858486173
0.0152766705159
-0.00574657510148
0.0158980593559
-0.00543959582115
0.0164827248643
-0.00512869741502
0.0170308256742
-0.00481468408408
0.0175425713642
-0.00449810958489
0.0180181767007
-0.0041792845434
0.0184578205349
-0.00385829482014
0.0188616121595
-0.00353502843476
0.0192295651968
-0.00320920782032
0.0195615793363
-0.00288042343144
0.0198574270857
-0.00254816572693
0.0201167444738
-0.00221185391186
0.0203390222839
-0.0018708620708
0.0205235987308
-0.00152454501947
0.0206696522561
-0.00117226863465
0.0207761978311
-0.000813439157003
0.0208420882324
-0.000447550331344
0.0208660247656
-7.42312393758e-05
0.0208465773907
0.000306698405734
0.020782219243
0.000695168135797
0.0206713744295
0.00109079787333
0.0205124799659
0.00149284093329
0.0203040634008
0.00190013851704
0.020044827341
0.00231108501133
0.019733749643
0.00272361474062
0.0193701758339
0.00313520909202
0.0189539248422
0.00354293217627
0.0184853690323
0.00394349476925
0.0179655172056
0.00433335682002
0.0173960501058
0.00470886975314
0.016779307902
0.00506648082246
0.016118181996
0.00540298710143
0.015415837354
0.00571585443683
0.0146752801472
0.00600347041231
0.0138987262041
0.00626521618464
0.0130870798265
0.00650099343758
0.0122398064518
0.00670990970565
0.011355932192
0.00688814438307
0.0104363588364
0.00702648407807
0.00948756509474
0.00710904403801
0.00852495032802
0.00711549553155
0.00757061316674
0.00703154126419
0.00662842650223
0.00687897856828
0.00573667009747
0.00661143731055
0.00486478599488
0.00632175059193
0.00410597435449
0.00584797961218
0.00351917032201
0.00525794590914
0.00303721380711
0.00476376299506
0.00252663489005
0.00446988040263
0.00201506272414
0.00414322377306
0.00160405562779
0.0036618743308
0.00129791356235
0.00316893485114
0.00106524740596
0.00273590688725
0.000878440745156
0.00236950038576
0.000721574060607
0.00205586643362
0.00058913668205
0.00177693910523
0.000485120796447
0.00151649092199
0.000416763720917
0.00126980071309
0.000378103107748
0.00105873661202
0.000341241375149
0.000914013565933
0.000298262492173
0.000802962820127
0.000259276501636
0.000694590182093
0.000231256884278
0.000589391557751
0.000210260768343
0.000501860738022
0.000188611043726
0.000435863674977
0.000169849232926
0.000374364414177
0.000152838011413