/*--------------------------------*- C++ -*----------------------------------*\
| =========                 |                                                 |
| \\      /  F ield         | OpenFOAM: The Open Source CFD Toolbox           |
|  \\    /   O peration     | Version:  v1906                                 |
|   \\  /    A nd           | Web:      www.OpenFOAM.com                      |
|    \\/     M anipulation  |                                                 |
\*---------------------------------------------------------------------------*/
FoamFile
{
    version     2.0;
    format      ascii;
    class       volScalarField;
    location    "96";
    object      alpha;
}
// * * * * * * * * * * * * * * * * * * * * * * * * * * * * * * * * * * * * * //

dimensions      [0 0 -1 0 0 0 0];


internalField   nonuniform List<scalar> 
9216
(
99.9859897471
99.9901385608
99.989931132
99.989931132
99.9888861753
99.9896479488
99.9896479488
99.9896479488
99.9896479488
99.9896479488
99.9888015338
99.9873681226
99.9857754435
99.9857754435
99.9857754435
99.9857754435
99.9857754435
99.9857754435
99.9857754435
99.9857754435
99.9857754435
99.9857754435
99.9857754435
99.9857754435
99.9857754435
99.9857754435
99.9835906985
99.9835906985
99.9851833776
99.9866167888
99.9866167888
99.979748486
99.9789563955
99.9828881865
99.9846505183
99.9846505183
99.9846505183
99.9837100572
99.9837100572
99.9837100572
99.9837100572
99.9812825627
99.9812825627
99.9812825627
99.9812825627
99.9812825627
99.9812825627
99.9812825627
99.9812825627
99.9812825627
99.9812825627
99.9812825627
99.9812825627
99.9812825627
99.9812825627
99.9812825627
99.9812825627
99.9832170623
99.9837100572
99.9837100572
99.9837100572
99.9837100572
99.9837100572
99.9834335905
99.9803496848
99.9740895114
99.9701328782
99.9693407273
99.9671186278
99.9656827365
99.9643292046
99.9632797888
99.9623334589
99.9620269387
99.9617166226
99.9614995819
99.9608650703
99.9594782061
99.9574138802
99.9543749034
99.9493974004
99.939982611
99.9269203124
99.9062188904
99.876199057
99.8312401543
99.8094977993
99.7622369797
99.3251430584
95.4207453131
86.5024462371
66.0518329993
46.2915002473
28.6369746117
16.2463399368
2.43974853808
99.9888861753
99.989931132
99.9906929055
99.9906929055
99.9906929055
99.9906929055
99.9896479488
99.9888861753
99.9888861753
99.9888861753
99.9888861753
99.9888861753
99.9888861753
99.9888861753
99.985860085
99.985860085
99.985860085
99.9888861753
99.9888861753
99.9888861753
99.9880397603
99.9866063491
99.985665888
99.985665888
99.985665888
99.985665888
99.985665888
99.983481143
99.983481143
99.983481143
99.9810536486
99.9810536486
99.9790873781
99.9790873781
99.9790873781
99.9790873781
99.9790873781
99.9790873781
99.9790873781
99.9773177346
99.9757250555
99.9757250555
99.9757250555
99.9757250555
99.9757250555
99.9730278394
99.9730278394
99.9730278394
99.9730278394
99.9730278394
99.9730278394
99.9730278394
99.9730278394
99.9730278394
99.9730278394
99.9730278394
99.9730278394
99.9719144521
99.9689168563
99.9689168563
99.9689168563
99.9689168563
99.9689168563
99.9689168563
99.9733508922
99.9656985519
99.9610846368
99.9569303737
99.9531894423
99.9540471952
99.9520623662
99.9499988967
99.9485433169
99.9481277111
99.9478901926
99.9479383329
99.9480934835
99.9463681175
99.9512622328
99.947324988
99.9408748781
99.9463074382
99.9354638296
99.9290698269
99.9056897182
99.8736202452
99.8422541641
99.7922267435
99.6870933849
98.1644575676
92.2121476014
78.0516789523
58.5975006521
41.3281174552
27.3448751473
16.3910190899
99.9888861753
99.9906929055
99.9906929055
99.989931132
99.989931132
99.989931132
99.989931132
99.9888861753
99.9888861753
99.9888861753
99.9880397603
99.9880397603
99.9880397603
99.9880397603
99.9880397603
99.9870992992
99.9870992992
99.985665888
99.985665888
99.985665888
99.985665888
99.985665888
99.985665888
99.985665888
99.985665888
99.985665888
99.9818884639
99.9794609695
99.9794609695
99.977494699
99.977494699
99.9757250555
99.9757250555
99.9757250555
99.9730278394
99.9730278394
99.9730278394
99.9730278394
99.9730278394
99.9730278394
99.9730278394
99.9730278394
99.9730278394
99.9730278394
99.9700309327
99.9700309327
99.9700309327
99.9659199495
99.9622200647
99.9622200647
99.9588901683
99.9543224093
99.9543224093
99.9543224093
99.9543224093
99.9543224093
99.9543224093
99.9543224093
99.9543224093
99.9543224093
99.9543224093
99.9543224093
99.9543224093
99.9543224093
99.9507404524
99.9407920113
99.9299232806
99.9214866287
99.9139827454
99.9085304045
99.9143104315
99.9104584516
99.9074882908
99.9214223158
99.9199748415
99.915319387
99.9111664979
99.905860798
99.8995973699
99.9292529374
99.9204107217
99.9207648137
99.9021902152
99.8748097451
99.8408260041
99.8121924828
99.7338210161
99.6441733723
99.6599893835
99.2551648155
92.5062556804
77.7536313944
62.9824751988
50.5606573224
42.2755564769
30.0673229879
99.9896479488
99.989931132
99.989931132
99.989931132
99.989931132
99.989931132
99.9888861753
99.9888861753
99.9880397603
99.9880397603
99.9880397603
99.9880397603
99.9880397603
99.9870992992
99.985665888
99.985665888
99.985665888
99.985665888
99.985665888
99.985665888
99.985665888
99.985665888
99.9840732089
99.9840732089
99.9818884639
99.9794609695
99.977494699
99.9757250555
99.9757250555
99.9757250555
99.9730278394
99.9730278394
99.9730278394
99.9730278394
99.9730278394
99.9730278394
99.9730278394
99.9700309327
99.9700309327
99.9700309327
99.9700309327
99.9700309327
99.9625900532
99.9588901683
99.9588901683
99.9543224093
99.9543224093
99.9543224093
99.9543224093
99.9543224093
99.9543224093
99.9543224093
99.9543224093
99.9492471214
99.9492471214
99.9492471214
99.9492471214
99.9492471214
99.9492471214
99.9492471214
99.9492471214
99.9492471214
99.9492471214
99.9492471214
99.9467139754
99.9340661313
99.9204653186
99.9107596412
99.9023503257
99.8968890593
99.893323443
99.8907305929
99.8981005656
99.8961241117
99.8939295022
99.8915517831
99.8884490872
99.8828340936
99.8741790928
99.8580351641
99.8357498509
99.8088351883
99.8000710369
99.7561398069
99.7692850703
99.6944190341
99.5764356407
99.6581619844
99.5343412572
98.85576854
93.6024991018
84.3294976176
69.4611742803
64.0181256768
57.898381692
44.8001520263
99.9896479488
99.989931132
99.989931132
99.989931132
99.989931132
99.989931132
99.989931132
99.9880397603
99.9880397603
99.9880397603
99.9880397603
99.9880397603
99.9870992992
99.985665888
99.985665888
99.985665888
99.985665888
99.985665888
99.985665888
99.985665888
99.9840732089
99.9840732089
99.9840732089
99.9818884639
99.9794609695
99.9757250555
99.9757250555
99.9730278394
99.9730278394
99.9730278394
99.9730278394
99.9730278394
99.9730278394
99.9700309327
99.9700309327
99.9700309327
99.9700309327
99.9700309327
99.9667010363
99.9667010363
99.9588901683
99.9588901683
99.9543224093
99.9543224093
99.9543224093
99.9543224093
99.9543224093
99.9492471214
99.9492471214
99.9492471214
99.9492471214
99.9492471214
99.9492471214
99.9492471214
99.9436079127
99.9436079127
99.9436079127
99.9436079127
99.9436079127
99.9436079127
99.9436079127
99.9436079127
99.9436079127
99.9436079127
99.9294633512
99.900308125
99.8852134266
99.8721464698
99.8631146266
99.8618419473
99.8618419473
99.8618419473
99.8618419473
99.8641770552
99.867736517
99.8775191821
99.8799288306
99.877554856
99.8742999696
99.8652907582
99.8582830803
99.8552332608
99.8069336248
99.7582032117
99.6961172927
99.612172308
99.5016113988
99.4416330432
99.3675742946
97.4328643582
95.3700324742
90.8335243373
83.9566061522
76.768017615
76.0078145763
61.7131887675
99.9906929055
99.989931132
99.989931132
99.989931132
99.989931132
99.989931132
99.9890847171
99.9890847171
99.9880397603
99.9880397603
99.9880397603
99.9880397603
99.985665888
99.985665888
99.985665888
99.985665888
99.985665888
99.985665888
99.9840732089
99.9840732089
99.9840732089
99.9840732089
99.9840732089
99.9794609695
99.9757250555
99.9757250555
99.9730278394
99.9730278394
99.9730278394
99.9730278394
99.9730278394
99.9700309327
99.9700309327
99.9700309327
99.9700309327
99.9700309327
99.9667010363
99.9667010363
99.9588901683
99.9588901683
99.9543224093
99.9543224093
99.9543224093
99.9543224093
99.9492471214
99.9492471214
99.9492471214
99.9492471214
99.9492471214
99.9436079127
99.9436079127
99.9436079127
99.9436079127
99.9436079127
99.9373421252
99.9373421252
99.9373421252
99.9373421252
99.9303801391
99.9303801391
99.922644599
99.922644599
99.922644599
99.8653505753
99.8322835891
99.8100982768
99.8035744459
99.7758978802
99.7641076956
99.7641076956
99.7535458359
99.7367184211
99.7489525119
99.7736577451
99.7736577451
99.7736577451
99.7822527897
99.8146386768
99.8216006629
99.8159202616
99.8318309859
99.8102990485
99.7823322719
99.7669744852
99.7242070162
99.6380947064
99.5821156383
99.4423127582
99.1908296643
97.0492685824
95.2638402641
94.4125801656
92.163866043
87.888546673
88.304390751
78.3712345176
99.9906929055
99.989931132
99.989931132
99.989931132
99.989931132
99.9890847171
99.9890847171
99.9890847171
99.9880397603
99.9880397603
99.9880397603
99.985665888
99.985665888
99.985665888
99.985665888
99.985665888
99.985665888
99.9840732089
99.9840732089
99.9840732089
99.9840732089
99.9840732089
99.9818884639
99.9757250555
99.9730278394
99.9730278394
99.9730278394
99.9730278394
99.9730278394
99.9730278394
99.9700309327
99.9700309327
99.9700309327
99.9700309327
99.9700309327
99.9667010363
99.9630011515
99.9588901683
99.9543224093
99.9543224093
99.9543224093
99.9543224093
99.9492471214
99.9492471214
99.9492471214
99.9492471214
99.9436079127
99.9436079127
99.9436079127
99.9436079127
99.9436079127
99.9373421252
99.9373421252
99.9373421252
99.9303801391
99.9303801391
99.922644599
99.922644599
99.9140495544
99.9140495544
99.9140495544
99.8358337447
99.8005482273
99.7534965295
99.726107255
99.726107255
99.6956747278
99.6618608086
99.6618608086
99.6618608086
99.6465698505
99.6242897874
99.6242897874
99.6242897874
99.6618608086
99.6618608086
99.6618608086
99.6618608086
99.6956747278
99.6948180768
99.7141463859
99.7154960453
99.686684257
99.6869672751
99.6750446894
99.6658362201
99.5795943101
99.4550909237
99.2339202413
98.5067916903
96.5348084023
95.5348687381
95.8538071709
92.9588099254
92.2996632986
87.6812500764
99.9906929055
99.989931132
99.989931132
99.989931132
99.989931132
99.9890847171
99.9890847171
99.9890847171
99.9880397603
99.9880397603
99.9866063491
99.985665888
99.985665888
99.985665888
99.985665888
99.985665888
99.9840732089
99.9840732089
99.9840732089
99.9840732089
99.9840732089
99.9840732089
99.9757250555
99.9757250555
99.9730278394
99.9730278394
99.9730278394
99.9730278394
99.9700309327
99.9700309327
99.9700309327
99.9700309327
99.9700309327
99.9667010363
99.9667010363
99.9630011515
99.9588901683
99.9543224093
99.9543224093
99.9543224093
99.9492471214
99.9492471214
99.9492471214
99.9492471214
99.9436079127
99.9436079127
99.9436079127
99.9436079127
99.9436079127
99.9373421252
99.9373421252
99.9303801391
99.9303801391
99.922644599
99.922644599
99.9140495544
99.9140495544
99.9140495544
99.9044995049
99.8558005258
99.7899370611
99.7534965295
99.726107255
99.6956747278
99.6618608086
99.6242897874
99.6242897874
99.5825442082
99.5825442082
99.5825442082
99.5361602313
99.5361602313
99.5361602313
99.5361602313
99.5361602313
99.5361602313
99.5361602313
99.5825442082
99.5825442082
99.5825442082
99.6242897874
99.6242897874
99.6377378393
99.6283511344
99.6016552203
99.5561343867
99.4237441723
99.4218992159
99.3748890605
99.2015336578
98.3652900955
96.8173409726
96.5691661476
96.9735977185
94.8604362317
91.6095481019
99.9906929055
99.989931132
99.989931132
99.989931132
99.9890847171
99.9890847171
99.9890847171
99.9890847171
99.9880397603
99.9880397603
99.9866063491
99.985665888
99.985665888
99.9840732089
99.9840732089
99.9840732089
99.9840732089
99.9840732089
99.9840732089
99.9840732089
99.9840732089
99.977691326
99.9757250555
99.9730278394
99.9730278394
99.9730278394
99.9730278394
99.9700309327
99.9700309327
99.9700309327
99.9700309327
99.9700309327
99.9667010363
99.9667010363
99.9630011515
99.9588901683
99.9543224093
99.9543224093
99.9543224093
99.9492471214
99.9492471214
99.9492471214
99.9492471214
99.9436079127
99.9436079127
99.9436079127
99.9436079127
99.9373421252
99.9373421252
99.9373421252
99.9303801391
99.9303801391
99.922644599
99.922644599
99.9140495544
99.9140495544
99.9044995049
99.9044995049
99.7899370611
99.7534965295
99.726107255
99.6956747278
99.6618608086
99.6242897874
99.5825442082
99.5825442082
99.5361602313
99.4846224793
99.4846224793
99.4846224793
99.4273583103
99.4273583103
99.4273583103
99.4273583103
99.4273583103
99.4273583103
99.4273583103
99.4273583103
99.4273583103
99.4846224793
99.4846224793
99.5361602313
99.5361602313
99.5771716735
99.5611413875
99.5273775789
99.4758241633
99.3803496479
99.2617739665
99.2082615836
99.1016405192
98.7504541348
97.5176159251
98.7268270356
97.3682268663
94.4535312539
99.9906929055
99.989931132
99.989931132
99.989931132
99.9890847171
99.9890847171
99.9890847171
99.9890847171
99.9880397603
99.9880397603
99.9866063491
99.985665888
99.9840732089
99.9840732089
99.9840732089
99.9840732089
99.9840732089
99.9840732089
99.9840732089
99.9840732089
99.9818884639
99.9757250555
99.9730278394
99.9730278394
99.9730278394
99.9730278394
99.9700309327
99.9700309327
99.9700309327
99.9700309327
99.9700309327
99.9667010363
99.9667010363
99.9630011515
99.9588901683
99.9543224093
99.9543224093
99.9492471214
99.9492471214
99.9492471214
99.9492471214
99.9436079127
99.9436079127
99.9436079127
99.9436079127
99.9373421252
99.9373421252
99.9373421252
99.9303801391
99.9303801391
99.922644599
99.922644599
99.9140495544
99.9140495544
99.9044995049
99.9044995049
99.8938883388
99.7781468766
99.726107255
99.6956747278
99.6618608086
99.6242897874
99.5825442082
99.5361602313
99.4846224793
99.4846224793
99.4273583103
99.4273583103
99.3637314559
99.3637314559
99.318502758
99.293034951
99.293034951
99.293034951
99.293034951
99.293034951
99.293034951
99.293034951
99.293034951
99.293034951
99.3637314559
99.3637314559
99.4273583103
99.4273583103
99.484128917
99.4915412268
99.4535383944
99.3573408152
99.2811611743
99.2369447365
99.1386692559
99.1360472254
99.0064515583
99.0165914189
98.9760390871
96.498881677
99.9906929055
99.989931132
99.989931132
99.989931132
99.9890847171
99.9890847171
99.9890847171
99.9890847171
99.9880397603
99.9866063491
99.9866063491
99.985665888
99.9840732089
99.9840732089
99.9840732089
99.9840732089
99.9840732089
99.9840732089
99.9840732089
99.9840732089
99.977691326
99.9757250555
99.9730278394
99.9730278394
99.9730278394
99.9700309327
99.9700309327
99.9700309327
99.9700309327
99.9700309327
99.9667010363
99.9667010363
99.9630011515
99.9588901683
99.9543224093
99.9543224093
99.9492471214
99.9492471214
99.9492471214
99.9492471214
99.9436079127
99.9436079127
99.9436079127
99.9436079127
99.9373421252
99.9373421252
99.9373421252
99.9303801391
99.9303801391
99.922644599
99.922644599
99.9140495544
99.9140495544
99.9044995049
99.9044995049
99.8631594627
99.7534965295
99.6956747278
99.6618608086
99.6242897874
99.5825442082
99.5361602313
99.4846224793
99.4846224793
99.4273583103
99.3637314559
99.3637314559
99.293034951
99.293034951
99.2144832789
99.2144832789
99.2144832789
99.2144832789
99.1427686245
99.1272036432
99.1272036432
99.1272036432
99.1272036432
99.2144832789
99.2144832789
99.2144832789
99.2144832789
99.293034951
99.293034951
99.3637314559
99.4273583103
99.404423574
99.3639605435
99.3009656641
99.3067511602
99.179360307
99.1176930967
99.1450272262
99.0376263863
99.1683513221
97.8697566026
99.9919829756
99.989931132
99.989931132
99.989931132
99.9890847171
99.9890847171
99.9890847171
99.9890847171
99.9880397603
99.9866063491
99.985665888
99.9840732089
99.9840732089
99.9840732089
99.9840732089
99.9840732089
99.9840732089
99.9840732089
99.9840732089
99.9823035655
99.9757250555
99.9730278394
99.9730278394
99.9730278394
99.9700309327
99.9700309327
99.9700309327
99.9700309327
99.9667010363
99.9667010363
99.9667010363
99.9630011515
99.9588901683
99.9543224093
99.9543224093
99.9492471214
99.9492471214
99.9492471214
99.9492471214
99.9436079127
99.9436079127
99.9436079127
99.9373421252
99.9373421252
99.9373421252
99.9303801391
99.9303801391
99.922644599
99.922644599
99.9140495544
99.9140495544
99.9044995049
99.9044995049
99.8938883388
99.8659250615
99.7534965295
99.6956747278
99.6618608086
99.6242897874
99.5361602313
99.4846224793
99.4846224793
99.4273583103
99.3637314559
99.293034951
99.293034951
99.2144832789
99.2144832789
99.1272036432
99.1272036432
99.1272036432
99.1272036432
99.0302262702
99.0302262702
99.0302262702
99.0302262702
99.0302262702
99.0302262702
99.0302262702
99.0302262702
99.1272036432
99.1272036432
99.1272036432
99.2144832789
99.2144832789
99.293034951
99.292489174
99.2885898472
99.3467128641
99.2970378969
99.2496798986
99.1742860557
99.1347279488
99.2086706151
99.0817691004
98.5597978122
99.9919829756
99.9912212021
99.9912212021
99.989931132
99.9890847171
99.9890847171
99.9890847171
99.9890847171
99.9880397603
99.9866063491
99.985665888
99.9840732089
99.9840732089
99.9840732089
99.9840732089
99.9840732089
99.9840732089
99.9840732089
99.9823035655
99.9757250555
99.9757250555
99.9730278394
99.9730278394
99.9700309327
99.9700309327
99.9700309327
99.9700309327
99.9667010363
99.9667010363
99.9667010363
99.9630011515
99.9588901683
99.9543224093
99.9543224093
99.9492471214
99.9492471214
99.9492471214
99.9436079127
99.9436079127
99.9436079127
99.9436079127
99.9373421252
99.9373421252
99.9373421252
99.9303801391
99.9303801391
99.922644599
99.922644599
99.9140495544
99.9140495544
99.9044995049
99.9044995049
99.8938883388
99.8659250615
99.726107255
99.6956747278
99.6242897874
99.5825442082
99.5361602313
99.4846224793
99.4273583103
99.3637314559
99.293034951
99.2144832789
99.2144832789
99.1272036432
99.1272036432
99.0302262702
99.0302262702
99.0302262702
99.0302262702
98.9224736336
98.9224736336
98.9224736336
98.9224736336
98.9224736336
98.9224736336
98.9224736336
98.9224736336
98.9224736336
98.9224736336
99.0302262702
99.0302262702
99.0302262702
99.1272036432
99.1272036432
99.2144832789
99.293034951
99.3177310562
99.2774425614
99.2108752228
99.2111270612
99.1001836013
99.1224396556
99.1478247178
98.6998200231
99.9919829756
99.9923822652
99.9912212021
99.989931132
99.9890847171
99.9890847171
99.9890847171
99.9890847171
99.9880397603
99.9866063491
99.985665888
99.9840732089
99.9840732089
99.9840732089
99.9840732089
99.9840732089
99.9840732089
99.9823035655
99.9823035655
99.9757250555
99.9730278394
99.9730278394
99.9730278394
99.9700309327
99.9700309327
99.9700309327
99.9667010363
99.9667010363
99.9667010363
99.9630011515
99.9588901683
99.9543224093
99.9543224093
99.9492471214
99.9492471214
99.9492471214
99.9436079127
99.9436079127
99.9436079127
99.9373421252
99.9373421252
99.9373421252
99.9303801391
99.9303801391
99.9303801391
99.922644599
99.922644599
99.9140495544
99.9140495544
99.9044995049
99.9044995049
99.8938883388
99.8820981542
99.726107255
99.6618608086
99.6242897874
99.5361602313
99.4846224793
99.4273583103
99.3637314559
99.293034951
99.2144832789
99.1272036432
99.1272036432
99.0302262702
99.0302262702
98.9224736336
98.9224736336
98.9224736336
98.9224736336
98.8027484817
98.8027484817
98.8027484817
98.8027484817
98.8027484817
98.8027484817
98.8027484817
98.8027484817
98.8027484817
98.8027484817
98.8027484817
98.8027484817
98.9224736336
98.9224736336
98.9224736336
99.0302262702
99.0302262702
99.1272036432
99.2144832789
99.2449569039
99.1762352226
99.1517437247
99.1443870089
99.0501091444
99.1903918484
98.6586739706
99.9919829756
99.9923822652
99.9923822652
99.9912212021
99.9890847171
99.9890847171
99.9890847171
99.9890847171
99.9880397603
99.9866063491
99.985665888
99.9840732089
99.9840732089
99.9840732089
99.9840732089
99.9840732089
99.9823035655
99.9823035655
99.9781525499
99.9757250555
99.9730278394
99.9730278394
99.9700309327
99.9700309327
99.9700309327
99.9667010363
99.9667010363
99.9630011515
99.9630011515
99.9588901683
99.9588901683
99.9543224093
99.9543224093
99.9492471214
99.9492471214
99.9436079127
99.9436079127
99.9436079127
99.9373421252
99.9373421252
99.9373421252
99.9303801391
99.9303801391
99.922644599
99.922644599
99.9140495544
99.9140495544
99.9140495544
99.9044995049
99.9044995049
99.8938883388
99.8820981542
99.726107255
99.6618608086
99.5825442082
99.5361602313
99.4273583103
99.3637314559
99.293034951
99.1272036432
99.1272036432
99.0302262702
98.9224736336
98.9224736336
98.8027484817
98.8027484817
98.8027484817
98.8027484817
98.8027484817
98.6697205353
98.6697205353
98.6697205353
98.6697205353
98.6697205353
98.6697205353
98.6697205353
98.6697205353
98.6697205353
98.6697205353
98.6697205353
98.6697205353
98.6697205353
98.8027484817
98.8027484817
98.8027484817
98.9224736336
98.9224736336
99.0302262702
99.1272036432
99.1728693889
99.1939672037
99.1159498404
99.1217877397
99.1000812968
99.0843309778
98.6310299213
99.9931440387
99.9923822652
99.9923822652
99.9923822652
99.9903747871
99.9890847171
99.9890847171
99.9890847171
99.9866063491
99.985665888
99.985665888
99.9840732089
99.9840732089
99.9840732089
99.9840732089
99.9823035655
99.9823035655
99.980337295
99.9757250555
99.9730278394
99.9730278394
99.9730278394
99.9700309327
99.9700309327
99.9667010363
99.9667010363
99.9630011515
99.9630011515
99.9588901683
99.9588901683
99.9543224093
99.9543224093
99.9492471214
99.9492471214
99.9436079127
99.9436079127
99.9436079127
99.9373421252
99.9373421252
99.9303801391
99.9303801391
99.9303801391
99.922644599
99.922644599
99.9140495544
99.9140495544
99.9044995049
99.9044995049
99.8938883388
99.8938883388
99.8820981542
99.726107255
99.6618608086
99.5825442082
99.4846224793
99.3637314559
99.2144832789
99.1272036432
98.9224736336
98.8027484817
98.8027484817
98.6697205353
98.6697205353
98.6697205353
98.6697205353
98.5219117059
98.5219117059
98.5219117059
98.5219117059
98.5219117059
98.5219117059
98.5219117059
98.5219117059
98.5219117059
98.5219117059
98.5219117059
98.5219117059
98.5219117059
98.5219117059
98.5219117059
98.5219117059
98.6697205353
98.6697205353
98.6697205353
98.6697205353
98.8027484817
98.8027484817
98.9224736336
98.9224736336
99.0302262702
99.1063649941
99.1525098731
99.0978352047
99.0940904346
99.0248054722
98.6762029332
99.9931440387
99.9923822652
99.9923822652
99.9923822652
99.9915358502
99.9903747871
99.9890847171
99.9890847171
99.9866063491
99.985665888
99.9840732089
99.9840732089
99.9840732089
99.9840732089
99.9823035655
99.9823035655
99.9823035655
99.9781525499
99.9757250555
99.9730278394
99.9730278394
99.9700309327
99.9700309327
99.9667010363
99.9667010363
99.9630011515
99.9630011515
99.9588901683
99.9588901683
99.9543224093
99.9543224093
99.9492471214
99.9492471214
99.9436079127
99.9436079127
99.9373421252
99.9373421252
99.9373421252
99.9303801391
99.9303801391
99.922644599
99.922644599
99.922644599
99.9140495544
99.9140495544
99.9044995049
99.9044995049
99.8938883388
99.8938883388
99.8820981542
99.726107255
99.6618608086
99.5361602313
99.4273583103
99.2144832789
98.8027484817
98.3576796732
97.972444041
97.972444041
97.972444041
97.972444041
98.1751996369
98.1751996369
98.1751996369
98.1751996369
98.1751996369
98.3576796732
98.3576796732
98.3576796732
98.3576796732
98.3576796732
98.3576796732
98.3576796732
98.3576796732
98.3576796732
98.3576796732
98.3576796732
98.3576796732
98.3576796732
98.5219117059
98.5219117059
98.5219117059
98.5219117059
98.5219117059
98.5219117059
98.6697205353
98.6697205353
98.8027484817
98.8027484817
98.9224736336
99.0302262702
99.0696057259
99.0529570681
99.0176699988
98.9953322395
98.700880887
99.9931440387
99.9923822652
99.9923822652
99.9923822652
99.9915358502
99.9903747871
99.9890847171
99.9890847171
99.9866063491
99.985665888
99.9840732089
99.9840732089
99.9840732089
99.9840732089
99.9823035655
99.9823035655
99.980337295
99.9757250555
99.9757250555
99.9730278394
99.9700309327
99.9700309327
99.9700309327
99.9667010363
99.9667010363
99.9630011515
99.9588901683
99.9588901683
99.9543224093
99.9543224093
99.9492471214
99.9492471214
99.9436079127
99.9436079127
99.9373421252
99.9373421252
99.9373421252
99.9303801391
99.9303801391
99.922644599
99.922644599
99.9140495544
99.9140495544
99.9140495544
99.9044995049
99.9044995049
99.8938883388
99.8938883388
99.8820981542
99.7534965295
99.6242897874
99.5361602313
99.2144832789
96.9096845617
94.1850262997
92.8210201231
92.7030829783
92.8210201231
92.8210201231
93.5389181108
94.7665236697
95.7608841725
96.5663161797
97.2187161056
97.496844495
97.7471600455
97.7471600455
97.972444041
97.972444041
97.972444041
98.1751996369
98.1751996369
98.1751996369
98.1751996369
98.1751996369
98.1751996369
98.1751996369
98.3576796732
98.3576796732
98.3576796732
98.3576796732
98.3576796732
98.3576796732
98.3576796732
98.5219117059
98.5219117059
98.5219117059
98.6697205353
98.6697205353
98.8027484817
98.9224736336
99.0278932402
99.0813833673
99.0659587588
98.9858170154
98.7329078966
99.9931440387
99.9923822652
99.9923822652
99.9923822652
99.9915358502
99.9915358502
99.9903747871
99.9890847171
99.9866063491
99.985665888
99.9840732089
99.9840732089
99.9840732089
99.9823035655
99.9823035655
99.980337295
99.9781525499
99.9757250555
99.9730278394
99.9730278394
99.9700309327
99.9700309327
99.9667010363
99.9667010363
99.9630011515
99.9588901683
99.9588901683
99.9543224093
99.9543224093
99.9492471214
99.9492471214
99.9436079127
99.9436079127
99.9373421252
99.9373421252
99.9303801391
99.9303801391
99.9303801391
99.922644599
99.922644599
99.9140495544
99.9140495544
99.9044995049
99.9044995049
99.9044995049
99.8938883388
99.8820981542
99.8689979491
99.7781468766
99.6242897874
99.4273583103
92.8210201231
89.0581010868
87.8423345409
86.4914828233
86.4914828233
86.4914828233
87.8423345409
87.8423345409
89.0581010868
90.1522909782
91.1370618803
92.8210201231
93.5389181108
95.2898713028
96.1847957552
96.5663161797
97.2187161056
97.2187161056
97.496844495
97.7471600455
97.7471600455
97.7471600455
97.972444041
97.972444041
97.972444041
97.972444041
98.1751996369
98.1751996369
98.1751996369
98.1751996369
98.1751996369
98.1751996369
98.3576796732
98.3576796732
98.3576796732
98.3576796732
98.5219117059
98.5945331343
98.6697205353
98.8027484817
98.9224736336
99.0808450477
99.1066984462
99.0082508546
98.6850314674
99.9931440387
99.9923822652
99.9923822652
99.9923822652
99.9915358502
99.9915358502
99.9903747871
99.9890847171
99.985665888
99.985665888
99.9840732089
99.9840732089
99.9840732089
99.9823035655
99.980337295
99.9781525499
99.9757250555
99.9757250555
99.9730278394
99.9700309327
99.9700309327
99.9667010363
99.9667010363
99.9630011515
99.9588901683
99.9588901683
99.9543224093
99.9543224093
99.9492471214
99.9492471214
99.9436079127
99.9436079127
99.9373421252
99.9373421252
99.9303801391
99.9303801391
99.922644599
99.922644599
99.9140495544
99.9140495544
99.9140495544
99.9044995049
99.9044995049
99.8938883388
99.8938883388
99.8820981542
99.8689979491
99.838269073
99.6242897874
94.1850262997
86.4914828233
83.3228183003
83.3228183003
83.3228183003
83.3228183003
83.3228183003
83.3228183003
83.3228183003
84.9905364703
84.9905364703
86.4914828233
86.4914828233
87.8423345409
89.0581010868
91.1342420069
92.0233556923
93.5389181108
94.7665236697
95.7608841725
96.5663161797
96.9096845617
97.2187161056
97.496844495
97.496844495
97.496844495
97.7471600455
97.7471600455
97.7471600455
97.972444041
97.972444041
97.972444041
97.972444041
97.972444041
98.1751996369
98.1751996369
98.1751996369
98.3576796732
98.3576796732
98.5219117059
98.5219117059
98.6697205353
98.8027484817
99.0302262702
99.0713159241
99.0365494534
98.631992924
99.9931440387
99.9923822652
99.9923822652
99.9923822652
99.9915358502
99.9915358502
99.9903747871
99.9880397603
99.985665888
99.985665888
99.9840732089
99.9840732089
99.9823035655
99.9823035655
99.980337295
99.9781525499
99.9757250555
99.9730278394
99.9730278394
99.9700309327
99.9667010363
99.9667010363
99.9630011515
99.9588901683
99.9588901683
99.9543224093
99.9543224093
99.9492471214
99.9436079127
99.9436079127
99.9436079127
99.9373421252
99.9373421252
99.9303801391
99.9303801391
99.922644599
99.922644599
99.9140495544
99.9140495544
99.9044995049
99.9044995049
99.8938883388
99.8938883388
99.8938883388
99.8820981542
99.8689979491
99.838269073
99.6242897874
89.0581010868
81.4697981115
79.4108867905
79.4108867905
81.4697981115
81.4697981115
81.4697981115
81.4697981115
81.4697981115
81.4697981115
83.3228183003
83.3228183003
83.3228183003
83.3228183003
84.9905364703
84.9905364703
86.4914828233
87.8423345409
89.0581010868
90.1522909782
92.0233556923
93.5389181108
95.2898713028
95.7608841725
96.5663161797
96.9096845617
97.2187161056
97.2187161056
97.496844495
97.496844495
97.496844495
97.7471600455
97.7471600455
97.7471600455
97.972444041
97.972444041
97.972444041
97.972444041
98.1751996369
98.1751996369
98.3576796732
98.5219117059
98.5219117059
98.8027484817
98.9224736336
99.0524291167
99.0690137956
98.5798382637
99.9931440387
99.9923822652
99.9923822652
99.9923822652
99.9915358502
99.9915358502
99.9903747871
99.9870992992
99.985665888
99.985665888
99.9840732089
99.9840732089
99.9823035655
99.980337295
99.9781525499
99.9757250555
99.9730278394
99.9730278394
99.9700309327
99.9700309327
99.9667010363
99.9630011515
99.9588901683
99.9588901683
99.9543224093
99.9492471214
99.9492471214
99.9436079127
99.9436079127
99.9373421252
99.9373421252
99.9303801391
99.9303801391
99.922644599
99.922644599
99.9140495544
99.9140495544
99.9044995049
99.9044995049
99.9044995049
99.8938883388
99.8938883388
99.8820981542
99.8820981542
99.8689979491
99.838269073
99.6242897874
84.9905364703
62.3194401931
67.9564513548
77.123207545
79.4108867905
79.4108867905
81.4697981115
81.4697981115
81.4697981115
81.4697981115
81.4697981115
81.4697981115
81.4697981115
81.4697981115
81.4697981115
81.4697981115
83.3228183003
83.3228183003
83.3228183003
84.9905364703
86.4914828233
87.8423345409
89.0581010868
91.1370618803
92.8210201231
94.1850262997
95.2898713028
96.1847957552
96.5663161797
96.9096845617
97.1957501746
97.2187161056
97.2187161056
97.496844495
97.496844495
97.7471600455