/*--------------------------------*- C++ -*----------------------------------*\
| =========                 |                                                 |
| \\      /  F ield         | OpenFOAM: The Open Source CFD Toolbox           |
|  \\    /   O peration     | Version:  v1906                                 |
|   \\  /    A nd           | Web:      www.OpenFOAM.com                      |
|    \\/     M anipulation  |                                                 |
\*---------------------------------------------------------------------------*/
FoamFile
{
    version     2.0;
    format      ascii;
    class       surfaceScalarField;
    location    "233";
    object      phia;
}
// * * * * * * * * * * * * * * * * * * * * * * * * * * * * * * * * * * * * * //

dimensions      [0 3 -1 0 0 0 0];
oriented        oriented;


internalField   nonuniform List<scalar> 
18240
(
0.000927281562713
-0.000925766005366
0.00185380591321
-0.000924886474296
0.00279077762754
-0.000935516436291
0.00372497873444
-0.000932508140013
0.00465106107123
-0.000924662411713
0.00556636224598
-0.000913552372905
0.00646775303261
-0.000900010705658
0.00735366702037
-0.000884105213021
0.00822127221165
-0.000866269238674
0.00906949666291
-0.000846352831891
0.00989558687434
-0.000824805350214
0.0106989121339
-0.00080138986193
0.0114767612921
-0.000776622499456
0.0122289436406
-0.000750184894127
0.0129527643682
-0.00072266240465
0.0136484620156
-0.000693642855174
0.0143133196597
-0.000663777083699
0.0149479715524
-0.000632547824377
0.0155496282396
-0.000600665945684
0.0161192709055
-0.000567500498417
0.0166539819665
-0.00053382006297
0.017155027086
-0.000498879154889
0.0176193094807
-0.000463502862569
0.0180483182223
-0.000426835723153
0.0184387405246
-0.000389762243794
0.0187922316969
-0.00035133007399
0.0191052495672
-0.000312486119858
0.0193795771791
-0.000272198611893
0.0196114596812
-0.000231482780833
0.019802787977
-0.000189252434934
0.0199496463353
-0.000146594362186
0.0200540407744
-0.000102392443746
0.0201119849161
-5.78135330754e-05
0.0201256415672
-1.1748414542e-05
0.0200910875795
3.45541607055e-05
0.0200107183445
8.21659924863e-05
0.0198808449061
0.000129752401259
0.0197042001469
0.000178314972044
0.0194775318178
0.000226435994687
0.0192040433868
0.000275020984072
0.0188811381308
0.00032257716967
0.0185126309591
0.000369895262128
0.0180967971572
0.000415425436804
0.0176382008638
0.000459838163049
0.0171361777954
0.000501553400072
0.016596145108
0.000541131206849
0.01601862641
0.00057700462212
0.0154099302265
0.000609658694931
0.0147717850551
0.00063760448165
0.0141113029438
0.000661319130059
0.013431264361
0.000679485487406
0.0127393174615
0.000692670527073
0.012038930671
0.000699834635534
0.0113378219667
0.000701729764684
0.0106396094334
0.000697669921941
0.00995150462518
0.000688632145357
0.00927669950302
0.000674279265733
0.00862137467549
0.000655765756848
0.00798785135114
0.000633019290647
0.00738094494499
0.000607268658528
0.00680187259954
0.000578595822072
0.00625396578765
0.000548199926469
0.00573730523171
0.00051621613059
0.00525381527988
0.000483725592611
0.00480257641793
0.000450831471903
0.00438433189528
0.000418435726612
0.00399740662631
0.000386557958673
0.00364166600929
0.000355900151821
0.00331495757175
0.000326382672261
0.00301657660687
0.000298519297268
0.00274414982247
0.000272140947206
0.00249666929145
0.000247604743651
0.00227174422878
0.000224675907648
0.00206826420585
0.000203593937805
0.00188396041237
0.000184086403172
0.00171775376836
0.000166311792866
0.00156758070078
0.000149982791381
0.00143247745148
0.000135200306347
0.0013106484157
0.000121661321101
0.00120136367405
0.000109373815456
0.00110335063209
9.78656284387e-05
0.00101686231303
8.65692353388e-05
0.000943942645495
7.27861090796e-05
0.000883300789478
6.07121159666e-05
0.000822064357557
6.11253614408e-05
0.000759788305985
6.23412563031e-05
0.000704500538825
5.520208708e-05
0.000656906240421
4.76495455818e-05
0.000605994620049
5.08502852948e-05
0.00054528533949
6.07525409356e-05
0.000479655636253
6.55851198631e-05
0.000409439572431
7.02366094036e-05
0.000326042495038
8.33934391734e-05
0.00022432473364
0.000101701849844
0.000107731785196
0.000116549652892
0.000107719504017
0.000931380723362
-0.00185561760563
0.001953913567
-0.00194577934447
0.0029607759256
-0.00194077576022
0.00395726299881
-0.00192732882437
0.00494288576957
-0.0019086847744
0.00591601101435
-0.00188499053975
0.00687422113302
-0.00185662304512
0.00781556871119
-0.00182374371759
0.00873761952574
-0.00178672638649
0.00963868082803
-0.00174568322249
0.010516477656
-0.00170101535532
0.0113696403377
-0.00165280194611
0.0121960704976
-0.00160147829606
0.0129947302562
-0.00154707897441
0.0137636839796
-0.00149006108643
0.0145022082966
-0.00143039346928
0.0152084949625
-0.00136853780583
0.0158820957556
-0.00130437652231
0.0165212776559
-0.0012383615251
0.0171258109833
-0.00117027509354
0.0176939762483
-0.00110055141447
0.0182256973542
-0.00102886859893
0.0187192078309
-0.000955644360715
0.0191745221603
-0.000880460347381
0.0195897778569
-0.000803727559184
0.0199650289392
-0.000724949138392
0.0202982891679
-0.000644546750066
0.0205896213679
-0.000561972106968
0.0208369154205
-0.000477680011041
0.0210402384245
-0.000391105166139
0.0211973927858
-0.000302764059961
0.0213084819458
-0.000212113444561
0.0213712929869
-0.00011975997641
0.0213860287654
-2.5229900896e-05
0.0213505769794
7.07461740114e-05
0.0212653474653
0.000168526989947
0.0211284853016
0.000267228620498
0.0209407501544
0.000367052998258
0.0207007348673
0.000466941540702
0.0204097195815
0.000566908614407
0.0200669545594
0.000665714074411
0.0196744224753
0.000763171120649
0.0192322411753
0.000857869540924
0.018743270595
0.000949429721958
0.0182086825129
0.00103630664051
0.0176323547235
0.00111796615859
0.0170166429703
0.00119279756888
0.0163665107177
0.00126019599024
0.0156855194969
0.0013186072481
0.0149796499352
0.00136750494497
0.0142535115259
0.00140558030226
0.0135138247004
0.00143259813663
0.0127658501468
0.00144772283539
0.0120165337845
0.00145122295971
0.0112711811861
0.00144290311395
0.0105363083906
0.00142362596667
0.00981661379668
0.00139382860032
0.00911759192569
0.00135486018791
0.0084428438006
0.00130760299926
0.00779648003671
0.00125366455623
0.00718076278158
0.00119413685246
0.00659829601038
0.00113066692026
0.0060499818699
0.00106435026031
0.00553700333247
0.000996682183174
0.00505907015596
0.000928588743274
0.00461619427161
0.000861277600896
0.00420718157044
0.000795406146749
0.00383120074778
0.000731844038407
0.0034864746382
0.000670960912417
0.0031716547589
0.000613305751175
0.00288467310961
0.000558993858716
0.00262394095568
0.000508310329085
0.00238732883297
0.000461178130488
0.00217321118855
0.000417692469678
0.00197955204998
0.000377652305044
0.00180481778211
0.000341033180783
0.00164715195939
0.000307569069766
0.00150517343682
0.000277170384453
0.00137722097979
0.000249544641411
0.00126202899699
0.000224558710418
0.00115795684665
0.00020187639953
0.00106327032725
0.000181247481625
0.000973837358989
0.000162163632128
0.000888841604902
0.000145696212748
0.000813216538604
0.000136710148189
0.000745841825098
0.000129710902689
0.000688843839203
0.000112170590809
0.000640576813
9.59178518765e-05
0.000593498834154
9.79134547649e-05
0.000542187169785
0.000112062337796
0.000480199642925
0.000127563084105
0.000409982198845
0.000140455630734
0.000331516525625
0.000161843300001
0.000236046466288
0.000197152643965
0.000115687684972
0.000236880640894
0.000223379960283
0.000951352401186
-0.00280542417047
0.00196819107556
-0.00296098256654
0.00297972575384
-0.00295068038255
0.0039826680297
-0.00292862044525
0.00497490946301
-0.0028992893585
0.00595435304597
-0.00286277230219
0.00691868750541
-0.00281931388844
0.00786578470811
-0.00276916624524
0.00879341250085
-0.00271270370353
0.00969964865876
-0.00265023240231
0.0105824657311
-0.00258217753671
0.0114402164721
-0.00250885628558
0.0122711087961
-0.00243071545013
0.0130737822787
-0.00234805198191
0.0138466726954
-0.00226130319279
0.0145886878489
-0.00217071180621
0.0152984573325
-0.00207667452276
0.0159751133249
-0.00197934947738
0.0166174247413
-0.00187906721883
0.0172246872065
-0.00177588028838
0.0177957422846
-0.00167004004579
0.0183299792711
-0.00156148773889
0.0188262450956
-0.00145039726168
0.0192839576041
-0.00133660888937
0.0197019123846
-0.00122023666992
0.0200795040925
-0.00110104575252
0.0204154409628
-0.000979119802831
0.0207090665554
-0.000854185933878
0.0209589929683
-0.000726337137353
0.0211645128102
-0.000595310265242
0.0213241668769
-0.000461255712068
0.0214372321811
-0.000323972889913
0.0215022412316
-0.00018372258905
0.0215185303981
-4.04318761439e-05
0.0214847305906
0.000105468916095
0.0214003565847
0.000253862857148
0.0212642872364
0.000404094136336
0.0210763739677
0.000555799268191
0.0208359299901
0.000708054189785
0.0205433331532
0.000860210084886
0.0201985393833
0.00101105302325
0.0198026553575
0.00115963541993
0.0193564919082
0.00130446110999
0.0188620823735
0.00144430273556
0.0183212864309
0.00157742376272
0.0177372321342
0.00170237732526
0.017112976129
0.00181727951373
0.0164528446548
0.00192059060829
0.0157611416204
0.00201045523133
0.0150433592305
0.00208547093649
0.0143049140142
0.00214410329825
0.0135521987344
0.00218543149866
0.012791329356
0.00220861592948
0.0120290382809
0.00221357722877
0.0112714593403
0.00220046096176
0.0105249136316
0.00217018875358
0.00979480394561
0.00212387980053
0.00908637085962
0.00206327129745
0.00840375443888
0.00199013165576
0.00775074140175
0.00190662454381
0.00712997993716
0.00181479025753
0.00654369174658
0.00171688088802
0.00599302742583
0.00161489487682
0.00547874961767
0.00151087372838
0.00500071520424
0.00140650078006
0.0045585152227
0.00130338833754
0.00415104812265
0.00120275636115
0.00377709422924
0.00110571372145
0.00343494921973
0.0010130008379
0.00312292738338
0.000925254006413
0.00283903551521
0.000842795557403
0.00258140645505
0.00076587858235
0.00234799804503
0.000694511707747
0.0021369619119
0.000628679866299
0.00194636265924
0.000568190146223
0.00177449005433
0.00051286681009
0.00161959564481
0.000462412558822
0.00148015260726
0.000416581342878
0.00135459686349
0.000375056260867
0.00124151422726
0.000337611727109
0.00113931809108
0.000304031734365
0.00104621948412
0.000274318552808
0.000958973327276
0.000249369117059
0.00087781030435
0.000226835390357
0.0008049236301
0.000209565639449
0.000742258635141
0.000192358097358
0.000677865977234
0.00017653795172
0.000612701843035
0.000161067682536
0.000560792658973
0.000149807346454
0.000519804997245
0.000153038751198
0.000458419324332
0.000188929291395
0.000379132280278
0.000219732250035
0.000294766303971
0.000246206943546
0.000199077570423
0.000292805964111
0.000101826237638
0.000334082114901
0.00032519041802
0.000962631800125
-0.0037665056728
0.00198410686408
-0.00398083121345
0.00300215941882
-0.00396709419052
0.00401220128132
-0.00393701754597
0.00501162288278
-0.00389706454647
0.0059980405222
-0.00384753487133
0.0069690971951
-0.00378871458961
0.00792255688017
-0.00372095933746
0.00885623008112
-0.00364471078302
0.00976810188814
-0.00356042663581
0.0106562217982
-0.00346862276762
0.0115188478968
-0.0033697967407
0.0123542982779
-0.00326448714512
0.0131611162503
-0.00315318171075
0.0139378826194
-0.00303639348275
0.0146834054063
-0.00291455168284
0.0153964923801
-0.00278809753521
0.0160761685174
-0.00265735834939
0.0167214088519
-0.00252266682306
0.0173313870309
-0.0023842190687
0.017905170978
-0.00224221983731
0.0184420062041
-0.00209672521045
0.018940977612
-0.00194781502543
0.0194013300812
-0.0017954198472
0.0198221008376
-0.00163951931781
0.0202024783383
-0.00147995292589
0.020541409118
-0.00131664234091
0.0208379937392
-0.00114938584437
0.0210910728618
-0.00097810194607
0.0212996582048
-0.000802609941085
0.021462502723
-0.000622891987526
0.0215785632453
-0.000438858454663
0.0216465624813
-0.00025063016837
0.0216654798598
-5.82943255757e-05
0.0216341114482
0.000137805057964
0.0215515835731
0.000337319358516
0.0214169166662
0.000539600314385
0.0212295539091
0.000743961430013
0.0209889326899
0.000949385740019
0.0206950176706
0.00115479615356
0.0203478818804
0.00135877299345
0.0199482328682
0.00155983134397
0.019497005033
0.00175615332762
0.0189958678966
0.00194586983975
0.0184468317129
0.00212681330847
0.0178527276612
0.00229680437134
0.0172168252295
0.00245343619032
0.0165432685682
0.00259437626953
0.0158366907715
0.00271720218656
0.0151025761518
0.00281973522817
0.0143468361789
0.00289994226975
0.0135760554651
0.00295629660589
0.0127969945198
0.00298771842737
0.0120167076819
0.00299389560005
0.0112419955676
0.00297516735102
0.0104794666521
0.00293270317044
0.00973504697336
0.00286825419718
0.00901409747444
0.00278416877628
0.00832107344722
0.00268307883146
0.00765971948764
0.00256789947032
0.00703282149283
0.00244159073901
0.00644241928094
0.00230718626329
0.00588964199284
0.00216756298937
0.00537495952699
0.00202545080154
0.00489810220963
0.00188324602046
0.00445832637801
0.00174305942995
0.00405437011017
0.00160660600395
0.00368469519609
0.00147529261088
0.00334744943258
0.00135015215105
0.00304067631663
0.00123194491518
0.00276227413287
0.00112111904899
0.00251016826185
0.00101791779685
0.00228225739871
0.000922359576583
0.0020765477619
0.000834336826528
0.00189108947623
0.000753598370842
0.00172407989911
0.000679834382918
0.00157379418566
0.000612657395746
0.00143866246445
0.000551677829642
0.00131719233037
0.000496490606181
0.00120801601004
0.000446754807116
0.00110979992814
0.00040221453131
0.00102124100153
0.000362845369054
0.000940788300239
0.000329792261268
0.000865177556945
0.00030241441448
0.000794286621415
0.000280431896137
0.000724889021372
0.000261727264269
0.000656545844436
0.000244851659746
0.000594681374484
0.000222907084745
0.000529112805008
0.000215348951162
0.000459281340009
0.000222843398878
0.000409111085672
0.000239080243588
0.000333969814462
0.000294857111194
0.000240965851656
0.000339176569578
0.000161160572746
0.000372583697241
8.41433653866e-05
0.000411064013383
0.000409298224657
0.000973848431491
-0.00473880543338
0.00200478997988
-0.00501014090996
0.00303243643622
-0.00499310460281
0.00405212199551
-0.00495505876618
0.00506107989939
-0.00490437584367
0.0060567674743
-0.00484156829504
0.00703674277027
-0.00476703185794
0.00799868822993
-0.00468123823324
0.00894038903738
-0.00458474127286
0.0098597808347
-0.00447813958702
0.0107549205783
-0.00436208160098
0.0116240372657
-0.00423722523821
0.0124654860818
-0.00410424856283
0.0132778000739
-0.00396380378102
0.0140596265602
-0.00381653309342
0.014809780032
-0.00366301777292
0.015527160958
-0.00350380137794
0.0162108110921
-0.00333933627863
0.0168598167354
-0.00317001696525
0.0174733691044
-0.00299612706707
0.0180506553333
-0.00281788537411
0.0185909275991
-0.00263539505838
0.0190933865488
-0.00244870284893
0.0195572627234
-0.00225775054215
0.0199816960195
-0.00206244598766
0.0203658315171
-0.00186261506022
0.0207086978689
-0.00165808173502
0.0210093179472
-0.0014486193567
0.0212665876747
-0.00123403831822
0.0214794016534
-0.00101413768172
0.0216465349078
-0.000788798412101
0.0217667837779
-0.000557933214471
0.0218388547153
-0.000321591128636
0.0218615213161
-7.99082222308e-05
0.0218335237527
0.000166787818223
0.0217537414358
0.000418026781952
0.0216211046755
0.000673093256253
0.0214347797565
0.000931081127768
0.0211940921257
0.00119079948894
0.020898717417
0.00145083612423
0.0205486123047
0.00170947676742
0.0201442041001
0.00196477911866
0.0196863264223
0.00221450715807
0.0191764020663
0.00245621450639
0.0186163827867
0.00268719417249
0.0180089233515
0.00290457432639
0.0173573249194
0.0031052928353
0.0166656918527
0.0032862232188
0.0159388614147
0.00344420208454
0.0151825092592
0.00357622028006
0.0144030120053
0.00367953543654
0.0136074361464
0.00375194073152
0.0128032616157
0.00379193005379
0.0119982169406
0.00379895523197
0.0111998835156
0.00377348958607
0.0104154731489
0.00371708590052
0.00965147280734
0.00363220231551
0.00891356202735
0.0035220163097
0.00820645771213
0.00339010208715
0.0075339798023
0.00324028842002
0.00689896126709
0.0030765088081
0.00630331023465
0.0029027329845
0.00574798834977
0.00272277288176
0.00523315838152
0.0025401700683
0.00475824953512
0.00235804123347
0.00432214540636
0.00217905513832
0.00392326096897
0.00200538467093
0.0035597032002
0.00183875295348
0.00322933351325
0.001680430894
0.00292989953665
0.00153129864622
0.00265908130591
0.00139186442848
0.00241459195423
0.00126234523688
0.00219419129492
0.00114270473803
0.00199575269214
0.00103272863054
0.00181725614232
0.000932052593134
0.00165683146342
0.000840222275211
0.00151274245097
0.000756711961472
0.00138341469029
0.000680974235623
0.00126741598684
0.000612457833019
0.00116348202769
0.000550658668316
0.00107053088685
0.00049513415852
0.000987710328077
0.000445639527129
0.000915627674524
0.000401843002453
0.000848670352191
0.000369344957438
0.000783969450893
0.000345101985534
0.000717922684157
0.000327743188775
0.000647514992884
0.000315225443297
0.000561747691582
0.000308636827772
0.000481438796785
0.00029562252883
0.000407115543344
0.000297133646276
0.000346284286801
0.000299877847467
0.000292712412004
0.000348402221447
0.000210715006428
0.000421160521666
0.000131094034159
0.0004521566369
6.67523614139e-05
0.000475343971607
0.000476030828099
0.000986749527126
-0.00572400816455
0.00203045992455
-0.00605223369866
0.0030706786817
-0.00603168688679
0.00410272854202
-0.00598546977935
0.00512377611789
-0.00592377726398
0.00613116979107
-0.00584731073734
0.00712238334243
-0.00575658647475
0.00809501904246
-0.005652208539
0.00904681456999
-0.00553486339483
0.00997565839469
-0.00540530385844
0.0108795945769
-0.0052643311457
0.0117568355371
-0.00511277524048
0.0126057579441
-0.00495147545675
0.0134249092912
-0.00478125839733
0.014212992196
-0.00460291865241
0.0149688641849
-0.00441719566158
0.0156915098738
-0.00422475778609
0.016380035229
-0.00402618110134
0.0170336289519
-0.00382194147174
0.0176515546192
-0.00361239877306
0.0182331052198
-0.00339780082839
0.0187775983268
-0.00317827531416
0.0192843286148
-0.00295384702671
0.0197525710387
-0.00272443660157
0.0201815354748
-0.00248988903223
0.0205703807962
-0.00224997606494
0.0209181731584
-0.00200443267903
0.0212239114209
-0.00175296034506
0.021486489596
-0.00149526960371
0.0217047340254
-0.00123108565866
0.021877370842
-0.000960195760828
0.0220030764999
-0.000682455209454
0.0220804547558
-0.000397848120205
0.0221081036655
-0.000106495540924
0.0220846051196
0.000191281759736
0.0220086103326
0.000494954968417
0.0218788433549
0.000803725268551
0.0216942033017
0.00111652361327
0.0214537790092
0.0014319574366
0.0211569617635
0.00174832515335
0.0208034650998
0.00206357730868
0.0203934400127
0.00237534789844
0.0199274951941
0.00268092995726
0.0194068103013
0.00297731971015
0.0188331595236
0.00326120349166
0.0182090263887
0.00352901284696
0.0175376386587
0.00377693079734
0.0168230854087
0.00400098055274
0.0160703519591
0.00419709313676
0.0152854008434
0.00436129135982
0.0144751328548
0.0044898860265
0.0136473222402
0.00457980285788
0.0128103799875
0.00462889672332
0.0119730457633
0.00463629170337
0.0111439455808
0.0046025693402
0.0103311861188
0.00452980470954
0.00954195771798
0.00442137380748
0.00878235896806
0.00428154387606
0.00805736976104
0.00411500803034
0.00737092671283
0.00392663757677
0.00672588589432
0.00372144773097
0.00612400347225
0.00350450452172
0.00556596784012
0.00328069517067
0.00505153120361
0.00305448994297
0.00457967627925
0.00282978216288
0.00414880201084
0.00260981857309
0.00375687124401
0.00239721171066
0.00340154677297
0.00219398145694
0.00308029687107
0.00200159510283
0.00279050435961
0.00182101583666
0.00252955412647
0.00165275051167
0.00229490897111
0.00149693670824
0.0020841455134
0.0013534237319
0.00189498941612
0.00122184700901
0.00172532624789
0.00110168359137
0.00157321715626
0.000992302222822
0.0014369010873
0.000893001298825
0.00131480263005
0.000803046360496
0.00120553108982
0.00072170348479
0.00110787804297
0.000648283877013
0.00102079332344
0.00058219225133
0.000942833974088
0.000523571273451
0.000872547628466
0.000472102898484
0.000804070876749
0.000437792201582
0.000737580758378
0.000411562264029
0.000666901923746
0.000398391363001
0.000600629631063
0.000381459841731
0.000538670502196
0.000370556660663
0.00046288961683
0.000371359207577
0.000379403577458
0.000380575312979
0.000291743299296
0.000387506525056
0.000234483907821
0.000405631182706
0.000184363890602
0.000471228680209
0.000114379189717
0.000522102229718
5.73506475816e-05
0.000532331340002
0.000533341871608
0.00100197849611
-0.00672444781994
0.00206142879265
-0.00711006040539
0.00311711709367
-0.0070857494567
0.00416431280199
-0.00703102957762
0.00520009702641
-0.00695792178398
0.0062217231004
-0.00686728840231
0.00722656894745
-0.00675977716862
0.00821215554021
-0.00663613023278
0.00917615374947
-0.00649718940341
0.0101164045359
-0.00634387263897
0.0110309222373
-0.00617716074079
0.0119179109309
-0.00599806751432
0.0127757585989
-0.00580762324277
0.0136030458037
-0.00560684059119
0.0143985283307
-0.00539669679036
0.0151611358639
-0.0051780984173
0.0158899426436
-0.00495186569811
0.0165841559713
-0.00471870133229
0.0172430772598
-0.00447918197893
0.0178660835258
-0.00423373724062
0.0184525842532
-0.00398265319852
0.0190020018285
-0.00372606551097
0.0195137313174
-0.00346397622889
0.0199871259872
-0.00319626026349
0.0204214651221
-0.0029226919587
0.0208159476234
-0.00264295994167
0.0211696690449
-0.00235669783004
0.0214816227311
-0.00206350317277
0.0217506847846
-0.00176297005309
0.0219756223546
-0.00145471416705
0.0221550867596
-0.00113840651836
0.022287631292
-0.000813804614051
0.022371718003
-0.000480799794662
0.0224057500404
-0.000139455626568
0.0223880969439
0.000209943556201
0.0223171455905
0.000566849027329
0.022191346116
0.000930402694585
0.0220092804253
0.00129939976855
0.0217697250332
0.00167225829976
0.0214717297563
0.00204699803153
0.0211146881667
0.00242123207576
0.0206984162334
0.00279216539299
0.0202232222874
0.00315660614441
0.0196899821925
0.00351097598805
0.019100213349
0.00385132836011
0.0184561598006
0.00417336062319
0.0177608925901
0.00447243913981
0.0170184238473
0.0047436363988
0.0162338393618
0.00498182086112
0.0154134064963
0.00518182132131
0.0145646436758
0.00533871309599
0.0136962530373
0.00544822638426
0.0128178897273
0.00550726935377
0.0119397183755
0.00551444677858
0.0110718181964
0.00547043519737
0.0102235587626
0.005378014845
0.00940300843321
0.00524185493694
0.00861672943863
0.00506775179416
0.00786991817047
0.00486173506386
0.00716665700043
0.00462980218641
0.00650983268978
0.00437816377424
0.00590101761783
0.00411320524371
0.0053404889925
0.00384110114274
0.00482743793206
0.00356742318775
0.00436021106751
0.00329689105457
0.00393658145024
0.00303333895929
0.00355392021313
0.00277977145539
0.00320934134688
0.00253846867343
0.00289981126863
0.00231104591549
0.00262226230422
0.00209849691805
0.00237370910026
0.00190124818473
0.00215132467364
0.00171927889929
0.00195246786608
0.0015522465823
0.00177470515217
0.00139958364807
0.0016158111869
0.0012605547636
0.00147377695829
0.00113431577442
0.00134680814554
0.0010199494964
0.00123333338415
0.000916500385987
0.00113201301482
0.000823001260491
0.00104177338137
0.000738499958266
0.000961885242284
0.000662054363398
0.000892179585031
0.000593252374698
0.000828011485617
0.000536244746961
0.000762063997765
0.000503710378545
0.000694051692305
0.000479546499169
0.000629665822577
0.000462743415532
0.000558154022723
0.000452934944336
0.000487732571922
0.000440934845031
0.000412465503801
0.000446578806797
0.00034402056105
0.000448972930681
0.000265539783513
0.000465935353828
0.000190284454355
0.000480842763075
0.000151607860745
0.000509881671291
9.87107299916e-05
0.000574940768247
4.9222231601e-05
0.000581751906444
0.000582543410012
0.00101985561192
-0.00774277250722
0.00209798836127
-0.00818659687437
0.00317208944315
-0.00815822956323
0.00423728255527
-0.00809459975705
0.00529054844719
-0.00800955425662
0.00632902283624
-0.00790412297662
0.0073499793957
-0.0077790830225
0.0083508402949
-0.00763533184123
0.00932920050902
-0.00747387858409
0.0102828386358
-0.00729583117098
0.0112097358547
-0.00710236724967
0.0121080800243
-0.00689471421724
0.0129762762649
-0.00667411335424
0.0138129406215
-0.00644179543888
0.014616898605
-0.00619894079144
0.0153871659622
-0.00594665327864
0.0161229329649
-0.0056859215378
0.0168235323289
-0.00541759711828
0.0174884105604
-0.005142365034
0.0181170874852
-0.00486073368354
0.0187091209495
-0.00457302262449
0.0192640666052
-0.00427936953296
0.0197814449207
-0.00397973788702
0.0202607100297
-0.00367393912952
0.0207012255775
-0.00336165493015
0.0211022462215
-0.00304246628616
0.0214629022263
-0.00271588156583
0.0217821910753
-0.00238136545735
0.0220589671999
-0.00203836936298
0.0222919414183
-0.00168636383863
0.0224796748348
-0.00132487193119
0.022620589168
-0.00095350857355
0.0227129725932
-0.00057203473711
0.0227550088351
-0.000180404755604
0.0227448022111
0.000221171591807
0.0226804326178
0.000632176392987
0.022560003653
0.00105172123866
0.0223817233307
0.00147850491471
0.0221439705605
0.00191076608656
0.0218453918515
0.00234626629688
0.0214849728588
0.00278226946714
0.0210621350637
0.00321555530728
0.0205767994908
0.00364242212001
0.0200294754567
0.00405871431063
0.0194213246158
0.0044598240976
0.018754265544
0.00484070313382
0.0180310833522
0.00519584317169
0.0172556027634
0.0055192843799
0.0164328898951
0.00580464962464
0.0155694839605
0.00604530330702
0.0146735738556
0.00623466069859
0.0137550395507
0.0063667710945
0.0128252025887
0.00643709421072
0.0118962388952
0.00644337282656
0.0109802797994
0.0063863500676
0.0100884896098
0.00626972376519
0.00923004525032
0.00610022099886
0.00841183268774
0.00588588723634
0.00763911266938
0.00563436301515
0.0069161625773
0.00535264913072
0.00624598825245
0.0050482201902
0.00562993555822
0.0047291290958
0.00506769634112
0.00440321263615
0.00455763734769
0.00407735591541
0.00409723972737
0.00375717297136
0.00368345416808
0.00344701605887
0.00331292557566
0.00315020282659
0.00298210364875
0.00286920410825
0.00268733824317
0.00260573500337
0.00242500527367
0.0023607679299
0.00219167119252
0.00213453426484
0.00198418123916
0.00192673459692
0.00179966341174
0.00173674096225
0.00163551430431
0.00156371342088
0.00148939698566
0.00140665558237
0.00135922827199
0.00126446805449
0.00124317420901
0.00113598588386
0.00113965011652
0.00102000564158
0.00104732187337
0.000915309185631
0.000965108174927
0.000820690887238
0.000892152939886
0.000734984675902
0.000827467589342
0.00065791297818
0.000763153647715
0.000600531919575
0.00070222014489
0.00056461625434
0.000641881276927
0.000539854202866
0.000583546134116
0.000521044176448
0.000520273611987
0.000516168423706
0.000445273396429
0.000515889178013
0.000371628526273
0.000520171847501
0.000294375955383
0.000526170981677
0.000237116754409
0.000523146572312
0.00017296516767
0.000544948810949
0.000122248014203
0.000560535481675
8.70796161776e-05
0.000610067616673
4.21519849431e-05
0.000626637139832
0.0006246542997
0.0010405791975
-0.00878183902195
0.00214046533045
-0.00928488298317
0.00323600488877
-0.00925217079039
0.00432215926291
-0.00917914161655
0.00539575823874
-0.00908153576049
0.0064538059057
-0.00896054117497
0.00749344400145
-0.00881708219381
0.00851198356601
-0.00865221895499
0.00950692130244
-0.00846715319877
0.0104759664846
-0.00826319915319
0.0114170506557
-0.00804176448531
0.0123283479206
-0.00780431182743
0.0132082737108
-0.00755233247524
0.0140554943311
-0.00728730006932
0.0148689110787
-0.00701063891213
0.0156476541881
-0.00672367371101
0.0163910496712
-0.00642759751147
0.0170985954088
-0.00612342615781
0.0177699125976
-0.00581197569072
0.0184047082558
-0.00549383365756
0.0190027201699
-0.00516935681514
0.0195636769538
-0.00483866822626
0.020087249826
-0.00450167886576
0.0205730223439
-0.00415810842977
0.0210204582997
-0.00380752211018
0.0214288851737
-0.00344936191792
0.0217974764597
-0.00308298397841
0.022125242801
-0.00270768868781
0.022411020551
-0.00232275352082
0.0226534650348
-0.00192746774758
0.0228510425228
-0.00152116453734
0.0230020297422
-0.00110326984627
0.0231045204765
-0.000673359756
0.0231564431966
-0.000231225133026
0.0231555942455
0.000223059529555
0.023099684649
0.000689058359231
0.0229864068225
0.00116590597024
0.0228135115819
0.00165223775017
0.0225789031862
0.00214614470659
0.0222807335214
0.00264513396774
0.0219175056365
0.00314612548446
0.021488160598
0.00364545310964
0.020992164541
0.00413889849399
0.0204295730911
0.00462170948397
0.0198011061431
0.00508862531904
0.0191082246455
0.00553384719919
0.0183532716964
0.00595099658136
0.0175396754274
0.00633301876158
0.0166722765127
0.00667213878619
0.0157577087484
0.0069599105723
0.0148048326927
0.00718754363893
0.0138249530516
0.00734664353671
0.0128316305963
0.00743036107961
0.0118399374709
0.00743503117392
0.0108649092542
0.00736127938511
0.00992050570157
0.00721403658392
0.00901717513187
0.00700344236904
0.00816162936211
0.00674134400722
0.00735873507521
0.00643716957546
0.0066131435376
0.00609811768262
0.00592829124492
0.00573293944432
0.00530528143106
0.00535200130389
0.00474290016678
0.00496545180178
0.00423830151924
0.00458183542294
0.0037877368819
0.00420762248493
0.00338712568769
0.00384752621162
0.00303225505904
0.00350498768639
0.00271880893675
0.0031825606748
0.00244240698304
0.00288207031647
0.00219870835825
0.00260440171205
0.00198374736108
0.00234944961853
0.00179402405403
0.00211642817319
0.00162644352649
0.00190429851923
0.00147824580635
0.00171189416451
0.00134698672118
0.00153789784635
0.00123051612359
0.00138092012094
0.00112696156871
0.00123952116703
0.00103472383883
0.00111222187815
0.000952481083034
0.000997529734237
0.000879198429782
0.000893950196295
0.000814138160397
0.000800018595771
0.000756641042799
0.000715383879582
0.000696013114435
0.000661132483317
0.000634763337841
0.000625837006913
0.000576370469223
0.000598213948032
0.000516591606153
0.000580788120584