/*--------------------------------*- C++ -*----------------------------------*\
| =========                 |                                                 |
| \\      /  F ield         | OpenFOAM: The Open Source CFD Toolbox           |
|  \\    /   O peration     | Version:  v1906                                 |
|   \\  /    A nd           | Web:      www.OpenFOAM.com                      |
|    \\/     M anipulation  |                                                 |
\*---------------------------------------------------------------------------*/
FoamFile
{
    version     2.0;
    format      ascii;
    class       volVectorField;
    location    "120";
    object      Ua;
}
// * * * * * * * * * * * * * * * * * * * * * * * * * * * * * * * * * * * * * //

dimensions      [0 1 -1 0 0 0 0];


internalField   nonuniform List<vector> 
9216
(
(-0.0100342650234 0.0100008475501 0)
(-0.0105998783922 0.0322755665875 4.06546631625e-27)
(-0.0106089768426 0.0549154478639 -6.80063016182e-31)
(-0.0105334537887 0.0776007343009 0)
(-0.01041911098 0.099967796823 0)
(-0.0102775545319 0.121936066765 0)
(-0.0101032663825 0.143424654261 0)
(-0.00990913967071 0.164352751524 0)
(-0.00968569004802 0.184653566289 0)
(-0.00944748375645 0.204261009493 0)
(-0.00918305503111 0.223122344132 0)
(-0.00890877432337 0.241186412895 0)
(-0.00861140254887 0.258414585152 0)
(-0.00830881882321 0.27477031504 0)
(-0.0079864096068 0.290228702342 0)
(-0.00766320091647 0.304767293931 0)
(-0.00732305925683 0.318373274909 0)
(-0.00698573119011 0.331036429968 0)
(-0.00663408498564 0.342754321544 0)
(-0.00628850964693 0.353527242489 0)
(-0.00593108601922 0.363361482484 0)
(-0.00558240799513 0.372266098671 0)
(-0.00522414038781 0.380254418472 0)
(-0.00487683626564 0.387342565635 0)
(-0.00452197928285 0.393549365353 0)
(-0.0041799754866 0.398896449401 0)
(-0.00383232978693 0.403407386702 0)
(-0.00349909304512 0.407107859227 0)
(-0.00316228891297 0.410024593098 0)
(-0.00284124104528 0.412187400302 0)
(-0.00251851947462 0.413624782444 0)
(-0.00221227859797 0.414370158155 0)
(-0.00190536167511 0.414451786492 0)
(-0.00161583732369 0.413903244877 0)
(-0.00132754608581 0.412756051966 0)
(-0.00105680627218 0.411043776333 0)
(-0.000788129017361 0.408796641373 0)
(-0.000536840861119 0.406048176843 0)
(-0.000288381439345 0.402827380329 0)
(-5.69583249092e-05 0.399166434285 0)
(0.00017099853973 0.395092853055 0)
(0.000382750953054 0.390637209552 0)
(0.000591034095989 0.385824133606 0)
(0.000783957154232 0.380681672915 0)
(0.000973344511595 0.375232614251 0)
(0.00114843852634 0.369501841347 0)
(0.00132011432722 0.363509674114 0)
(0.00147878142461 0.357278012425 0)
(0.00163428572268 0.350824454084 0)
(0.00177791161055 0.344168120865 0)
(0.00191869897726 0.337324068459 0)
(0.00204862638335 0.330308783721 0)
(0.00217591760289 0.323135258781 0)
(0.00229329136135 0.315817713174 0)
(0.00240815363052 0.308367371978 0)
(0.00251377433286 0.300796708547 0)
(0.00261692637478 0.29311582077 0)
(0.00271124846145 0.285335629796 0)
(0.00280278913398 0.27746597815 0)
(0.00288569704217 0.26951728326 0)
(0.00296571040238 0.26149877807 0)
(0.00303712728612 0.253420694954 0)
(0.00310523442056 0.245292425803 0)
(0.0031645654051 0.237124283261 0)
(0.00322037297693 0.228926005435 0)
(0.00326737211886 0.2207081389 0)
(0.00331028337476 0.212480636339 0)
(0.00334413171762 0.204254491019 0)
(0.00337375117393 0.196040494046 0)
(0.00339444319315 0.187849179302 0)
(0.0034110809058 0.179690863706 0)
(0.00341898711917 0.171575840419 0)
(0.00342293803846 0.163513958127 0)
(0.00341867178483 0.155514960387 0)
(0.00341100124196 0.147587483201 0)
(0.00339575903718 0.13974012768 0)
(0.00337767982902 0.131980244089 0)
(0.00335294906094 0.124315082925 0)
(0.00332616656379 0.116750149486 0)
(0.00329391412427 0.109290847314 0)
(0.00326033299172 0.10194056594 0)
(0.00322227373732 0.0947031677288 0)
(0.0031834715877 0.0875804760041 0)
(0.00314064671723 0.0805754860793 0)
(0.00309649707841 0.0736900766318 0)
(0.00304708930672 0.06692955724 0)
(0.0029918059862 0.0603003438513 0)
(0.00292131668954 0.0538208617596 0)
(0.00282676216294 0.0475064029954 0)
(0.00269817016203 0.0414402560139 0)
(0.00247911607528 0.0356734642037 0)
(0.00212945030596 0.0298647973996 0)
(0.00215601823354 0.0248813852002 0)
(0.00288210357883 0.020674497416 0)
(0.00410204439604 0.0143045138221 0)
(0.00551166593238 0.00550462746243 0)
(-0.03246075654 0.0106267084887 0)
(-0.0359040323871 0.03600883045 0)
(-0.0358664040361 0.0613428317563 -4.26782155343e-27)
(-0.0354586093455 0.0867525886862 0)
(-0.0348799473121 0.111772075251 0)
(-0.0341663458829 0.136333831281 0)
(-0.0333158249752 0.160350450148 0)
(-0.0323550018453 0.183735608498 0)
(-0.0312780694022 0.206412821862 0)
(-0.0301153473775 0.228310573402 0)
(-0.0288587802483 0.249368032722 0)
(-0.0275416315421 0.269530163931 0)
(-0.0261531489786 0.288752497068 0)
(-0.0247284844269 0.306996335456 0)
(-0.023254089222 0.324233276017 0)
(-0.0217657689123 0.340439055705 0)
(-0.0202469493533 0.355599392908 0)
(-0.0187335508042 0.369703706559 0)
(-0.017206309866 0.382750191987 0)
(-0.015700528378 0.39473975242 0)
(-0.0141945746096 0.405679668909 0)
(-0.012723038325 0.415580721109 0)
(-0.01126253671 0.424457799078 0)
(-0.00984668701651 0.432329187118 0)
(-0.00845094059565 0.439216492056 0)
(-0.00710768372992 0.445144018749 0)
(-0.00579169234966 0.450138159342 0)
(-0.00453407558607 0.454228746535 0)
(-0.00330934515148 0.457445227922 0)
(-0.00214703811528 0.459820489787 0)
(-0.00102191033782 0.461387854994 0)
(3.89508112249e-05 0.46218127418 0)
(0.00106072503362 0.462236889251 0)
(0.00201724691976 0.461590391894 0)
(0.00293263163868 0.460277543218 0)
(0.00378365816567 0.458334987225 0)
(0.00459419219304 0.45579798292 0)
(0.00534279015248 0.452702709196 0)
(0.0060521371599 0.449083163761 0)
(0.0067029580762 0.444974350441 0)
(0.00731688443032 0.440407902218 0)
(0.00787679498673 0.435415970056 0)
(0.00840306200533 0.430028471683 0)
(0.00888005032434 0.424275085082 0)
(0.00932691222309 0.418182391315 0)
(0.00972985910611 0.411777592358 0)
(0.0101068067656 0.405083205117 0)
(0.0104451909892 0.39812315584 0)
(0.0107610977773 0.390917888778 0)
(0.0110435888851 0.383487742415 0)
(0.0113074904838 0.375850249674 0)
(0.011542263998 0.368022821529 0)
(0.0117614019796 0.360020585612 0)
(0.0119554586856 0.351858511694 0)
(0.0121362333744 0.343549630644 0)
(0.0122947460053 0.335107127257 0)
(0.0124416589441 0.32654261009 0)
(0.0125682412074 0.317867990712 0)
(0.0126839522211 0.309094217863 0)
(0.0127804505246 0.300231781779 0)
(0.0128662919795 0.291291731478 0)
(0.0129332874778 0.282285000409 0)
(0.0129892942084 0.273222268414 0)
(0.0130263768762 0.264114873888 0)
(0.0130518860871 0.254972891686 0)
(0.0130581602861 0.245810035474 0)
(0.0130521550883 0.236636160761 0)
(0.0130264784112 0.227463977345 0)
(0.0129883521353 0.218305193271 0)
(0.0129307922877 0.209171324054 0)
(0.0128613527568 0.200074705516 0)
(0.0127733830815 0.191026525912 0)
(0.0126739567768 0.18203799766 0)
(0.0125575547638 0.173119946472 0)
(0.0124316895104 0.164282296355 0)
(0.0122905199971 0.155534482905 0)
(0.0121417085814 0.146885016891 0)
(0.0119804344367 0.138341971134 0)
(0.0118139259974 0.129911228883 0)
(0.0116384394849 0.121599399734 0)
(0.0114608427041 0.113410197089 0)
(0.0112765269358 0.10534624294 0)
(0.0110917446391 0.0974113687434 0)
(0.010901589994 0.0896062968617 0)
(0.0107097113476 0.0819334064448 0)
(0.01050928735 0.0743943507742 0)
(0.0102957334492 0.0669916810966 0)
(0.0100499476863 0.059732907589 0)
(0.00974849127803 0.0526164016362 0)
(0.00936934379441 0.0456549601877 0)
(0.00883224647427 0.03887449165 0)
(0.00799210663006 0.0319728896527 0)
(0.00756056137661 0.0247450707043 0)
(0.00937613767489 0.0195085851947 0)
(0.0127120453096 0.0126453533499 0)
(0.0143193738699 0.00409208687744 0)
(-0.0555382561721 0.0107527279359 0)
(-0.061519265972 0.0365525396377 0)
(-0.0613924046402 0.0621724200445 -4.27132769508e-27)
(-0.0606816346749 0.0879189791124 0)
(-0.0597093920003 0.113266738704 0)
(-0.0585104157405 0.138144700341 0)
(-0.0570944919145 0.162461225097 0)
(-0.0554853510635 0.18612939419 0)
(-0.0536938079966 0.209070369216 0)
(-0.0517472179336 0.231212646482 0)
(-0.0496566451181 0.252494073402 0)
(-0.0474510761488 0.272859941231 0)
(-0.0451403652096 0.292265173158 0)
(-0.0427537444309 0.310672132885 0)
(-0.0402986638886 0.328051831066 0)
(-0.0378031751703 0.344382408561 0)
(-0.035271917289 0.359649005291 0)
(-0.0327313859341 0.373843473935 0)
(-0.0301831381851 0.386962965281 0)
(-0.027651289087 0.399010458036 0)
(-0.0251346606111 0.409993707204 0)
(-0.0226553332867 0.419924609678 0)
(-0.0202098240145 0.428819058511 0)
(-0.0178185142209 0.436696253499 0)
(-0.0154761010216 0.443578543117 0)
(-0.0132012489742 0.449490803463 0)
(-0.0109871161566 0.454461196178 0)
(-0.0088504666759 0.458518396321 0)
(-0.00678346520995 0.461693433584 0)
(-0.00480149543594 0.464020162636 0)
(-0.00289580090253 0.465531484304 0)
(-0.00107985962431 0.466263929762 0)
(0.000656071142682 0.466252725813 0)
(0.00229993623533 0.465534930004 0)
(0.00386182803585 0.464147666855 0)
(0.00533190759859 0.462126661676 0)
(0.00672102944655 0.459508847178 0)
(0.00802077099471 0.45633038604 0)
(0.00924221031421 0.452626417546 0)
(0.0103789544477 0.448431644006 0)
(0.0114423926433 0.443779105711 0)
(0.0124272824192 0.4387010902 0)
(0.0133445556818 0.433228110702 0)
(0.0141898203982 0.427389557808 0)
(0.0149746135379 0.421213581662 0)
(0.0156956197249 0.414725281607 0)
(0.0163633144566 0.407949412752 0)
(0.0169751017596 0.400909707934 0)
(0.0175407292809 0.393626366001 0)
(0.0180579302121 0.386118660898 0)
(0.018535713906 0.378405657327 0)
(0.0189719091046 0.370503901447 0)
(0.0193744630608 0.36242769985 0)
(0.0197408664647 0.354192350611 0)
(0.020077847523 0.345810890411 0)
(0.0203829568879 0.337296159022 0)
(0.0206619492546 0.328659770126 0)
(0.0209117521462 0.3199130635 0)
(0.0211371471438 0.311066877646 0)
(0.0213346691632 0.302132111494 0)
(0.0215081026218 0.293119352359 0)
(0.0216537397492 0.284039367933 0)
(0.0217748947421 0.274902962715 0)
(0.0218677773251 0.265721173914 0)
(0.0219350339906 0.256505335019 0)
(0.0219729276113 0.247267389285 0)
(0.0219843900454 0.238018714245 0)
(0.0219659437201 0.228771251789 0)
(0.0219207535567 0.219537146829 0)
(0.0218458406732 0.210328568738 0)
(0.0217445556855 0.201156269583 0)
(0.0216146101703 0.192034141455 0)
(0.02146004304 0.182972928578 0)
(0.0212790318705 0.173982391946 0)
(0.0210761842074 0.165075467211 0)
(0.0208504194535 0.156260605421 0)
(0.0206066445693 0.147546539987 0)
(0.0203445833882 0.138941128277 0)
(0.0200693172481 0.130451414163 0)
(0.0197804176724 0.122080298476 0)
(0.0194837475068 0.113836799695 0)
(0.0191786474695 0.105720664184 0)
(0.0188696903843 0.097735446863 0)
(0.0185554308682 0.0898810902178 0)
(0.0182378242764 0.0821571535922 0)
(0.0179122497251 0.0745611905291 0)
(0.017572001714 0.067091693029 0)
(0.0172027331721 0.0597434606641 0)
(0.0167802764326 0.0525016454743 0)
(0.0162760889852 0.0453186079187 0)
(0.015676739685 0.0382273635517 0)
(0.0149135899857 0.0309440038479 0)
(0.0144259294878 0.0230885469452 0)
(0.0163972465089 0.0162802001863 0)
(0.0194302664159 0.00926783181438 0)
(0.0204748922944 0.00286320104002 0)
(-0.0791144930156 0.0108545282069 0)
(-0.0877019797096 0.0370341611598 0)
(-0.0875148554521 0.0629352075012 4.26934423603e-27)
(-0.0864875572602 0.0889849520197 0)
(-0.0850881975088 0.114623938914 0)
(-0.0833618735807 0.139777593179 0)
(-0.0813291375745 0.164350547789 0)
(-0.0790166124731 0.188253709874 0)
(-0.0764481679448 0.21140669521 0)
(-0.0736543887349 0.233737126688 0)
(-0.0706607571226 0.255182155661 0)
(-0.0674991496862 0.275687628512 0)
(-0.0641944016193 0.295208623688 0)
(-0.0607774624471 0.313708757984 0)
(-0.0572705394542 0.331159925525 0)
(-0.053701845642 0.34754129075 0)
(-0.050090277065 0.362839820922 0)
(-0.04646086892 0.377048594108 0)
(-0.0428285365724 0.390166744721 0)
(-0.0392147435593 0.402198599341 0)
(-0.0356307509301 0.413153307895 0)
(-0.0320947589922 0.423044059278 0)
(-0.028614749131 0.431888263992 0)
(-0.025206347922 0.439705496012 0)
(-0.021875262301 0.446519939291 0)
(-0.0186346095293 0.452357080241 0)
(-0.0154874572842 0.457244953636 0)
(-0.0124447094974 0.461214115443 0)
(-0.00950830814865 0.464296354499 0)
(-0.00668727855136 0.466525605783 0)
(-0.00398152307409 0.467937338613 0)
(-0.00139816731844 0.468566622461 0)
(0.00106462642102 0.468450957109 0)
(0.0034013470139 0.46762757901 0)
(0.00561545746253 0.466133952073 0)
(0.00770394625189 0.464007704276 0)
(0.00967135532718 0.46128579019 0)
(0.0115164061422 0.458005643264 0)
(0.0132448917619 0.454201816065 0)
(0.014857150289 0.44991003757 0)
(0.0163600538486 0.445164073816 0)
(0.0177549693788 0.439996089402 0)
(0.0190498000249 0.434438802425 0)
(0.0202465560427 0.428519328301 0)
(0.0213534846944 0.422265539771 0)
(0.0223735028386 0.415705276366 0)
(0.0233142983519 0.408860906492 0)
(0.0241789166632 0.40175636657 0)
(0.0249751544823 0.394412553167 0)
(0.025705937139 0.38684911853 0)
(0.0263780516397 0.379083796611 0)
(0.0269944078303 0.371133193334 0)
(0.0275608193433 0.363012183676 0)
(0.0280791521707 0.354735620389 0)
(0.028553804199 0.346314499773 0)
(0.0289857705617 0.337762055654 0)
(0.0293790379084 0.329089474525 0)
(0.0297335358984 0.320307544976 0)
(0.0300516637802 0.311426777445 0)
(0.0303324765573 0.30245769685 0)
(0.0305775872633 0.293410618998 0)
(0.0307853075009 0.284296028682 0)
(0.0309566504019 0.275124604607 0)
(0.0310896520319 0.265907113365 0)
(0.0311842170535 0.2566548914 0)
(0.03123864384 0.247380664631 0)
(0.0312539964323 0.238095359576 0)
(0.0312287079726 0.228810835442 0)
(0.0311634401215 0.219539688351 0)
(0.0310576180224 0.210294160736 0)
(0.0309125361286 0.201086270137 0)
(0.030727558252 0.191928479079 0)
(0.0305053303503 0.182832172707 0)
(0.0302467272664 0.17381055887 0)
(0.0299549289517 0.164873193915 0)
(0.0296319144801 0.156030271904 0)
(0.0292816277436 0.147291083375 0)
(0.0289065043013 0.138663880008 0)
(0.0285115519576 0.130155599347 0)
(0.0280989538111 0.121771722501 0)
(0.0276736143239 0.113516247006 0)
(0.0272391788526 0.105391846208 0)
(0.0267987121733 0.0973979615878 0)
(0.0263546079366 0.0895374309639 0)
(0.025907940132 0.0818032747216 0)
(0.0254588148763 0.0741961044483 0)
(0.0250030529163 0.0667066158457 0)
(0.0245295888227 0.0593150769215 0)
(0.0240310189424 0.0520075786259 0)
(0.023479983968 0.0447061637731 0)
(0.022925873195 0.0373961327066 0)
(0.0224039577117 0.0298496792438 0)
(0.0222486364695 0.0219458306162 0)
(0.0231317710121 0.0141624591464 0)
(0.0247078750496 0.0074533337626 0)
(0.0249063896372 0.00216189289314 0)
(-0.103019204533 0.0109835547997 0)
(-0.114215604817 0.0376607084842 0)
(-0.113963859916 0.0639512205935 0)
(-0.112609471654 0.0904055214783 0)
(-0.110766380282 0.116430983916 0)
(-0.10849319118 0.141948878012 0)
(-0.105819766005 0.166859618256 0)
(-0.102779538324 0.191071533852 0)
(-0.0994067546487 0.214501546321 0)
(-0.0957395053515 0.237076537364 0)
(-0.0918147284394 0.258732986251 0)
(-0.0876714587803 0.279417045353 0)
(-0.0833459799687 0.299084657966 0)
(-0.0788753685009 0.317700635968 0)
(-0.074292370764 0.335238180099 0)
(-0.0696303898641 0.351678943846 0)
(-0.0649178779217 0.367011678628 0)
(-0.0601833250869 0.38123168735 0)
(-0.0554500905789 0.39434028043 0)
(-0.0507417486063 0.406343801901 0)
(-0.0460767771317 0.417253652857 0)
(-0.0414743258782 0.427084222202 0)
(-0.0369488138425 0.435854366433 0)
(-0.03251618723 0.443586309994 0)
(-0.0281877866906 0.450304333153 0)
(-0.0239757353665 0.456035998622 0)
(-0.0198884680524 0.460809330366 0)
(-0.015936226869 0.464657308188 0)
(-0.0121251722955 0.467611823181 0)
(-0.00846323236871 0.469708248144 0)
(-0.00495404145941 0.470982456721 0)
(-0.00160310027027 0.471471834142 0)
(0.00158797747021 0.471214139625 0)
(0.00461640361721 0.470248459795 0)
(0.00748291490297 0.468611854769 0)
(0.0101869369349 0.466343551461 0)
(0.0127310089743 0.463481566423 0)
(0.0151170393482 0.460063281307 0)
(0.0173495637296 0.456126527987 0)
(0.0194318508465 0.451704994688 0)
(0.0213704869806 0.44683596837 0)
(0.0231698596776 0.441548289366 0)
(0.0248379271326 0.435876571012 0)
(0.0263804898617 0.429848220632 0)
(0.0278047929949 0.423492571166 0)
(0.0291173115406 0.416835792415 0)
(0.0303263672371 0.409902212882 0)
(0.0314381929853 0.402715682213 0)
(0.0324607232665 0.395294977795 0)
(0.0333997361777 0.387660468984 0)
(0.0342623647308 0.379829405081 0)
(0.0350541823976 0.371817974422 0)
(0.0357810240056 0.36364075763 0)
(0.0364474151661 0.355310819337 0)
(0.0370577602787 0.346841525084 0)
(0.0376143902688 0.338242471005 0)
(0.0381209865819 0.329525535969 0)
(0.0385789616268 0.320700551397 0)
(0.0389897497588 0.311777560828 0)
(0.0393534134296 0.302766588498 0)
(0.0396708740318 0.293677593722 0)
(0.0399409043307 0.284520639304 0)
(0.0401637340651 0.275306316506 0)
(0.0403367593937 0.266045070032 0)
(0.040458572734 0.256749413621 0)
(0.0405299542746 0.247432070909 0)
(0.040550871765 0.238101155222 0)
(0.0405192022688 0.228770582984 0)
(0.0404343222946 0.219452750674 0)
(0.0402970082617 0.21016033171 0)
(0.0401077476004 0.200906143668 0)
(0.0398662072589 0.191703100241 0)
(0.0395748177924 0.182564290955 0)
(0.0392363643355 0.173501579533 0)
(0.0388540679443 0.164526055733 0)
(0.0384305990394 0.155647596788 0)
(0.0379704268833 0.146877154465 0)
(0.0374783542246 0.138223170023 0)
(0.0369597889227 0.129692425069 0)
(0.0364190105263 0.121290638343 0)
(0.0358620448244 0.113021753661 0)
(0.0352943076433 0.104887853534 0)
(0.0347209856661 0.0968914881708 0)
(0.0341460981837 0.0890293920331 0)
(0.0335735302207 0.0812981788177 0)
(0.0330050491896 0.0736904501483 0)
(0.0324433788322 0.0661969175897 0)
(0.0318839591385 0.0588003319203 0)
(0.0313277943726 0.0514625286339 0)
(0.0307994348541 0.0441619432078 0)
(0.030317227873 0.0367855358287 0)
(0.0300130863922 0.0293223243276 0)
(0.0301045759434 0.0217684485231 0)
(0.0308670663694 0.0144068515349 0)
(0.0316688287292 0.00765714532325 0)
(0.02959010858 0.00205991410653 0)
(-0.127368016546 0.0111435791761 0)
(-0.141207486613 0.0384565106038 0)
(-0.140881826904 0.065249967101 0)
(-0.139182962368 0.0922231186019 0)
(-0.136872547655 0.11874236998 0)
(-0.134024434216 0.144724274554 0)
(-0.130677978874 0.170064467783 0)
(-0.126875122419 0.194667259477 0)
(-0.122660921881 0.21844752393 0)
(-0.118082806376 0.241330350099 0)
(-0.113188688309 0.263251859703 0)
(-0.108027041149 0.284158643812 0)
(-0.102644559754 0.304008044891 0)
(-0.0970863441788 0.322766000685 0)
(-0.0913948658609 0.340408660983 0)
(-0.085610408157 0.356920013181 0)
(-0.0797692757846 0.372291607231 0)
(-0.0739053899976 0.38652160292 0)
(-0.0680485397152 0.399614409702 0)
(-0.0622260464915 0.411578492744 0)
(-0.0564615966889 0.42242769386 0)
(-0.0507771121704 0.432179275874 0)
(-0.0451915591249 0.440853699623 0)
(-0.0397226688202 0.448475635841 0)
(-0.0343849410918 0.45507035377 0)
(-0.0291919074734 0.4606658496 0)
(-0.0241553526546 0.465294171175 0)
(-0.0192863636463 0.468986699954 0)
(-0.0145938192187 0.471778706114 0)
(-0.0100860889442 0.473706142036 0)
(-0.00576918062172 0.474806232901 0)
(-0.00164843864684 0.475118359744 0)
(0.0022732130153 0.474680245426 0)
(0.00599343756756 0.473532302351 0)
(0.00951215597708 0.471714232797 0)
(0.0128295344296 0.46926563984 0)
(0.0159480098914 0.466226774326 0)
(0.0188707073009 0.462634348137 0)
(0.0216029032401 0.458529136581 0)
(0.0241498358476 0.453943522265 0)
(0.0265189138656 0.448915897156 0)
(0.0287169703329 0.443477201255 0)
(0.0307520615913 0.43766082037 0)
(0.0326324846576 0.431496400294 0)
(0.034367281025 0.425013697216 0)
(0.0359651233335 0.418236836165 0)
(0.0374351868412 0.411191518571 0)
(0.0387864882739 0.403900226878 0)
(0.0400284919046 0.396383540011 0)
(0.0411692625449 0.388661484325 0)
(0.0422169875818 0.380748799633 0)
(0.0431788101786 0.372662204493 0)
(0.0440616786417 0.364415463456 0)
(0.0448717556935 0.356020899831 0)
(0.0456142905321 0.347491275677 0)
(0.0462929587117 0.338835078037 0)
(0.046911009901 0.330063687826 0)
(0.0474707800735 0.321185766617 0)
(0.047973830735 0.312211978936 0)
(0.0484200102705 0.303149466596 0)
(0.048810967089 0.294010081019 0)
(0.0491431584135 0.284801469001 0)
(0.0494154946979 0.275533580309 0)
(0.049629390709 0.266225173347 0)
(0.0497810680269 0.25687591955 0)
(0.0498714673535 0.247501561667 0)
(0.0498990702599 0.238111821112 0)
(0.0498614027049 0.228723562985 0)
(0.049757488347 0.219346524148 0)
(0.0495884666639 0.209994940006 0)
(0.0493543781948 0.200682812811 0)
(0.0490550952571 0.191423679648 0)
(0.048692821999 0.18222861184 0)
(0.0482708784644 0.173111792657 0)
(0.047794562875 0.164087768032 0)
(0.0472673801619 0.155165457122 0)
(0.0466934063239 0.146354951523 0)
(0.0460783818226 0.137664512049 0)
(0.0454308580933 0.129104783117 0)
(0.0447568037295 0.120680825064 0)
(0.0440624957209 0.112394861269 0)
(0.0433566273453 0.104252253367 0)
(0.0426451241003 0.0962510209281 0)
(0.0419348655711 0.088388983559 0)
(0.0412329836259 0.0806630307493 0)
(0.0405456772089 0.0730656701543 0)
(0.0398766020307 0.0655829916385 0)
(0.0392308278166 0.0582037363377 0)
(0.0386168299057 0.0508876063851 0)
(0.0380995939386 0.0436415045613 0)
(0.0376798377091 0.0363748372488 0)
(0.03741299163 0.0290792690395 0)
(0.0374728962266 0.0218571843073 0)
(0.0379359037856 0.0148776320039 0)
(0.0383069466854 0.00830029304905 0)
(0.0351227322098 0.00234408102823 0)
(-0.152269598753 0.0113384632559 0)
(-0.168802249679 0.039435875082 0)
(-0.168389609752 0.0668505586567 4.29168288298e-27)
(-0.166322528651 0.0944630744675 0)
(-0.163513911767 0.121589543751 0)
(-0.160054274592 0.148140471428 0)
(-0.155993092051 0.17400551922 0)
(-0.151382968634 0.199084791974 0)
(-0.146280223983 0.223290105089 0)
(-0.140743373342 0.246544948027 0)
(-0.134831977483 0.268785079115 0)
(-0.128605360316 0.289958286927 0)
(-0.122120357106 0.310022510487 0)
(-0.115432088103 0.328947239152 0)
(-0.108592171373 0.346711227513 0)
(-0.101648603387 0.363301903254 0)
(-0.0946452256563 0.378714375743 0)
(-0.0876219454104 0.392950842449 0)
(-0.0806139181127 0.406018305225 0)
(-0.0736530431572 0.417929561201 0)
(-0.0667673518848 0.428701174749 0)
(-0.0599818783184 0.438353073017 0)
(-0.0533192245413 0.446908762284 0)
(-0.0467988675543 0.454394394251 0)
(-0.0404375014155 0.460836685861 0)
(-0.0342514578012 0.46626608069 0)
(-0.0282546882028 0.470715311385 0)
(-0.0224598212696 0.474218460527 0)
(-0.0168779654285 0.476811798468 0)
(-0.011518503775 0.478532714653 0)
(-0.00638877040108 0.479420932684 0)
(-0.00149456769585 0.479515169104 0)
(0.00316012156112 0.478856925263 0)
(0.0075725113555 0.47748744574 0)
(0.0117422791211 0.475448025189 0)
(0.0156704052356 0.472780646213 0)
(0.0193597913045 0.469525352961 0)
(0.0228145795591 0.465722108596 0)
(0.0260412837015 0.461410032858 0)
(0.0290468915954 0.456625289178 0)
(0.0318391535988 0.451405107137 0)
(0.0344271357386 0.445783363869 0)
(0.0368208688076 0.439794029225 0)
(0.0390303963266 0.433465210591 0)
(0.0410664801044 0.426827028162 0)
(0.042940121014 0.419905610854 0)
(0.0446626848058 0.412726933866 0)
(0.0462449161223 0.405311009514 0)
(0.047697803394 0.397679510549 0)
(0.0490317897183 0.389850759179 0)
(0.0502568639237 0.381840939722 0)
(0.0513819732544 0.373666260537 0)
(0.0524152113798 0.365337313358 0)
(0.0533637710344 0.356866786919 0)
(0.0542344262639 0.348266311654 0)
(0.0550314956251 0.339543067912 0)
(0.0557588515258 0.330708851312 0)
(0.056419135715 0.321768698279 0)
(0.0570140703224 0.31273397148 0)
(0.0575418450001 0.303611442867 0)
(0.0580023250928 0.294409695024 0)
(0.0583977037812 0.28514969699 0)
(0.0587232509394 0.275822581273 0)
(0.0589801185037 0.266447747632 0)
(0.0591656071622 0.257031265459 0)
(0.0592758461694 0.247584958174 0)
(0.0593114225617 0.238126719023 0)
(0.0592688977971 0.228666608034 0)
(0.0591460635168 0.219215650317 0)
(0.0589446458797 0.209791415419 0)
(0.0586638668077 0.200407402551 0)
(0.0583047408714 0.191078361128 0)
(0.0578702315266 0.181816769627 0)
(0.0573630320342 0.172638031427 0)
(0.0567868353947 0.163551030537 0)
(0.0561497210065 0.154574372563 0)
(0.0554565823005 0.145715725611 0)
(0.0547147252282 0.136985958779 0)
(0.0539312058721 0.128390160836 0)
(0.0531161499105 0.11993940223 0)
(0.0522776919289 0.111634681884 0)
(0.0514259132184 0.1034805273 0)
(0.0505708595674 0.0954773228315 0)
(0.0497198691124 0.0876203448068 0)
(0.0488828678106 0.0799065847004 0)
(0.0480689593696 0.0723268250596 0)
(0.0472879441794 0.0648719166865 0)
(0.0465481745532 0.0575249737913 0)
(0.045864080174 0.0502612925048 0)
(0.0452852656352 0.0430710764467 0)
(0.0448663130294 0.0359601765568 0)
(0.0445849954508 0.0288799005999 0)
(0.0444872125546 0.0218721407159 0)
(0.0446823849278 0.0151071403955 0)
(0.0447092556554 0.00864669225656 0)
(0.0404947367091 0.00251782235037 0)
(-0.177842002281 0.0115716483001 0)
(-0.19713095843 0.0406140714412 0)
(-0.196614802724 0.0687756021958 -4.28939632988e-27)
(-0.19414919197 0.0971563355201 0)
(-0.190803225907 0.125010464976 0)
(-0.186685709392 0.15224118147 0)
(-0.181857884704 0.178731129187 0)
(-0.176384587323 0.204375330145 0)
(-0.170334941914 0.229082230749 0)
(-0.163780205279 0.252773640923 0)
(-0.156792766767 0.275385519058 0)
(-0.149443568218 0.296866295538 0)
(-0.141801245008 0.317176924971 0)
(-0.133931353025 0.336290026954 0)
(-0.125894992917 0.354188281651 0)
(-0.117748464577 0.370863431725 0)
(-0.109543006242 0.386315540415 0)
(-0.101324313428 0.400550479893 0)
(-0.0931331974063 0.41358064064 0)
(-0.0850057650422 0.42542260279 0)
(-0.0769736380263 0.436096634836 0)
(-0.0690652588292 0.44562573805 0)
(-0.0613055611652 0.454037929196 0)
(-0.0537153613212 0.461357502814 0)
(-0.0463145778872 0.467617411746 0)
(-0.0391212657852 0.47284821388 0)
(-0.0321516873645 0.477084636695 0)
(-0.0254203481584 0.48036236396 0)
(-0.018939856665 0.4827200245 0)
(-0.01272084902 0.484195495269 0)
(-0.0067720642497 0.484830364827 0)
(-0.00110030227335 0.48466657194 0)
(0.00428938758954 0.483746721154 0)
(0.00939439130766 0.482114916713 0)
(0.0142141527324 0.479812764475 0)
(0.018750128547 0.476885033036 0)
(0.0230061053562 0.473373277779 0)
(0.0269876038414 0.469319452529 0)
(0.0307021479453 0.464762747807 0)
(0.0341577886841 0.459742698108 0)
(0.0373642097579 0.454297494963 0)
(0.0403323250272 0.448460147668 0)
(0.0430742428908 0.442265229755 0)
(0.04560210555 0.435743338533 0)
(0.0479286721733 0.428924917275 0)
(0.050067001458 0.421834373818 0)
(0.0520307796088 0.414497615889 0)
(0.0538329992475 0.406936793429 0)
(0.0554862745382 0.399171830207 0)
(0.057003868365 0.391222095281 0)
(0.0583968391698 0.383100479513 0)
(0.0596768038359 0.374823758162 0)
(0.0608532088129 0.366400867835 0)
(0.0619346044981 0.35784515729 0)
(0.0629282069072 0.349162668544 0)
(0.0638400277723 0.340364913167 0)
(0.0646739501363 0.331456829154 0)
(0.0654333938321 0.322446500529 0)
(0.0661160691841 0.313342382679 0)
(0.0667233608458 0.304156365612 0)
(0.0672571079647 0.294893746841 0)
(0.0677162699563 0.285556126406 0)
(0.0680992183826 0.276155169502 0)
(0.0684024988162 0.266701616858 0)
(0.0686229121766 0.257206627442 0)
(0.0687569336487 0.247683345404 0)
(0.0688009549057 0.238137618905 0)
(0.0687544557208 0.228593101272 0)
(0.0686134369435 0.219055573054 0)
(0.0683785850867 0.209544125571 0)
(0.0680509437493 0.200077074805 0)
(0.0676288557749 0.190661580395 0)
(0.0671176669938 0.181319494816 0)
(0.066520499928 0.172063779844 0)
(0.0658418392367 0.162908204183 0)
(0.0650885264886 0.153865875704 0)
(0.0642689175132 0.14494981553 0)
(0.0633898401948 0.136167250347 0)
(0.0624632753922 0.127532940589 0)
(0.0614992625437 0.119051055841 0)
(0.0605072115891 0.110724576265 0)
(0.059501222025 0.102560164961 0)
(0.0584916616433 0.0945553636474 0)
(0.0574913866151 0.0867099669065 0)
(0.0565115071806 0.0790183837411 0)
(0.0555641737787 0.0714713412111 0)
(0.0546638962515 0.064060909006 0)
(0.053818003131 0.0567662285857 0)
(0.0530469322639 0.0495753096787 0)
(0.0523837521274 0.0424749762774 0)
(0.0518745937988 0.0354795361761 0)
(0.0515391756993 0.0285930778293 0)
(0.051332670304 0.0217842708537 0)
(0.051265339334 0.0151311572274 0)
(0.0510901331407 0.00876355922236 0)
(0.0460401882573 0.00258637808927 0)
(-0.204214095842 0.0118460037617 0)
(-0.22633471523 0.0420095586519 0)
(-0.225694376539 0.0710540740164 0)
(-0.222792364524 0.100341668311 0)
(-0.218860384872 0.129052640468 0)
(-0.214027481623 0.157080837648 0)
(-0.208368976098 0.184300884481 0)
(-0.201963960321 0.210601825359 0)
(-0.194896320362 0.235888489723 0)
(-0.187251955232 0.26008121195 0)
(-0.179117416019 0.283116332791 0)
(-0.170577081418 0.304944285918 0)
(-0.161712205993 0.325529403316 0)
(-0.152599688965 0.3448488808 0)
(-0.143310404982 0.36288991885 0)
(-0.13390956867 0.379650206593 0)
(-0.124455646856 0.39513520385 0)
(-0.115000613225 0.409357148476 0)
(-0.105590199607 0.422333618042 0)
(-0.0962642627268 0.434086193375 0)
(-0.0870577413871 0.44463922011 0)
(-0.0780016871651 0.454021329482 0)
(-0.0691218780687 0.462259122377 0)
(-0.0604420183976 0.469384616012 0)
(-0.0519838437021 0.475429186678 0)
(-0.0437672668062 0.480427367361 0)
(-0.03581064517 0.484414817992 0)
(-0.0281302229085 0.487430013646 0)
(-0.0207399386996 0.489511177117 0)
(-0.0136522756555 0.490700397255 0)
(-0.00687758552237 0.491040588906 0)
(-0.000423867064991 0.490575778888 0)
(0.00570346080136 0.489351885737 0)
(0.0115016032302 0.487412697566 0)
(0.0169698713789 0.484805538717 0)
(0.0221103109862 0.481574750284 0)
(0.0269279185008 0.477765144734 0)
(0.0314291319509 0.473419254269 0)
(0.0356224265516 0.46857987551 0)
(0.0395181118855 0.463288375044 0)
(0.0431279869755 0.457580690294 0)
(0.0464647443467 0.451494569873 0)
(0.0495421512344 0.445063573353 0)
(0.05237532078 0.438320796214 0)
(0.0549793437587 0.431293093151 0)
(0.0573693509272 0.424009044269 0)
(0.0595608643829 0.416492775489 0)
(0.0615700678604 0.408767966626 0)
(0.0634112817181 0.400851767571 0)
(0.0651000410951 0.392762668492 0)