/*--------------------------------*- C++ -*----------------------------------*\
| =========                 |                                                 |
| \\      /  F ield         | OpenFOAM: The Open Source CFD Toolbox           |
|  \\    /   O peration     | Version:  v1906                                 |
|   \\  /    A nd           | Web:      www.OpenFOAM.com                      |
|    \\/     M anipulation  |                                                 |
\*---------------------------------------------------------------------------*/
FoamFile
{
    version     2.0;
    format      ascii;
    class       surfaceScalarField;
    location    "460";
    object      phia;
}
// * * * * * * * * * * * * * * * * * * * * * * * * * * * * * * * * * * * * * //

dimensions      [0 3 -1 0 0 0 0];
oriented        oriented;


internalField   nonuniform List<scalar> 
18240
(
0.00134194662468
-0.00134198905809
0.00281110403123
-0.00146918965588
0.00427921061777
-0.00146815739477
0.00572867671952
-0.00144949831413
0.00715149611623
-0.00142287684873
0.00854098765617
-0.00138952620052
0.00989108848683
-0.00135016527048
0.0111964095334
-0.00130536074265
0.0124520521618
-0.00125571412343
0.0136538017746
-0.00120179645945
0.0147979556918
-0.00114423200829
0.0158815033013
-0.00108360303664
0.0169019455973
-0.00102052596371
0.0178574387152
-0.000955557827591
0.0187466197673
-0.000889268884114
0.0195687056722
-0.000822159880093
0.0203233429544
-0.000754727608767
0.021010658329
-0.000687397948923
0.0216311476106
-0.000620580320826
0.0221856770985
-0.000554619456127
0.0226754223252
-0.000489835263231
0.0231018211935
-0.000426494621858
0.0234665679444
-0.000364834208439
0.0237715203866
-0.000305052131275
0.0240187492544
-0.000247312482463
0.0242104031707
-0.000191755593906
0.0243488089783
-0.000138484608133
0.0244362996109
-8.75924069405e-05
0.0244753581
-3.91319296853e-05
0.0244684156707
6.84228944496e-06
0.0244180320141
5.03157968864e-05
0.0243266645961
9.12703818973e-05
0.0241968661748
0.000129735958882
0.0240310555619
0.000165717842889
0.0238317352941
0.000199262757197
0.0236012494384
0.000230398159032
0.0233420019802
0.000259194158114
0.0230562226135
0.000285697202022
0.0227461797392
0.000309992898142
0.0224139609129
0.000332142311738
0.0220616718043
0.000352241424201
0.0216912382219
0.000370362536733
0.0213045841502
0.000386607624543
0.0209034609827
0.000401057151811
0.0204895994973
0.000413815219407
0.0200645703381
0.000424967533791
0.0196299064117
0.000434616861679
0.0191869970618
0.000442851330943
0.0187371790081
0.000449769318013
0.018281665043
0.000455458682079
0.017821603083
0.000460010817299
0.0173580387564
0.000463510879862
0.0168919433966
0.000466041246713
0.0164242085788
0.000467682325331
0.0159556449562
0.00046850613233
0.015487005757
0.000468586843834
0.0150189591502
0.000467985524195
0.0145521369352
0.000466769273038
0.0140870837771
0.000464988408841
0.0136243268438
0.000462702802326
0.0131643055949
0.000459952930258
0.0127074579213
0.000456791878779
0.0122541344578
0.000453251771537
0.0118046968167
0.000449379842349
0.0113594203809
0.000445201692256
0.01091860046
0.000440759900393
0.0104824475129
0.000436075522585
0.0100511973973
0.000431187771593
0.00962500270925
0.000426115028338
0.00920404373189
0.000420894303956
0.0087884193678
0.000415542922771
0.00837825582431
0.000410096620656
0.0079736002076
0.000404572881665
0.00757452443494
0.000399006748302
0.00718102422595
0.000393416649606
0.00679311614324
0.000387837166337
0.00641074423378
0.000382288000277
0.0060338685292
0.000376803155094
0.00566238118016
0.000371403531927
0.00529618515088
0.000366122153317
0.00493512118741
0.000360980673765
0.00457903588444
0.000356010463116
0.00422772044123
0.000351233125116
0.00388096772715
0.000346677355883
0.00353852359407
0.000342363299402
0.00320013329391
0.000338314941978
0.00286550699809
0.000334547450673
0.0025343588442
0.000331073388587
0.00220639457796
0.000327888147812
0.00188136339935
0.000324958002083
0.00155912111893
0.000322170191811
0.00123983695856
0.000319213874057
0.000924530445745
0.000315239214336
0.000617181796078
0.000307286975764
0.000332702946557
0.000284412083497
0.000332663710413
0.00148358118366
-0.00282561136376
0.0031396986828
-0.00312534601505
0.00478676204239
-0.00311526701231
0.00641014344806
-0.00307292192024
0.00800244342089
-0.00301522776104
0.00955676764432
-0.00294389723912
0.0110665441212
-0.00285999885785
0.0125257654367
-0.00276463523065
0.0139290000129
-0.00265901304668
0.015271512996
-0.00254437027902
0.0165492108757
-0.00242200187381
0.0177587206059
-0.0022931818913
0.0188973075025
-0.00215919221533
0.0199629219518
-0.00202124962757
0.0209541058873
-0.00188053872203
0.021870010447
-0.00173814933977
0.0227103039047
-0.0015951122283
0.023475164244
-0.00145234955317
0.0241651996907
-0.0013107106171
0.0247814204486
-0.00117093629574
0.0253251801237
-0.0010336917265
0.0257981303704
-0.000899543999639
0.0262021879207
-0.000768988748842
0.0265394748809
-0.000642439444471
0.0268123123452
-0.000520245501265
0.0270231481332
-0.000402691197421
0.0271745749519
-0.000290004151109
0.0272692470473
-0.000182362212941
0.0273099189707
-7.98926350979e-05
0.0272993525386
1.73144162305e-05
0.0272403690596
0.000109215194834
0.0271357566855
0.000195792828878
0.0269883440002
0.000277069682935
0.0268008896157
0.000353087307196
0.0265761538187
0.000423924780413
0.026316800484
0.000489671854162
0.0260254753124
0.000550450504296
0.0257047097006
0.000606388406955
0.0253569976112
0.000657640612085
0.024984706663
0.000704363753095
0.0245901507256
0.000746736732049
0.0241755109893
0.000784937103158
0.023742901481
0.00081915941008
0.0232943022173
0.000849594845908
0.0228316155368
0.000876446158115
0.0223566128225
0.00089991142773
0.0218709802045
0.000920194779337
0.0213762797002
0.000937494857959
0.0208739835067
0.000952010932597
0.0203654497496
0.000963936394836
0.0198519451104
0.000973460162025
0.0193346347407
0.000980765274483
0.0188145934415
0.000986025795853
0.0182928087316
0.000989410348159
0.0177701811411
0.000991074920289
0.0172475389571
0.000991170963882
0.0167256284863
0.000989834680983
0.0162051386769
0.000987199108713
0.015686682427
0.000983380536527
0.0151708290989
0.000978493859779
0.0146580781272
0.000972636814197
0.0141488974176
0.000965907773682
0.0136436906466
0.000958388474777
0.0131428396225
0.000950163395738
0.0126466667511
0.000941301611966
0.0121554796252
0.00093187690346
0.0116695301824
0.000921949327253
0.0111890600144
0.000911585269646
0.0107142577208
0.000900839265746
0.0102453036809
0.000889773311212
0.0097823270624
0.000878439394302
0.00932544902466
0.000866897512035
0.0088747407171
0.000855199315305
0.00843026409609
0.000843404405541
0.00799203211355
0.000831565421687
0.00756004650149
0.000819742330309
0.00713426115432
0.000807989204326
0.00671461639638
0.000796366339942
0.0063010063716
0.000784928890754
0.00589330945173
0.000773736755584
0.00549136022416
0.00076284513027
0.00509497584728
0.000752312191403
0.00470393304686
0.000742191505727
0.0043179903635
0.000732537549588
0.00393687041737
0.000723399712033
0.00356027812358
0.00071482546845
0.00318788830455
0.000706855169526
0.0028193594983
0.000699521690837
0.00245432451946
0.000692843267195
0.0020923897378
0.000686814943273
0.00173309126427
0.000681391687302
0.00137576203495
0.000676468276534
0.00101907941425
0.000671851685674
0.000659078380629
0.00066722158283
0.00028363239928
0.000659796431668
0.000616268014312
0.00150978084196
-0.00433543154216
0.003187086413
-0.00480269291327
0.00485779245532
-0.00478601591044
0.00650469785946
-0.00471987128377
0.00811967473089
-0.00463025218642
0.00969549551853
-0.00451976704305
0.0112254250743
-0.00438998219497
0.0127033213528
-0.00424258735221
0.0141236760064
-0.00407942894851
0.0154816830465
-0.00390244110823
0.0167732314395
-0.00371361960767
0.0179949343894
-0.00351495695837
0.019144090507
-0.00330842569165
0.0202186840557
-0.00309592331923
0.0212173268953
-0.00287926624226
0.0221392376926
-0.00266014740366
0.0229841753254
-0.00244014065767
0.0237524046133
-0.00222067186577
0.0244446305794
-0.00200303191868
0.0250619573634
-0.00178836018112
0.0256058306172
-0.00157766307629
0.0260779945706
-0.00137180729164
0.0264804469065
-0.00117154009549
0.0268153966436
-0.000977488915895
0.0270852327046
-0.000790179743067
0.0272924831519
-0.000610040056956
0.0274397962168
-0.000437413006405
0.0275299003146
-0.000272561923563
0.0275655952605
-0.000115679727629
0.0275497125785
3.31054606004e-05
0.0274851149778
0.000173725226765
0.0273746566416
0.000306164323947
0.0272211900629
0.000430453828854
0.0270275274544
0.000546668338999
0.0267964506665
0.000654924484823
0.0265306753311
0.000755370981073
0.0262328641601
0.000848189807037
0.0259055943111
0.000933587210671
0.0255513723394
0.00101179552784
0.0251726052565
0.00108306447636
0.0247716158992
0.0011476632036
0.0243506183158
0.0012058723309
0.0239117325221
0.00125798568963
0.0234569647452
0.00130430343819
0.0229882208223
0.00134513303008
0.022507291674
0.00138078364628
0.0220158648246
0.00141156609212
0.0215155153048
0.0014377887565
0.0210077149781
0.00145975629817
0.020493828832
0.00147776730647
0.0199751219177
0.00149211180736
0.0194527607455
0.00150307074623
0.0189278177187
0.00151091246349
0.0184012770976
0.00151589405371
0.0178740368614
0.00151825704448
0.0173469184988
0.00151823057968
0.0168206662588
0.00151602654571
0.0162959598945
0.00151184442281
0.0157734113356
0.00150586609049
0.0152535794598
0.00149826206383
0.0147369642829
0.0014891861498
0.0142240228802
0.0014787827072
0.0137151613172
0.00146718128275
0.0132107509446
0.00145450446172
0.012711118385
0.00144086255747
0.0122165615913
0.00142636162375
0.0117273383353
0.00141109825654
0.0112436815784
0.0013951673543
0.0107657869663
0.00137865707565
0.0102938272313
0.00136165601414
0.00982793926491
0.00134424837344
0.00936823738859
0.00132652029457
0.00891480055799
0.00130855531675
0.00846768444302
0.00129043970137
0.00802690929709
0.00127225826359
0.00759247083792
0.00125409861254
0.0071643292252
0.00123604743107
0.00674241877779
0.00121819363717
0.00632663842335
0.00120062517605
0.00591686029923
0.00118343115463
0.00551292192001
0.00116669917075
0.00511463372243
0.00115051651179
0.00472177308893
0.00113496798579
0.00433409085677
0.00112013625325
0.00395130712861
0.00110610001329
0.00357311656583
0.00109293342384
0.00319918529415
0.00108070429667
0.00282915351896
0.00106947236376
0.00246262952896
0.00105928706986
0.00209918013717
0.00105018556526
0.00173830066362
0.00104219472735
0.00137934926135
0.00103534469935
0.00102141572846
0.00102971183588
0.000663201020713
0.00102537038273
0.000304941516066
0.00101799549498
0.000921179777514
0.00153300985414
-0.00586847927956
0.00323323481592
-0.00650295606642
0.00492698342853
-0.00647980602829
0.00659625477708
-0.00638918534119
0.0082324556216
-0.00626649900245
0.00982803272967
-0.00611539255649
0.0113760320282
-0.00593803389618
0.0128701516013
-0.00573676257292
0.0143047856412
-0.00551412325583
0.0156750703236
-0.0052727897482
0.0169768884722
-0.00501550656881
0.018206877768
-0.00474501885339
0.0193624023643
-0.00446402756617
0.0204415326161
-0.00417513442719
0.0214429947501
-0.0038808133796
0.0223661319518
-0.0035833727177
0.0232108427724
-0.00328494291906
0.0239775327951
-0.00298745578273
0.0246670512904
-0.00269264663239
0.025280641375
-0.00240204815716
0.0258198823421
-0.00211700315281
0.0262866439454
-0.00183866885514
0.0266830387852
-0.00156803500994
0.0270113832512
-0.00130593349982
0.0272741608663
-0.00105305655731
0.0274739895252
-0.000809967231311
0.0276135941692
-0.00057711436105
0.027695778522
-0.000354841691984
0.0277234047374
-0.000143398847898
0.0276993681332
5.70509170943e-05
0.0276265823019
0.000246422911297
0.027507955103
0.000424705441725
0.0273463791081
0.000591947024082
0.0271447103238
0.000748256531814
0.0269057615956
0.000893795962219
0.0266322845313
0.00102877299425
0.0263269653249
0.001153437174
0.0259924096382
0.0012680731178
0.0256311408138
0.00137299749296
0.0252455874734
0.0014685527703
0.0248380834151
0.00155510471838
0.0244108579111
0.00163303677844
0.0239660367912
0.0017027477499
0.0235056354904
0.00176464678689
0.0230315610026
0.00181915100278
0.022545607737
0.00186668110146
0.0220494601344
0.00190765874539
0.0215446913527
0.00194250288774
0.021032766404
0.00197162689282
0.0205150435805
0.00199543569217
0.0199927779558
0.00201432276878
0.0194671253147
0.00202866829481
0.0189391458156
0.00203883618157
0.0184098100236
0.00204517334571
0.0178800024569
0.00204800704051
0.0173505291794
0.00204764533838
0.0168221209108
0.00204437492671
0.016295441555
0.0020384627832
0.0157710905471
0.00203015452962
0.0152496116826
0.00201967715674
0.0147314944351
0.00200723793215
0.0142171825248
0.00199302791855
0.0137070740411
0.00197722133631
0.0132015293143
0.00195997954616
0.0127008698144
0.00194145071288
0.0122053850538
0.00192177389572
0.0117153303715
0.00190107883665
0.0112309327545
0.00187948982791
0.0107523877338
0.0018571254712
0.0102798641575
0.00183410205531
0.00981350050741
0.00181053317474
0.00935340875276
0.00178653244072
0.00889967043078
0.00176221290804
0.00845233977125
0.00173768903507
0.00801143987836
0.00171307591849
0.00757696532862
0.00168849050186
0.00714887874895
0.00166405065864
0.00672711307967
0.00163987570891
0.00631156878307
0.00161608541009
0.00590211592813
0.00159279987972
0.00549859218613
0.00157013855313
0.00510080484089
0.00154821962241
0.00470852962937
0.00152715900057
0.00432151267265
0.00150706937661
0.00393947000149
0.0014880591981
0.00356208913786
0.0014702314339
0.00318902858426
0.0014536826441
0.00281991781125
0.00143850178663
0.00245435441142
0.00142477027727
0.00209189833609
0.0014125630583
0.00173206027121
0.00140195502043
0.00137429114121
0.00139303823923
0.00101799423394
0.00138593841081
0.00066275608307
0.00138054060707
0.000310490211101
0.00137019848448
0.00123164202212
0.00156283071931
-0.00743134567963
0.00329476906803
-0.00823493294113
0.00501964156053
-0.00820471720013
0.0067188155876
-0.00808840084442
0.00838325822748
-0.00793098557942
0.0100050454255
-0.00773722706875
0.0115769384364
-0.00750997781427
0.013092425051
-0.00725230423312
0.014545766116
-0.00696752359503
0.0159320277514
-0.00665911527517
0.0172470877288
-0.00633063488028
0.0184876283786
-0.00598563252121
0.0196511083572
-0.00562758483776
0.0207357262808
-0.00525983400925
0.0217403693907
-0.00488554192994
0.0226645593835
-0.00450765187606
0.0235083892898
-0.00412886503148
0.0242724622064
-0.00375162375669
0.0249578265255
-0.00337810813919
0.0255659167238
-0.00301023738217
0.0260984949701
-0.00264968156884
0.0265576003769
-0.00229787521161
0.0269455015101
-0.00195603724799
0.0272646564813
-0.00162518933869
0.0275176766567
-0.00130617684434
0.0277072961135
-0.000999685651856
0.0278363438283
-0.000706259499204
0.0279077192982
-0.000426312692421
0.027924370106
-0.000160143032621
0.0278892712802
9.20588156674e-05
0.0278054066306
0.000330199214664
0.0276757496852
0.000554276841622
0.0275032504637
0.00076436351687
0.027290818809
0.000960608404583
0.0270413127585
0.00114322508997
0.0267575264418
0.00131248528686
0.0264421807323
0.00146871159219
0.0260979138781
0.00161227137291
0.0257272747133
0.00174357052638
0.0253327156038
0.00186304810106
0.0249165877484
0.00197117088826
0.024481136164
0.00206842859785
0.0240284967785
0.00215532901384
0.0235606933471
0.00223239352344
0.0230796361985
0.00230015260697
0.0225871210657
0.00235914159753
0.022084829421
0.00240989639792
0.021574329226
0.0024529494822
0.0210570767966
0.00248882587601
0.020534419409
0.00251803953969
0.0200075985605
0.00254108977875
0.0194777542471
0.00255845824274
0.0189459293648
0.00257060600598
0.0184130753178
0.00257797144264
0.0178800571722
0.00258096821948
0.0173476601176
0.00257998424992
0.0168165948899
0.00257538075117
0.0162875045291
0.00256749236231
0.0157609695644
0.00255662728823
0.0152375145151
0.00254306850386
0.01471761238
0.00252707485514
0.0142016904148
0.00250888313234
0.0136901335942
0.00248870987743
0.013183289345
0.00246675400187
0.0126814698047
0.00244319897418
0.0121849553651
0.00241821562041
0.0116939957317
0.00239196435877
0.0112088123002
0.00236459783581
0.0107295981627
0.00233626291785
0.0102565194776
0.00230710289069
0.00978971468673
0.00227725900601
0.00932929512105
0.00224687206541
0.00887534374063
0.00221608341804
0.00842791525555
0.00218503585825
0.0079870347122
0.00215387406569
0.00755269739578
0.00212274483009
0.00712486754461
0.00209179699233
0.00670347826614
0.00206118107875
0.00628843060432
0.00203104884231
0.00587959364197
0.00200155242378
0.00547680406698
0.00197284360472
0.00507986656259
0.00194507263098
0.00468855391991
0.00191838728848
0.00430260770132
0.00189293153307
0.00392173875405
0.00186884450947
0.00354562795487
0.00184625919104
0.00317392665673
0.00182530160268
0.00280625702136
0.00180609001994
0.00244221156728
0.00178873529525
0.00208135267538
0.0017733426928
0.00172321414126
0.00176001699126
0.00136730807274
0.0017488690641
0.00101316473073
0.00174000727519
0.000660534030217
0.00173310531783
0.000311229051705
0.00171944329063
0.00154284116824
0.00160053800818
-0.00903191735074
0.00337347500396
-0.0100079032805
0.00513839513629
-0.00996967441515
0.00687589777724
-0.00982594222447
0.00857642803167
-0.00963155804575
0.0102316196218
-0.00939246406084
0.0118338810581
-0.00911228887549
0.0133764418735
-0.00879491879986
0.0148533981045
-0.00844453846798
0.0162597382738
-0.00806551867068
0.0175913423062
-0.00766230727446
0.0188449640837
-0.00723932726333
0.0200181930623
-0.00680089171378
0.0211094062076
-0.00635112929347
0.022117705891
-0.00589392809846
0.0230428542792
-0.0054328903231
0.0238852002317
-0.00497130450768
0.0246456080439
-0.00451212778363
0.0253253847529
-0.00405798345945
0.0259262136201
-0.00361116654417
0.0264500910691
-0.00317366055426
0.0268992722232
-0.00274715854856
0.0272762224514
-0.00233308976215
0.0275835771191
-0.00193264594873
0.0278241070691
-0.00154680779519
0.028000689559
-0.00117636792634
0.0281162830574
-0.000821950959358
0.0281739043485
-0.000484030018188
0.0281766080543
-0.000162940268709
0.0281274666131
0.000141109172204
0.0280295528141
0.00042802489063
0.0278859207027
0.000697823599899
0.0276995932336
0.000950608834553
0.0274735455059
0.00118657686708
0.0272106936074
0.00140600094107
0.0269138827535
0.00160922291297
0.0265858785587
0.00179664560703
0.0262293579569
0.0019687243928
0.0258469029189
0.00212596070581
0.0254409936591
0.00226889475555
0.0250140042781
0.00239809994684
0.0245681979347
0.00251417643853
0.0241057241383
0.00261774607178
0.0236286157878
0.00270944646622
0.023138788045
0.00278992614664
0.0226380372683
0.00285983899068
0.0221280414933
0.00291983942806
0.0216103613137
0.00297057723112
0.0210864419927
0.00301269286181
0.0205576162692
0.00304681276983
0.0200251080218
0.00307354513476
0.0194900368278
0.00309347596696
0.0189534229429
0.0031071655975
0.0184161932475
0.0031151459162
0.0178791871269
0.00311791795325
0.0173431632697
0.0031159505197
0.0168088059038
0.00310967911223
0.0162767318185
0.00309950605383
0.0157474963687
0.00308580076625
0.0152216000956
0.00306890130726
0.0146994939743
0.00304911585229
0.0141815851148
0.0030267253347
0.0136682408675
0.00300198581316
0.013159793262
0.00297513179014
0.0126565417777
0.00294637904901
0.0121587563872
0.00291592817585
0.0116666789965
0.00288396743544
0.011180525158
0.00285067605561
0.0107004843558
0.00281622677315
0.0102267206096
0.00278078853895
0.00975937189599
0.00274452847186
0.00929854995884
0.00270761378005
0.00884433921023
0.00267021299017
0.00839679609165
0.00263249701845
0.00795594779394
0.00259463965798
0.00752179148965
0.00255681784885
0.00709429316511
0.00251921149555
0.00667338698866
0.002482003059
0.00625897447945
0.00244537683176
0.00585092419966
0.00240951801389
0.00544907140936
0.00237461159917
0.00505321818218
0.00234084110962
0.00466313360442
0.00230838726016
0.00427855430766
0.00227742653547
0.00389918513039
0.00224812982909
0.00352469997537
0.00222066110027
0.0031547427499
0.00219517631454
0.00278892847233
0.00217182263588
0.00242684485967
0.00215073848303
0.00206805468918
0.00213205407221
0.00171210002854
0.00211589331363
0.00135851617631
0.00210237691366
0.00100686223016
0.0020915911622
0.000656858892119
0.00208304028789
0.000310116164628
0.00206612290258
0.0018529298134
0.0016469594255
-0.0106789071477
0.00347062950653
-0.0118316066019
0.00528505396916
-0.0117841320048
0.00706983192093
-0.0116107567767
0.00881475791713
-0.0113765234396
0.010510923796
-0.0110886734529
0.0121503118626
-0.0107517245732
0.013725843667
-0.0103705032127
0.0152314263257
-0.00995017855319
0.0166619686413
-0.00949612389316
0.0180133717922
-0.00901377834698
0.0192824962008
-0.008508525073
0.0204671118147
-0.00798558549554
0.0215658328592
-0.00744993352147
0.0225780439758
-0.00690622655124
0.0235038181212
-0.00635875598742
0.0243438325376
-0.00581141371132
0.0250992832127
-0.00526767634156
0.0257718033807
-0.00473060372511
0.0263633867003
-0.00420285183363
0.026876319129
-0.00368669604857
0.0273131196593
-0.00318406276864
0.0276764912968
-0.00269656509176
0.0279692813109
-0.00222553910523
0.028194449286
-0.0017720779264
0.0283550414504
-0.00133706067429
0.0284541683373
-0.000921176615718
0.0284949853018
-0.000524943364478
0.028480673187
-0.000148722094062
0.0284144204179
0.000207270970034
0.0282994050902
0.000542952103138
0.0281387790419
0.000858364846251
0.0279356507263
0.00115365540761
0.0276930736252
0.00142907563808
0.0274140325115
0.00168496677433
0.0271014336939
0.00192174974814
0.0267580954174
0.00213991476476
0.0263867407803
0.0023400129185
0.0259899905954
0.00252264731462
0.0255703583252
0.00268846602787
0.0251302448636
0.00283815451058
0.0246719350669
0.00297242939091
0.0241975942433
0.00309203164626
0.0237092661949
0.00319772073791
0.0232088714554
0.00329026816514
0.0226982069402
0.00337045165872
0.0221789460644
0.00343904897006
0.0216526401448
0.00349683210737
0.021120720503
0.00354456145769
0.0205845016839
0.0035829802942
0.0200451855089
0.00361280954591
0.019503865997
0.00363474299394
0.0189615351112
0.00364944313239
0.0184190890276
0.00365753753903
0.0178773350807
0.00365961625777
0.0173369988122
0.00365622974109
0.0167987314443
0.00364788802412
0.0162631170187
0.00363506041952
0.0157306796712
0.00361817650437
0.0152018901788
0.00359762748001
0.0146771723794
0.00357376872242
0.0141569085754
0.00354692247553
0.0136414446182
0.00351738150643
0.013131093829
0.0034854126298
0.0126261405007
0.00345126089378
0.0121268422421
0.0034151533705
0.0116334318969
0.00337730329479
0.0111461184414
0.0033379135949
0.0106650875263
0.00329718049852
0.0101905012261
0.00325529639983
0.00972249755282
0.00321245260693
0.00926118944258
0.0031688413037
0.00880666364957
0.00312465729197
0.00835897936522
0.00308009897408
0.00791816689466
0.00303536910174
0.00748422625604
0.0029906748378
0.00705712597952
0.00294622763695
0.00663680195939
0.0029022425338
0.00622315663028
0.00285893734291
0.00581605825962
0.00281653136575
0.00541534066346
0.00277524411932
0.00502080304172
0.00273529367626
0.00463221030076
0.00269689513413
0.00424929344867
0.00266025881507
0.00387175048013
0.0026255887001
0.00349924734159
0.00259308075382
0.00313141932379
0.00256292160531
0.00276787286101
0.00253528737304
0.0024081877135
0.00251034286909
0.002051920612
0.00248824151321
0.00169861186171
0.0024691254604
0.00134779226477
0.00245312105375
0.000999004774294
0.00244030317576
0.000651921639458
0.00243005766086
0.000308003557454
0.00240998146761
0.00216090339677
0.00170290520563
-0.0123818398023
0.00358777592604
-0.0137165034284
0.00546185252311
-0.0136582392798
0.00730348252179
-0.0134524194274
0.00910164848715
-0.0131747262709
0.0108467854525
-0.0128338511411
0.0125303669621
-0.0124353518744
0.0141449595515
-0.0119851465395
0.0156842625536
-0.0114895380993
0.0171431150304
-0.0109550383423
0.0185174695295
-0.010388200837
0.0198043435858
-0.00979547249056
0.0210017499375
-0.00918307089805
0.022108614931
-0.00855688242379
0.023124684932
-0.00792238537449
0.0240504286225
-0.00728459249714
0.0248869349643
-0.0066480166856
0.0256358138194
-0.00601665473374
0.0262990998873
-0.00539399185145
0.0268791658809
-0.00478302158196
0.0273786458883
-0.00418628097434
0.0278003722653
-0.00360589454612
0.0281473256519
-0.00304362373408
0.0284225974601
-0.00250091552216
0.0286293625319
-0.00197894629338
0.0287708582084
-0.00147865802886
0.0288503676053
-0.00100078541747
0.0288712031834
-0.000545875967084
0.0288366909265
-0.000114303876694
0.028750152711
0.000293718057218
0.0286148877165
0.00067812940488
0.0284341604095
0.00103900767618
0.0282111805994
0.00137655437341
0.0279490911471
0.00169108752489
0.02765095663
0.00198302730646
0.0273197527652
0.00225288276788
0.0269583588218
0.00250124118942
0.0265695500219
0.00272875703417
0.0261559922438
0.0029361433187
0.0257202363849
0.00312416251487
0.025264714558
0.00329361934325
0.0247917359783
0.00344535285879
0.0243034844492
0.00358022983611
0.0238020158004
0.00369913736183
0.0232892568044
0.00380297627287
0.0227670043958
0.00389265391324
0.0222369262771
0.00396907744163
0.0217005621785
0.00403314673215
0.0211593263843
0.00408574769364
0.0206145111841
0.00412774559518
0.0200672913852
0.00415997883468
0.0195187298662
0.00418325321554
0.0189697838582
0.00419833679026
0.0184213121938
0.00420595570389
0.0178740828288
0.00420679072678
0.0173287810933
0.00420147516098
0.0167860176996
0.00419059346435
0.0162463371424
0.00417468142734
0.0157102253631
0.00415422695586
0.0151781174582
0.00412967237253
0.014650404261
0.00410141707977
0.0141274386798
0.0040698215212
0.0136095406766
0.00403521117716
0.0130970018211
0.00399788151127
0.0125900884306
0.00395810260832
0.0120890442301
0.00391612435997
0.0115940917063
0.00387218105064
0.0111054330425
0.0038264961035
0.0106232499729
0.00377928603692
0.0101477033667
0.00373076426617
0.00967893201676
0.00368114404532
0.00921705134898
0.0036306410507
0.00876215162701
0.0035794751377
0.0083142962711
0.00352787165719
0.0078735199212
0.00347606204424
0.00743982678331
0.00342428398926
0.00701318891198
0.00337278100655
0.006593544899
0.00332180168231
0.00618079863332
0.00327159844309
0.0057748185393
0.00322242614195
0.00537543697967
0.00317454027644
0.00498245014679
0.00312819517488
0.00459561818869
0.00308364192287
0.00421466577202
0.00304112640009
0.0038392829266
0.00300088717933
0.00346912630705
0.00296315365535
0.00310382077999
0.00292814419192
0.00274296154803
0.00289606455108
0.0023861170704
0.00286710662614
0.00203283269097
0.00284144692115
0.00168263438638
0.00281924486949
0.00133503821871
0.00280064081791
0.000989563414093
0.00278570835
0.000645825983079
0.00277372633915
0.000305195988675
0.00275054822782
0.00246607243058
0.00176932626503
-0.0141511888144
0.00372682138446
-0.0156740239885
0.00567158918682
-0.0156030322974
0.00758042911974
-0.0153612888688
0.00944133236092
-0.0150356624667
0.0112439433758
-0.0146365001808
0.0129791420191
-0.0141705935696
0.0146390946093
-0.0136451482486
0.0162172863909
-0.0130677848097
0.0177085090811
-0.0124463225477
0.0191088158655
-0.011788575095
0.0204154475961
-0.0111021781685
0.0216267424298
-0.0103944452423
0.022742029333
-0.00967225464194
0.023761515106
-0.008941961201
0.0246861635812
-0.00820933574003
0.0255175755172
-0.00747952700465
0.0262578686767
-0.00675704963089
0.0269095664713
-0.00604579370754
0.0274754961643
-0.00534905720893
0.0279587035101
-0.00466959524461
0.0283623842382
-0.00400968260067
0.028689834655
-0.00337118119966
0.0289444186279
-0.00275560559878
0.029129547407
-0.00216417978213
0.0292486674308
-0.0015978806775
0.029305250289
-0.00105746860255
0.0293027824954
-0.000543505539655
0.0292447515007
-5.63672943925e-05
0.029134630152
0.000403748543225
0.0289758556894
0.000836816362856
0.028771820351
0.00124295937255
0.0285258482267
0.00162244636738
0.0282411841572
0.00197567535558
0.0279209817524
0.00230315689922
0.0275682951528
0.00260550024075
0.0271860709994
0.00288339936593
0.0267771432243
0.00313762212108
0.026344227277
0.0033689993012
0.025889916371
0.00357841620603
0.0254166769898
0.00376680370013
0.0249268460708
0.00393513087182
0.0244226277214
0.0040843968739
0.0239060914989
0.00421562371315
0.0233791706685
0.00432984820682
0.0228436619685
0.00442811447532
0.0223012258319
0.00451146580697
0.0217533880585
0.00458093684328
0.0212015423683
0.0046375455224
0.0206469542856
0.00468228533833
0.0200907661749
0.0047161179075
0.019534003345
0.00473996602801
0.0189775813399
0.00475470766663
0.0184223138548
0.00476117068069
0.0178689216367
0.00476012900938
0.0173180414291
0.00475229976256
0.0167702355348
0.00473834211057
0.0162260008007
0.0047188570602
0.0156857778025
0.00469438909276
0.0151499588969
0.00466542848238
0.0146188961071
0.00463241528178
0.0140929074809
0.0045957436338
0.0135722830294
0.00455576736301
0.0130572889629
0.00451280547057
0.0125481713916
0.00446714841861
0.0120451583785
0.00441906391475
0.0115484614712
0.00436880298809
0.0110582758394
0.00431660525697
0.0105747799974
0.00426270406597
0.0100981345146
0.00420733064416
0.00962848047464
0.00415071784622
0.0091659373398
0.00409310288471
0.0087106007433
0.00403472951526
0.00826254005937
0.00397584929154
0.00782179607691
0.00391672228351
0.00738837871868
0.00385761699842
0.00696226503058
0.00379880987689
0.00654339736531
0.00374058413796
0.0061316819857
0.00368322836436
0.00572698791
0.00362703457269
0.00532914630697
0.00357229620535
0.00493795010479
0.00351930573435
0.00455315424862
0.00346835235563
0.00417447610653
0.00341971942493
0.00380159656078
0.00337368211894
0.00343416126821
0.00333050497929
0.00307178254474
0.00329043975374
0.00271404173681
0.00325372327211
0.00236049184237
0.00322057540592
0.00201066119122
0.0031911975129
0.00166405887912
0.00316577061181
0.00132017637279
0.00314444770687
0.000978499790281
0.00312730844965
0.000638611409202
0.00311354931612
0.000301808453732
0.00308729252298
0.00276785090096
0.00184737632722
-0.0159985838236
0.00389013276923
-0.0177167965017
0.00591773399764
-0.0176306551863
0.0079051022941
-0.0173486813244
0.00983902279959
-0.0169696124017
0.0117082048423