/*--------------------------------*- C++ -*----------------------------------*\
| =========                 |                                                 |
| \\      /  F ield         | OpenFOAM: The Open Source CFD Toolbox           |
|  \\    /   O peration     | Version:  v1906                                 |
|   \\  /    A nd           | Web:      www.OpenFOAM.com                      |
|    \\/     M anipulation  |                                                 |
\*---------------------------------------------------------------------------*/
FoamFile
{
    version     2.0;
    format      ascii;
    class       volScalarField;
    location    "951";
    object      pa;
}
// * * * * * * * * * * * * * * * * * * * * * * * * * * * * * * * * * * * * * //

dimensions      [0 2 -2 0 0 0 0];


internalField   nonuniform List<scalar> 
9216
(
975.651214135
975.286714844
974.546111747
973.426204551
971.930652766
970.063712586
967.830744339
965.23809464
962.293063077
959.003805957
955.379306875
951.429270725
947.164097873
942.594771517
937.732840132
932.590303598
927.179608941
921.513540106
915.605231027
909.468062615
903.115695661
896.561976728
889.820991411
882.906978837
875.834403892
868.617878103
861.272247717
853.812517299
846.25394932
838.611985621
830.902353441
823.140979386
815.344094599
807.528135155
799.709841649
791.906139394
784.134224752
776.41142052
768.755244508
761.183237875
753.713014038
746.362062317
739.147778818
732.087253291
725.197286019
718.494169704
711.993694408
705.710935987
699.660242451
693.855033743
688.307748606
683.029649974
678.030699884
673.319358927
668.902365591
664.784531833
660.968448641
657.454321649
654.239689337
651.319379659
648.685352731
646.326877951
644.230646689
642.381213546
640.761291334
639.352292115
638.134523607
637.087846256
636.192334914
635.429059714
634.780488989
634.230792405
633.765855619
633.373270908
633.042190801
632.763195718
632.528115781
632.329906668
632.162542907
632.020940639
631.900835199
631.798651162
631.711381495
631.636481453
631.571539638
631.516393238
631.471850582
631.437383011
631.411799714
631.393527366
631.381036439
631.372771225
631.367425134
631.364272627
631.362723375
631.362192944
976.015278101
975.649631958
974.907776131
973.784823058
972.284981014
970.412657891
968.173296077
965.573315768
962.620078048
959.321812889
955.687567362
951.727123499
947.450944501
942.870089432
937.996163756
932.841236784
927.417801953
921.73870203
915.817103428
909.666432754
903.30036778
896.732787029
889.977778004
883.049599391
875.96270511
868.731716791
861.371460479
853.89694558
846.323409819
838.666299814
830.94131892
823.164403287
815.351766855
807.519867583
799.685441911
791.865453828
784.077113355
776.337802921
768.665074558
761.076550726
753.589898626
746.222707011
738.992440532
731.91629948
725.011160939
718.293432031
711.778984591
705.483010986
699.41995193
693.603354792
688.045779729
682.758646145
677.75208776
673.034763487
668.613634344
664.493732059
660.677872814
657.166433377
653.957089632
651.044698001
648.421163598
646.075530537
643.994208556
642.161347686
640.559297838
639.169109385
637.970584083
636.942880925
636.06545651
635.318921687
634.685518602
634.149338905
633.696313695
633.314136768
632.992107379
632.720953235
632.492636266
632.300209334
632.137735032
632.000237943
631.883577824
631.784294132
631.699494417
631.626780618
631.56413448
631.510468314
631.466871716
631.433722515
631.408950338
631.391218407
631.379329289
631.371510988
631.366393724
631.363493499
631.362140471
631.361605907
976.757354401
976.388549531
975.642475629
974.513197132
973.004956699
971.122225075
968.870538076
966.256426166
963.287366118
959.971715175
956.318647375
952.338079115
948.040601536
943.437404444
938.540211555
933.361209095
927.912989734
922.208491135
916.260953192
910.083870327
903.690964866
897.096154841
890.313544137
883.357405292
876.242184845
868.982498562
861.593148624
854.089127244
846.485641162
838.798118631
831.042235943
823.233921761
815.389379127
807.525081327
799.657782492
791.804497023
783.982491982
776.209243815
768.502406743
760.879742889
753.359064688
745.958139383
738.694609096
731.585876958
724.649014203
717.900639953
711.356826637
705.032984301
698.943769172
693.102972126
687.523418552
682.21684007
677.193731959
672.463168345
668.032576651
663.907467618
660.091131717
656.584336171
653.385048482
650.488230789
647.885673231
645.565952635
643.514859566
641.715675254
640.149968065
638.798239072
637.639205555
636.650450474
635.810022599
635.097585231
634.494937178
633.986074136
633.557047891
633.195796321
632.891937547
632.636525909
632.421796147
632.240982596
632.088297734
631.958989603
631.849185615
631.755649005
631.675673555
631.607037377
631.547806235
631.497037086
631.456804975
631.426349196
631.403160175
631.386764249
631.376083129
631.368934451
631.36443052
631.36194313
631.36067148
631.36004819
977.884940496
977.512478065
976.759910846
975.62089395
974.099755581
972.201070875
969.930514436
967.29477963
964.301522267
960.959292332
957.277463092
953.266155148
948.936161221
944.298869237
939.366189878
934.150485376
928.664506112
922.921330845
916.934317405
910.717058521
904.28334972
897.647162686
890.822631016
883.824040465
876.665830714
869.362599591
861.929117136
854.380339428
846.731430136
838.997778776
831.195024551
823.339072875
815.446114365
807.532633763
799.615417129
791.711544057
783.838375031
776.013519508
768.254796299
760.580172195
753.007692364
745.555389773
738.241189614
731.082797933
724.097592345
717.302505637
710.713919819
704.347560945
698.218407873
692.340601951
686.727359868
681.390874445
676.342185265
671.59101245
667.145511717
663.011980282
659.194472563
655.694426833
652.510299381
649.637311649
647.067127423
644.787510119
642.783290529
641.036162381
639.526427639
638.23440604
637.137081955
636.209071264
635.425920381
634.765801805
634.209971135
633.742437166
633.349539904
633.019664977
632.742987197
632.511130678
632.316772756
632.153370118
632.015267864
631.898069453
631.798386429
631.713321426
631.640419782
631.577735934
631.523433095
631.477425747
631.441788641
631.414692281
631.394592247
631.380433039
631.371002029
631.364904797
631.361190039
631.359092701
631.357963089
631.357410403
979.401014377
979.023854459
978.262503886
977.110286233
975.571667611
973.651376059
971.3552777
968.690288157
965.664309026
962.286153797
958.565469894
954.512657241
950.138786058
945.455514893
940.475011619
935.209878116
929.673081308
923.877890828
917.837825732
911.566609863
905.078137784
898.386450007
891.505718833
884.450242585
877.234449085
869.872905449
862.380334899
854.771637245
847.061913885
839.266493624
831.400960743
823.481179887
815.523319687
807.543870886
799.559658099
791.587840671
783.64590303
775.751629063
767.923061811
760.178443868
752.53614154
745.014550277
737.631987236
730.406571583
723.356101378
716.497930101
709.848853021
703.425005241
697.241779472
691.313755914
685.654648854
680.277237636
675.19328824
670.413394959
665.946757198
661.800810566
657.980764445
654.489069004
651.324955486
648.484187137
645.958476015
643.734111936
641.794829839
640.119266049
638.685602752
637.476230401
636.465496371
635.622374129
634.918226315
634.329213639
633.836265004
633.42377928
633.078679966
632.79007034
632.549017596
632.348078628
632.180615021
632.040231762
631.921159313
631.81953418
631.732883223
631.658741871
631.594900667
631.539873851
631.492020256
631.452364228
631.422420404
631.39970778
631.382846812
631.371271339
631.363914713
631.359274059
631.356359996
631.354746615
631.35388766
631.353459304
981.31019739
980.927145799
980.154653113
978.985661094
977.42482699
975.477084269
973.148550121
970.446428747
967.378940461
963.955239706
960.18532888
956.07996891
951.650588907
946.909196612
941.868291913
936.540784997
930.939921284
925.079214419
918.972389098
912.633334375
906.07606855
899.314715349
892.363491582
885.236705024
877.948761933
870.514182335
862.947622221
855.263900624
847.478030871
839.605253953
831.661073969
823.661291563
815.622035882
807.559792521
799.491423931
791.434179619
783.405693568
775.423964982
767.507320384
759.674354192
751.94384756
744.334665477
736.865635393
729.555411967
722.422335529
715.48429359
708.75859517
702.261868902
696.009989167
690.018038957
684.300290745
678.870213701
673.740440581
668.922693319
664.427557429
660.264077181
656.439125452
652.956615919
649.816899347
647.016819397
644.548921171
642.396275093
640.542696739
638.95992389
637.621558037
636.520378674
635.626060225
634.895948134
634.294579135
633.795922474
633.38161617
633.037335787
632.750990427
632.512674285
632.314807814
632.151500147
632.017241141
631.905460836
631.809386915
631.725988681
631.654811365
631.593748248
631.540548164
631.494609239
631.454779476
631.422821468
631.398771749
631.38076651
631.367996104
631.359930351
631.354690113
631.351680244
631.349944423
631.348801933
631.348259464
631.34798403
983.618278758
983.228044497
982.441938489
981.252440368
979.664450149
977.683162978
975.315012691
972.567565984
969.449442544
965.970223413
962.140354704
957.971048141
953.474180649
948.662195187
943.548004966
938.144903195
932.46648039
926.526551207
920.339092429
913.91819347
907.278020147
900.432791975
893.396772521
886.184271844
878.809659543
871.287386747
863.632015305
855.858252601
847.980990641
840.015348112
831.97671509
823.880796518
815.743655108
807.581751344
799.411975806
791.251671409
783.118641341
775.031138465
767.007832285
759.067750079
751.230190212
743.514607603
735.940473999
728.527119197
721.29356285
714.258349771
707.43940489
700.853921138
694.518299448
688.448136277
682.658280387
677.162908586
671.975629822
667.109510437
662.576935831
658.389177278
654.555492157
651.081861004
647.969940605
645.218671078
642.824257104
640.760920851
639.019573009
637.553688464
636.322935646
635.359532405
634.621175911
634.038885879
633.566581164
633.177273212
632.856323498
632.592431305
632.374765528
632.194432807
632.045855755
631.92587853
631.83120063
631.754288318
631.684588997
631.620419752
631.566640281
631.520661996
631.478967363
631.443126648
631.412521742
631.388731528
631.371175869
631.358826538
631.350876819
631.346150491
631.343281427
631.341940058
631.341614513
631.341288622
631.341205297
631.341169513
986.332317284
985.933520215
985.131190709
983.917252385
982.296904475
980.275665141
977.86035833
975.058995976
971.880687458
968.335536
964.434530233
960.189432402
955.612665832
950.717203874
945.516462833
940.024201122
934.254427186
928.221318355
921.939152874
915.422256641
908.684965828
901.741605531
894.606483971
887.293900725
879.81816714
872.193636527
864.434742105
856.556040734
848.57226126
840.498356311
832.349557921
824.141432658
815.889938086
807.611477641
799.322948581
791.041780024
782.785955695
774.574015711
766.425031784
758.358550658
750.394501943
742.553069031
734.85452495
727.319040535
719.966476295
712.816177589
705.886792746
699.196143004
692.761159192
686.597914954
680.72174484
675.147463147
669.889639538
664.962836282
660.381713528
656.16059706
652.312322739
648.845700883
645.763079995
643.066905132
640.766985206
638.8077666
637.220130354
635.903847829
634.766659759
633.982551201
633.461339954
633.071660446
632.753991
632.48666616
632.268980049
632.096666635
631.958222379
631.8434019
631.748888959
631.676536381
631.628446678
631.594839277
631.553626427
631.505312725
631.470702716
631.442572512
631.411806138
631.386791088
631.36649347
631.351043695
631.340759551
631.334223735
631.331038407
631.329746228
631.329954884
631.330568731
631.331558429
631.332471598
631.332979274
631.333261499
989.460720633
989.051882964
988.230549391
986.98798757
985.329758088
983.261771869
980.791325902
977.926971189
974.678408779
971.056371841
967.072502499
962.739225402
958.069620607
953.077298365
947.776278273
942.180875565
936.305597231
930.165050962
923.773869456
917.14665248
910.297927975
903.242132755
895.993611789
888.56663427
880.975423467
873.234197361
865.357217023
857.358840712
849.253582361
841.056174078
832.78163376
824.445333557
816.063072425
807.651149338
799.226431123
790.806411413
782.409253689
774.053811049
765.759614631
757.546822999
749.436125713
741.448597321
733.605501954
725.92805573
718.437161727
711.153141589
704.095496206
697.282730141
690.732279639
684.460567186
678.483212688
672.815412721
667.472462617
662.470419608
657.826624656
653.559698053
649.688170008
646.225144811
643.169669142
640.5274905
638.360781239
636.499100899
635.150348151
634.025378518
632.745568617
632.179006185
632.024471171
631.920591596
631.823774614
631.735165801
631.656557667
631.584475637
631.515604684
631.451309052
631.398417419
631.37085841
631.386337305
631.426001489
631.425304252
631.380082583
631.369192164
631.365079565
631.340072739
631.326234213
631.317458802
631.309903804
631.307519963
631.307073476
631.308975385
631.311743148
631.314874717
631.318010742
631.320589147
631.322781772
631.324009717
631.324656969
993.013336809
992.592864223
991.749542088
990.473870669
988.771844675
986.649847459
984.115744485
981.178733012
977.849222035
974.138696942
970.059578999
965.625081573
960.849066008
955.745899565
950.33031825
944.617297299
938.621932827
932.359338061
925.844557895
919.09250472
912.117917809
904.935346717
897.559157733
890.003560354
882.282649772
874.410460631
866.401028087
858.268453357
850.026972979
841.69103207
833.275364583
824.795076212
816.26573576
807.70347046
799.125059032
790.548017915
781.990672075
773.472200524
765.012645678
756.632874948
748.354483781
740.199631864
732.190809223
724.350537921
716.70102574
709.26380418
702.05939389
695.107053136
688.424660545
682.028779453
675.934944509
670.158203486
664.71401005
659.61942467
654.89469053
650.564309522
646.657379103
643.195443025
640.161100674
637.542795552
635.584525015
633.527204051
632.641399384
632.083691589
631.823299964
631.807706159
631.840058085
631.828005091
631.790123665
631.739978419
631.684099266
631.626785602
631.571111044
631.520401082
631.481701989
631.468998969
631.490337773
631.488501638
631.355595931
631.208140154
631.243865647
631.295502787
631.261285581
631.261050763
631.267325154
631.26488762
631.271797935
631.277287932
631.285226927
631.292833561
631.299203792
631.304671389
631.309218789
631.312690809
631.314791921
631.315817411
997.001561503
996.567721727
995.69917982
994.385548724
992.633340579
990.449504651
987.842585231
984.822549619
981.40064807
977.589257834
973.401722148
968.852186494
963.955434746
958.726727697
953.181646443
947.335943912
941.205408328
934.805743391
928.152469899
921.260853482
914.145861504
906.822150464
899.304082227
891.605765063
883.741113062
875.72391707
867.567920927
859.286899575
850.894738514
842.405516921
833.833599786
825.193735851
816.501170159
807.77176592
799.022129013
790.269729742
781.533011004
772.831470513
764.185702288
755.617381037
747.149172393
738.804553917
730.607536786
722.582289142
714.752677783
707.141768066
699.771343284
692.661522858
685.830557154
679.294858757
673.069312115
667.167961791
661.605193883
656.39772532
651.567809324
647.147264832
643.185975633
639.724730794
636.666528477
633.647465191
632.536854607
632.143036902
632.107915719
632.090844005
632.036967102
632.013062026
632.00189275
631.973648622
631.932228103
631.879902923
631.819930266
631.755951862
631.690609002
631.627072323
631.570468514
631.528397313
631.500465719
631.456084624
631.388354584
631.351975536
631.38072574
631.354990601
631.151262749
631.174005126
631.21931421
631.213767218
631.235653993
631.244707879
631.260091495
631.273279608
631.283679176
631.291700649
631.297959598
631.302777569
631.305858159
631.307277743
1001.43846675
1000.98935988
1000.09207323
998.735195818
996.925857083
994.671681707
991.982022316
988.867759923
985.341139888
981.415591234
977.105542039
972.426232908
967.39353104
962.023746538
956.333453293
950.339317457
944.057938344
937.505707595
930.698693711
923.652558406
916.382510154
908.903296909
901.22923636
893.37427739
885.352083282
877.17612548
868.859778603
860.416411422
851.859474608
843.202590345
834.45965387
825.644945492
816.773266567
807.860092586
798.921736819
789.975517529
781.039916092
772.134710418
763.281064897
754.501553984
745.820094305
737.261759253
728.85245464
720.618445492
712.585746576
704.779423199
697.222888977
689.937318002
682.941292265
676.250739515
669.879193093
663.838441609
658.139822756
652.796713542
647.830422217
643.277351114
639.225506242
635.711929551
632.685417762
632.439751185
632.40229731
632.375478447
632.369098313
632.348614587
632.304889504
632.260864158
632.221730595
632.179876807
632.131308545
632.073241905
632.007247468
631.935708642
631.860679544
631.785746395
631.7155855
631.655124996
631.602784269
631.542868706
631.471491283
631.413815779
631.380687552
631.32542538
631.286075923
631.291542056
631.234511523
631.134150088
631.201146997
631.206402316
631.234774491
631.254772553
631.269084955
631.279824321
631.287806405
631.293777279
631.297822969
631.299695764
1006.33895445
1005.87248067
1004.94257053
1003.53663863
1001.66254897
999.328732746
996.545503418
993.324823928
989.680112793
985.626034354
981.178287077
976.353391992
971.168482568
965.641096659
959.788971427
953.629844294
947.181265128
940.460427902
933.484031466
926.268179854
918.828330253
911.179293119
903.335282242
895.310006071
887.116785011
878.768677165
870.278596822
861.659418012
852.924065383
844.085603508
835.157341745
826.152957595
817.086657513
807.973366765
798.828941025
789.670391373
780.516107687
771.386062434
762.30197138
753.287381455
744.36764949
735.569770779
726.922016392
718.453349032
710.192614742
702.167559911
694.403795141
686.923889734
679.746808645
672.887715972
666.358072941
660.165986134
654.316912934
648.815608877
643.669753608
638.866947085
634.390875655
632.809125066
632.472864343
632.622758705
632.692947195
632.703937255
632.687440395
632.650228978
632.600058302
632.547944752
632.497300699
632.444745612
632.386202896
632.319041172
632.244524412
632.1638057
632.07835784
631.991630806
631.907539374
631.829291846
631.755531292
631.67836275
631.595590391
631.519981776
631.457130446
631.390469049
631.333823843
631.293570573
631.255743441
631.250380315
631.233194489
631.145279252
631.210837807
631.24015862
631.257263451
631.269826425
631.279368731
631.286453795
631.291354603
631.29369627
1011.71994078
1011.2337568
1010.26692273
1008.80550393
1006.85824226
1004.43453231
1001.54583047
998.205379415
994.427977735
990.229735516
985.627832438
980.640279522
975.28568419
969.583016351
963.551374534
957.209753655
950.576820817
943.670709631
936.508847677
929.107832552
921.483370641
913.650286455
905.62260152
897.413669732
889.036345843
880.503157511
871.826454886
863.018524377
854.091672617
845.058301794
835.931006636
826.722703006
817.446814741
808.117506497
798.749954107
789.360641425
779.967667499
770.591044176
761.252957557
751.977955893
742.79301524
733.727420786
724.812393192
716.080391514
707.564053919
699.294811412
691.301341748
683.608165371
676.234835305
669.195645573
662.499584039
656.150199071
650.145526596
644.474293896
639.080563178
633.565013935
633.090702965
633.076586564
633.024218043
633.078979157
633.082794045
633.071569062
633.04611336
633.005387939
632.95299792
632.895563343
632.835815771
632.772055311
632.701524097
632.623522182
632.53851042
632.446271148
632.34840125
632.247687053
632.147153065
632.048992338
631.95261603
631.854775825
631.755564945
631.661609512
631.575986283
631.493277777
631.417665602
631.355274435
631.302315451
631.26824009
631.239540216
631.227633356
631.219094435
631.237325401
631.250171977
631.262626699
631.27313749
631.281250581
631.28698023
631.289853351
1017.60057659
1017.0920463
1016.08347896
1014.55939355
1012.52958251
1010.00459554
1006.99725053
1003.52230453
999.596177103
995.236664805
990.462666201
985.293917317
979.750733335
973.85374977
967.623657488
961.080931304
954.245558549
947.136782383
939.772880521
932.171004166
924.347099832
916.31592983
908.091192348
899.685723759
891.111745779
882.381108556
873.505483311
864.496481225
855.365710495
846.124812925
836.785532631
827.35984002
817.860145692
808.29958503
798.692360069
789.054124112
779.402392736
769.756962872
760.14031218
750.577936329
741.098562313
731.73415132
722.519577016
713.491846448
704.688745264
696.146880752
687.899331814
679.973390004
672.389533722
665.161300614
658.295470512
651.792740908
645.645476557
639.805277595
633.884655513
633.177657216
633.387438799
633.542123033
633.55095406
633.553868961
633.53473618
633.510013771
633.474424976
633.42753225
633.371048088
633.308240616
633.24032018
633.165959952
633.083439175
632.993867209
632.896748474
632.790932004
632.678104648
632.560478766
632.440479005
632.319931181
632.199166012
632.077585035
631.956496762
631.839839853
631.729872607
631.625903004
631.530699409
631.447937692
631.376833002
631.320880631
631.277585539
631.251038048
631.249734197
631.243753642
631.24289782
631.256773949
631.268969202
631.278436336
631.28525031
631.288749419
1024.00251297
1023.46864075
1022.41291979
1020.81808897
1018.69520716
1016.05621433
1012.91555625
1009.28978476
1005.19722169
1000.65762391
995.691873595
990.321690876
984.569358468
978.457442441
972.008496405
965.244743824
958.187745397
950.858070611
943.275004519
935.456327336
927.418205397
919.175222033
910.740556854
902.126290379
893.343776633
884.403999719
875.317831145
866.096142556
856.749798251
847.289607471
837.726330394
828.0707825
818.334079654
808.527988222
798.665354879
788.760594879
778.830226627
768.893440804
758.972681242
749.094194144
739.288476112
729.590510267
720.039622933
710.678725422
701.552667777
692.705490178
684.176763806
675.997614065
668.189669033
660.765632631
653.730946366
647.082738845
640.777711572
634.430626101
633.670294988
633.819164572
634.02476723
634.093496292
634.096668815
634.083968432
634.055354707
634.019620552
633.974915192
633.921836497
633.860978964
633.79311157
633.717768008
633.633411133
633.539300162
633.437415446
633.32641688
633.204827592
633.074314792
632.936803786
632.794436445
632.649038695
632.501735267
632.353406065
632.205958225
632.062385576
631.924987302
631.795150046
631.67555569
631.568941278
631.476400814
631.399889417
631.338906228
631.294455713
631.27029245
631.255069629
631.243918516
631.250987693
631.266941685
631.278309803
631.286759019
631.291047441
1030.95022101
1030.38757254
1029.27853367
1027.60379304
1025.37594353
1022.60860977
1019.31819374
1015.52338121
1011.24472595
1006.50425415
1001.32512005
995.731305984
989.747343671
983.398026767
976.708088181
969.701829481
962.40270758
954.832904942
947.01292741
938.961288432
930.694341988
922.226317837
913.569582966
904.735104788
895.733027792
886.57322074
877.265638544
867.820407091
858.247678253
848.557415473
838.759278935
828.862691834
818.877130071
808.812564505
798.680000467
788.492083107
778.263768884
768.013069789
757.761860034
747.536709967
737.369681643
727.29896732
717.369152576
707.63073148
698.138325108
688.946925852
680.106110218
671.652039094
663.607138606
655.983276177
648.782126185
641.962129453
635.122452206
634.339058382
634.517117273
634.678506409
634.741984029
634.747161979
634.725050696
634.691647025
634.649746233
634.603670205
634.552119284
634.494408916
634.429488706
634.356236424
634.272901667
634.177920021
634.072511325
633.957114095
633.829522001
633.689712896
633.539047522
633.379275752
633.212386928
633.040287004
632.864632275
632.687107479
632.509979197
632.336048625
632.16793824
632.00806375
631.859317428
631.724470946
631.605578495
631.504458021
631.42152452
631.357065195
631.311168521
631.278672689
631.256411916
631.248876989
631.268232113
631.281370315
631.292308312
631.297602555
1038.47138035
1037.87597495
1036.70654838
1034.94141265
1032.59503615
1029.68309935
1026.22437319
1022.24009409
1017.75343658
1012.78904018
1007.37263487
1001.53074916
995.290456445
988.679103337
981.723972256
974.451851647
966.888516773
959.058154535
950.982796306
942.681846255
934.171807092
925.466298512
916.576428339
907.511499996
898.279928846
888.890122029
879.351025226
869.672136182
859.863079469
849.933073455
839.890599211
829.743412075
819.49891562
809.164750618
798.749476203
788.263295078
777.718859605
767.132203045
756.523809214
745.919800854
735.353210105
724.865246284
714.506339817
704.33645723
694.423750195
684.839821278
675.650892017
666.899090913
658.606604593
650.780253486
643.378540033
635.97836421
635.16593355
635.406623728
635.577401113
635.577635313
635.539493934
635.48968937
635.433428764
635.377002667
635.321544718
635.266724768
635.209412177
635.146821341
635.076267379
634.995334341
634.901632138
634.793980998
634.675028063
634.543679163
634.39752527
634.237650784
634.065307661
633.882126745
633.689943523
633.490649861
633.286135193
633.078449882
632.870053806
632.663787256
632.462592392
632.269488236
632.087722609
631.920448521
631.770394109
631.639780247
631.529802943
631.44092977
631.37255218
631.32153305
631.285004754
631.262997268
631.260346167
631.285971179
631.302892556
631.309484732
1046.59735266
1045.96453085
1044.72652691
1042.85889329
1040.37840554
1037.30327588
1033.65517359
1029.45841032
1024.73924479
1019.52530573
1013.84519827
1007.72826141
1001.20439131
994.303830839
987.056841906
979.493213687
971.641603408
963.528753841
955.178674916
946.611918929
937.845108567
928.890886598
919.758418312
910.454471386
900.984904124
891.356148745
881.576112362
871.654034431
861.599490843
851.421260953
841.126624917
830.721323368
820.210119764
809.597651847
798.889302
788.092017011
777.215211026
766.271872217
755.27991316
744.26375753
733.256186094
722.300481911
711.452785755
700.784176723
690.381229439
680.341351805
670.761899676
661.690861595
653.142199391
645.072575959
637.032355708
636.169783734
636.474811773
636.674440913
636.634775677
636.516388554
636.402367672
636.300903394
636.212458113
636.136392617
636.069029626
636.005662478
635.940880167
635.870106019
635.789540307
635.69612243
635.587555961
635.463685413
635.327496493
635.177200119
635.010851335
634.829968432
634.635772324
634.429689131
634.213280293
633.988229911
633.756360275
633.519745485
633.280842334
633.042491527
632.807813039
632.580172593
632.363165914
632.160404227
631.975252652
631.810589112
631.66844895
631.549957771
631.45506754
631.382193888
631.329408976
631.294710015
631.276908477
631.286169634
631.321212067
631.328414953
1055.36376358
1054.68801089
1053.37184576
1051.38761347
1048.75494402
1045.49519217
1041.63362585
1037.1983149
1032.21916566
1026.72719357
1020.75413698
1014.3323411
1007.49475228
1000.27484755
992.706362382
984.822738499
976.656282098
968.237086256
959.591835184
950.742670481
941.706362544
932.494072315
923.11197598
913.562892567
903.848741025
893.973152487
883.943106788
873.768463162
863.459781485
853.026060295
842.473422383
831.805087285
821.022371743
810.126052899
799.11749668
787.999469883
776.777032871
765.458777051
754.058452934
742.596935853
731.104635631
719.624660282
708.21704731
696.964061495
685.975886567
675.389862651
665.371813316
655.963518389
647.112269951
638.334200946
637.378545515
637.729397494
637.953928745
637.881388
637.688055724
637.484147038
637.30951126
637.167408796
637.053663711
636.961068911
636.88126247
636.806224422
636.728814161
636.643436296
636.545882443
636.43308043
636.303608829
636.15972878
636.002383596
635.82952474
635.641634627
635.439834281
635.225079734
634.998357596
634.760739343
634.513453764
634.257963833
633.996069725
633.729999147
633.462428687
633.196449549
632.935538551
632.683505562
632.444337742
632.221977679
632.020055138
631.841570008
631.68868134
631.562492738
631.463000917
631.389688577
631.341402995
631.315725065
631.314871348
631.363901765
631.358492491
1064.81121739
1064.0859592
1062.68026918
1060.56285733
1057.75685579
1054.28754265
1050.18474653
1045.4812303
1040.21125399
1034.40961702
1028.11133613
1021.35180291
1014.16711244
1006.59426582
998.671028186
990.435327355
981.924174616
973.172175737
964.209777326
955.061486699
945.744411774
936.267585699
926.632605238
916.836008819
906.87336191
896.74403678
886.454490703
876.017120108
865.445544267
854.750226567
843.93619602
833.003268113
821.948047744
810.766340257
799.454623007
788.010543219
776.433556679
764.726232149
752.896169806
740.95823395
728.937251779
716.871950939
704.821209247
692.873943271
681.165480093
669.890170258
659.381280638
649.586773222
639.946713711
638.823309205
639.175473078
639.408886277
639.298501803
639.032010203
638.735055387
638.467094008
638.249226209
638.078342728
637.944129826
637.834451519
637.737830804
637.644411373
637.546302688
637.437735172
637.314759146
637.174958926
637.018234979
636.848416074
636.665633075
636.46852761
636.258820755
636.03736356
635.804670886
635.561065835
635.306884145
635.042640416
634.76916795
634.487732749
634.200110782
633.908615056
633.616086121
633.325871792
633.041782988
632.767989289
632.508850855
632.268685877
632.051488091
631.860666726
631.698814764
631.567609971
631.467959951
631.399898615
631.362175503
631.350997705
631.349068423
631.379326766
1074.98616917
1074.2035669
1072.69463307
1070.42438544
1067.42006397
1063.71183007
1059.33547418
1054.32981877
1048.73440341
1042.58815919
1035.92928114
1028.79593734
1021.22721514
1013.26380772
1004.94811903
996.323631496
987.433524212
978.318623729
969.014853569
959.550459775
949.943468096
940.200074868
930.3149393
920.274428218
910.063364238
899.674032223
889.113376683
878.400434455
867.555927026
856.593971235
845.518395669
834.323850392
823.000037481
811.536332152
799.923657561
788.153806242
776.219322764
764.114870672
751.839630766
739.399615267
726.809924715
714.098407964
701.312583859
688.533039576
675.906097909
663.670020927
652.589269463
641.926562177
640.523516202
640.800151987
641.020250135
640.86645532
640.526982963
640.138265614
639.771314416
639.461458129
639.21510287
639.021595677
638.866010298
638.733697436
638.612048461
638.490913357
638.362624836
638.221829673
638.065138697
637.891087795
637.701130229
637.499984062
637.288153385
637.065594843
636.83445281
636.595355807
636.348186305
636.092374881
635.827268972
635.552417815
635.267785098
634.973886034
634.67185771
634.363475028