/*--------------------------------*- C++ -*----------------------------------*\
| =========                 |                                                 |
| \\      /  F ield         | OpenFOAM: The Open Source CFD Toolbox           |
|  \\    /   O peration     | Version:  v1906                                 |
|   \\  /    A nd           | Web:      www.OpenFOAM.com                      |
|    \\/     M anipulation  |                                                 |
\*---------------------------------------------------------------------------*/
FoamFile
{
    version     2.0;
    format      ascii;
    class       surfaceScalarField;
    location    "139";
    object      phi;
}
// * * * * * * * * * * * * * * * * * * * * * * * * * * * * * * * * * * * * * //

dimensions      [0 3 -1 0 0 0 0];
oriented        oriented;


internalField   nonuniform List<scalar> 
18240
(
0.0119448544189
-0.0119448561874
0.0244857018065
-0.0125408498454
0.036977428872
-0.0124917286325
0.049330237377
-0.0123528110111
0.0614914973743
-0.0121612612936
0.0734144750218
-0.0119229802053
0.0850563488144
-0.0116418748321
0.096377902407
-0.0113215561842
0.107343621472
-0.0109657198611
0.117921829484
-0.0105782106208
0.128084813313
-0.0101629843956
0.137808860995
-0.00972405029448
0.147074257941
-0.00926539730121
0.155865190281
-0.00879093494676
0.164169621021
-0.00830443090147
0.171979087758
-0.00780946932683
0.179288495288
-0.00730940751837
0.186095847308
-0.00680735458671
0.192401994368
-0.00630614689183
0.198210336553
-0.00580834472157
0.203526559929
-0.00531622307018
0.20835833948
-0.00483178204904
0.212715088438
-0.00435674853024
0.216607681628
-0.00389259564481
0.220048233129
-0.0034405509675
0.223049851754
-0.00300162102965
0.225626454934
-0.00257660255258
0.227792561544
-0.00216610895968
0.229563144746
-0.00177058249424
0.230953464155
-0.00139032169811
0.231978960957
-0.0010254960238
0.232655141598
-0.000676182864726
0.232997556519
-0.000342414083547
0.233021951097
-2.43967270719e-05
0.232743430006
0.000278521989048
0.232176255516
0.000567172417195
0.231334643092
0.000841613363145
0.23023259237
0.00110204872492
0.228883773857
0.00134881948773
0.227301451829
0.0015823201078
0.225498474018
0.00180297881166
0.223487234385
0.00201123779463
0.221279682719
0.00220755268795
0.218887300683
0.00239238027936
0.21632112009
0.002566181629
0.21359170632
0.00272941209727
0.210709181626
0.00288252574171
0.207683213439
0.00302596659854
0.204523040703
0.00316017378718
0.201237465495
0.00328557370634
0.197834880978
0.00340258557059
0.194323265234
0.00351161432913
0.190710209836
0.00361305644624
0.187002915109
0.0037072934004
0.183208218588
0.00379469756123
0.179332591183
0.0038756261665
0.175382165027
0.00395042718471
0.171362730185
0.00401943369059
0.167279761573
0.00408296962529
0.163138415993
0.00414134451651
0.158943557915
0.0041948590726
0.154699756731
0.00424380020658
0.15041131129
0.00428844641379
0.146082247324
0.00432906307611
0.141716340682
0.00436590758854
0.137317114952
0.00439922492628
0.132887863379
0.00442925249313
0.128431646715
0.00445621594488
0.123951313862
0.00448033374225
0.119449500003
0.00450181322666
0.114928645996
0.0045208548638
0.110390996874
0.00453764857455
0.105838620035
0.00455237766136
0.101273404175
0.00456521539731
0.0966970763323
0.0045763286285
0.0921112013254
0.00458587462812
0.0875171977005
0.00459400437143
0.0829163377437
0.00460085966014
0.0783097623818
0.0046065760658
0.0736984818341
0.00461128033068
0.0690833895167
0.00461509297409
0.0644652634072
0.00461812596915
0.0598447790177
0.00462048499535
0.0552225115826
0.00462226736977
0.0505989482543
0.00462356388185
0.0459744914162
0.0046244568506
0.041349470694
0.0046250212273
0.0367241487536
0.00462532203701
0.0320987363691
0.004625412846
0.0274734089664
0.00462532757869
0.0228483471083
0.00462506226337
0.0182238246966
0.00462452265061
0.0136004816689
0.00462334334069
0.0089799872968
0.00462049471321
0.00437520282436
0.00460478484024
0.00437520299252
0.0126155674341
-0.0245604256025
0.026005809897
-0.0259310945819
0.0393018097746
-0.0257877304679
0.0524371726498
-0.0254881760554
0.0653636564689
-0.0250877469243
0.0780342745708
-0.0245936003987
0.090404349319
-0.024011951246
0.102432461862
-0.0233496707389
0.114080956868
-0.0226142163869
0.125316228711
-0.0218134843925
0.136108889933
-0.0209556469975
0.146433831977
-0.0200489941812
0.156270212456
-0.0191017790257
0.165601358562
-0.0181220828122
0.174414620059
-0.0171176935201
0.182701159581
-0.0160960105256
0.190455715943
-0.0150639648855
0.197676325939
-0.0140279661809
0.204364040761
-0.0129938626123
0.210522619127
-0.0119669246085
0.216158232416
-0.0109518371586
0.221279160117
-0.00995271119751
0.225895509521
-0.00897309864375
0.230018934481
-0.00801602198031
0.233662385804
-0.00708400291492
0.236839865251
-0.00617910178188
0.239566214606
-0.00530295245459
0.24185690963
-0.00445680522121
0.243727889408
-0.00364156274617
0.245195388765
-0.00285782222437
0.246275801292
-0.00210590895859
0.2469855309
-0.00138591357621
0.247340828438
-0.000697711963308
0.247357355374
-4.09246896698e-05
0.247051017853
0.000584859248497
0.246438090013
0.00118009930601
0.245534167101
0.0017455360695
0.244354283944
0.00228193099247
0.242913010586
0.00279009268971
0.241224451652
0.00327087821267
0.239302245434
0.00372518492039
0.237159547112
0.0041539353476
0.234809029419
0.00455807031489
0.232262872021
0.00493853696638
0.229532768788
0.00529628483791
0.226629923574
0.00563225665621
0.223565062666
0.00594738666406
0.220348435173
0.00624259349334
0.216989828882
0.00651878012826
0.213498573713
0.00677682833177
0.209883559586
0.00701759978227
0.206153241767
0.0072419316589
0.202315659735
0.00745063859366
0.198378443586
0.00764450911234
0.194348833167
0.00782430812524
0.190233684957
0.00799077399111
0.186039490981
0.00814462133365
0.181772385782
0.00828653855373
0.177438164793
0.00841719081118
0.173042291166
0.00853721785568
0.168589913404
0.00864723705456
0.164085871921
0.00874784144955
0.159534715829
0.00883960274412
0.15494070919
0.00892306952094
0.150307846909
0.00899877012742
0.145639860674
0.00906721101093
0.14094023398
0.00912887946059
0.136212207784
0.00918424203329
0.131458794691
0.00923374712418
0.126682784383
0.00927782346912
0.121886757022
0.00931688252699
0.11707308852
0.00935131705274
0.112243963213
0.00938150328241
0.10740137905
0.00940779957717
0.102547159595
0.0094305484072
0.0976829592077
0.00945007507096
0.0928102744345
0.00946668947718
0.0879304492406
0.00948068494565
0.0830446858568
0.00949233978729
0.0781540501208
0.00950191619156
0.0732594818321
0.00950966160159
0.0683618002699
0.00951580768608
0.0634617141102
0.00952057149152
0.0585598271939
0.00952415446834
0.0536566480818
0.00952674332747
0.048752596162
0.0095285089829
0.0438480108994
0.00952960682531
0.0389431581638
0.00953017502093
0.0340382382477
0.00953033310462
0.0291333884701
0.00953017764259
0.0242286750681
0.00952977598663
0.019324040378
0.00952915762477
0.0144190886843
0.00952829537077
0.00951273420938
0.00952684952698
0.00460768237973
0.00950983704223
0.00898288558293
0.0127557625477
-0.0373161902075
0.0262518124852
-0.0394271467059
0.039667171991
-0.0392030920645
0.0529211135212
-0.038742119673
0.0659615456723
-0.0381281810386
0.0787398615499
-0.0373719182609
0.0912104454276
-0.0364825369626
0.103331202284
-0.0354704294732
0.115063978029
-0.0343469938476
0.126374837424
-0.0331243455573
0.137234225682
-0.0318150368503
0.147617023944
-0.0304317941061
0.157502518764
-0.0289872753248
0.166874291202
-0.0274938568095
0.175720045616
-0.0259634493035
0.184031383158
-0.0244073495285
0.191803540318
-0.0228361233119
0.199035095918
-0.0212595231481
0.205727665601
-0.0196864334638
0.211885584433
-0.0181248447211
0.217515594407
-0.0165818482099
0.222626534246
-0.015063652233
0.227229045887
-0.0135756112769
0.231335292073
-0.0121222692839
0.234958697298
-0.0107074090522
0.23811370418
-0.00933410970649
0.240815555873
-0.00800480498349
0.243080094862
-0.00672134517982
0.244923587579
-0.00548505622782
0.246362563908
-0.00429679945341
0.247413680065
-0.00315702581246
0.248093593619
-0.00206582796303
0.248418862551
-0.00102298152401
0.248405919779
-2.79826655436e-05
0.248070883862
0.000919894635961
0.247429547496
0.00182143500365
0.24649738838
0.00267769471374
0.245289476525
0.00348984223833
0.243820439889
0.0042591289079
0.242104441911
0.00498687563627
0.240155169073
0.00567445739236
0.237985818256
0.00632328566424
0.235609093089
0.00693479516598
0.233037199393
0.00751043021374
0.230281848586
0.0080516353752
0.227354259287
0.00855984555816
0.224265165759
0.00903647996806
0.221024823779
0.00948293512365
0.217643022417
0.00990058130972
0.214129092628
0.0102907578198
0.210491921028
0.0106547712439
0.206739960092
0.0109938923383
0.202881242952
0.0113093556346
0.198923394378
0.0116023574747
0.194873645911
0.0118740565312
0.190738847078
0.0121255726553
0.18652548039
0.0123579879968
0.182239672419
0.0125723463958
0.177887208373
0.0127696548666
0.173473542803
0.0129508833359
0.169003813581
0.013116966318
0.164482852123
0.0132688028543
0.159915196684
0.0134072582558
0.155305102044
0.0135331641429
0.150656552103
0.013647320169
0.145973269039
0.013750494092
0.141258725207
0.013843423419
0.136516151822
0.0139268154681
0.1317485502
0.0140013488983
0.126958700016
0.014067673734
0.12214916996
0.0141264127601
0.117322325626
0.0141781614982
0.112480339652
0.014223489457
0.107625199311
0.0142629400581
0.102758716202
0.0142970317389
0.0978825336087
0.0143262578322
0.0929981358021
0.0143510875252
0.0881068552425
0.0143719656989
0.0832098815397
0.0143893137481
0.0783082685592
0.0144035293876
0.0734029430968
0.0144149873349
0.0684947119326
0.0144240390842
0.063584270262
0.0144310134426
0.0586722087278
0.0144362162523
0.0537590216069
0.0144399307381
0.0488451137542
0.014442417104
0.0439308083125
0.0144439125707
0.0390163529371
0.0144446306902
0.0341019254148
0.0144447609481
0.0291876352747
0.0144444680953
0.0242735183721
0.0144438932224
0.0193595159575
0.0144431603446
0.0144454310437
0.0144423805786
0.00953114928482
0.0144411316616
0.00462405102241
0.0144169357134
0.0136069367698
0.0129136011493
-0.0502297934357
0.0265633955399
-0.0530769433297
0.0401323534608
-0.0527720521006
0.0535354816764
-0.0521452499759
0.0667180524688
-0.0513107538346
0.0796295923698
-0.0502834601318
0.0922231077198
-0.0490760542006
0.104455479384
-0.047702802993
0.116287831232
-0.0461793474659
0.127685786451
-0.044522302519
0.138619609769
-0.0427488618221
0.149064242087
-0.0408764280553
0.158999241816
-0.0389222765955
0.168408644452
-0.0369032609692
0.177280757219
-0.0348355635056
0.18560790082
-0.0327344945502
0.193386114661
-0.0306143384866
0.200614835757
-0.0284882455694
0.207296565311
-0.0263681642569
0.213436530028
-0.0242648106713
0.219042348978
-0.0221876683092
0.224123709682
-0.0201450140852
0.228692061143
-0.0181439638028
0.232760324481
-0.0161905336886
0.236342626421
-0.0142897119774
0.23945405399
-0.0124455382646
0.242110433874
-0.010661185777
0.244328133248
-0.00893904546984
0.246123884374
-0.0072808081903
0.247514628872
-0.00568754479596
0.248517383522
-0.00415978123138
0.249149124033
-0.00269756925045
0.249426688747
-0.00130054693636
0.249366741067
3.19643328471e-05
0.248985592046
0.00130104307362
0.248299181436
0.00250784501782
0.247323085157
0.00365379046755
0.246072458791
0.00474046806596
0.244562000517
0.00576958671093
0.242805928168
0.00674294750179
0.240817965741
0.00766241940087
0.238611334107
0.00852991686638
0.236198747671
0.00934738123408
0.233592413366
0.0101167641369
0.230804034189
0.0108400142331
0.227844813926
0.0115190654881
0.224725465398
0.012155828222
0.221456219032
0.0127521812034
0.218046834114
0.0133099659997
0.214506609752
0.0138309819405
0.210844397896
0.0143169829144
0.207068615614
0.0147696744224
0.203187258958
0.0151907121468
0.199207915791
0.0155817004865
0.19513777988
0.0159441923379
0.190983663752
0.0162796886676
0.186752012587
0.016589639095
0.182448916772
0.0168754421339
0.178080125329
0.0171384462784
0.173651057975
0.0173799506496
0.169166817937
0.017601206359
0.164632203415
0.01780341737
0.160051719728
0.0179877419788
0.155429590141
0.0181552937567
0.15076976734
0.018307143036
0.146075943646
0.0184443178442
0.141351561839
0.0185678053214
0.136599824808
0.0186785525876
0.131823705783
0.0187774680464
0.127025957481
0.0188654221529
0.122209121813
0.0189432485782
0.117375538593
0.0190117448625
0.112527354795
0.0190716734303
0.1076665329
0.0191237621247
0.102794859764
0.0191687050745
0.0979139546788
0.0192071631135
0.0930252779196
0.0192397645062
0.0881301385754
0.0192671052616
0.0832297028381
0.0192897497265
0.0783250016585
0.0193082308049
0.073416938823
0.019323050427
0.0685062984776
0.0193346796827
0.063593753018
0.0193435591708
0.0586798704922
0.0193500990445
0.0537651222692
0.0193546792416
0.048849890212
0.0193576494432
0.043934473879
0.0193593292019
0.03901909694
0.0193600079327
0.0341039129082
0.0193599453001
0.0291890091017
0.0193593722289
0.024274408651
0.0193584939837
0.0193600720073
0.0193574972963
0.0144459125902
0.0193565403484
0.00953209524581
0.0193549493508
0.004626663301
0.0193223680334
0.0182336002686
0.0131210163594
-0.0633508119017
0.026984296657
-0.0669402258205
0.0407626137307
-0.0665503713335
0.0543676432976
-0.0657502816335
0.0677420301196
-0.0646851426922
0.0808330611795
-0.0633744931699
0.0935919317684
-0.0618349267064
0.105974136513
-0.0600850096006
0.117939823971
-0.0581450367231
0.129454034706
-0.0560365150006
0.140486817476
-0.0537816462759
0.151013230621
-0.0514028428338
0.16101324255
-0.0489222900963
0.170471546689
-0.0463615666319
0.179377308567
-0.0437413268497
0.187723861199
-0.0410810486024
0.195508365281
-0.0383988439324
0.202731447746
-0.0357113293565
0.209396831739
-0.0330335495191
0.215510967536
-0.0303789476979
0.221082673413
-0.0277593753647
0.226122791973
-0.0251851337883
0.230643867288
-0.0226650402111
0.234659845089
-0.0202065125505
0.238185798593
-0.017815666495
0.241237679863
-0.0154974205161
0.243832097439
-0.0132556042897
0.245986118708
-0.0110930676461
0.247717096684
-0.00901178702937
0.24904251893
-0.00701296787866
0.249979877984
-0.00509714107867
0.250546561194
-0.00326425322709
0.25075975803
-0.00151374449325
0.250636387272
0.000155334431975
0.250193005971
0.00174442378462
0.249445781463
0.00325506895588
0.248410451313
0.00468912008554
0.24710229386
0.00604862500653
0.245536100466
0.00733577962744
0.243726157182
0.00855289032659
0.241686233995
0.00970234216268
0.239429579032
0.0107865714218
0.236968917482
0.0118080424092
0.234316453644
0.0127692276158
0.231483876247
0.0136725913033
0.228482365708
0.0145205757164
0.225322603648
0.0153155900017
0.222014783495
0.0160600010912
0.218568622586
0.0167561266736
0.214993374732
0.0174062295745
0.211297843736
0.018012513718
0.207490396929
0.0185771210513
0.203578979276
0.0191021296495
0.199571127198
0.0195895524272
0.195473982685
0.0200413367403
0.191294306947
0.0204593643077
0.187038494185
0.020845451785
0.182712584773
0.021201351485
0.178322278467
0.0215287525476
0.173872946967
0.0218292821247
0.169369646442
0.022104506882
0.164817129406
0.0223559344148
0.16021985653
0.0225850148858
0.155582007816
0.0227931425112
0.150907493713
0.0229816572005
0.146199965625
0.0231518460035
0.141462826373
0.0233049446647
0.136699240098
0.0234421389626
0.131912142138
0.0235645661257
0.127104248395
0.0236733160248
0.122278064697
0.0237694324222
0.117435895716
0.0238539139996
0.112579853888
0.0239277154307
0.107711867952
0.0239917482418
0.102833691513
0.0240468817103
0.0979469112671
0.0240939435646
0.093052955274
0.024133720719
0.0881531009358
0.0241669598267
0.0832484830396
0.0241943678622
0.0783401015402
0.0242166125495
0.0734288294159
0.0242343228069
0.0685154203013
0.0242480890571
0.0636005161774
0.024258463563
0.0586846548551
0.024265960639
0.0537682774791
0.0242710568984
0.0488517357911
0.0242741914185
0.043935299298
0.0242757659934
0.0390191620893
0.0242761454515
0.0341034493883
0.0242756583199
0.0291882238352
0.0242745981041
0.0242734923799
0.0242732257776
0.0193592165916
0.0242717733994
0.0144453394995
0.0242704177311
0.00953206029306
0.024268228941
0.00462740521014
0.0242270235342
0.0228610056455
0.0133834903278
-0.0767343043535
0.0275208544677
-0.0810775922397
0.041567138096
-0.0805966571268
0.0554298671597
-0.0796130128212
0.0690485388134
-0.0783038164
0.0823677052759
-0.0766936616333
0.095336303853
-0.0748035272214
0.10790809005
-0.0726567976807
0.120042000525
-0.0702789490172
0.131702376327
-0.0676968925676
0.142859046375
-0.0649383180275
0.153487282659
-0.0620310807681
0.163567644626
-0.059002653653
0.173085732529
-0.0558796560751
0.1820318707
-0.0526874665024
0.190400740585
-0.0494499199223
0.198190982151
-0.0461890868774
0.205404779467
-0.042925128009
0.212047444197
-0.0396762155321
0.218127007517
-0.0364585122594
0.223653829023
-0.0332861980634
0.228640228326
-0.0301715342453
0.233100143588
-0.0271249565797
0.237048819053
-0.0241551890856
0.240502522819
-0.0212693712868
0.243478294503
-0.0184731931915
0.245993722217
-0.0157710329511
0.248066747168
-0.0131660935123
0.249715494394
-0.0106605351287
0.250958127391
-0.00825560171817
0.251812724826
-0.0059517393173
0.252297177036
-0.00374870620904
0.252429097978
-0.00164566615935
0.252225737236
0.00035869452306
0.251703959268
0.00226620117132
0.250880181392
0.00407884627433
0.249770337075
0.00579896387783
0.24838985416
0.00742910742088
0.246753635519
0.00897199779892
0.244876046693
0.010430478705
0.242770909656
0.011807478781
0.2404515012
0.0131059794804
0.237930555322
0.0143289879186
0.235220268611
0.0154795139788
0.232332308277
0.0165605513157
0.229277822043
0.0175750616496
0.226067449703
0.0185259620671
0.222711335739
0.0194161147998
0.219219142916
0.0202483192656
0.215600066356
0.0210253059233
0.211862848097
0.0217497317894
0.208015791741
0.0224241772381
0.204066777251
0.0230511439923
0.200023275562
0.0236330539873
0.195892363143
0.0241722490521
0.191680736187
0.0246709911742
0.187394724618
0.0251314632841
0.18304030566
0.0255557703899
0.178623117123
0.0259459410512
0.174148470219
0.0263039290112
0.169621362072
0.0266316150298
0.165046487749
0.0269308087532
0.160428251987
0.0272032506806
0.155770780461
0.0274506140853
0.151077930763
0.0276745069624
0.146353302966
0.0278764738779
0.141600249926
0.0280579977977
0.136821887207
0.0282205017879
0.132021102787
0.0283653506669
0.127200566432
0.0284938525133
0.122362738891
0.0286072601119
0.117509880799
0.0287067722515
0.112644061448
0.0287935349563
0.107767167303
0.0288686425732
0.102880910423
0.0289331387894
0.0979868366689
0.028988017528
0.0930863338433
0.0290342237661
0.0881806396569
0.0290726542441
0.0832708496438
0.0291041581166
0.078357924945
0.0291295374975
0.0734427000489
0.0291495479603
0.0685258904215
0.0291648989481
0.0636081001042
0.0291762541504
0.0586898292076
0.0291842318111
0.0537714813626
0.029189405026
0.0488533710576
0.0291923020139
0.0439357309123
0.0291934064397
0.0390187188527
0.029193157822
0.0341024253317
0.0291919521653
0.0291868808515
0.029190142919
0.0242720645742
0.0291880423657
0.0193579159008
0.029185922386
0.0144443577413
0.0291839762575
0.00953154564284
0.0291810413839
0.00462739702761
0.0291311725231
0.0274884028771
0.0137055537245
-0.0904398602387
0.0281803457365
-0.0955523864901
0.0425562930829
-0.0949726066895
0.0567355494909
-0.0937922713676
0.0706536822546
-0.0922219512514
0.0842518819076
-0.090291863309
0.0974763271929
-0.0880279744723
0.110278669544
-0.0854591419346
0.122616410273
-0.0826166915918
0.134453105457
-0.079533589535
0.145758405316
-0.0762436196137
0.156507946517
-0.0727806236353
0.166683121046
-0.0691778297941
0.176270747562
-0.0654672841449
0.185262671186
-0.0616793916286
0.19365531598
-0.0578425661644
0.201449211685
-0.0539829839811
0.208648512873
-0.0501244305433
0.215260525202
-0.0462882291631
0.221295249976
-0.0424932382843
0.226764955107
-0.0387559044037
0.231683777841
-0.0350903581421
0.236067362363
-0.031508542224
0.239932533542
-0.0280203613423
0.243297006721
-0.0246338455063
0.246179132407
-0.0213553198746
0.248597674007
-0.0181895755117
0.250571616323
-0.0151400367492
0.252120002261
-0.0122089219519
0.253261795109
-0.00939739541442
0.254015763789
-0.00670570881096
0.254400388369
-0.00413333156429
0.25443378067
-0.00167905918716
0.254133571819
0.000658902734573
0.253516990494
0.00288278192222
0.252600733772
0.00499510245231
0.251400954678
0.00699874245585
0.249933249094
0.00889681251593
0.248212643652
0.0106926027789
0.246253589893
0.0123895320274
0.244069963572
0.0139911046914
0.241675067998
0.0155008746684
0.239081640713
0.0169224148409
0.236301862764
0.0182592915909
0.233347370039
0.0195150437261
0.230229266155
0.0206931652417
0.226958136522
0.0217970914314
0.223544063204
0.0228301878714
0.219996640355
0.0237957418903
0.216324989938
0.0246969561367
0.212537777601
0.0255369439446
0.20864322849
0.0263187261869
0.204649142952
0.0270452293889
0.200562911956
0.0277192848623
0.196391532227
0.0283436286787
0.192141620988
0.0289209023296
0.187819430311
0.0294536538966
0.18343086101
0.0299443396432
0.178981476119
0.0303953259136
0.17447651388
0.0308088912382
0.16992090032
0.0311872285946
0.165319261356
0.0315324477376
0.160675934502
0.0318465775719
0.155994980139
0.0321315685011
0.151280192423
0.0323892947454
0.146535109808
0.0326215565752
0.141763025236
0.0328300824656
0.136966996002
0.0330165311325
0.13214985333
0.0331824934635
0.12731421167
0.0333294943119
0.122462477758
0.0334589941753
0.117596859447
0.0335723907269
0.112719374336
0.0336710202444
0.107831858217
0.033756158881
0.102935973369
0.0338290238399
0.0980332166943
0.0338907744155
0.0931249277511
0.0339425129335
0.0882122966522
0.0339852855772
0.083296371888
0.0340200831246
0.0783780680506
0.034047841587
0.0734581734972
0.0340694427735
0.068537357937
0.0340857147745
0.063616179971
0.0340974323888
0.0586950945677
0.0341053174927
0.0537744604997
0.034110039379
0.0488545477301
0.0341122150764
0.0439355447857
0.034112409687
0.0390175661529
0.0341111367708
0.0341006598216
0.0341088588195
0.0291848152189
0.0341059878472
0.0242699719824
0.0341028859493
0.0193560303079
0.0340998643811
0.0144428696463
0.0340971372055
0.00953058492736
0.0340933264946
0.0046270015668
0.0340347563098
0.0321154046104
0.0140919371031
-0.104531799525
0.0289717978362
-0.110432249572
0.043743224849
-0.109744035927
0.0583016314566
-0.10835068016
0.0725777216663
-0.106498043572
0.0865085884944
-0.104222732192
0.100037093142
-0.10155648111
0.113112401589
-0.0985344523137
0.125690373073
-0.0951946649435
0.137733735537
-0.0915769538085
0.149212062817
-0.0877219486405
0.160101580995
-0.0836701435035
0.170384836528
-0.0794610869567
0.180050260125
-0.0751327093179
0.189091659187
-0.0707207922086
0.197507668373
-0.0662585768177
0.205301183655
-0.0617765006756
0.212478800348
-0.0573020486018
0.219050270938
-0.0528597010657
0.225027994018
-0.0484709626329
0.230426541908
-0.0441544535137
0.235262231237
-0.0399260486484
0.239552738275
-0.0357990503935
0.243316758834
-0.0317843829937
0.246573711199
-0.0278907989199
0.249343479529
-0.0241250892151
0.251646194679
-0.0204922916294
0.253502048995
-0.0169958919969
0.254931141672
-0.0136380155202
0.255953351246
-0.0104196058464
0.256588232182
-0.00734059056574
0.256854932345
-0.00440003251232
0.256772127705
-0.00159625526852
0.256357870566
0.00107315924458
0.255629800887
0.0036108510403
0.254604919543
0.00601998326237
0.253299616209
0.00830404528545
0.251729666177
0.0104667620693
0.249910225682
0.012512042822
0.247855833191
0.0144439240914
0.245580415093
0.0162665223888
0.24309729473
0.0179839946538
0.240419204083
0.0196005051362
0.237558297451
0.0211201978928
0.234526166646
0.0225471742256
0.231333857221
0.0238854743833
0.227991885423
0.025139062969
0.224510255545
0.0263118175098
0.220898477471
0.0274075197476
0.217165584194
0.0284298492174
0.21332014919
0.0293823787734
0.2093703035
0.0302685717216
0.205323752453
0.0310917803014
0.201187791945
0.0318552452549
0.196969324238
0.0325620962894
0.192674873252
0.0332153532379
0.188310599315
0.0338179277744
0.183882313379
0.0343726255385
0.1793954907
0.034882148569
0.174855283992
0.0353490979385
0.170266536074
0.0357759765225
0.165633792015
0.036165191823
0.160961310822
0.036519058806
0.156253076683
0.0368398026969
0.151512809791
0.037129561709
0.146743976785
0.0373903896681
0.141949800829
0.037624258522
0.137133271366
0.0378330607103
0.132297153564
0.038018611394
0.127443997494
0.0381826505232
0.122576147054
0.0383268447698
0.117695748669
0.0384527892798
0.112804759802
0.0385620092929
0.107904957272
0.0386559616032
0.102997945436
0.0387360358813
0.0980851642114
0.0388035558558
0.0931678970021
0.0388597803699
0.0882472785037
0.0389059043129
0.0833243024319
0.038943059443
0.0783998291691
0.0389723151048
0.07347459335
0.038994678855
0.0685492113902
0.0390110970034
0.0636241889704
0.0390224550835
0.0586999284815
0.0390295782623
0.0537767364456
0.0390332317021
0.0488548309183
0.0390341208991
0.0439343489113
0.0390328919996
0.0390153538729
0.0390301321245
0.0340978433218
0.0390263696999
0.0291817567593
0.0390220747503
0.0242669840147
0.0390176590052
0.019353374402
0.0390134743106
0.0144407524874
0.0390097595001
0.0095291491195
0.0390049302065
0.00462631396592
0.0389375918353
0.0367417187869
0.0145482047789
-0.119080006536
0.029906323775
-0.125790370873
0.0451442566966
-0.124981971139
0.0601491380835
-0.123355563752
0.0748457322526
-0.121194639895
0.0891661922456
-0.118543194269
0.103049443133
-0.115439734022
0.116441771023
-0.111926782162
0.129297213783
-0.108050109603
0.141577687971
-0.103857429828
0.153252876801
-0.099397139245
0.164299918913
-0.0947171873255
0.174702942497
-0.0898641121955
0.184452489577
-0.0848822579906
0.193544871875
-0.079813176047
0.201981494413
-0.0746952008377
0.209768176398
-0.0695631840933
0.21691449235
-0.0644483659317
0.22343314999
-0.0593783600372
0.229339415923
-0.0543772298457
0.234650595398
-0.0494656342247
0.23938556882
-0.0446610232579
0.243564384814
-0.0399778675349
0.247207907738
-0.0354279070186
0.250337516124
-0.0310204083675
0.252974847839
-0.0267624219474
0.255141587277
-0.0226590320472
0.256859289906
-0.0187135955644
0.258149239569
-0.014927966085
0.259032334339
-0.0113027014799
0.259528997462
-0.00783725451757
0.259659109733
-0.00453014557019
0.25944197055
-0.00137911680319
0.258896087931
0.001619041252
0.258039542442
0.00446739597884
0.256889652703
0.00716987248076
0.255463054844
0.00973064264972
0.253775707555
0.0121541088918
0.251842895481
0.0144448544534
0.249679238592
0.0166075805655
0.247298705083
0.0186470555054
0.244714626836
0.0205680725346
0.241939716732
0.0223754148965
0.238986087281
0.0240738270235
0.235865270089
0.0256679911204
0.232588235798
0.0271625083997
0.229165414218
0.0285618842962
0.225606714402
0.0298705170952
0.221921544493
0.0310926894468
0.218118831196
0.0322325623264
0.214207038768
0.0332941710325
0.210194187457
0.0342814228853
0.206087871317
0.0351980963132
0.201895275388
0.036047841075
0.197623192205
0.036834179382
0.193278037638
0.0375605077336
0.188865866066
0.0382300992935
0.184392384898
0.0388461066705
0.17986296847
0.0394115649793
0.175282671321
0.0399293950855
0.170656240911
0.0404024069479
0.165988129772
0.0408333029922
0.161282507168
0.0412246814567
0.156543270258
0.0415790396685
0.15177405483
0.0418987772125
0.146978245623
0.042186198966
0.14215898627
0.0424435179803
0.137319188906
0.0426728581927
0.13246154347
0.0428762569622
0.127588526717
0.0430556674214
0.122702411
0.0432129606458
0.117805272812
0.0433499276394
0.112899001146
0.0434682811424
0.107985305679
0.0435696572667
0.103065724803
0.0436556169649
0.0981416335352
0.0437276473432
0.0932142513084
0.0437871628268
0.0882846496745
0.043835506187
0.0833537599245
0.0438739494424
0.0784223806444
0.0439036946426
0.0734911852164
0.0439258745481
0.0685607292763
0.043941553215
0.0636314581382
0.0439517264992
0.0587037141944
0.0439573224893
0.0537777443032
0.0439592018832
0.0488537071831
0.0439581583169
0.0439316808307
0.0439549186595
0.0390116700019
0.0439501432742
0.0340936137941
0.0439444262344
0.0291773934025
0.0439382954703
0.0242628400789
0.0439322126839
0.0193497433206
0.0439265713947
0.0144378653329
0.0439216377695
0.00952717074254
0.0439156251964
0.00462533853113
0.0438394244808
0.0413670574842
0.0150810776907
-0.134161086489
0.0309975113688
-0.141706806992
0.0467794009666
-0.14076386304
0.0623038215832
-0.138879986632
0.0774883495977
-0.136379170093
0.0922592358751
-0.133314082672
0.106550789003
-0.129731289205
0.120306016202
-0.125682011355
0.133477000578
-0.121221095904
0.146024949996
-0.116405381111
0.15791995707
-0.111292148115
0.169140526906
-0.1059377589
0.179672933596
-0.100396520559
0.189510464097
-0.0947197901095
0.198652601941
-0.0889553154484
0.207104194402
-0.0831467948028
0.214874637357
-0.0773336284946
0.221977102759
-0.0715508327322
0.22842782544
-0.0658290840611
0.234245458909
-0.0601948646133
0.239450504427
-0.0546706809894
0.244064813334
-0.0492753333688
0.248111159833
-0.0440242151897
0.251612879374
-0.0389296276752
0.254593566787
-0.0340010968496
0.257076827693
-0.0292456838837
0.259086076754
-0.0246682820946
0.260644376427
-0.0202718961866
0.26177431039
-0.0160579009559
0.2624978862
-0.0120262781631
0.262836463156
-0.00817583230663
0.262810698108
-0.0045043813174
0.262440568945
-0.00100898834422
0.261745089427
0.00231452017526
0.260742764642
0.00546972022747
0.259451235263
0.00846140134935
0.257887387745
0.0112944896867
0.256067360291
0.0139741358901
0.254006556993
0.0165056573218
0.251719666744
0.0188944704077
0.249220684325
0.0211460375445
0.246522933003
0.0232658234991
0.243639088092
0.0252592594748
0.240581200965
0.0271317138395
0.237360723183
0.0288884686145
0.233988530436
0.0305347008803
0.230474946092
0.0320754683973
0.226829764173
0.0335156987902
0.223062271664
0.0348601817554
0.219181270023
0.0361135637861
0.21519509589
0.0372803450045
0.211111640919
0.0383648777159
0.206938370735
0.0393713663759
0.202682343027
0.0403038686809
0.19835022477
0.0411662975556
0.193948308617
0.0419624238215
0.189482528479
0.0426958793847
0.184958474335
0.0433701607846
0.180381406312
0.0439886329902