/*--------------------------------*- C++ -*----------------------------------*\
| =========                 |                                                 |
| \\      /  F ield         | OpenFOAM: The Open Source CFD Toolbox           |
|  \\    /   O peration     | Version:  v1906                                 |
|   \\  /    A nd           | Web:      www.OpenFOAM.com                      |
|    \\/     M anipulation  |                                                 |
\*---------------------------------------------------------------------------*/
FoamFile
{
    version     2.0;
    format      ascii;
    class       surfaceScalarField;
    location    "406";
    object      phia;
}
// * * * * * * * * * * * * * * * * * * * * * * * * * * * * * * * * * * * * * //

dimensions      [0 3 -1 0 0 0 0];
oriented        oriented;


internalField   nonuniform List<scalar> 
18240
(
0.00084482467461
-0.000844684328733
0.00173148157047
-0.000886494662432
0.00261602052662
-0.000884396146299
0.00349334693206
-0.000877160426723
0.00436056121828
-0.000867076488513
0.00521514946593
-0.000854419878425
0.00605468288167
-0.000839401475897
0.00687699867204
-0.000822145847016
0.00767995620951
-0.000802831919951
0.00846170634717
-0.000781579447308
0.00922040634446
-0.000758581150399
0.00995453464635
-0.000733957672338
0.0106625550602
-0.000707908588606
0.0113432698368
-0.000680544992885
0.0119954352132
-0.00065206084445
0.0126181496192
-0.000622546201618
0.0132104247798
-0.000592177989113
0.0137716067815
-0.000561016067701
0.01430090834
-0.000529211855084
0.014797860909
-0.000496789523439
0.0152618140615
-0.000463870815704
0.0156924170574
-0.000430443396582
0.0160890918317
-0.000396599757969
0.0164515422784
-0.000362294765572
0.0167792067191
-0.000327596490135
0.0170717927562
-0.000292434682737
0.0173287149086
-0.000256861084652
0.017549652376
-0.000220790768952
0.0177339766971
-0.000184269756223
0.0178813297846
-0.000147211330439
0.0179910457413
-0.000109667608048
0.0180627434078
-7.15610899815e-05
0.0180957493992
-3.29633967307e-05
0.0180897054777
6.1750857942e-06
0.0180439924229
4.57502490541e-05
0.0179583456306
8.57723274956e-05
0.0178322850337
0.000126092904652
0.017665733656
0.000166671060366
0.0174584558503
0.000207305648144
0.0172106722289
0.000247897269212
0.0169225081134
0.000288188104522
0.0165945984029
0.000328017231921
0.0162275492609
0.000367069861501
0.0158225278475
0.000405122912188
0.0153807411913
0.000441804901641
0.0149040076814
0.000476829378406
0.0143942568
0.000509767358424
0.0138540791526
0.000540268633843
0.013286244199
0.000567850401388
0.0126942202036
0.000592111205801
0.0120816935984
0.000612541525287
0.011453039975
0.000628738308754
0.0108128137286
0.000640240810563
0.0101661472752
0.00064674944252
0.00951818258815
0.000647978189533
0.00887439673105
0.000643867045128
0.00823998157582
0.000634426538235
0.0076201350276
0.000619924867636
0.00701943625224
0.000600706948723
0.00644215681387
0.000577353376839
0.00589167903541
0.000550481841132
0.00537085659064
0.000520890804398
0.00488151399261
0.000489342052615
0.00442490018431
0.000456676366479
0.00400130508869
0.000423590556638
0.0036105970705
0.000390765535376
0.00325190876513
0.00035868083279
0.00292418689789
0.000327775190493
0.00262588132125
0.000298296042821
0.00235545616049
0.0002704748294
0.00211105482386
0.000244390234733
0.00189096153816
0.0002201395342
0.00169324784862
0.000197701381391
0.00151619695271
0.000177093879285
0.00135794898786
0.000158234523269
0.00121689986343
0.000141088750433
0.00109135189357
0.000125533421586
0.000979888422637
0.000111499434319
0.000881034835239
9.88378840629e-05
0.000793617240465
8.74496882901e-05
0.000716462388701
7.71381235242e-05
0.000648813791313
6.76761875981e-05
0.000590309769458
5.84861003243e-05
0.000542646137574
4.76878836647e-05
0.000501674520442
4.09552571493e-05
0.00046116292829
4.05316909437e-05
0.000423864674651
3.72839080418e-05
0.000391201639008
3.26798347285e-05
0.000357640409767
3.35499007061e-05
0.000319640896247
3.80136950777e-05
0.000279663121956
3.99688508805e-05
0.000237740081245
4.19321910481e-05
0.000189154647217
4.85881060034e-05
0.000130613387641
5.85353341003e-05
6.32178043147e-05
6.73717689234e-05
6.3208445594e-05
0.000892013017342
-0.00173654620846
0.00183915861971
-0.00183347843326
0.00278105145339
-0.00182613113824
0.00371435053133
-0.00181029633753
0.00463653538494
-0.00178910581251
0.00554509596175
-0.00176281793489
0.00643754096999
-0.00173169399242
0.00731154696211
-0.00169599077378
0.00816488502554
-0.00165602115164
0.00899554368556
-0.0016120792134
0.00980161801915
-0.00156451086195
0.0105814410931
-0.00151362468646
0.0113334464723
-0.00145977409203
0.0120563099435
-0.00140325584962
0.0127487879651
-0.00134440415407
0.0134098693028
-0.00128347891184
0.0140385920985
-0.00122077162667
0.0146342055024
-0.0011564853098
0.0151959688099
-0.0010908518222
0.0157233237245
-0.00102400513898
0.0162156796248
-0.000956109425308
0.0166725974405
-0.000887227100809
0.0170935652869
-0.000817456467
0.0174781947771
-0.000746795569688
0.0178259909124
-0.000675287714415
0.0181365611472
-0.000602881825039
0.018409382786
-0.000529583994555
0.0186440244425
-0.000455315019388
0.0188399135225
-0.000380066228063
0.0189965688485
-0.000303754981822
0.0191133724718
-0.000226384594763
0.0191898138459
-0.000147896522325
0.0192252632323
-6.833197586e-05
0.0192192252609
1.23132833556e-05
0.0191711205673
9.39301236947e-05
0.0190805467093
0.000176440734412
0.0189470665582
0.000259642798352
0.0187704731989
0.000343353343289
0.0185505849313
0.00042725847582
0.0182875098558
0.000511055749462
0.0179814465663
0.000594311066618
0.0176329441772
0.000676597702626
0.0172427086808
0.000757360572996
0.0168118558542
0.000836048848397
0.0163417252081
0.000911986836792
0.0158341256876
0.000984497564594
0.0152911600699
0.00105278101499
0.0147154631987
0.00111603042862
0.0141100348692
0.00117332425792
0.0134784627946
0.00122374540784
0.0128247476909
0.00126630049496
0.0121534875657
0.00130005880442
0.0114696601802
0.00132411093669
0.0107787344706
0.00133773415723
0.010086376161
0.00134037788549
0.00939847376233
0.00133182644816
0.00872077754372
0.00131216170263
0.00805888519494
0.00128187114002
0.00741787646279
0.00124175088989
0.00680232709131
0.00119295222842
0.00621599155786
0.00113684770005
0.00566186671408
0.00107505942309
0.00514195543336
0.00100927819265
0.00465744836827
0.000941221616434
0.0042086291317
0.000872429966528
0.00379516701629
0.000804261417954
0.00341609320733
0.000737771292434
0.00307010784083
0.000673790824451
0.00275554199906
0.000612875792725
0.00247062133716
0.000555422720581
0.00221338634349
0.000501636762659
0.0019819057785
0.00045164469167
0.0017741653749
0.000405451320732
0.00158825150578
0.000363029907227
0.00142223180657
0.000324261917004
0.00127432437736
0.000289015894359
0.00114277457836
0.000257088945287
0.00102600688051
0.00022828414647
0.000922495191018
0.000202353068782
0.000830891809806
0.000179067005151
0.000749875707186
0.00015815516261
0.000678201551344
0.000139360294742
0.000614318614611
0.000122367527109
0.000555189121264
0.000106824319315
0.00050174722964
9.43954406482e-05
0.000454109574429
8.81736289506e-05
0.000414621606206
7.67695293031e-05
0.00038118263701
6.61226555656e-05
0.000349420184174
6.53114925228e-05
0.000316082945395
7.13530141838e-05
0.000277806506984
7.82457664298e-05
0.000235775830431
8.39661694537e-05
0.000189694029347
9.46663283188e-05
0.000134644012859
0.000113579520611
6.61710933574e-05
0.000135829517619
0.000129365536998
0.000900240400175
-0.00263663382266
0.00185307685969
-0.00278615291569
0.00280170486908
-0.0027745987798
0.00374180210888
-0.00275023190178
0.00467062006705
-0.00271776472428
0.00558555165749
-0.00267758945156
0.00648407895444
-0.00263006452075
0.00736383495247
-0.00257558892494
0.00822258606782
-0.00251461844518
0.00905828688164
-0.00244762506361
0.00986904367015
-0.00237511742472
0.0106531662509
-0.00229759580713
0.0114091160354
-0.00221557779356
0.0121355563533
-0.00212954877902
0.0128312867884
-0.00203999317012
0.013495292586
-0.00194734188308
0.0141266671203
-0.00185200980631
0.0147246614838
-0.00175434183372
0.0152885977735
-0.00165465719211
0.0158179206225
-0.00155319546976
0.0163121045283
-0.0014501680837
0.016770709533
-0.00134570517101
0.0171932861252
-0.00123991369042
0.0175794370925
-0.00113282535492
0.0179287229628
-0.00102446016719
0.0182407313974
-0.000914774933726
0.0185149854704
-0.000803730655513
0.0187510211543
-0.000691241257915
0.0189482999836
-0.000577243589682
0.0191062949108
-0.000461646328321
0.0192244087959
-0.000344402907667
0.0193020682604
-0.000225458208961
0.0193386495795
-0.000104823483337
0.019333580974
1.7473940397e-05
0.0192862763405
0.00014131891243
0.0191962448267
0.000266558682511
0.0190630323287
0.000392933975936
0.0188863358731
0.000520130742298
0.0186659511469
0.000647716576822
0.01840188789
0.000775194651348
0.0180943207708
0.000901946539247
0.0177437019661
0.00102728711304
0.0173507137504
0.00115041244256
0.0169163765941
0.0012704519342
0.0164420048512
0.00138641799357
0.0159293126089
0.00149725150342
0.0153803771368
0.00160177213002
0.0147977462927
0.0016987192969
0.0141844114331
0.00178671168016
0.013543912058
0.00186429997347
0.012880303767
0.00192995924283
0.0121982330161
0.00198218291081
0.0115028579654
0.00201953509779
0.0107998425399
0.00204080153045
0.0100951783464
0.0020450893839
0.00939506914504
0.00203198561885
0.00870566077901
0.00200161454086
0.00803287683929
0.00195470172484
0.00738214568298
0.00189252265304
0.0067582831352
0.00181685657668
0.00616528115802
0.00172988486689
0.00560621801489
0.00163415823205
0.0050831149208
0.00153241042715
0.00459700505179
0.00142736173893
0.00414798674361
0.00132147274359
0.00373544500759
0.00121682948552
0.00335817959793
0.00111505793264
0.00301462698531
0.00101736677128
0.00270294643109
0.000924574786301
0.00242117914114
0.000837210567743
0.00216727190069
0.00075556001377
0.00193917665808
0.00067975810216
0.00173483283902
0.000609809194032
0.00155224160204
0.000545637352147
0.00138944450696
0.00048707124195
0.00124459505738
0.000433879665705
0.00111593144029
0.000385762883504
0.0010018332702
0.000342394342374
0.000900781130777
0.000303413142964
0.000811392085308
0.000268465166008
0.00073235058563
0.000237201566315
0.000662379507516
0.000209336997413
0.000600060812211
0.000184687624055
0.000543254277378
0.00016363445174
0.000492582272309
0.000145067400023
0.000448453269574
0.000132303791003
0.000405258621396
0.000119962427128
0.000363140771794
0.000108240149484
0.000328893649227
9.95572535571e-05
0.000300901284964
9.93444375921e-05
0.000262871685352
0.000116271450775
0.000215958433529
0.0001308789048
0.000166508213736
0.000144119940894
0.000111547360073
0.000168528518395
5.69356868565e-05
0.00019041983056
0.000186293418733
0.00090870363045
-0.00354518412211
0.00186956953215
-0.00374685841509
0.00282631941278
-0.00373118720222
0.00377440306991
-0.003698154575
0.00471095166437
-0.0036541533346
0.00563326771325
-0.00359974610998
0.00653877951719
-0.00353541853318
0.00742507014869
-0.00346172253509
0.0082898811111
-0.00337927444231
0.00913113925437
-0.00328872922734
0.00994694922464
-0.00319077587186
0.0107356138028
-0.00308611006732
0.0114956152019
-0.00297543170682
0.0122256291768
-0.00285941665706
0.0129244961399
-0.00273871718558
0.0135912298483
-0.00261393419912
0.0142249798825
-0.00248562188261
0.0148250364283
-0.00235426209943
0.0153907864883
-0.00222027462612
0.0159217171413
-0.00208399527407
0.0164173686992
-0.00194569263023
0.0168773394212
-0.00180555071187
0.0173012390541
-0.00166369209524
0.0176886977724
-0.00152016470605
0.018039322958
-0.00137497002204
0.018352714214
-0.00122805270948
0.0186284251183
-0.0010793321415
0.0188659851018
-0.000928693650603
0.0190648671609
-0.000776022125385
0.0192245170394
-0.000621194462591
0.0193443278244
-0.000464115983887
0.0194236766614
-0.000304711070854
0.0194619076732
-0.000142962514833
0.0194583774716
2.10944515129e-05
0.0194124467056
0.000187336066463
0.019323533875
0.000355556293606
0.0191911152096
0.000525433584156
0.0190147846623
0.00069654071269
0.0187942594026
0.000868317546416
0.018529441868
0.00104008647532
0.0182204266795
0.00121103244261
0.0178675601479
0.00138022305964
0.0174714453421
0.00154659325252
0.0170329972622
0.00170896483907
0.0165534475104
0.00186602929765
0.0160343997633
0.00201635971684
0.0154778423206
0.00215838693946
0.0148862137869
0.00229040423659
0.0142624326383
0.00241054651299
0.0136099758824
0.00251680990527
0.0129329157843
0.00260707045757
0.0122359819901
0.00267916794292
0.0115245503935
0.00273101610388
0.010804611345
0.0027607901398
0.0100826233464
0.00276712482805
0.00936532292061
0.00274933301805
0.00865944135281
0.00270754052165
0.00797144837484
0.00264273845308
0.00730727093576
0.00255674047389
0.00667213348806
0.00245203244127
0.00607037933717
0.0023316732438
0.00550526365816
0.0021993052925
0.00497878949072
0.00205891229949
0.00449174670789
0.00191443048253
0.00404386904102
0.00176937377134
0.00363409924639
0.00162662224356
0.0032608232233
0.00148835469872
0.00292209587796
0.00135611443029
0.00261578227217
0.00123090652329
0.00233968337216
0.00111332716106
0.00209158704563
0.00100367210489
0.00186931513395
0.000902045650161
0.00167072013317
0.000808418268945
0.00149371212453
0.000722659268521
0.00133626926098
0.000644526654547
0.00119648076692
0.000573680610088
0.00107255363641
0.000509700939286
0.000962837429329
0.000452121063351
0.000865816245184
0.000400442948231
0.000780119461059
0.000354169678496
0.000704497202301
0.000312829590883
0.000637802753911
0.000276035676403
0.000578921364401
0.000243571847552
0.00052614197518
0.000216415336196
0.000477833837837
0.000193376597966
0.000432238121812
0.000177898273222
0.000388064849005
0.000164132785526
0.000348218275944
0.00014808327743
0.000307190824065
0.000140579765627
0.000264394823899
0.000142134383671
0.000232304142367
0.000148359229667
0.000187455973821
0.000175725024443
0.00013417701418
0.00019739003868
8.87184424662e-05
0.000213980647479
4.59667726855e-05
0.000233157831886
0.000232246224257
0.000919651131769
-0.00446468215446
0.00189170125203
-0.00471874677645
0.00285948352021
-0.00469880839761
0.00381832506734
-0.00465683501643
0.00476525236425
-0.00460092062566
0.00569747259325
-0.00453180708547
0.00661233941117
-0.00445012740491
0.00750737387071
-0.004356600179
0.00838027586455
-0.00425202124906
0.00922894123618
-0.00413724086309
0.0100514644476
-0.00401314731468
0.0108461474451
-0.0038806430301
0.0116114924323
-0.00374062892938
0.012346202419
-0.00359398087079
0.0130491646113
-0.0034415361476
0.0137194433997
-0.00328407196094
0.0143562556446
-0.00312229586486
0.0149589577665
-0.00295682834142
0.0155270153237
-0.00278819925167
0.0160599870445
-0.00261683657125
0.0165574921843
-0.00244307042196
0.0170191951963
-0.00226712897462
0.0174447747803
-0.0020891500955
0.0178339126543
-0.00190918363428
0.0181862673103
-0.00172720893575
0.0185014689864
-0.0015431412954
0.0187790995833
-0.00135685286255
0.0190186944341
-0.00116818125444
0.0192197287571
-0.000976952388431
0.0193816264343
-0.000782990678362
0.0195037537554
-0.000586144997004
0.0195854358061
-0.000386297361066
0.0196259590001
-0.000183393036209
0.0196245970621
2.25465696802e-05
0.0195806233245
0.00023139697603
0.019493346518
0.000442917862454
0.0193621326035
0.000656729367929
0.0191864482906
0.000872304576853
0.018965888972
0.001088953651
0.0187002248399
0.00130582518482
0.0183894288439
0.0015219003808
0.018033718891
0.00173600283061
0.0176335803377
0.00194679907422
0.0171898011463
0.00215280919798
0.0167034901331
0.00235240293029
0.0161761120542
0.00254379824004
0.0156095151925
0.00272504164458
0.0150059854824
0.00289398967207
0.0143683047152
0.00304828081257
0.0136998400489
0.00318532655083
0.0130046343895
0.00330232686442
0.0122875031267
0.00339634862569
0.0115540873665
0.00346448084639
0.0108108375972
0.00350408699679
0.0100648768799
0.00351313186637
0.0093237374008
0.00349051712512
0.00859499768763
0.00343632349178
0.00788593206331
0.0033518459087
0.00720314705641
0.00323956448924
0.00655245497374
0.00310276048149
0.00593874994574
0.00294540984301
0.00536560235452
0.00277248068478
0.0048349676466
0.00258957138383
0.00434723759794
0.0024021830314
0.00390153792475
0.00221509462367
0.00349613306037
0.00203204741465
0.00312878298307
0.00185572416512
0.00279700984313
0.00168790572042
0.00249826785955
0.00152966539585
0.00223005527311
0.00138155547079
0.00198996034677
0.00124378173646
0.00177566539823
0.00111635457994
0.00158491656213
0.000999180206003
0.00141551565378
0.000892072623198
0.00126534433933
0.000794709620525
0.00113241308107
0.000706623272002
0.00101488052725
0.000627243963203
0.000911066661525
0.000555944514518
0.000819456900477
0.000492061013449
0.000738712418911
0.000434921108364
0.000667678791481
0.00038386857788
0.000605435431282
0.000338283288268
0.000551423004497
0.000297586123571
0.000506235353822
0.000261604604091
0.000462264972899
0.000237346620865
0.000418967641879
0.000221193706928
0.000374704478264
0.000208391560446
0.000323265252379
0.000199515581251
0.000275196587528
0.000188640643407
0.000230443952685
0.000186879694954
0.000193316217833
0.000185478617931
0.000160448025367
0.000208588990266
0.000114019869771
0.000243819331946
7.05033977692e-05
0.000257482995006
3.56538125373e-05
0.000267986025592
0.000267893191576
0.000933391840845
-0.00539792067779
0.00191975869484
-0.00570495372974
0.00290160875564
-0.00568049688865
0.00387412574505
-0.00562919135237
0.00483421816229
-0.00556085293064
0.00577898231189
-0.00547641217372
0.00670567874387
-0.00537666587323
0.00761175209877
-0.00526251686749
0.00849484701907
-0.00513496097366
0.00935282216841
-0.00499506242185
0.0101837566999
-0.00484393005417
0.0109859548961
-0.00468269134398
0.0117579425492
-0.0045124687987
0.0124984620295
-0.00433435474529
0.0132064588731
-0.00414938973858
0.013881067856
-0.00395854010169
0.0145215908758
-0.00376268061094
0.0151274756757
-0.0035625774603
0.0156982874789
-0.00335887810228
0.0162336836318
-0.00315210250318
0.0167333831002
-0.00294264251353
0.0171971416203
-0.00273076293572
0.0176247238105
-0.00251661063298
0.0180158831623
-0.00230022419798
0.0183703402964
-0.00208155021489
0.0186877700799
-0.0018604580934
0.0189677870955
-0.00163675981477
0.0192099399109
-0.00141022685704
0.0194137033416
-0.00118061149881
0.0195784795127
-0.000947665337983
0.0197035973752
-0.000711164195122
0.0197883213949
-0.000470925471295
0.0198318603563
-0.00022683887213
0.0198333867822
2.11106007973e-05
0.0197920569626
0.000272814560548
0.0197070423245
0.000528017710712
0.0195775610268
0.000786293293533
0.0194029193088
0.00104702650731
0.0191825504227
0.00130940028184
0.0189160593413
0.00157239171865
0.0186032604001
0.00183477237293
0.0182442156381
0.00209511841272
0.0178392619421
0.00235182113601
0.0173890368084
0.00260310038834
0.0168944946043
0.00284700848764
0.0163569284649
0.00308142515457
0.015777995743
0.00330403220027
0.0151597677609
0.00351227305043
0.0145048047033
0.00370329674061
0.0138162738868
0.00387390870919
0.0130980995351
0.00402055052413
0.0123551369908
0.00413936022719
0.0115933138386
0.00422635023792
0.0108196831728
0.00427776409939
0.0100422860219
0.00429057216856
0.00926979824805
0.00426304845916
0.00851099111483
0.00419517189837
0.00777427359259
0.00408860464285
0.0070670923748
0.00394678375536
0.00639601223646
0.00377387429753
0.00576683571295
0.00357461561105
0.0051836981374
0.00335564204917
0.00464846529214
0.00312482537554
0.00416085444207
0.00288981352625
0.00371900387827
0.00265696379465
0.00332015369633
0.00243091674284
0.00296117362551
0.0022147216922
0.00263887998549
0.00201021670296
0.00235020324226
0.00181835734178
0.00209228889807
0.00163948483686
0.00186251752765
0.00147356682906
0.00165845371474
0.00132043144758
0.00147774414268
0.00117990204465
0.00131806081844
0.00105176672742
0.00117714745384
0.000935633584769
0.00105291241115
0.000830868386315
0.000943453639206
0.000736712156033
0.000847054859868
0.000652351876556
0.00076219180332
0.00057693122469
0.000687539280336
0.000509579411258
0.000621967690072
0.000449444801389
0.000564542483804
0.000395711606575
0.000514383545331
0.000347746496963
0.00047073043341
0.000305257885442
0.000426479413855
0.000281596617453
0.000381718523352
0.000265952130207
0.000340313391358
0.000249790600579
0.000301685580354
0.00023813561101
0.000256184891637
0.000234131016378
0.000208014002751
0.000235039776762
0.000158300774203
0.000235186332647
0.000125064975956
0.000241819313422
9.6546780899e-05
0.000272324285548
5.94610861839e-05
0.000294559817825
2.9660089793e-05
0.000297774523115
0.000297540208768
0.000950134202646
-0.00634790217092
0.00195402984962
-0.00670868776313
0.00295309140931
-0.00667939774516
0.00394231889432
-0.00661825803729
0.00491847222709
-0.00653684651975
0.00587851451235
-0.0064362955199
0.00681959181211
-0.00631758542403
0.00773905615548
-0.00618182468962
0.00863448359712
-0.00603023338367
0.00950368838109
-0.00586411375038
0.0103447305393
-0.00568482057084
0.011155919324
-0.00549373037824
0.0119358099836
-0.00529221181793
0.0126831965041
-0.00508159579692
0.0133970976863
-0.0048631478207
0.0140767395066
-0.00463804122634
0.0147215312168
-0.00440733420224
0.015331038777
-0.00417194948978
0.0159049534962
-0.00393266002725
0.0164430602913
-0.00369007921872
0.0169452038302
-0.00344465881383
0.0174112574678
-0.00319669212665
0.0178410930358
-0.0029463246538
0.0182345560872
-0.00269356852323
0.0185914436811
-0.00243832199632
0.0189114884241
-0.00218038984121
0.0191943447768
-0.0019195060716
0.0194395808183
-0.00165535558878
0.0196466712983
-0.00138759752717
0.0198149956606
-0.00111588798937
0.0199438378192
-0.000839907450004
0.0200323915058
-0.000559382929377
0.0200797697946
-0.000274123648955
0.0200850225078
1.59488198555e-05
0.020047159078
0.000310766330652
0.0199651807714
0.00061008190568
0.0198381183896
0.000913439126577
0.0196650776839
0.00122014833926
0.0194452870324
0.0015292697563
0.0191781474603
0.00183960786809
0.0188632782052
0.00214971594128
0.0185005567097
0.00245791191654
0.0180901468898
0.00276230054583
0.0176325168125
0.00306079743339
0.0171284448508
0.00335114452628
0.0165790233617
0.00363090761625
0.0159856691235
0.00389744437105
0.0153501605203
0.00414783652755
0.0146747207295
0.00437878928571
0.0139621681133
0.00458651131829
0.0132161468467
0.00476662171291
0.0124414170076
0.00491413552495
0.0116441643384
0.00502365038455
0.0108321773867
0.00508979165877
0.0100147706296
0.00510802297275
0.00920225464454
0.00507560456954
0.00840507172522
0.0049923972159
0.00763325175904
0.00486046559322
0.00689509528486
0.00468497781767
0.00619795087175
0.00447105170168
0.00554926956252
0.00422332271475
0.00495427039122
0.00395066241285
0.00441463375035
0.00366448003463
0.00392888818962
0.00337557590172
0.00349354995322
0.00309231998583
0.00310431858721
0.00282016470385
0.00275685700463
0.00256220119828
0.0024470919531
0.00231999672838
0.00217133417411
0.00209413082785
0.00192634743481
0.00188448557694
0.00170935176017
0.00169057602542
0.00151787886826
0.00151191701721
0.00134952617326
0.00134826524914
0.00120180310793
0.00119949932232
0.00107223471165
0.00106521018511
0.000958598246425
0.000944513253786
0.000858928678219
0.00083638940653
0.000771468505381
0.000739818489754
0.000694678776315
0.000653726325572
0.000627251883811
0.000577010091153
0.000568098307212
0.00050860109803
0.0005163429225
0.000447468704073
0.00047118345312
0.000392905908846
0.000430484715452
0.00034595515513
0.000388703199136
0.000323376187737
0.000349046824563
0.000305604170435
0.000306137135117
0.000292693930218
0.000264127945776
0.000280135412249
0.000220354573813
0.000277893623205
0.000181305500136
0.00027407763581
0.000137917085923
0.000278562163735
9.74363638033e-05
0.000282290837881
7.64752342833e-05
0.000293283009246
4.92143523833e-05
0.000321804495278
2.44209324312e-05
0.000322547447704
0.000321955325704
0.000970071768097
-0.00731782115238
0.00199486104396
-0.00773331803693
0.00301443230772
-0.00769880794426
0.00402355007897
-0.00762721578453
0.00501879281842
-0.00753192964897
0.00599696097817
-0.00741430514964
0.00695506271156
-0.00727552964951
0.00789033861294
-0.00711694439201
0.00880028255924
-0.00694002253461
0.00968265621312
-0.00674633423671
0.0105354975202
-0.00653751045279
0.0113571233374
-0.00631520671764
0.0121461260977
-0.00608106714974
0.0129013647047
-0.00583668920684
0.0136219493167
-0.00558358954494
0.0143072202907
-0.00532317178148
0.0149567211824
-0.00505669719223
0.0155701666873
-0.00478525974283
0.0161474062635
-0.00450976701561
0.0166883853277
-0.00423092847021
0.0171931056843
-0.00394925211283
0.0176615876525
-0.00366504988149
0.0180938355911
-0.00337845117217
0.0184898086133
-0.00308942299375
0.0188493969345
-0.00279779455898
0.0191724039726
-0.00250328397673
0.0194585330989
-0.00220552505909
0.0197073781345
-0.00190409330545
0.0199184163963
-0.00159853118412
0.0200910041843
-0.00128837393476
0.0202243751412
-0.000973179213891
0.0203176421365
-0.000652553408561
0.0203698056141
-0.000326193155348
0.0203797691067
6.07675665256e-06
0.0203463636783
0.000344260786291
0.0202683823552
0.00068814988263
0.0201446241267
0.00103728175598
0.019973946653
0.00139090799866
0.019755324557
0.00174797187833
0.0194879096768
0.00210710061453
0.0191710871002
0.00246661415786
0.0188045213336
0.00282455102108
0.0183881855166
0.00317870708685
0.0179223706773
0.00352668017825
0.0174076735972
0.00386590618927
0.0168449721708
0.00419367048784
0.0162354013867
0.0045070728834
0.0155803607677
0.00480293256577
0.0148815822286
0.00507761943219
0.014141312286
0.00532683296656
0.0133626265338
0.00554535346991
0.0125499197625
0.00572689107528
0.0117094634302
0.00586414620283
0.0108499129825
0.00594938689253
0.0099823380526
0.00597563523252
0.00911948252179
0.00593850320809
0.0082740903071
0.0058378307943
0.00745876440733
0.00567583458245
0.00668213310056
0.00546164908343
0.00595178090868
0.00520143487189
0.0052786088319
0.00489652105426
0.00467003757483
0.0045592525308
0.00412729201428
0.00420724267376
0.00364669372447
0.00385619214831
0.00322201811125
0.00351701218422
0.00284667230127
0.00319553031211
0.0025147667653
0.00289412247261
0.0022212097279
0.00261357199544
0.00196161142579
0.00235374390974
0.00173236377239
0.0021137497327
0.00153065260797
0.00189230198174
0.00135419124451
0.00168839119324
0.00120066462954
0.00150180243728
0.00106734172741
0.00133282916906
0.000951340784515
0.00118121729076
0.000850274738341
0.0010455852391
0.000762150509726
0.000924518408018
0.000685167498275
0.000816805566691
0.000617759652382
0.000721136623318
0.00055864700225
0.000636123291791
0.000506784399064
0.000560463783069
0.000461371348455
0.000492880762112
0.000421584139716
0.00043269051791
0.000382964292727
0.000384571585099
0.00034576890977
0.000360567036697
0.000310230858796
0.000341136061591
0.00027268554513
0.000330231256518
0.000229912370869
0.000322898250432
0.000189189931443
0.000318603231101
0.00014729688008
0.00031595724103
0.000116599144859
0.000309249461151
8.35155149648e-05
0.000315364068687
5.80710972342e-05
0.00031871011301
4.08900428568e-05
0.000338976594558
1.97042322532e-05
0.000343721946804
0.000341647239613
0.000993417768581
-0.00831108724028
0.00204267459447
-0.0087824139782
0.00308624659233
-0.00874222029644
0.00411861550626
-0.00865942477153
0.00513613672555
-0.00854929202502
0.00613541613644
-0.00841342644112
0.00711329657235
-0.00825325312288
0.00806688679672
-0.00807037882797
0.0089935836586
-0.00786656506308
0.0098910878426
-0.00764368562764
0.0107574123528
-0.00740368396128
0.0115908850487
-0.00714853028851
0.0123901444802
-0.00688017955893
0.0131541297403
-0.00660052961718
0.0138820631991
-0.00631138052201
0.014573426566
-0.0060143950787
0.0152279294191
-0.00571106254987
0.0158454713792
-0.00540266679473
0.0164260983535
-0.00509026180147
0.0169699555707
-0.00477465619446
0.0174772393289
-0.00445640918186
0.0179481512718
-0.0041358378808
0.0183828572667
-0.0038130360598
0.0187814538489
-0.00348790121742
0.0191439422487
-0.00316016742815
0.0194702103472
-0.00282943926568
0.019760019896
-0.00249522459059
0.020012997685
-0.00215696374748
0.0202286278098
-0.00181405669239
0.0204062452691
-0.00146588937532
0.0205450305333
-0.00111186510776
0.0206440075214
-0.000751433517288
0.0207020479893
-0.000384139251297
0.0207178847563
-9.66797462281e-06
0.0206901359581
0.000372099295569
0.0206173427408
0.000761030647188
0.0204980199987
0.00115668990278
0.0203307198138
0.0015582915395
0.0201141038488
0.00196466913751
0.0198470198084
0.00237426385837
0.0195285737097
0.00278513726452
0.0191581883313
0.00319501095378
0.0187356370944
0.00360133013064
0.0182610442671
0.00400134161564
0.0177348476367
0.00439216819455
0.0171577281565
0.00477085149367
0.0165305276554
0.00513433215759
0.0158541864236
0.00547932840216
0.015129764763
0.00580209525674
0.0143586074378
0.00609803857499
0.0135427675802
0.00636124426742
0.0126857190324
0.00658397962635
0.011793418199
0.00675649381681
0.0108753675583
0.00686747062892
0.00994517177685
0.0069058742236
0.00901935644296
0.00686435997745
0.00811368632958
0.00674354613686
0.00724581860707
0.00654375143085
0.00642249708249
0.00628501209213
0.00564891022637
0.00597505769941
0.00494434514133
0.00560111436314
0.00432085343638
0.00518276685943
0.00377830504023
0.00474981540836
0.00330870631423
0.00432581231372
0.00290107403311
0.00392467168193
0.00254543907003
0.00355118693363
0.00223418110406
0.00320540710617
0.00196120991423
0.00288656424552
0.00172139815214
0.00259358091479
0.00151076315325
0.00232440761645
0.00132671584793
0.00207637167099
0.00116762815342
0.00184749645876
0.00103160052168
0.0016378429581
0.000915470771172
0.00144896682696
0.000815439730435
0.00128125320441
0.000728966345109
0.00113206214555
0.000654183437154
0.000999303160638
0.000589239679719
0.000881749046653
0.000532499572902
0.000777875037572
0.000482746867169
0.000685872598293
0.000438984582695
0.000604221547029
0.000400540167526
0.000531320163557
0.000366968682178
0.00046625602697
0.000329917830105
0.000421615755007