/*--------------------------------*- C++ -*----------------------------------*\
| =========                 |                                                 |
| \\      /  F ield         | OpenFOAM: The Open Source CFD Toolbox           |
|  \\    /   O peration     | Version:  v1906                                 |
|   \\  /    A nd           | Web:      www.OpenFOAM.com                      |
|    \\/     M anipulation  |                                                 |
\*---------------------------------------------------------------------------*/
FoamFile
{
    version     2.0;
    format      ascii;
    class       volVectorField;
    location    "253";
    object      U;
}
// * * * * * * * * * * * * * * * * * * * * * * * * * * * * * * * * * * * * * //

dimensions      [0 1 -1 0 0 0 0];


internalField   nonuniform List<vector> 
9216
(
(-0.0937712275968 0.0938353001328 0)
(-0.0964340446131 0.291976058202 4.51344029177e-26)
(-0.0959830266597 0.491545185416 -6.50439243937e-30)
(-0.0948955642138 0.690495715033 0)
(-0.0934090903888 0.886693444766 0)
(-0.0915606340146 1.07944664973 0)
(-0.0893827593325 1.26804202821 0)
(-0.0869041789528 1.45182244042 0)
(-0.0841537671508 1.63018935709 0)
(-0.0811613690263 1.80260460227 0)
(-0.0779575981612 1.96859249505 0)
(-0.0745734189548 2.12774119637 0)
(-0.071039594626 2.27970299426 0)
(-0.067386234261 2.42419349733 0)
(-0.0636423176328 2.56098986426 0)
(-0.0598353766947 2.68992818062 0)
(-0.0559911677492 2.81090016778 0)
(-0.0521335099095 2.9238493594 0)
(-0.0482841025621 3.02876692289 0)
(-0.0444625026163 3.12568724694 0)
(-0.0406860602247 3.21468343998 0)
(-0.0369700009855 3.29586283042 0)
(-0.0333274449848 3.36936257327 0)
(-0.0297695579475 3.43534542044 0)
(-0.0263056198907 3.4939957207 0)
(-0.0229432137639 3.5455156776 0)
(-0.019688316812 3.59012189937 0)
(-0.0165455037565 3.62804224844 0)
(-0.0135180449425 3.6595130035 0)
(-0.0106081183577 3.68477633551 0)
(-0.00781693373508 3.70407811953 0)
(-0.00514503941449 3.71766612747 0)
(-0.00259281894628 3.72578929673 0)
(-0.000162307393494 3.7286910405 0)
(0.00215223064087 3.72663872008 0)
(0.00435860056485 3.71984893556 0)
(0.00645723549424 3.7085537566 0)
(0.0084492685187 3.69297989195 0)
(0.0103371091058 3.67334879818 0)
(0.0121236991256 3.64987606531 0)
(0.0138122773895 3.62277067253 0)
(0.0154062049676 3.59223461068 0)
(0.0169089497423 3.55846267118 0)
(0.0183239917912 3.52164233573 0)
(0.0196548436773 3.48195373256 0)
(0.0209049762564 3.43956965211 0)
(0.0220778498332 3.39465560144 0)
(0.0231768498035 3.34736989883 0)
(0.0242053234091 3.29786379107 0)
(0.0251665223096 3.24628159857 0)
(0.0260636427271 3.19276087193 0)
(0.0268997734422 3.13743256756 0)
(0.0276779378907 3.08042122663 0)
(0.0284010464907 3.02184516697 0)
(0.029071939567 2.96181667243 0)
(0.0296933432286 2.90044219092 0)
(0.0302679122806 2.83782252604 0)
(0.0307981890449 2.77405303456 0)
(0.0312866455887 2.70922381482 0)
(0.0317356450765 2.64341989931 0)
(0.0321474828333 2.57672143652 0)
(0.0325243499154 2.50920387622 0)
(0.0328683726243 2.44093814292 0)
(0.0331815781144 2.37199081254 0)
(0.0334659320945 2.30242427688 0)
(0.0337233063407 2.23229691132 0)
(0.0339555143771 2.16166323035 0)
(0.0341642808441 2.09057404659 0)
(0.0343512750253 2.01907661784 0)
(0.0345180820431 1.94721479818 0)
(0.0346662341238 1.87502917732 0)
(0.0347971836412 1.80255722457 0)
(0.0349123320607 1.7298334215 0)
(0.0350130048538 1.65688939979 0)
(0.0351004780678 1.58375406821 0)
(0.0351759551644 1.51045374524 0)
(0.0352405911876 1.43701228139 0)
(0.0352954715685 1.36345118762 0)
(0.0353416338563 1.28978975386 0)
(0.0353800485376 1.21604517421 0)
(0.0354116382844 1.14223266258 0)
(0.0354372607829 1.06836557556 0)
(0.0354577253592 0.994455526415 0)
(0.0354737776382 0.920512506931 0)
(0.0354861130095 0.846545001718 0)
(0.0354953620229 0.772560112661 0)
(0.0355020979819 0.69856368021 0)
(0.0355068165487 0.62456042494 0)
(0.0355099203984 0.550554109962 0)
(0.0355116474645 0.476547781402 0)
(0.0355119001131 0.402544219615 0)
(0.0355097623638 0.328546714298 0)
(0.0355015317779 0.254563045429 0)
(0.035482341447 0.180571244265 0)
(0.0353795576595 0.107054143281 0)
(0.0343259308916 0.034326090177 0)
(-0.292338173163 0.0970775907048 0)
(-0.308635284683 0.310103297134 0)
(-0.307122210462 0.522294626316 -4.56922881517e-26)
(-0.303605623698 0.733970670475 0)
(-0.298850634267 0.942555570987 0)
(-0.292969519327 1.14741981324 0)
(-0.286044504182 1.34783118957 0)
(-0.278159958621 1.54309881483 0)
(-0.269405297731 1.73258893372 0)
(-0.259874492889 1.91573061621 0)
(-0.249664556938 2.09201926277 0)
(-0.238873846695 2.26101842749 0)
(-0.227600266077 2.42236019513 0)
(-0.215939715864 2.57574429539 0)
(-0.203984635888 2.72093614148 0)
(-0.191822904343 2.85776395898 0)
(-0.179536861832 2.98611519691 0)
(-0.167202706339 3.10593238813 0)
(-0.154889984076 3.2172086362 0)
(-0.14266141979 3.31998287226 0)
(-0.130572787882 3.41433502447 0)
(-0.118673073923 3.50038120656 0)
(-0.107004614605 3.57826902604 0)
(-0.0956034775515 3.64817308007 0)
(-0.0844997635065 3.71029069998 0)
(-0.0737181053608 3.76483797886 0)
(-0.0632780459311 3.8120461112 0)
(-0.053194581697 3.85215805329 0)
(-0.0434785577268 3.88542550824 0)
(-0.0341372158009 3.91210622134 0)
(-0.0251745956589 3.93246155046 0)
(-0.0165921340482 3.94675421898 0)
(-0.00838922525298 3.955245603 0)
(-0.000564825121893 3.95819751898 0)
(0.00688949967496 3.95584527979 0)
(0.0139844802579 3.94846180232 0)
(0.0207264668225 3.9362988956 0)
(0.0271230593102 3.91960089501 0)
(0.0331834123678 3.89860468534 0)
(0.0389175545844 3.87353971436 0)
(0.044336123695 3.84462797992 0)
(0.0494500834833 3.81208388142 0)
(0.0542706486877 3.77611408401 0)
(0.0588090986483 3.73691743896 0)
(0.0630767599342 3.69468495684 0)
(0.0670848622866 3.64959983382 0)
(0.0708445506011 3.60183751781 0)
(0.0743667676105 3.55156581308 0)
(0.0776622850618 3.49894501034 0)
(0.0807416059552 3.44412804287 0)
(0.0836150088979 3.38726065703 0)
(0.086292465133 3.32848159945 0)
(0.0887836916847 3.26792281051 0)
(0.091098079582 3.2057096277 0)
(0.0932447524076 3.14196098963 0)
(0.0952325030075 3.07678964526 0)
(0.0970698548644 3.0103023598 0)
(0.0987650052417 2.9426001228 0)
(0.100325887404 2.87377835038 0)
(0.101760118709 2.80392708771 0)
(0.103075062223 2.73313120415 0)
(0.104277778675 2.66147058759 0)
(0.105375086388 2.58902033068 0)
(0.106373516373 2.51585091579 0)
(0.107279369806 2.44202839165 0)
(0.108098675783 2.36761454867 0)
(0.108837245796 2.29266708606 0)
(0.109500633866 2.21723977787 0)
(0.110094187675 2.14138263115 0)
(0.110623010916 2.06514204347 0)
(0.111092010845 1.988560953 0)
(0.111505862826 1.91167898843 0)
(0.11186905416 1.83453261198 0)
(0.112185850848 1.75715526286 0)
(0.112460337632 1.67957749422 0)
(0.112696387048 1.60182711112 0)
(0.112897695647 1.5239293026 0)
(0.11306775544 1.44590677519 0)
(0.113209886259 1.36777988095 0)
(0.113327209677 1.2895667475 0)
(0.113422677453 1.21128340311 0)
(0.113499047883 1.13294390409 0)
(0.113558910038 1.05456045783 0)
(0.113604662102 0.976143548671 0)
(0.113638530223 0.897702060037 0)
(0.113662546516 0.819243400143 0)
(0.113678557268 0.74077362451 0)
(0.113688189087 0.662297561428 0)
(0.11369281969 0.583818928537 0)
(0.11369346897 0.505340422254 0)
(0.113690576115 0.426863740927 0)
(0.113683442487 0.348388899987 0)
(0.113668526494 0.269914557253 0)
(0.113632192118 0.191375232669 0)
(0.113355917177 0.113400531628 0)
(0.107078894634 0.0354027823579 0)
(-0.494481651932 0.0980981654216 0)
(-0.522280933692 0.313233178652 0)
(-0.519329689339 0.527177275637 -4.54001929093e-26)
(-0.513253020122 0.740777758362 0)
(-0.505154866136 0.951227890458 0)
(-0.495173958491 1.15786892999 0)
(-0.483432177881 1.35994872763 0)
(-0.470066774169 1.55676376352 0)
(-0.455227885068 1.74767093177 0)
(-0.439074931074 1.93209268132 0)
(-0.421773058984 2.10952045114 0)
(-0.403489780708 2.27951640497 0)
(-0.38439181656 2.44171362075 0)
(-0.3646423167 2.59581494456 0)
(-0.344398432362 2.7415907164 0)
(-0.32380936405 2.87887556806 0)
(-0.303014795417 3.00756449813 0)
(-0.282143799594 3.12760841424 0)
(-0.261314083514 3.23900932385 0)
(-0.240631636755 3.34181533102 0)
(-0.220190627619 3.43611557943 0)
(-0.200073609188 3.52203525511 0)
(-0.180351871965 3.59973074361 0)
(-0.16108601242 3.66938501154 0)
(-0.142326557519 3.73120326645 0)
(-0.12411472663 3.78540892877 0)
(-0.106483178769 3.8322399376 0)
(-0.0894568395944 3.87194539744 0)
(-0.0730536647576 3.90478256424 0)
(-0.0572854440132 3.93101415844 0)
(-0.0421585042235 3.95090598481 0)
(-0.0276743989389 3.96472484056 0)
(-0.0138303543864 3.97273663694 0)
(-0.000619033822695 3.97520549256 0)
(0.0119679027897 3.9723934754 0)
(0.0239396433379 3.96455419132 0)
(0.0353105957571 3.95193818743 0)
(0.0460964137599 3.93479002149 0)
(0.0563136603653 3.91334738744 0)
(0.0659797767091 3.88784069736 0)
(0.075112933587 3.85849281717 0)
(0.0837317927212 3.8255188681 0)
(0.0918553437241 3.78912609671 0)
(0.0995027075975 3.74951381039 0)
(0.106693024307 3.70687336931 0)
(0.11344530644 3.66138822777 0)
(0.119778370829 3.61323401564 0)
(0.125710732015 3.56257865411 0)
(0.131260567136 3.50958249758 0)
(0.136445639368 3.45439849768 0)
(0.141283287125 3.39717238278 0)
(0.145790369639 3.3380428506 0)
(0.149983273433 3.27714176858 0)
(0.153877873911 3.2145943807 0)
(0.157489553643 3.15051951672 0)
(0.160833175257 3.08502980342 0)
(0.163923107339 3.01823187448 0)
(0.16677320508 2.95022657949 0)
(0.169396840621 2.88110918917 0)
(0.171806888827 2.81096959799 0)
(0.174015759752 2.73989252165 0)
(0.176035387626 2.66795769092 0)
(0.177877263757 2.59524003974 0)
(0.179552427398 2.52180988929 0)
(0.181071497906 2.44773312616 0)
(0.182444666584 2.3730713765 0)
(0.183681727305 2.29788217446 0)
(0.18479206876 2.22221912691 0)
(0.185784703038 2.14613207275 0)
(0.186668257948 2.06966723906 0)
(0.187451003267 1.99286739222 0)
(0.188140842988 1.91577198648 0)
(0.188745339091 1.83841730799 0)
(0.189271703688 1.76083661679 0)
(0.189726820286 1.68306028493 0)
(0.190117235881 1.60511593299 0)
(0.190449179738 1.52702856322 0)
(0.190728555526 1.4488206917 0)
(0.190960957662 1.3705124775 0)
(0.191151663576 1.29212185132 0)
(0.191305647606 1.2136646416 0)
(0.191427573378 1.1351547005 0)
(0.191521805023 1.0566040276 0)
(0.191592399245 0.978022893769 0)
(0.191643112916 0.899419962843 0)
(0.19167739307 0.820802412903 0)
(0.191698377546 0.742176053716 0)
(0.191708877149 0.663545439135 0)
(0.191711360074 0.584913963978 0)
(0.191707915228 0.506283922732 0)
(0.191700221042 0.427656535643 0)
(0.191689574015 0.349031409926 0)
(0.191676940825 0.270408745664 0)
(0.191657248642 0.191726615847 0)
(0.191334006248 0.113693893738 0)
(0.180645185446 0.0355088946756 0)
(-0.699856749637 0.0992967613618 0)
(-0.739477203263 0.316999679951 0)
(-0.735250749287 0.533394648666 4.50580454501e-26)
(-0.726562598636 0.749429375704 0)
(-0.714995396817 0.962215015031 0)
(-0.700752514254 1.17106333799 0)
(-0.684008191769 1.37519590098 0)
(-0.664958836358 1.5738900602 0)
(-0.643819905138 1.76648877632 0)
(-0.620820399966 1.95240520999 0)
(-0.596197478633 2.13112585558 0)
(-0.570191413905 2.30221195985 0)
(-0.543040984125 2.46529931757 0)
(-0.514979422503 2.62009666017 0)
(-0.486230963012 2.7663828672 0)
(-0.457008047618 2.90400323288 0)
(-0.427509161072 3.03286501666 0)
(-0.397917298612 3.15293249132 0)
(-0.368398981849 3.26422168361 0)
(-0.339103794981 3.36679497607 0)
(-0.310164333248 3.46075571405 0)
(-0.281696527043 3.54624293346 0)
(-0.253800231434 3.62342630072 0)
(-0.226560051869 3.69250133193 0)
(-0.200046306023 3.75368493799 0)
(-0.174316107606 3.80721132457 0)
(-0.149414487001 3.85332826093 0)
(-0.125375551033 3.89229371936 0)
(-0.102223611115 3.92437287791 0)
(-0.0799742953661 3.94983547171 0)
(-0.0586355826674 3.96895347347 0)
(-0.0382087800094 3.98199909947 0)
(-0.018689344924 3.98924301505 0)
(-6.80412168777e-05 3.99095292615 0)
(0.0176690340063 3.98739663555 0)
(0.0345374266494 3.97882773807 0)
(0.0505569040156 3.96549954091 0)
(0.0657494694844 3.94765809229 0)
(0.0801387667312 3.92554230859 0)
(0.0937497444266 3.89938360339 0)
(0.106608329865 3.86940557955 0)
(0.118741111265 3.83582384896 0)
(0.130175079321 3.79884593438 0)
(0.140937388111 3.75867123634 0)
(0.151055171095 3.71549105472 0)
(0.160555370586 3.66948865622 0)
(0.169464614664 3.62083937922 0)
(0.177809100591 3.5697107693 0)
(0.185614518277 3.51626273884 0)
(0.192905974315 3.46064774558 0)
(0.199707949874 3.40301098516 0)
(0.206044254503 3.34349059411 0)
(0.21193800876 3.28221785955 0)
(0.21741161924 3.2193174332 0)
(0.222486778356 3.15490754716 0)
(0.227184454018 3.08910022983 0)
(0.231524900802 3.02200152013 0)
(0.235527659262 2.95371167941 0)
(0.239211574146 2.88432539943 0)
(0.242594799662 2.81393200649 0)
(0.245694821548 2.74261566051 0)
(0.248528465603 2.67045554941 0)
(0.25111192133 2.59752607798 0)
(0.253460751849 2.52389705188 0)
(0.255589917533 2.44963385597 0)
(0.257513786016 2.3747976279 0)
(0.259246154764 2.29944542647 0)
(0.260800260378 2.22363039541 0)
(0.262188799442 2.14740192244 0)
(0.263423936634 2.07080579434 0)
(0.264517323495 1.99388434772 0)
(0.265480105126 1.91667661638 0)
(0.266322936722 1.839218475 0)
(0.267055988801 1.76154278 0)
(0.267688961492 1.68367950722 0)
(0.268231088362 1.60565588738 0)
(0.268691148528 1.52749653886 0)
(0.269077469212 1.44922359883 0)
(0.269397935795 1.37085685205 0)
(0.26965999322 1.29241385857 0)
(0.269870654088 1.21391007948 0)
(0.270036498975 1.13535900177 0)
(0.270163682515 1.05677226161 0)
(0.270257932473 0.978159766785 0)
(0.270324553464 0.899529817235 0)
(0.270368424215 0.820889224012 0)
(0.270393998219 0.742243424481 0)
(0.270405299087 0.663596591776 0)
(0.270405920804 0.584951733115 0)
(0.27039903341 0.506310764346 0)
(0.270387422031 0.427674607231 0)
(0.270373609681 0.349042842888 0)
(0.270359830772 0.27041677253 0)
(0.270337396674 0.19173601919 0)
(0.269883650292 0.113724564301 0)
(0.254692785321 0.0355262421048 0)
(-0.90803888511 0.100881324401 0)
(-0.959466927931 0.322033407284 0)
(-0.953914821074 0.541811583029 0)
(-0.94251661688 0.761147582975 0)
(-0.927343838424 0.977088615027 0)
(-0.908671059625 1.18891277242 0)
(-0.886731580718 1.3958085908 0)
(-0.861787042078 1.59702780309 0)
(-0.834123860718 1.79189447342 0)
(-0.804045939477 1.97980931557 0)
(-0.771867406372 2.16025247812 0)
(-0.737905812446 2.33278448706 0)
(-0.702475969573 2.49704544373 0)
(-0.665884571792 2.65275272354 0)
(-0.628425673707 2.7996974437 0)
(-0.590377067672 2.93773997251 0)
(-0.551997536319 3.06680474384 0)
(-0.513524941228 3.18687461865 0)
(-0.47517506103 3.29798500718 0)
(-0.43714109721 3.40021793346 0)
(-0.399593735448 3.49369619029 0)
(-0.362681671604 3.57857770108 0)
(-0.326532492429 3.65505017527 0)
(-0.29125383191 3.7233261176 0)
(-0.256934710542 3.78363822965 0)
(-0.223646999474 3.83623522305 0)
(-0.191446938833 3.88137804902 0)
(-0.160376674265 3.91933653754 0)
(-0.130465761374 3.95038643087 0)
(-0.101732620512 3.97480679058 0)
(-0.0741859066785 3.99287775196 0)
(-0.0478257949417 4.00487864299 0)
(-0.0226450909395 4.01108590669 0)
(0.00136892864937 4.01177323344 0)
(0.0242358201282 4.00721147695 0)
(0.0459773146342 3.99765796744 0)
(0.0666194941379 3.98336917993 0)
(0.0861913829599 3.96459345801 0)
(0.104724169158 3.94157142791 0)
(0.122250671153 3.91453578846 0)
(0.138804884678 3.88371105273 0)
(0.154421584506 3.84931341504 0)
(0.169135988526 3.81155069899 0)
(0.182983467061 3.77062236708 0)
(0.195999304045 3.72671958107 0)
(0.208218493531 3.68002530392 0)
(0.219675578083 3.63071443514 0)
(0.230404513152 3.57895397278 0)
(0.240438564378 3.52490319593 0)
(0.24981022293 3.4687138629 0)
(0.258551146364 3.41053042056 0)
(0.266692111152 3.35049022139 0)
(0.274262984816 3.28872374512 0)
(0.281292704761 3.22535482257 0)
(0.287809272124 3.16050085954 0)
(0.293839748545 3.09427305925 0)
(0.299410264403 3.02677664199 0)
(0.304546027227 2.95811106094 0)
(0.309271338844 2.88837021352 0)
(0.313609610747 2.81764264765 0)
(0.317583386166 2.74601176262 0)
(0.321214359006 2.6735560044 0)
(0.324523397993 2.60034905519 0)
(0.327530566813 2.52646001739 0)
(0.330255148365 2.45195359195 0)
(0.332715664497 2.37689025138 0)
(0.334929899082 2.30132640757 0)
(0.336914916328 2.22531457471 0)
(0.338687081885 2.14890352751 0)
(0.340262079152 2.07213845518 0)
(0.341654927986 1.99506111125 0)
(0.342879998734 1.91770995981 0)
(0.343951028381 1.8401203182 0)
(0.344881132263 1.76232449668 0)
(0.345682817667 1.68435193522 0)
(0.346367993313 1.6062293378 0)
(0.346947980544 1.52798080439 0)
(0.347433520755 1.44962796096 0)
(0.347834784362 1.37119008759 0)
(0.348161376382 1.29268424513 0)
(0.348422343395 1.21412540028 0)
(0.348626177455 1.13552654948 0)
(0.348780821218 1.05689884153 0)
(0.34889367037 0.978251698987 0)
(0.348971577121 0.899592938119 0)
(0.349020851584 0.820928887107 0)
(0.349047264699 0.742264501623 0)
(0.349056051285 0.663603476829 0)
(0.349051918999 0.584948354668 0)
(0.349039068281 0.506300621706 0)
(0.349021239094 0.427660862977 0)
(0.349001799041 0.349028511432 0)
(0.348983448427 0.270405223229 0)
(0.348953339821 0.191730603027 0)
(0.348363084611 0.113728870821 0)
(0.328726796577 0.0355311975816 0)
(-1.11997107484 0.102886238025 0)
(-1.1833537304 0.328435977596 0)
(-1.17639413857 0.55255004023 0)
(-1.16214485592 0.776104390379 0)
(-1.14317973382 0.996068198914 0)
(-1.11985069578 1.21167825144 0)
(-1.09245720405 1.42208247682 0)
(-1.06133360745 1.62650051694 0)
(-1.0268447392 1.82423279515 0)
(-0.989376602138 2.01466474787 0)
(-0.949327032366 2.19726922539 0)
(-0.90709696726 2.3716067953 0)
(-0.863082595742 2.53732411296 0)
(-0.81766857281 2.69415066942 0)
(-0.771222393484 2.84189424709 0)
(-0.724089954944 2.98043541228 0)
(-0.676592269553 3.1097213545 0)
(-0.62902325178 3.22975934927 0)
(-0.581648464216 3.34061008176 0)
(-0.534704695936 3.44238102566 0)
(-0.488400232583 3.53522003009 0)
(-0.442915685676 3.61930922814 0)
(-0.398405249583 3.69485934657 0)
(-0.354998273437 3.76210446636 0)
(-0.312801042644 3.82129726017 0)
(-0.271898686803 3.87270471317 0)
(-0.232357138946 3.91660431948 0)
(-0.194225092179 3.95328073549 0)
(-0.157535905512 3.9830228643 0)
(-0.122309428918 4.00612134156 0)
(-0.0885537194659 4.02286638517 0)
(-0.0562666425832 4.03354605669 0)
(-0.0254372429781 4.03844376377 0)
(0.00395213291608 4.03784090022 0)
(0.0319270434282 4.0320117147 0)
(0.0585159669511 4.0212182274 0)
(0.083752286027 4.00572061044 0)
(0.107672733824 3.98576995038 0)
(0.130316578761 3.96160894657 0)
(0.151724964951 3.9334718182 0)
(0.171940353269 3.90158412405 0)
(0.191006043942 3.86616269807 0)
(0.208965772646 3.82741565863 0)
(0.225863368356 3.78554247246 0)
(0.241742469162 3.74073406342 0)
(0.256646286062 3.69317295718 0)
(0.270617411885 3.6430334539 0)
(0.283697666386 3.59048182272 0)
(0.2959279756 3.53567651225 0)
(0.307348277593 3.47876837268 0)
(0.317997453629 3.41990088557 0)
(0.327913277917 3.35921039802 0)
(0.337132385784 3.29682635871 0)
(0.345690254346 3.23287155366 0)
(0.353621196214 3.16746233985 0)
(0.360958361051 3.10070887557 0)
(0.367733746067 3.0327153463 0)
(0.373978210928 2.96358018549 0)
(0.379721498536 2.89339628951 0)
(0.384992257716 2.82225122667 0)
(0.389818069555 2.75022743994 0)
(0.394225473869 2.6774024433 0)
(0.398239997728 2.60384901193 0)
(0.401886182919 2.52963536618 0)
(0.405187614366 2.45482534961 0)
(0.408166946705 2.37947860135 0)
(0.410845931112 2.30365072301 0)
(0.413245439818 2.22739344058 0)
(0.415385490439 2.15075476139 0)
(0.417285267781 2.07377912682 0)
(0.418963145201 1.99650756079 0)
(0.42043670341 1.91897781459 0)
(0.421722748725 1.84122450821 0)
(0.422837328834 1.76327926867 0)
(0.42379574799 1.68517086547 0)
(0.424612579894 1.60692534363 0)
(0.425301680028 1.52856615445 0)
(0.425876195887 1.45011428436 0)
(0.426348576739 1.37158838196 0)
(0.426730581508 1.2930048836 0)
(0.427033286275 1.21437813756 0)
(0.427267090144 1.13572052705 0)
(0.427441720853 1.057042592 0)
(0.427566239058 0.978353149808 0)
(0.427649042637 0.899659414951 0)
(0.427697870347 0.820967117279 0)
(0.427719806476 0.742280618927 0)
(0.427721286964 0.663603029804 0)
(0.427708110064 0.584936322838 0)
(0.427685454749 0.506281446714 0)
(0.427657911787 0.427638504811 0)
(0.427629517153 0.349006522851 0)
(0.427603228563 0.270386928721 0)
(0.42756227588 0.191718460094 0)
(0.426833601095 0.113722582202 0)
(0.402766116528 0.035529208858 0)
(-1.33656741486 0.105348654213 0)
(-1.41212072644 0.33630308755 0)
(-1.40364253208 0.565750890428 4.42585474608e-26)
(-1.3863554079 0.794490474323 0)
(-1.36335499607 1.01939071489 0)
(-1.33507827674 1.23963662778 0)
(-1.30189939171 1.45432651475 0)
(-1.26423469234 1.66264096977 0)
(-1.22253692341 1.86385205752 0)
(-1.17728343102 2.05732747384 0)
(-1.128964401 2.24253243922 0)
(-1.07807193736 2.41902913346 0)
(-1.02509034599 2.58647394515 0)
(-0.97048784429 2.74461294667 0)
(-0.914709801053 2.89327601436 0)
(-0.858173515519 3.03236999911 0)
(-0.801264465842 3.16187131638 0)
(-0.744333903402 3.28181827506 0)
(-0.687697632007 3.39230340854 0)
(-0.631635794622 3.49346601541 0)
(-0.576393484483 3.58548506367 0)
(-0.522182005616 3.66857256587 0)
(-0.46918061978 3.74296749191 0)
(-0.417538636672 3.80893025387 0)
(-0.367377722624 3.86673777158 0)
(-0.318794325397 3.916679108 0)
(-0.271862130528 3.95905165007 0)
(-0.226634484585 3.99415780128 0)
(-0.183146734778 4.02230214663 0)
(-0.141418449963 4.04378904941 0)
(-0.101455496404 4.05892062901 0)
(-0.0632519594834 4.06799521293 0)
(-0.0267917566061 4.07130428494 0)
(0.00794927496033 4.06913877289 0)
(0.0410031518953 4.06177577562 0)
(0.0724062219446 4.04948355501 0)
(0.102200069722 4.03252627564 0)
(0.130429915955 4.01115807928 0)
(0.157143769091 3.98562398939 0)
(0.182391659556 3.95615989509 0)
(0.206224991978 3.92299246527 0)
(0.228695997801 3.88633916902 0)
(0.249857273275 3.84640835871 0)
(0.269761391696 3.80339939926 0)
(0.288460581992 3.75750283445 0)
(0.306006464542 3.70890058198 0)
(0.322449837705 3.65776615011 0)
(0.337840507397 3.60426487008 0)
(0.352227154527 3.54855413929 0)
(0.365657233952 3.49078367128 0)
(0.378176900987 3.43109574904 0)
(0.389830960311 3.36962547913 0)
(0.40066283436 3.30650104418 0)
(0.410714547047 3.24184395229 0)
(0.420026720763 3.17576928182 0)
(0.428638583376 3.1083859206 0)
(0.43658798382 3.03979679891 0)
(0.443911413691 2.97009911567 0)
(0.450644034023 2.89938455744 0)
(0.45681970514 2.82773951035 0)
(0.462471019226 2.75524526471 0)
(0.467629333912 2.68197821248 0)
(0.472324806843 2.60801003784 0)
(0.476586429866 2.53340790107 0)
(0.480442063024 2.45823461598 0)
(0.483918467263 2.38254882136 0)
(0.487041336206 2.30640514671 0)
(0.489835326095 2.22985437268 0)
(0.492324084375 2.15294358656 0)
(0.494530276175 2.07571633332 0)
(0.496475609231 1.99821276241 0)
(0.498180856625 1.92046977091 0)
(0.49966587793 1.84252114312 0)
(0.500949638225 1.76439768728 0)
(0.502050225569 1.68612736937 0)
(0.502984866514 1.60773544461 0)
(0.503769940188 1.52924458677 0)
(0.504420990615 1.45067501562 0)
(0.504952737793 1.37204462269 0)
(0.50537908722 1.29336909563 0)
(0.505713138389 1.21466204133 0)
(0.505967191991 1.13593510791 0)
(0.506152756331 1.0571981057 0)
(0.506280552806 0.978459127428 0)
(0.506360521011 0.89972466745 0)
(0.506401823542 0.82099974037 0)
(0.50641285134 0.742287999049 0)
(0.506401230165 0.663591852626 0)
(0.506373829512 0.58491258611 0)
(0.506336774964 0.506250479129 0)
(0.506295463239 0.427604991224 0)
(0.506254559196 0.348974515056 0)
(0.506217315544 0.2703599166 0)
(0.506163390189 0.191698759798 0)
(0.505295830466 0.113709292925 0)
(0.476801933477 0.03552392951 0)
(-1.55881784032 0.108305377161 0)
(-1.64681344119 0.34574557221 0)
(-1.63667827205 0.581591950633 -4.38962579745e-26)
(-1.61611849517 0.816547443557 0)
(-1.58877800543 1.04735500307 0)
(-1.55518942949 1.27313541502 0)
(-1.51581255211 1.49292698593 0)
(-1.47115751926 1.7058637167 0)
(-1.421776994 1.91118461124 0)
(-1.36825130438 2.10823764732 0)
(-1.3111737909 2.29648092605 0)
(-1.25113735531 2.47548090322 0)
(-1.18872265818 2.64490812646 0)
(-1.12448821596 2.80453102695 0)
(-1.05896249382 2.95420830598 0)
(-0.992637965375 3.09388041947 0)
(-0.925967015171 3.22356060245 0)
(-0.859359495736 3.34332580174 0)
(-0.793181713333 3.4533078075 0)
(-0.727756602301 3.5536848006 0)
(-0.663364849889 3.6446734659 0)
(-0.600246748823 3.72652176517 0)
(-0.538604576664 3.79950241708 0)
(-0.478605328127 3.86390709611 0)
(-0.420383653704 3.92004133536 0)
(-0.364044885662 3.96822009967 0)
(-0.309668056977 4.00876398358 0)
(-0.257308841851 4.04199598128 0)
(-0.207002365244 4.06823877331 0)
(-0.158765845731 4.08781247612 0)
(-0.112601047518 4.10103279033 0)
(-0.06849653129 4.10820969732 0)
(-0.0264295188919 4.10964376352 0)
(0.0136326106793 4.1056372073 0)
(0.0517287514961 4.09646899215 0)
(0.0879045830905 4.08241530228 0)
(0.122210913044 4.0637444271 0)
(0.154702319794 4.04071375991 0)
(0.185436304837 4.01357079151 0)
(0.214472429413 3.9825531344 0)
(0.241871590802 3.947888548 0)
(0.267695415636 3.90979505789 0)
(0.292005750046 3.86848112429 0)
(0.314864234786 3.82414584665 0)
(0.336331955181 3.77697919592 0)
(0.356469155975 3.72716226718 0)
(0.37533501265 3.67486754613 0)
(0.392987451142 3.62025918442 0)
(0.409483009224 3.56349327959 0)
(0.424876733103 3.50471815621 0)
(0.439222103976 3.44407464563 0)
(0.452570989474 3.38169636205 0)
(0.464973615974 3.31770997336 0)
(0.476478557859 3.2522354655 0)
(0.487132740736 3.18538639938 0)
(0.496981455601 3.11727015981 0)
(0.506068381804 3.04798819599 0)
(0.514435616517 2.97763625343 0)
(0.522123709224 2.90630459723 0)
(0.529171699509 2.83407822683 0)
(0.535617157156 2.76103708247 0)
(0.541496223301 2.68725624359 0)
(0.546843652006 2.61280611959 0)
(0.551692851381 2.53775263318 0)
(0.556075923868 2.46215739702 0)
(0.560023705101 2.38607788381 0)
(0.563565801162 2.30956759046 0)
(0.566730623836 2.23267619675 0)
(0.569545423851 2.15544971891 0)
(0.572036321826 2.0779306586 0)
(0.574228337057 2.00015814769 0)
(0.576145413927 1.92216808929 0)
(0.577810446163 1.8439932954 0)
(0.579245298806 1.76566362151 0)
(0.580470828141 1.6872060986 0)
(0.581506899512 1.60864506275 0)
(0.582372403298 1.53000228273 0)
(0.583085269006 1.45129708583 0)
(0.583662477754 1.37254648213 0)
(0.584120073143 1.29376528747 0)
(0.584473170796 1.21496624533 0)
(0.584735966574 1.13616014772 0)
(0.584921743776 1.05735595527 0)
(0.585042879398 0.97856091669 0)
(0.585110849787 0.899780687632 0)
(0.585136235904 0.821019449306 0)
(0.585128728632 0.742280027007 0)
(0.585097134454 0.663564009208 0)
(0.585049381866 0.584871868678 0)
(0.584992528246 0.506203081936 0)
(0.584932764697 0.427556312329 0)
(0.584875394935 0.348929143081 0)
(0.584824037916 0.27032168517 0)
(0.584754987801 0.191670210114 0)
(0.583747716525 0.113689716789 0)
(0.550829039476 0.035516304125 0)
(-1.7877934327 0.111799303611 0)
(-1.88855533379 0.356897446483 0)
(-1.87659306563 0.600293451163 0)
(-1.85247099211 0.842575330809 0)
(-1.8204147932 1.08033144506 0)
(-1.78106675639 1.3126039768 0)
(-1.73498645961 1.53835952183 0)
(-1.68279282724 1.75667736403 0)
(-1.62515354265 1.9667588722 0)
(-1.56276641226 2.16793104464 0)
(-1.49634123879 2.3596465396 0)
(-1.4265834243 2.54148022696 0)
(-1.35417983094 2.71312288692 0)
(-1.27978716377 2.87437278985 0)
(-1.20402293817 3.02512585455 0)
(-1.12745893629 3.16536500991 0)
(-1.05061694416 3.29514928845 0)
(-0.973966490406 3.41460307257 0)
(-0.897924273274 3.52390580896 0)
(-0.822854956263 3.62328241051 0)
(-0.749073026724 3.71299448269 0)
(-0.67684543933 3.79333244415 0)
(-0.606394800939 3.8646085599 0)
(-0.537902891177 3.92715086688 0)
(-0.471514350343 3.98129794568 0)
(-0.407340401303 4.02739447563 0)
(-0.3454625033 4.06578750101 0)
(-0.285935862886 4.09682333289 0)
(-0.228792750236 4.12084501175 0)
(-0.174045588338 4.13819026162 0)
(-0.121689799161 4.14918985844 0)
(-0.0717063950626 4.1541666156 0)
(-0.0240641826739 4.15343107083 0)
(0.0212802505788 4.14729842457 0)
(0.0643731330295 4.13604807847 0)
(0.105271209 4.11996587426 0)
(0.144035626856 4.09932413423 0)
(0.180731284939 4.074383579 0)
(0.215426015982 4.04539419675 0)
(0.248189629538 4.01259526954 0)
(0.279093124358 3.97621553128 0)
(0.30820803436 3.93647339989 0)
(0.335605882399 3.89357724187 0)
(0.361357728694 3.84772566135 0)
(0.385533801865 3.7991078061 0)
(0.408203201386 3.74790368396 0)
(0.429433661615 3.69428448437 0)
(0.449291368518 3.63841290081 0)
(0.467840821327 3.58044345096 0)
(0.485144732171 3.52052279171 0)
(0.501263957634 3.45879002748 0)
(0.51625745687 3.39537700995 0)
(0.530182271666 3.33040862849 0)
(0.543093524347 3.2640030904 0)
(0.555044430106 3.19627219061 0)
(0.566086320641 3.12732157068 0)
(0.576268676625 3.05725096705 0)
(0.585639166722 2.98615444873 0)
(0.594243691341 2.91412064468 0)
(0.602126429521 2.84123296132 0)
(0.609329887671 2.76756979048 0)
(0.615894949054 2.69320470839 0)
(0.621860923153 2.61820666619 0)
(0.627265594179 2.54264017252 0)
(0.632145268188 2.46656546871 0)
(0.636534818323 2.39003869718 0)
(0.640467727902 2.31311206356 0)
(0.643976131062 2.23583399314 0)
(0.647090850857 2.15824928205 0)
(0.649841434653 2.08039924381 0)
(0.652256186857 2.00232185163 0)
(0.654362198917 1.92405187701 0)
(0.656185376702 1.84562102492 0)
(0.657750465295 1.76705806612 0)
(0.659081071333 1.68838896692 0)
(0.660199682985 1.60963701661 0)
(0.661127687734 1.53082295314 0)
(0.661885388077 1.451965087 0)
(0.662492015325 1.37307942381 0)
(0.662965741638 1.29417978573 0)
(0.663323690486 1.21527793191 0)
(0.66358194568 1.13638367813 0)
(0.663755559187 1.05750501587 0)
(0.663858557894 0.978648230896 0)
(0.663903949556 0.899818021529 0)
(0.663903728122 0.82101761691 0)
(0.663868878673 0.742248895423 0)
(0.66380938208 0.663512503817 0)
(0.663734219312 0.584807978023 0)
(0.663651374806 0.506133860967 0)
(0.663567836319 0.427487882432 0)
(0.663489566139 0.348866673218 0)
(0.663420602348 0.270269453369 0)
(0.663333975461 0.191631129045 0)
(0.662185697052 0.113663420039 0)
(0.624842869644 0.0355064369257 0)
(-2.0246628861 0.115882136826 0)
(-2.1385687387 0.369921810631 0)