/*--------------------------------*- C++ -*----------------------------------*\
| =========                 |                                                 |
| \\      /  F ield         | OpenFOAM: The Open Source CFD Toolbox           |
|  \\    /   O peration     | Version:  v1906                                 |
|   \\  /    A nd           | Web:      www.OpenFOAM.com                      |
|    \\/     M anipulation  |                                                 |
\*---------------------------------------------------------------------------*/
FoamFile
{
    version     2.0;
    format      ascii;
    class       surfaceScalarField;
    location    "256";
    object      phia;
}
// * * * * * * * * * * * * * * * * * * * * * * * * * * * * * * * * * * * * * //

dimensions      [0 3 -1 0 0 0 0];
oriented        oriented;


internalField   nonuniform List<scalar> 
18240
(
0.00136210377168
-0.00136121907301
0.00285348792808
-0.0014904175631
0.00434417050511
-0.00148974490198
0.00581652464847
-0.0014713684395
0.00726255619428
-0.00144509556898
0.00867570117955
-0.00141213819836
0.010049867405
-0.00137323234938
0.0113797963525
-0.00132889499041
0.0126604824572
-0.00127975469292
0.0138878613226
-0.00122631229568
0.0150580276009
-0.00116923958108
0.0161681567263
-0.00110902574616
0.0172154383888
-0.00104636311007
0.0181982706137
-0.000981689458781
0.0191148614289
-0.000915685893321
0.0199647476738
-0.000848703456539
0.0207470233156
-0.000781390504954
0.0214622335568
-0.000713988992005
0.0221101955022
-0.00064710450244
0.0226923111342
-0.000580859673521
0.023208951297
-0.000515818057532
0.0236622198987
-0.000451983791709
0.0240528832363
-0.000389885300708
0.0243836045071
-0.000329415130569
0.0246554081412
-0.00027107696535
0.024871389353
-0.000214662549794
0.0250327169761
-0.000160659973356
0.0251428093845
-0.000108770630734
0.0252028876304
-5.94748691616e-05
0.0252165977546
-1.23948309972e-05
0.0251851411614
3.19905029219e-05
0.0251123110042
7.41297823075e-05
0.0249992193316
0.00011355376243
0.0248497188447
0.000150775784768
0.0246647931724
0.000185313606476
0.0244483074064
0.000217729088448
0.0242010817796
0.000247539921468
0.0239269345394
0.000275351834431
0.0236264965915
0.000300678789628
0.0233034957795
0.00032416101319
0.0229583585049
0.000345307388198
0.0225946860383
0.00036478343746
0.0222126941403
0.000382093257089
0.0218158320252
0.000397919946948
0.0214041063495
0.000411762435368
0.0209807946466
0.000424313120383
0.0205457032323
0.000435066672425
0.0201019277803
0.000444717924813
0.0196490890572
0.000452757476847
0.0191900952431
0.00045987529449
0.0187244018613
0.000465559421093
0.0182547317224
0.000470489205753
0.0177803993895
0.000474151129103
0.0173039469785
0.000477208046984
0.0168245753944
0.000479147358742
0.0163446558299
0.00048061131525
0.0158633038436
0.000481090436247
0.0153827291928
0.000481202425494
0.0149019901426
0.000480444626054
0.0144231463242
0.000479408036437
0.0139452244628
0.00047760025129
0.0134701422568
0.000475583602328
0.0129969173772
0.000472880533711
0.0125273329086
0.00047002420839
0.0120604152967
0.000466555934299
0.0115978156499
0.000462979131143
0.0111385822677
0.000458858549892
0.0106842350266
0.000454668194746
0.0102338520694
0.000449999815409
0.00978881848786
0.000445297889668
0.00934824606928
0.000440184675537
0.0089133805113
0.000435075378917
0.0084833674335
0.000429624960843
0.0080593061813
0.000424218944876
0.00764037430162
0.000418546787274
0.00722751863765
0.000412963953482
0.00681994564056
0.000407194908603
0.00641844356388
0.000401564021727
0.00602224522314
0.000395830838071
0.0056319768165
0.000390287463667
0.00524689644176
0.000384727566485
0.00486746700687
0.000379409133907
0.00449297399318
0.00037415836721
0.00412372090916
0.000369196351852
0.00375902866902
0.00036437798989
0.00339905579042
0.00035988091237
0.0030431849675
0.000355576739736
0.0026914824747
0.000351575419499
0.00234349600442
0.00034771076963
0.00199944137223
0.000343897897826
0.00165957809075
0.00033961211726
0.00132563615106
0.00033376784791
0.00100259227914
0.000322839996367
0.000706608575569
0.000295795973165
0.000404367729405
0.000301968604702
0.000404210217782
0.00150568256451
-0.00286595715022
0.00318663871657
-0.00317036464423
0.00485883619108
-0.00316093346692
0.00650765877656
-0.00311916687844
0.00812577991192
-0.00306220193918
0.00970640646416
-0.00299172712353
0.0112429932297
-0.0029087958757
0.0127296117771
-0.00281445851394
0.0141607991413
-0.00270990825729
0.0155318810705
-0.0025963186927
0.0168386680222
-0.00247498138099
0.0180778367165
-0.00234709675444
0.0192464892422
-0.00221396035554
0.0203426268214
-0.00207670731137
0.0213645621822
-0.00193655846593
0.0223115124659
-0.00179451394405
0.0231828545617
-0.00165166703786
0.0239788623139
-0.00150884081919
0.0246997958555
-0.00136697558188
0.0253468044648
-0.0012267019325
0.0259208431172
-0.00108880494158
0.0264237568218
-0.000953727995673
0.026857019554
-0.000822114915514
0.0272230087876
-0.000694240013299
0.0275235646356
-0.000570627138981
0.0277614563517
-0.000451403992208
0.0279387626258
-0.000336996129442
0.0280585253957
-0.000227406086162
0.0281229561553
-0.000122979063297
0.0281352675222
-2.36103511109e-05
0.0280977129951
7.04215374143e-05
0.0280135857221
0.000159313824624
0.0278851181723
0.000242841880636
0.0277156258208
0.000321279132536
0.0275072530971
0.00039444692747
0.0272632576656
0.000462684381968
0.0269856477431
0.000525847225356
0.0266775776449
0.000584326399435
0.0263408849876
0.000638004060143
0.0259785811213
0.000687310867451
0.0255923078657
0.000732147474246
0.0251849036171
0.000772973003638
0.0247577989859
0.000809699275044
0.0243136390081
0.000842803282216
0.0238536363594
0.000872201613815
0.0233802307499
0.00089837945758
0.0228944184202
0.000921252294262
0.0223984299735
0.00094130446029
0.0218930537988
0.000958445381779
0.0213803144616
0.000973150508607
0.020860807528
0.000985319009252
0.0203363609433
0.000995410396861
0.0198073974006
0.00100331070685
0.0192755621047
0.00100945795842
0.0187411285392
0.00101372345124
0.0182055764786
0.00101651970767
0.017669055516
0.0010177034635
0.0171328983364
0.00101765963603
0.0165971560119
0.00101623211224
0.0160630322807
0.00101377782787
0.0155305030319
0.00101013121467
0.0150006587352
0.0010056225187
0.0144734201159
0.00100008122281
0.0139497769094
0.000993813361837
0.0134296100552
0.000986648846239
0.0129138165602
0.000978872760572
0.0124022480125
0.000970320931231
0.0118957125738
0.000961260924926
0.0113940378442
0.00095153970913
0.0108979426875
0.000941410466604
0.0104072318198
0.000930735615583
0.00992253144035
0.000919756339543
0.00944362110791
0.000908353684344
0.0089710286968
0.000896758193325
0.00850450442376
0.000884871269506
0.00804447173274
0.000872913030808
0.00759064667189
0.000860805588675
0.0071433424918
0.000848757682011
0.00670223707124
0.000836711117111
0.00626752970248
0.000824861249227
0.00583885802589
0.000813167359808
0.00541630615306
0.000801808251082
0.00499947255874
0.000790757024452
0.0045883291244
0.000780171011702
0.00418244079806
0.000770030596529
0.00378167619975
0.000760461833515
0.00338557971531
0.000751436593023
0.00299393393805
0.000743022499215
0.00260627389122
0.000735131819227
0.00222227828674
0.000727679832121
0.00184132100555
0.000720342125301
0.0014623300697
0.000712550261782
0.00108173835954
0.000703207417548
0.00068673794162
0.000690589924632
0.000301050917044
0.000687440743696
0.000705140567678
0.00153188865733
-0.00439689698483
0.00323393214189
-0.00487139582172
0.00492972794995
-0.00485571482358
0.00660205866617
-0.00479047463398
0.00824287742093
-0.00470199705684
0.00984504657206
-0.0045928620814
0.0114018808998
-0.00446459476685
0.0129072941582
-0.00431882233831
0.0143557798293
-0.0041573438035
0.0157425519739
-0.00398202347993
0.017063450597
-0.00379481385823
0.0183150772188
-0.00359763709361
0.0194946332029
-0.00339243435377
0.0206000675995
-0.0031810373098
0.0216298529656
-0.00296524824307
0.0225831601985
-0.00274670138324
0.023459575232
-0.00252697670397
0.024259314168
-0.00230744919933
0.0249828846496
-0.00208943679508
0.0256313524856
-0.00187403478118
0.0262059504419
-0.00166229673067
0.0267084042523
-0.00145505014401
0.0271404911644
-0.00125310721566
0.0275044290834
-0.00105705820951
0.0278023852156
-0.000867508793692
0.0280369282491
-0.00068484829054
0.0282104877272
-0.000509510316819
0.0283258662757
-0.000341715678608
0.0283856499978
-0.000181754757646
0.0283927766496
-2.97060743411e-05
0.0283499000349
0.000114261189002
0.0282600095518
0.00025019002479
0.0281257518531
0.000378011518085
0.0279500969963
0.000497868329941
0.027735621986
0.000609777442129
0.0274852178476
0.000713966822957
0.0272013403844
0.000810520344936
0.0268867535051
0.000899731990379
0.0265437530017
0.000981737551531
0.0261749396058
0.00105688107722
0.0257824206465
0.00112533559995
0.0253686070656
0.00118748002922
0.0249353992162
0.00124351158243
0.02448500169
0.00129383035316
0.0240190980957
0.00133864541327
0.0235396780548
0.00137836514402
0.023048207087
0.0014131996543
0.0225464598427
0.00144355414669
0.0220356896649
0.00146962968256
0.0215174626772
0.00149181777181
0.0209928327378
0.00151030218316
0.020463170686
0.00152545215083
0.0199293487537
0.00153742732226
0.0193925598341
0.00154656784225
0.0188535164549
0.00155300507838
0.0183132546497
0.00155704604768
0.0177723509803
0.0015587919019
0.0172317062523
0.00155851495277
0.0166917850624
0.0015562872956
0.0161533744674
0.00155234793785
0.015616849047
0.00154674326007
0.0150829004567
0.00153968251381
0.0145518319389
0.00153119210183
0.0140242547378
0.00152145709072
0.0135004146514
0.00151049065929
0.0129808522239
0.00149846004871
0.012465764758
0.00148537274644
0.0119556273606
0.00147138485572
0.0114505925972
0.00145650504161
0.0109510704032
0.00144088409192
0.0104571681952
0.0014245378257
0.00996922782141
0.00140761634257
0.00948730777801
0.00139014665466
0.00901167618354
0.00137228086959
0.00854233716454
0.00135405942961
0.00807947890165
0.00133563729685
0.00762304519645
0.00131706833642
0.00717313823882
0.00129850919055
0.00672963664123
0.00128002539672
0.00629255248157
0.00126177245999
0.0058616962377
0.00124382401532
0.00543698801154
0.00122632996178
0.00501816996229
0.0012093668885
0.0046050713424
0.00119307276129
0.00419736811368
0.00117751935189
0.00379480105996
0.00116282271308
0.00339698048652
0.00114903642344
0.00300355051657
0.00113623598508
0.00261402304588
0.0011244318439
0.00222785020427
0.00111362921599
0.00184418614347
0.00110377503946
0.00146164843256
0.00109486961037
0.00107749378133
0.00108715710327
0.000686260270119
0.00108159307364
0.000293329435111
0.00108014323842
0.00099836702524
0.00155486399898
-0.0059508125511
0.00327951010727
-0.00659503637667
0.00499806633692
-0.00657325522511
0.00669251371365
-0.00648390203618
0.00835435424314
-0.00636281235944
0.00997612302602
-0.00621359893374
0.0115509295681
-0.0060383628567
0.0130725199163
-0.0058393652636
0.0145353040758
-0.00561907289251
0.0159344213847
-0.00538007523765
0.0172657219355
-0.00512504086288
0.018525804979
-0.00485663546851
0.0197119582704
-0.00457749575958
0.0208221803767
-0.00429015651839
0.0218550861213
-0.00399704566503
0.0228099243712
-0.00370042134603
0.0236864577535
-0.00340238940298
0.0244849868329
-0.00310484940636
0.0252062112589
-0.00280953389524
0.0258512695876
-0.00251796020268
0.0264215878125
-0.00223148853253
0.0269189414497
-0.00195127482957
0.0273452946877
-0.00167834336273
0.0277028875779
-0.00141353499167
0.027994066546
-0.00115758930864
0.0282213961405
-0.000911083899205
0.0283874794825
-0.00067452289158
0.0284950919289
-0.000448265294996
0.028546990234
-0.000232618813226
0.0285460654976
-2.77580658969e-05
0.0284951409222
0.000166175859946
0.0283971415407
0.000349165809134
0.0282548816545
0.000521210513325
0.0280712499114
0.000682423437162
0.02784898847
0.000832921917936
0.0275908924029
0.000972928608263
0.0272995806421
0.00110265505831
0.0269777080816
0.00122240925823
0.026627730803
0.00133247521928
0.0262521285594
0.00143322485787
0.0258531657074
0.0015249945606
0.0254331222533
0.00160820061571
0.0249940518155
0.0016832133013
0.0245380192951
0.00175047521563
0.024066857376
0.00181037367016
0.0235824091627
0.00186336111954
0.0230862845766
0.00190982637844
0.0225801061349
0.0019502165721
0.0220652666702
0.00198490806163
0.0215431766265
0.00201432923395
0.0210150243272
0.00203883183233
0.0204820229085
0.00205881409873
0.0199451743043
0.00207459352282
0.0194055140808
0.002086529707
0.0188638800944
0.00209489929611
0.0183211532516
0.00210001803473
0.017778031709
0.00210211881219
0.0172352657909
0.00210147217096
0.0166934384893
0.00209826807824
0.0161531926696
0.00209273417627
0.0156150186053
0.00208502195495
0.0150794719477
0.00207532184445
0.0145469690539
0.00206375414988
0.0140179942563
0.00205048014304
0.0134929037674
0.00203559816816
0.0129721212262
0.0020192498009
0.0124559510615
0.00200152130841
0.0119447614314
0.00198254408169
0.0114388079221
0.00196240171259
0.0109384034264
0.00194122394147
0.0104437531291
0.00191909949061
0.00995511098368
0.00189616297636
0.00947262682672
0.00187251373645
0.00899648942904
0.00184829527096
0.00852678657403
0.00182362024594
0.00806363467917
0.00179864223691
0.00760705245263
0.00177348716233
0.00715707724083
0.00174831721477
0.0067136528145
0.00172326893707
0.00627673250139
0.00169850934867
0.0058461813294
0.00167418086425
0.00542186599182
0.00165044964257
0.00500357139522
0.00162745746874
0.00459107718146
0.00160536231135
0.00418408798062
0.00158429716296
0.00378229531216
0.00156440279067
0.00338531907079
0.00154579372513
0.00299274960185
0.00152858437485
0.00260408940809
0.00151286457689
0.00221875794638
0.00149873047461
0.00183601600714
0.00148629546774
0.00145490174094
0.00147576560666
0.00107422208544
0.00146760320682
0.00069311706305
0.00146247857224
0.000317559457024
0.00145547955405
0.0013158063721
0.00158429576072
-0.00753416257518
0.00334022244551
-0.00834995468012
0.00508949595938
-0.00832151677497
0.00681348913158
-0.00820687629939
0.00850327425458
-0.00805157402385
0.0101510251053
-0.00786031874177
0.0117495742952
-0.007635873942
0.0132924595972
-0.00738120286342
0.0147739610966
-0.00709951814286
0.0161891431604
-0.00679418994267
0.0175338505302
-0.00646867187653
0.0188047162915
-0.00612641309117
0.0199991206365
-0.00577080345788
0.0211151748323
-0.00540510264302
0.0221516530284
-0.00503240884613
0.0231079635229
-0.00465560679596
0.0239840640678
-0.00427736045053
0.0247804308547
-0.00390007918337
0.0254979671166
-0.00352593215608
0.0261379787323
-0.00315682974757
0.0267020840011
-0.00279445483765
0.0271922018578
-0.0024402539357
0.0276104676033
-0.0020954781172
0.0279592356202
-0.00176117693901
0.0282410015195
-0.00143824165002
0.028458417294
-0.0011273959893
0.0286142176336
-0.000829236806121
0.0287112438122
-0.000544219621001
0.0287523713156
-0.000272696043973
0.0287405397312
-1.4895132716e-05
0.0286786806319
0.000229040826906
0.0285697519039
0.000459077831532
0.0284166669921
0.000675249984549
0.0282223335688
0.0008776858604
0.0279895830692
0.00106657013553
0.0277212158871
0.00124216589141
0.0274199309113
0.00140477708115
0.0270883758523
0.00155477225313
0.0267290778554
0.00169254683438
0.0263444983003
0.00181854810884
0.0259369642719
0.00193323733522
0.0255087272213
0.00203711600866
0.0250618956191
0.00213068799073
0.0245984968174
0.0022144866844
0.0241204109261
0.00228903712022
0.023629435366
0.00235488395982
0.023127220466
0.0024125537832
0.0226153361224
0.00246258363228
0.0220952091755
0.00250548362928
0.0215681916658
0.00254176615623
0.0210355003681
0.0025719092515
0.0204982859376
0.00259638632697
0.0199575744292
0.00261563063774
0.0194143366345
0.00263006573756
0.0188694316678
0.00264007150536
0.0183236755779
0.00264601522537
0.0177777865769
0.00264821937232
0.0172324520852
0.00264699335766
0.0166882755171
0.00264260332135
0.0161458408261
0.0026353041871
0.0156056604158
0.00262531138306
0.0150682364855
0.00261283295549
0.0145340100961
0.00259804315825
0.0140034186637
0.00258111403556
0.013476846015
0.00256219057237
0.0129546757165
0.00254142132538
0.0124372424491
0.00251893491633
0.0119248809624
0.00249486908873
0.0114178789542
0.00246934821802
0.0109165217612
0.00244251043141
0.0104210473451
0.00241448598259
0.00993168686958
0.00238542199878
0.00944862220525
0.0023554615723
0.00897202274912
0.00232476599903
0.00850200611482
0.00229349463747
0.00803867146925
0.00226182448731
0.00758206380495
0.00222993090458
0.00713220413513
0.00219800462122
0.00668905783656
0.00216623354382
0.00625256183991
0.00213481727006
0.00582259717686
0.00210395019886
0.00539901323574
0.00207383374112
0.00498160450705
0.00204466101371
0.00457013159146
0.00201662687745
0.00416430151106
0.00198991454144
0.00376378458409
0.00196470390642
0.0033681970536
0.0019411609937
0.00297711046693
0.0019194462293
0.00259003563579
0.00189971167112
0.00220642277192
0.00188211537633
0.00182564562797
0.00186683831699
0.00144704743784
0.00185414194636
0.00107005817672
0.00184438840032
0.00069468350124
0.0018376135466
0.000324776138158
0.00182514069733
0.00164047466412
0.00162148113083
-0.00915470031287
0.00341783132504
-0.0101453068356
0.00520662108201
-0.0101092955694
0.00696847052642
-0.00996771105899
0.00869395200175
-0.00977603343426
0.010374806858
-0.00954014486312
0.0120035264614
-0.00926355569399
0.0135733925072
-0.00895002209123
0.0150785239818
-0.00860359176882
0.0165139015605
-0.00822849943728
0.0178753700145
-0.00782906008116
0.0191596211866
-0.00740957352268
0.0203641604204
-0.00697423972671
0.0214872601965
-0.00652708969494
0.02252790292
-0.0060719276834
0.0234857180122
-0.00561229003891
0.0243609127386
-0.00515141446852
0.0251542047229
-0.00469222524967
0.0258667513226
-0.00423732737734
0.0265000882099
-0.0037890137154
0.0270560659855
-0.00334927865102
0.0275368024288
-0.00291983916645
0.0279446308087
-0.00250215929441
0.0282820680684
-0.00209747448999
0.0285517739299
-0.00170681726427
0.0287565319061
-0.00133103600052
0.0288992143565
-0.000970816104101
0.0289827711118
-0.000626690133518
0.0290101960994
-0.000299054622097
0.028984520141
1.18261624667e-05
0.0289087776212
0.000305804525938
0.028786001838
0.000582850096892
0.0286191946709
0.000843025772197
0.0284113245809
0.00108649705975
0.0281652966014
0.00131350873038
0.0278839568971
0.00152438662859
0.027570064043
0.0017195185573
0.027226297662
0.00189935633963
0.026855231738
0.00206439687522
0.026459346775
0.00221518545469
0.0260410049579
0.00235229723371
0.0256024653658
0.00247634163587
0.0251458607619
0.00258794409234
0.024673215494
0.0026877513855
0.0241864239545
0.00277641357386
0.023687270959
0.00285459010611
0.0231774118785
0.00292293184073
0.0226583952637
0.0029820879408
0.022131644751
0.00303268818134
0.0215984836968
0.00307535069242
0.021060118774
0.00311066479994
0.0205176661949
0.00313919984678
0.0199721368512
0.00316148902131
0.0194244635882
0.00317803944651
0.0188754875023
0.00318931734793
0.0183259855264
0.00319575958601
0.0177766574403
0.00319776050791
0.0172281529985
0.00319568488562
0.016681059109
0.00318985653319
0.0161359256895
0.00318057247258
0.0155932525717
0.00316809327732
0.015053513429
0.00315265805469
0.0145171420523
0.00313447622484
0.0139845538277
0.00311374280698
0.0134561312527
0.00309063128726
0.0129322427195
0.00306530858439
0.0124132273281
0.00303792854881
0.011899410927
0.00300864602343
0.0113910904975
0.0029776105924
0.0108885476617
0.00294497920709
0.0103920330609
0.00291090984145
0.00990177766566
0.00287557232044
0.00941797766307
0.00283914170824
0.00894080403423
0.00280180713236
0.00847038848411
0.00276376484383
0.0080068317338
0.00272522502819
0.00755019095934
0.00268640464117
0.00710048721945
0.00264753234055
0.00665769476167
0.00260884129121
0.00622174785718
0.00257057247452
0.00579253211077
0.00253296773066
0.00536989082436
0.00249627177072
0.00495361819788
0.00246072576328
0.00454346510309
0.00242656845372
0.00413913373829
0.00239403072864
0.00374028242115
0.0023633365142
0.00334652131642
0.00233469931121
0.00295741632438
0.00230832476093
0.00257248600023
0.00228441074714
0.0021912086575
0.00226315798992
0.00181304318762
0.00224478148694
0.00143745329543
0.00222951170512
0.00106400720067
0.00221759476223
0.000692702081601
0.00220869519452
0.000326006051078
0.00219160829281
0.00196635536088
0.0016672257767
-0.0108209881063
0.00351358055898
-0.011990660564
0.00535118961066
-0.01194590087
0.00715971348128
-0.0117752228254
0.00892909081465
-0.0115443931327
0.0106505401499
-0.0112605677373
0.0123161359905
-0.0109281162805
0.0139188589913
-0.0105516987504
0.0154526381952
-0.0101363138647
0.0169123717869
-0.00968716301349
0.018293915846
-0.00920952250108
0.0195940592096
-0.00870862145029
0.0208104719407
-0.00818954561368
0.0219416505047
-0.00765714786952
0.0229868411337
-0.00711598788548
0.0239459696243
-0.00657027604473
0.0248195530773
-0.00602384785922
0.0256086269317
-0.0054801397689
0.0263146579085
-0.00494219495271
0.0269394798153
-0.00441266691973
0.0274852189917
-0.00389384937783
0.0279542470632
-0.00338769846871
0.0283491252145
-0.00289587384818
0.0286725751147
-0.00241976608983
0.0289274403831
-0.00196053453952
0.0291166694852
-0.00151912827003
0.029243287176
-0.00109631232571
0.0293103809938
-0.000692679263443
0.029321076197
-0.000308665140982
0.0292785214023
5.54437728432e-05
0.029185865363
0.00039949929111
0.0290462408593
0.000723487174314
0.0288627472834
0.00102750441813
0.0286384344957
0.00131176550611
0.0283762872304
0.00157658164521
0.0280792150054
0.00182235287702
0.027750039072
0.00204955679319
0.0273914855776
0.00225873906222
0.0270061755298
0.00245050335044
0.0265966207797
0.0026255027568
0.0261652163698
0.00278443088135
0.0257142388926
0.00292801408387
0.0252458410075
0.00305700348448
0.0247620518831
0.00317216771006
0.0242647738122
0.00327428556485
0.0237557846104
0.00336413909823
0.0232367364472
0.00344250690116
0.0227091601387
0.00351015744573
0.0221744661731
0.00356784308066
0.0216339508166
0.00361629389175
0.0210887992736
0.00365621271777
0.0205400933748
0.0036882698856
0.0199888164824
0.00371309960536
0.01943586235
0.00373129607617
0.0188820412625
0.00374341166058
0.0183280894516
0.00374995470771
0.0177746756854
0.00375138969402
0.017222410537
0.00374813698558
0.016671852685
0.00374057495703
0.016123517313
0.00372904159332
0.0155778813405
0.00371383828444
0.0150353903723
0.00369523299146
0.0144964623438
0.00367346524468
0.0139614926169
0.0036487503404
0.0134308556666
0.00362128487981
0.012904908201
0.00359125142193
0.0123839888733
0.00355882389453
0.0118684195365
0.0035241720627
0.0113585031362
0.003487466157
0.0108545234625
0.00344888065663
0.010356741667
0.003408597654
0.00986539500205
0.00336680954994
0.00938069246373
0.00332372084173
0.00890281310487
0.00327954956869
0.00843190142008
0.00323452745467
0.00796806576832
0.00318890009632
0.00751137400887
0.00314292557952
0.00706185249815
0.00309687361194
0.00661948241899
0.00305102291601
0.00618419962251
0.00300565959204
0.00575589184897
0.00296107368611
0.00533439951759
0.00291755717064
0.0049195138413
0.00287540016799
0.00451097847741
0.0028348889692
0.00410848835739
0.00279630249222
0.00371169215465
0.00275991098802
0.00332019233721
0.00272597359838
0.0029335482451
0.00269473856778
0.00255128211687
0.00266644462304
0.00217288705838
0.0026413215758
0.00179783671196
0.00261959227549
0.00142563533755
0.00260148765955
0.00105585233459
0.00258717503251
0.000688257587872
0.00257604397203
0.000324693846485
0.00255491769367
0.00229094038147
0.00172232159797
-0.0125423764568
0.00362895131119
-0.0138963054718
0.00552535858935
-0.0138413077882
0.00738997973643
-0.0136388396234
0.00921197505185
-0.0133653750173
0.010981923457
-0.0130294948351
0.0126914062526
-0.0126365667245
0.0143330531452
-0.0121923025594
0.0159005868976
-0.0117027910328
0.0173888271241
-0.0111743342633
0.0187936725696
-0.0106132838145
0.0201120510943
-0.0100259028949
0.0213418609171
-0.00941824269786
0.0224818875694
-0.00879604941793
0.0235317222212
-0.00816468258412
0.0244916619464
-0.00752906522486
0.0253626192376
-0.00689364199333
0.026146020088
-0.00626236980559
0.0268437183133
-0.00563871338344
0.0274579061968
-0.00502567138084
0.0279910466286
-0.00442580230094
0.0284458080361
-0.00384127361242
0.0288250211479
-0.00327390241291
0.0291316403197
-0.00272520740403
0.0293687205073
-0.0021964448783
0.0295393957587
-0.00168864593345
0.029646863974
-0.00120263719837
0.0296943701357
-0.000739059686755
0.0296851892051
-0.000298378471799
0.0296226081737
0.000119108113968
0.0295099065143
0.000513259346649
0.0293503368371
0.000884088704217
0.0291471083375
0.00123173586223
0.0289033699502
0.00155647722789
0.0286221948336
0.00185869848089
0.0283065704797
0.00213888722169
0.0279593859015
0.00239761795328
0.0275834256943
0.00263554284531
0.0271813599912
0.00285337818354
0.0267557415839
0.00305189661984
0.026308997942
0.00323191498583
0.0258434308489
0.00339428776074
0.0253612101106
0.00353989564302
0.0248643755099
0.00366963993225
0.0243548322089
0.00378443138562
0.0238343550312
0.00388518531768
0.0233045856587
0.00397281051193
0.0227670392993
0.00404820506271
0.0222231038368
0.00411224548349
0.0216740488689
0.00416578352012
0.0211210267873
0.00420963586624
0.0205650839445
0.00424458239667
0.020007163429
0.00427135712935
0.0194481178404
0.0042906483688
0.0188887132098
0.00430309151792
0.0183296425916
0.00430927152585
0.0177715304027
0.00430971799517
0.0172149458997
0.00430491004684
0.0166604071051
0.00429527383
0.0161083932303
0.00428118961223
0.015559347452
0.00426299149303
0.0150136874918
0.00424097620127
0.0144718066809
0.00421540450251
0.0139340821442
0.00418651097119
0.0134008738858
0.00415450641605
0.0128725303502
0.00411958775899
0.0123493855518
0.00408194071706
0.0118317620955
0.00404174894082
0.01131996667
0.00399919626316
0.0108142909002
0.00395447436648
0.0103150057377
0.00390778404751
0.0098223607075
0.00385934091143
0.00933657786093
0.00380937533338
0.00885785009012
0.00375813594321
0.0083863353199
0.00370588820013
0.00792215454893
0.00365291571439
0.00746538687773
0.00359951759418
0.00701606783603
0.00354600788448
0.0065741856779
0.00349271202193
0.00613968037445
0.00343996484253
0.00571244136776
0.00338810659407
0.00529230742627
0.0033374800572
0.00487906580606
0.00328842661052
0.00447245304342
0.00324128305895
0.00407215541819
0.00319637827463
0.00367781084808
0.00315403035244
0.00328901112353
0.00311454442944
0.00290530644111
0.0030782110713
0.00252620998558
0.00304530426365
0.00215120763946
0.00301608361503
0.0017797809959
0.00299079408103
0.00141140335763
0.00296964172488
0.00104556576445
0.00295276521247
0.000681932581946
0.00293945159785
0.00032200999988
0.00291460962182
0.002612821601
0.00178767795646
-0.014329131094
0.00376579076612
-0.0158734316528
0.00573182192099
-0.0158063509911
0.00766272194244
-0.0155687414631
0.00954668707495
-0.0152483354941
0.0113735340953
-0.0148553266293
0.0131342636059
-0.0143962703907
0.0148211131873
-0.0138781129999
0.0164275871064
-0.013308212603
0.017948450252
-0.0126941293225
0.0193796839071
-0.0120434348053
0.0207184222096
-0.0113635413068
0.0219628626945
-0.0106615685587
0.0231121722958
-0.00994422693096
0.0241663735921
-0.00921773821361
0.0251262374245
-0.0084877671363
0.0259931596867
-0.00775939123147
0.0267690549348
-0.00703707859413
0.0274562400535
-0.0063247047083
0.0280573455943
-0.00562557408686
0.0285752246099
-0.00494247600965
0.0290128962914
-0.00427773671154
0.0293734910103
-0.00363329173231
0.0296602275103
-0.00301074191653
0.0298763879691
-0.00241141254392
0.0300253128086
-0.00183638844772
0.0301103867855
-0.00128654395542
0.0301350316247
-0.000762554553947
0.0301026890501
-0.000264906454892
0.0300168037987
0.000206099551047
0.0298808044964
0.000650339605864
0.0296980828127
0.00106786316546
0.0294719729142
0.0014588694957
0.0292057363246
0.00182370598428
0.0289025480342
0.00216284724577
0.0285654826454
0.0024768794005
0.0281975068304
0.00276648716427
0.027801469517
0.00303243867325
0.0273800971993
0.00327557470217
0.0269359870244
0.00349679552257
0.0264716040734
0.00369705199776
0.0259892764875
0.00387733369344
0.025491194609
0.00403866119611
0.0249794078068
0.00418207468038
0.0244558257262
0.0043086269816
0.0239222168073
0.00441937217717
0.023380211988
0.00451535925633
0.0228313050937
0.00459762064865
0.0222768592326
0.00466716662259
0.0217181092188
0.00472497411959
0.0211561706799
0.0047719823587
0.0205920444532
0.00480908266914
0.0200266280257
0.00483711596825
0.0194607214889
0.00485686443932
0.0188950405651
0.0048690515428
0.0183302233747
0.00487433623225
0.0177668439955
0.00487331587686
0.0172054191031
0.00486652338157
0.016646420943
0.0048544330187
0.0160902828921
0.00483746037411
0.0155374107946
0.00481597065124
0.0149881866594
0.00479028098552
0.0144429775791
0.00476067045232
0.0139021370687
0.00472738397519
0.0133660111101
0.00469064303363
0.0128349370039
0.00465065025225
0.0123092464853
0.00460759975084
0.0117892623231
0.00456168148662
0.0112752987873
0.00451309026969
0.0107676565412
0.00446202908469
0.0102666210495
0.00440871603085
0.009772456505
0.00435338607672
0.00928540292064
0.00429629548587
0.00880566991651
0.0042377217752
0.00833343330582
0.00417796553926
0.00786882950904
0.00411734867734
0.0074119523518
0.00405621384777
0.00696284871963
0.00399492130407
0.00652151611749
0.00393384646579
0.00608789994175
0.00387337587268
0.00566189208815
0.00381390350274
0.00524332998954
0.003755826437
0.0048319963243
0.00369954060248
0.00442761982157
0.00364543671127
0.0040298760586
0.00359389607099
0.00363839017398
0.00354528731918
0.00325273946566
0.00349996279919
0.00287245764251
0.0034582560642
0.00249704342496
0.00342048045211
0.00212596707106
0.00338692372213
0.00175867177152
0.00335784307878
0.00139460743682
0.00333347551437
0.00103322027949
0.00331394928509
0.000674016710858
0.00329840328391
0.000318368594564
0.00326999727683
0.00293108095172
0.00186441464801
-0.0161926311707
0.00392636548248
-0.0179344206761
0.00597392241101
-0.0178529275481
0.00798220485418
-0.017576039314
0.00993825322697
-0.0172033883648
0.011830974956
-0.0167470435703
0.0136507077865
-0.0162149852899