/*--------------------------------*- C++ -*----------------------------------*\
| =========                 |                                                 |
| \\      /  F ield         | OpenFOAM: The Open Source CFD Toolbox           |
|  \\    /   O peration     | Version:  v1906                                 |
|   \\  /    A nd           | Web:      www.OpenFOAM.com                      |
|    \\/     M anipulation  |                                                 |
\*---------------------------------------------------------------------------*/
FoamFile
{
    version     2.0;
    format      ascii;
    class       volScalarField;
    location    "11";
    object      pa;
}
// * * * * * * * * * * * * * * * * * * * * * * * * * * * * * * * * * * * * * //

dimensions      [0 2 -2 0 0 0 0];


internalField   nonuniform List<scalar> 
9216
(
326.381469783
326.324675165
326.107092141
325.817692915
325.500397905
325.108438016
324.717360862
324.644404318
324.834767582
325.173709197
325.782701552
326.685288701
327.777712587
329.099036962
330.601885763
332.290500483
334.139287345
336.017306178
337.84764343
339.616357179
341.402564593
343.236517442
345.267809352
347.607121204
350.076295893
352.715608141
355.52066543
358.451265011
361.485130371
364.604337838
367.797580249
371.049504604
374.34259342
377.650928356
380.937425142
384.157192354
387.332680859
390.620804762
393.901312997
397.134733654
400.291733569
403.39719926
406.438888521
409.424103086
412.332282348
415.171387481
417.924979771
420.604759779
423.197268027
425.715180621
428.146474977
430.503668434
432.775478007
434.973432073
437.086339816
439.12468882
441.078168033
442.956602069
444.750672557
446.469131519
448.102706765
449.657149078
451.118387324
452.470784472
453.68335544
455.075163716
456.575174236
457.789108776
458.76491777
459.723463781
460.659048012
461.543348669
462.368289468
463.129589759
463.830840533
464.471626818
465.057197429
465.587712905
466.068918957
466.501658371
466.892729904
467.245154841
467.568853452
467.873211968
468.172906152
468.47083758
468.690045305
468.805048802
468.932530822
469.090049499
469.266949682
469.451483732
469.628274675
469.75575523
469.839159789
469.872554188
326.415953298
326.391142018
326.21487208
325.906341172
325.506866801
325.006185094
324.536016754
324.474250167
324.788559334
325.203439332
325.855064904
326.7719024
327.872538382
329.212242604
330.721940911
332.472938188
334.440726897
336.388433962
338.285496403
340.082397877
342.10907441
344.297386156
346.990334795
349.880572272
352.735419718
355.70645413
358.787692238
361.95923275
365.196783672
368.494527192
371.838950783
375.222748926
378.619207859
382.009162934
385.35343207
388.6322016
391.861653881
395.106012738
398.357721991
401.558090695
404.694321576
407.769508003
410.768572381
413.696909654
416.538905547
419.299932415
421.968264858
424.554114338
427.047940218
429.460641579
431.783823634
434.027774949
436.184362308
438.263178076
440.255531636
442.170222498
443.999236378
445.751090275
447.418450456
449.00940762
450.517244468
451.948874393
453.293672813
454.545459276
455.711348049
456.913113278
458.135996793
459.232426002
460.19194158
461.094230645
461.93586755
462.718780799
463.440938274
464.106475055
464.715246994
465.27143947
465.775770164
466.232442278
466.643186409
467.012678643
467.344397768
467.644944257
467.922089926
468.188426076
468.458587898
468.722095937
468.858834565
468.897741048
469.002004819
469.146960527
469.314827874
469.495956194
469.677264947
469.802509457
469.88665404
469.921975906
326.563585596
326.576608357
326.355780559
325.988246768
325.546541611
324.959153547
324.417821319
324.27013175
324.560210254
324.94983721
325.659972863
326.664680981
327.804338919
329.292118229
330.956680664
333.111511174
335.499987075
337.797033073
340.116265692
342.429151757
344.798798074
347.349158841
350.197792377
353.310203341
356.484123945
359.771531862
363.150910551
366.598779451
370.096389313
373.633779045
377.196383829
380.765555502
384.314418365
387.815889101
391.235845318
394.553596648
397.779640343
400.960687093
404.147834865
407.300615602
410.394404678
413.414347871
416.348776529
419.195401807
421.946423589
424.600847125
427.156105234
429.616712598
431.981179911
434.255713613
436.440010852
438.537752073
440.547155406
442.4718009
444.310073399
446.065364409
447.736143972
449.325713996
450.832725446
452.260390054
453.607444115
454.875896809
456.060869874
457.16198839
458.199690313
459.232375415
460.284631701
461.271432567
462.142795754
462.928005888
463.639073791
464.28732128
464.878076447
465.416406351
465.904599829
466.346122175
466.74296195
467.098561483
467.415557632
467.698126116
467.95039534
468.178471006
468.389572202
468.593011515
468.794242927
468.976044797
469.081545336
469.148428974
469.242653858
469.360145112
469.494824742
469.648465666
469.804815786
469.9185342
470.011745725
470.053108888
326.834119535
326.880621024
326.692203271
326.286987413
325.729490573
324.983794515
324.290951762
324.031791415
324.46940327
325.206853384
325.942004635
326.772362114
328.051309833
330.208336967
332.62168465
335.078283928
337.706250546
340.373137102
343.108753822
345.822560136
348.482890171
351.192870688
354.052438768
357.154580159
360.404997901
363.789454851
367.269617769
370.816808608
374.411105021
378.035404156
381.668805774
385.286518236
388.861650796
392.368830422
395.782941229
399.089781901
402.300455248
405.449496231
408.569756939
411.642326532
414.649350628
417.578131702
420.421051923
423.171790309
425.82308558
428.372137124
430.819983412
433.170054647
435.424234758
437.587342229
439.661139213
441.647135647
443.545717037
445.358513214
447.086025649
448.729757238
450.290099659
451.768446749
453.165215927
454.481972554
455.719549526
456.87982351
457.964259794
458.980394939
459.949097389
460.899926146
461.83813949
462.716985544
463.504321577
464.209578805
464.842286747
465.411787453
465.924648049
466.386165613
466.80017971
467.170348061
467.499789551
467.791998065
468.050469866
468.279457455
468.483760663
468.669374467
468.843083531
469.011561266
469.176121853
469.323458466
469.426797352
469.498088532
469.570614557
469.653290203
469.750664681
469.868749747
470.00750025
470.114169585
470.198901581
470.242723574
327.308783539
327.335177248
327.157575248
326.773230357
326.178297725
325.366518289
324.422287146
324.090491187
324.661714734
325.451276756
326.096252288
326.843705396
328.894661727
331.740756329
334.38352638
336.89412491
339.520728925
342.241926243
345.039927186
347.836709901
350.593077531
353.369763176
356.24942819
359.31063495
362.521680895
365.861186412
369.296552946
372.801109262
376.35373611
379.934362795
383.519866091
387.083647345
390.600388376
394.051537554
397.422559157
400.705110081
403.905534269
407.040496229
410.121232454
413.138439933
416.081619633
418.944661931
421.726689617
424.42083394
427.017352982
429.511792378
431.905607917
434.202773827
436.406429372
438.521230968
440.550117651
442.493950025
444.353336835
446.129105906
447.821926371
449.432602845
450.961770592
452.410291184
453.779068739
455.06956402
456.283683922
457.424369977
458.496161764
459.507937543
460.473788151
461.406023145
462.301045204
463.136898791
463.899175997
464.58971377
465.213263266
465.775657715
466.28221816
466.737675434
467.146108767
467.511307522
467.836845726
468.126422319
468.38391657
468.613682484
468.820569369
469.010011945
469.187445142
469.356892842
469.517565905
469.660494042
469.772974767
469.858742715
469.934557368
470.008741709
470.085220758
470.169453136
470.277932585
470.354335399
470.439340701
470.486593374
328.038404631
328.056591176
327.871446932
327.480614066
326.84369733
326.042001592
325.148052153
324.495702925
324.822234077
325.579885959
326.192572091
327.297950432
329.840451877
332.889811747
335.414954995
337.781908146
340.246747131
342.842163708
345.553006016
348.310071673
351.08118071
353.896498526
356.808156464
359.859724025
363.042012214
366.339625952
369.729099581
373.188214812
376.697041895
380.235185284
383.778620801
387.299769594
390.774633409
394.190460453
397.540722312
400.820456446
404.030001264
407.173920489
410.252522702
413.257132614
416.179558836
419.018159923
421.778644121
424.456271256
427.037219035
429.514581715
431.889017219
434.165452223
436.349173799
438.445855328
440.459967258
442.392150779
444.242904808
446.012730757
447.702219457
449.31197801
450.842740209
452.295383147
453.67111868
454.971601129
456.199161766
457.357045883
458.450004258
459.484961759
460.470047975
461.410040861
462.301454747
463.134570755
463.903160976
464.607190957
465.249125455
465.832705897
466.3620228
466.841091239
467.273739727
467.663640221
468.014413224
468.329748361
468.613512454
468.869839003
469.103113895
469.317802494
469.517847443
469.705543462
469.879901665
470.036117224
470.169204926
470.281482901
470.380168459
470.466143323
470.531731178
470.56951519
470.615837371
470.676349352
470.764159338
470.806716068
329.073013064
329.047299354
328.830160592
328.396344141
327.670629373
326.956070265
326.070899766
325.100401749
325.11398588
325.654021995
326.037718541
327.985665139
330.999034182
333.729865363
335.93980948
338.074589206
340.352349105
342.807737091
345.412744285
348.11317319
350.882931599
353.733343304
356.689836332
359.770650532
362.969665186
366.273516455
369.663529455
373.120782122
376.627100886
380.16264646
383.702819026
387.219042856
390.688009259
394.100893291
397.456731105
400.752944198
403.986219494
407.15393654
410.250274284
413.264730839
416.188893849
419.023803754
421.780221432
424.456720136
427.035689499
429.507140043
431.870252283
434.131575986
436.299758515
438.382175676
440.384982641
442.308795212
444.153974985
445.920890185
447.610059572
449.222073771
450.757731924
452.218014132
453.604264987
454.918214599
456.162185778
457.339187879
458.453197403
459.50904555
460.511383891
461.462332326
462.360044832
463.200359514
463.980617818
464.700777212
465.362508885
465.968551967
466.522190664
467.026881114
467.486118781
467.903373171
468.282138023
468.625963242
468.938514591
469.223569958
469.484946348
469.726272725
469.950535117
470.159433781
470.352839514
470.52917454
470.687507994
470.82972332
470.957073812
471.06096374
471.114738298
471.083706987
471.021549376
471.071797737
471.157918593
471.195393902
330.369909834
330.307882292
330.063439929
329.624203822
329.047789581
328.120562702
327.141688108
325.917758778
325.699292262
326.061154242
326.290330116
328.637638524
331.950221299
334.392742157
336.322329804
338.245894874
340.356202044
342.682059216
345.192675777
347.844279089
350.612576485
353.49566285
356.499788402
359.626516843
362.865765608
366.202548056
369.619375309
373.099170714
376.625367865
380.178890756
383.734526018
387.262598408
390.740181455
394.161118574
397.528502875
400.842262011
404.098099017
407.288738166
410.40392861
413.431071006
416.360699808
419.195707757
421.950874076
424.627793776
427.206458719
429.673207984
432.024975657
434.27077395
436.422846608
438.490641226
440.48196402
442.397416769
444.237173438
446.001453236
447.690662497
449.305338583
450.84625481
452.314392069
453.711066123
455.037923161
456.297071055
457.491085573
458.623075203
459.696378826
460.71386339
461.676816674
462.584629261
463.435726187
464.229196164
464.965377053
465.645722617
466.272492468
466.848475167
467.376718014
467.860416092
468.302818005
468.707239587
469.077043289
469.415658757
469.726529072
470.013026106
470.278251767
470.524768453
470.75431293
470.967754774
471.165567594
471.348744752
471.518558786
471.672062014
471.791579121
471.830352752
471.717260851
471.497128218
471.543447219
471.627463565
471.66251622
331.945233989
331.833849017
331.523774199
330.974206004
330.586200599
329.712316038
328.522727295
327.053737336
326.646616741
326.886701624
327.067903108
329.600874019
333.00739285
335.181127321
336.850459408
338.567826085
340.511710365
342.708467697
345.12711212
347.728987161
350.488261206
353.392548508
356.434224114
359.602951161
362.882831471
366.255693186
369.703486577
373.21005042
376.760174485
380.335372031
383.909505708
387.451519177
390.938750244
394.366944957
397.742390617
401.068086024
404.340279405
407.54834585
410.678371529
413.715554207
416.64910582
419.483535815
422.23715545
424.913892388
427.492139729
429.954141697
432.294882472
434.525777405
436.662289303
438.716486577
440.697556588
442.606172722
444.442235105
446.205755578
447.896957377
449.516253933
451.06429603
452.54196515
453.950433828
455.291165425
456.565964933
457.776951894
458.926512016
460.017032745
461.050480608
462.02791111
462.949452409
463.814804153
464.623991887
465.377716929
466.077403991
466.725076982
467.323206781
467.874544866
468.382026057
468.84869039
469.27766093
469.672112103
470.03525153
470.370261808
470.680214525
470.967935168
471.235861833
471.48596341
471.719860304
471.939156152
472.145614592
472.339802355
472.515719951
472.64911096
472.681108505
472.527119642
472.22604695
472.167727878
472.207556807
472.238266003
333.849307136
333.67045686
333.295618573
332.659740958
332.219763281
331.483051424
330.18831164
328.527048787
327.965051197
328.155350283
328.508297768
331.172340222
334.486078154
336.308597867
337.665864993
339.140934875
340.895958959
342.948325476
345.264252461
347.805112827
350.540825986
353.449736144
356.513238643
359.711545968
363.022689561
366.424858263
369.898722769
373.428579938
377.00028651
380.595578758
384.186800487
387.741070284
391.23594165
394.668701551
398.048389318
401.381426887
404.665322369
407.886806425
411.028628706
414.07362729
417.009691487
419.843145053
422.595688337
425.272814026
427.85102324
430.308645505
432.639528641
434.856993878
436.979573443
439.022252252
440.995311402
442.899472254
444.734333168
446.499644661
448.19540614
449.821838582
451.379411833
452.868829601
454.291062387
455.647331583
456.939124137
458.168139556
459.33621917
460.445148068
461.49642591
462.49104675
463.429554621
464.312305808
465.139855412
465.913165509
466.633688797
467.303320305
467.92432565
468.499232089
469.030762343
469.521763037
469.975178364
470.394004592
470.78126456
471.139944778
471.472931187
471.78291659
472.072343784
472.343407551
472.598204234
472.838913355
473.067597697
473.284355518
473.481550985
473.631464047
473.669548125
473.503394412
473.14214526
472.925423706
472.89199075
472.90959452
336.164280515
335.867314393
335.423712859
334.767572156
334.315757447
333.613029642
332.208201172
330.347886024
329.621525211
329.844834762
330.974100762
333.616318976
336.516697607
337.831672508
338.79223678
339.972024347
341.504621248
343.38945237
345.585779887
348.050500723
350.74699646
353.644561792
356.714991401
359.930190797
363.262244218
366.685603149
370.17945309
373.728326536
377.318890024
380.932583039
384.539512666
388.104444795
391.605263278
395.04076877
398.422630167
401.760654893
405.053728593
408.286600494
411.438667527
414.490103819
417.427796613
420.26044268
423.013178471
425.692050236
428.270954522
430.724784533
433.046732394
435.252221791
437.362913045
439.396553168
441.364298209
443.26668623
445.103018067
446.872775717
448.575701198
450.211787521
451.781276363
453.284653549
454.722648608
456.096223707
457.406554035
458.654982353
459.842940677
460.971827099
462.042872748
463.057052851
464.015133175
464.917822531
465.765974611
466.560724789
467.303553322
467.996282129
468.641031497
469.240162552
469.796220245
470.311886404
470.789940986
471.233227063
471.644611662
472.026939491
472.382975221
472.715350532
473.026538022
473.318886754
473.594742643
473.856536149
474.106417082
474.344254386
474.561663827
474.728748774
474.773915915
474.58294932
474.119495654
473.741331958
473.633184057
473.635048352
339.06769072
338.522763612
337.957212864
337.301200159
336.85068352
336.144017374
334.610908312
332.48784186
331.447688428
331.456550662
333.765069217
336.821919699
338.946521771
339.651298729
340.169710839
341.018990919
342.30068943
343.997063376
346.05812841
348.433390526
351.077989631
353.951996522
357.018109915
360.240438789
363.585233074
367.023297234
370.532359654
374.097164258
377.704880945
381.336023428
384.957742748
388.532149213
392.037664998
395.474790958
398.857926429
402.200059906
405.501176425
408.74455556
411.906057076
414.962868443
417.901428515
420.733643975
423.488191929
426.170417927
428.7506545
431.200996181
433.514524057
435.709253613
437.810309704
439.837589299
441.802933215
443.706370969
445.546929772
447.323811828
449.036490703
450.684697903
452.26842632
453.787912144
455.243633987
456.636286456
457.966761291
459.236095068
460.445414215
461.595846184
462.688453666
463.724187488
464.703929663
465.628572852
466.499142417
467.316874091
468.083269406
468.80009532
469.469370505
470.093322626
470.674355857
471.215006389
471.717915428
472.18578881
472.621367601
473.027381333
473.406508438
473.761333026
474.094335865
474.407920864
474.704506884
474.986560839
475.256202302
475.513246027
475.749225967
475.933026047
475.985496397
475.763764872
475.173680735
474.606485001
474.43286111
474.403247218
342.829569503
341.890354787
341.125399343
340.340225861
339.837765602
339.119336238
337.478527823
335.109646788
333.791419709
333.621561002
336.371207534
339.881776515
341.435188663
341.6174028
341.712670032
342.222500021
343.238059546
344.732748323
346.648262324
348.925487841
351.510314098
354.35326461
357.408072199
360.631218799
363.983271747
367.431587543
370.952706643
374.531672056
378.155793542
381.803801876
385.439374598
389.022236851
392.531286078
395.969003955
399.353021826
402.699182921
406.008157379
409.261753345
412.432089598
415.493295795
418.431938294
421.264191352
424.022374982
426.709590932
429.291491637
431.738198702
434.043381795
436.228394086
438.322420332
440.346309422
442.312243731
444.21967104
446.067307446
447.854061597
449.579113546
451.241919853
452.842201867
454.379938722
455.855348353
457.268870776
458.62113441
459.912921234
461.145113058
462.318642045
463.434442815
464.493437828
465.49655602
466.444787632
467.339246338
468.181226793
468.972233404
469.713993867
470.408443783
471.057709312
471.664074211
472.22995537
472.757869242
473.250406144
473.7101935
474.139864216
474.542013212
474.919166574
475.273759191
475.608146677
475.924649109
476.225547204
476.512681311
476.785572392
477.035419257
477.229798041
477.282680589
477.025127478
476.302768735
475.506476379
475.27223195
475.208964973
347.660304671
346.422908938
345.191715545
344.00125188
343.322920982
342.583954279
340.877778529
338.317638006
336.829963953
336.758961222
339.66145052
343.144369538
344.076093328
343.718520371
343.378122952
343.536001033
344.275255158
345.561400368
347.327067674
349.503261697
352.025633949
354.834731976
357.875204693
361.095992907
364.452172542
367.908050369
371.439425463
375.031867721
378.672352815
382.336778549
385.984944532
389.575095197
393.086389495
396.523595048
399.908348353
403.258954099
406.576312254
409.840253964
413.018904519
416.083483719
419.021424435
421.854393403
424.618288805
427.312043301
429.895481734
432.337851672
434.634413587
436.810769385
438.900670219
440.924493045
442.89415867
444.808655005
446.666344787
448.465807645
450.205918272
451.885837773
453.505012646
455.063154001
456.56022834
457.996427261
459.372146536
460.687943744
461.944507051
463.142609029
464.28308586
465.366817674
466.394749041
467.367909856
468.287461338
469.154720993
469.971191515
470.738560804
471.458702787
472.133656028
472.765609643
473.356873915
473.909861996
474.427057029
474.910988393
475.364192993
475.789181594
476.188395726
476.564177357
476.918740759
477.254173671
477.572372891
477.874610033
478.159636144
478.417555899
478.613625849
478.655597613
478.357847561
477.521997078
476.472508371
476.170433352
476.068641296
353.665111529
352.323683233
350.642471209
348.710042177
347.488939788
346.619959953
344.85110826
342.108721153
340.567299545
341.380358913
344.063099432
346.920457223
346.993805357
345.975926853
345.143125109
344.923499456
345.376429398
346.451804245
348.069052868
350.146827505
352.609176121
355.385986231
358.412614422
361.630518251
364.989644106
368.45182759
371.992781027
375.598866408
379.256214317
382.936735619
386.595917262
390.191611306
393.703626502
397.139339631
400.52496295
403.880851839
407.20763776
410.482337642
413.668719957
416.735544593
419.672180742
422.50714771
425.279266929
427.980785498
430.564889188
433.001519355
435.289012233
437.458217012
439.546997342
441.574329566
443.551139861
445.475970054
447.346814946
449.161917936
450.919830793
452.619417728
454.259840347
455.840549537
457.361261496
458.821940647
460.222766005
461.564106185
462.846480762
464.070536351
465.237018463
466.346767107
467.400715342
468.399909874
469.345525919
470.238891922
471.081496009
471.874996428
472.621210655
473.322110931
473.979802238
474.596509635
475.174551357
475.716320298
476.224250864
476.700791883
477.148360988
477.569303142
477.965833379
478.339982172
478.693539859
479.027939147
479.343770345
479.638858786
479.901929296
480.095737267
480.12318752
479.794640849
478.916780687
477.751330187
477.222020906
477.039957635
361.114968247
359.529151478
357.786775319
355.314798404
352.954207814
351.500004266
349.485607061
346.31989918
344.329568442
346.342819431
349.349316482
351.067983587
350.113470158
348.341192805
346.964537002
346.344544916
346.506017669
347.374632885
348.851241703
350.839048684
353.248796948
355.998937231
359.015285901
362.232020528
365.594513586
369.062984818
372.613836616
376.234442588
379.909406636
383.605641175
387.274056806
390.87302022
394.383888287
397.817318384
401.204404839
404.566869177
407.904395576
411.190196847
414.383319765
417.450951963
420.386178916
423.225791831
426.008980845
428.718711665
431.301914547
433.730604019
436.009209557
438.173490203
440.264043287
442.298622942
444.286188035
446.224765452
448.111977626
449.94571925
451.724221058
453.446041728
455.11006639
456.715484888
458.261781033
459.748701109
461.176235286
462.544580067
463.854117784
465.105381704
466.299044869
467.435899682
468.516864765
469.542981257
470.515430755
471.435535948
472.304774586
473.124772637
473.897307282
474.624290616
475.307763923
475.949874746
476.552865326
477.119043546
477.65076301
478.1503846
478.620238838
479.062567303
479.479457398
479.872749722
480.24395072
480.594070119
480.923127378
481.228280054
481.497580099
481.692817517
481.714980279
481.371824472
480.464169417
479.192319333
478.416398148
478.144827567
370.135826706
367.992574088
366.243548924
363.861912674
360.633672955
357.91154807
355.202590526
351.506673851
348.945537392
351.065259977
354.466468096
355.20886933
353.265292726
350.717697161
348.776545539
347.749494347
347.625986452
348.30121846
349.652746865
351.565365827
353.934936555
356.667767795
359.680080064
362.899192764
366.266800637
369.742629433
373.304672144
376.94126191
380.63443307
384.345406542
388.021207319
391.620889182
395.128398371
398.55906411
401.948778762
405.319557659
408.669257482
411.966130211
415.164225936
418.230763849
421.165470449
424.013653916
426.810280624
429.527749213
432.108078726
434.526808767
436.797348257
438.959431167
441.054891048
443.100713141
445.102817355
447.058677743
448.96554049
450.820960154
452.622841754
454.369448685
456.059389154
457.691609249
459.26536687
460.780214971
462.235967314
463.63267732
464.970602712
466.250187819
467.472035952
468.636902895
469.745682283
470.799411019
471.799263203
472.74655965
473.642760993
474.489473301
475.288435196
476.041516989
476.750702193
477.418080447
478.045824109
478.636173842
479.191406838
479.713810629
480.205632001
480.669023379
481.105955222
481.518111034
481.906764137
482.27260036
482.615248347
482.931551471
483.209513743
483.411035728
483.435249444
483.078686823
482.106045348
480.65889972
479.687604365
479.34356394
380.484600966
377.630929778
375.928815616
373.716027157
370.156174933
366.050828294
362.335471152
358.176649493
355.225524956
356.944540238
359.933546979
359.454999938
356.403055961
353.029383925
350.510549104
349.084901738
348.697366383
349.204384429
350.455476455
352.314493563
354.661201314
357.389447422
360.40612788
363.632547469
367.00800142
370.493174998
374.068558098
377.723052727
381.434599072
385.158330418
388.839259707
392.436954761
395.938913126
399.366931779
402.760904564
406.142172989
409.5057021
412.813139558
416.01383897
419.077266713
422.01321259
424.874056352
427.685774616
430.409447128
432.984547944
435.392248849
437.655566416
439.818877454
441.923200674
443.984541499
446.005100156
447.981842985
449.911669403
451.791797147
453.619818556
455.393702976
457.111799873
458.772817824
460.375813157
461.920156227
463.405512649
464.831804764
466.199192845
467.508039578
468.75889814
469.952485625
471.089681191
472.17150898
473.199143158
474.17389542
475.097220577
475.970703275
476.796060047
477.57512281
478.309836552
479.002238512
479.654450579
480.268651977
480.847061942
481.39190126
481.905352414
482.389492365
482.846207304
483.277064417
483.683183438
484.065053403
484.422125519
484.751275014
485.041088341
485.254318392
485.288031986
484.922285811
483.87133601
482.221912563
481.060775767
480.643052792
392.32001807
388.474214953
386.916348583
384.961868965
381.206867052
376.190580366
371.316353061
366.76599629
364.01195629
364.465197306
366.040553401
363.861597298
359.466736552
355.196483809
352.092743967
350.295521036
349.682733407
350.060589113
351.245921485
353.079798483
355.425435808
358.164491085
361.195392803
364.434800279
367.821403272
371.31855699
374.910044529
378.584513814
382.31413677
386.047740011
389.730440618
393.323174472
396.817933664
400.244198285
403.644686227
407.039169102
410.418133011
413.735257173
416.936145439
419.994829112
422.934139927
425.811511343
428.639372224
431.366194213
433.93328774
436.329145346
438.586425782
440.755892427
442.873836578
444.954849914
446.997732691
448.998936938
450.954999887
452.862808245
454.719641602
456.523193677
458.271562097
459.963243078
461.597102143
463.172355906
464.688533866
466.145456326
467.543195706
468.882057839
470.162549154
471.385365817
472.551369402
473.661584028
474.717178552
475.719468157
476.66989885
477.570049464
478.421615455
479.226408827
479.986339986
480.703413529
481.379706291
482.017356031
482.618530866
483.18540584
483.720110888
484.224675558
484.700929605
485.150378981
485.574063078
485.972388222
486.344789681
486.688408284
486.992633838
487.221228708
487.268427712
486.894364315
485.757790888
483.894025674
482.542046767
482.047857977
405.818319416
400.568122024
399.322216033
397.629417741
393.489516993
387.92721239
381.862781256
376.742251579
373.614786838
373.063316963
372.353705818
368.119089903
362.25099432
357.075583011
353.427547054
351.324240901
350.549498618
350.853301089
352.017820038
353.861280082
356.231085411
358.997905439
362.053298501
365.311359686
368.712495805
372.224636532
375.83523386
379.531247139
383.277726725
387.017959267
390.697992704
394.281975771
397.768351541
401.194632141
404.604920555
408.016029872
411.411508334
414.736793729
417.935424765
420.988631798
423.934545977
426.832550236
429.676299869
432.401628399
434.956973577
437.339699956
439.593615595
441.775169581
443.912335742
446.017024834
448.08601074
450.115170336
452.100648128
454.038987351
455.927169639
457.762619785
459.543209602
461.267234646
462.933399918
464.540781179
466.088802826
467.577194366
469.005968787
470.3753819
471.685916602
472.938249328
474.133242012
475.27191612
476.35545063
477.385161306
478.362501397
479.289043295
480.166479347
480.996603741
481.781311788
482.522579551
483.222459076
483.883052436
484.506497809
485.094933489
485.650461508
486.175082181
486.670606761
487.138520305
487.579849808
487.995003914
488.383502177
488.742819462
489.063194402
489.309161792
489.371431343
488.988769913
487.76206611
485.676489008
484.131595786
483.558936096
421.202767509
414.013471314
413.33754727
411.711709492
406.736156439
399.98946083
392.421089
387.316183141
382.746670945
380.940334063
377.946275896
371.689112101
364.446689649
358.489622485
354.422109599
352.123628023
351.277396274
351.578152891
352.775713304
354.667922424
357.088744138
359.900170812
362.989430523
366.270895273
369.689535984
373.21969991
376.852188512
380.57005901
384.330460157
388.073631725
391.746008744
395.316616654
398.793819189
402.223015645
405.647327396
409.078627832
412.490797299
415.821216742
419.014470656
422.063207412
425.021945324
427.944113752
430.801001917
433.519079375
436.057597112
438.427708912
440.683534237
442.882224261
445.044310827
447.176908163
449.275763459
451.336270445
453.354189774
455.32573886
457.247609479
459.116984627
460.931523562
462.689353395
464.389033081
466.029530863
467.610179002
469.130647701
470.590899861
471.991168662
473.331917942
474.613826879
475.837757922
477.004748683
478.11598638
479.172804877
480.176663271
481.129145579
482.031941493
482.88684653
483.695743328
484.460599408
485.183446183
485.866370796
486.511487906
487.120921476
487.696757075
488.240993585
488.755446304
489.241622494
489.700580555
490.132784442
490.537876381
490.913672763
491.251111543
491.515299818
491.593056198
491.200973783
489.881166124
487.568127848
485.827850998
485.17575116
438.802071308
429.052462675
429.227616244
427.22449231
420.844400409
412.390941487
403.268635561
396.591491331
391.667164461
387.885699222
382.382522023
374.178307227
365.817056537
359.302562877
355.013309395
352.672835683
351.868784053
352.249330781
353.538871041
355.520086384
358.017533199
360.888050125
364.018041442
367.325785387
370.763962721
374.314714652
377.970861476
381.709055986
385.478529782
389.219223201
392.878480506
396.43141802
399.899605657
403.335957966
406.779149775
410.233628728
413.661257285
416.991925334
420.176035887
423.223909058
426.203379879
429.15072328
432.015352413
434.71958365
437.237522271
439.598428081
441.863561306
444.084072727
446.276254459
448.440988566
450.573382961
452.66846012
454.721645037
456.728848059
458.686502642
460.591566412
462.44152115
464.234342471
465.968479485
467.642808075
469.25660292
470.809486522
472.301402636
473.732568851
475.103456311
476.414749506
477.667333596
478.862261844
480.000749332
481.084146547
482.113937248
483.09171632
484.019189875
484.898155479
485.730502714
486.518192859
487.263256857
487.96777094
488.633847184
489.263601963
489.859127133