/*--------------------------------*- C++ -*----------------------------------*\
| =========                 |                                                 |
| \\      /  F ield         | OpenFOAM: The Open Source CFD Toolbox           |
|  \\    /   O peration     | Version:  v1906                                 |
|   \\  /    A nd           | Web:      www.OpenFOAM.com                      |
|    \\/     M anipulation  |                                                 |
\*---------------------------------------------------------------------------*/
FoamFile
{
    version     2.0;
    format      ascii;
    class       surfaceScalarField;
    location    "466";
    object      phia;
}
// * * * * * * * * * * * * * * * * * * * * * * * * * * * * * * * * * * * * * //

dimensions      [0 3 -1 0 0 0 0];
oriented        oriented;


internalField   nonuniform List<scalar> 
18240
(
0.00134218530168
-0.00134231177709
0.00281157602392
-0.00146954237419
0.00427996179841
-0.00146851534857
0.00572968744959
-0.00144988256193
0.00715283899127
-0.00142327613656
0.00854264149414
-0.00138996459676
0.00989314682074
-0.00135062449141
0.0111988468293
-0.00130586728961
0.012454976479
-0.0012562428838
0.0136571798877
-0.00120237547048
0.0148019032912
-0.0011448298825
0.0158859760822
-0.00108424884113
0.0169070601018
-0.00102118294759
0.0178631369616
-0.000956255724186
0.0187530133488
-0.000889966763209
0.0195757212467
-0.000822888096971
0.0203310825787
-0.000755442375695
0.0210190329716
-0.000688130204309
0.0216402468539
-0.000621284756204
0.0221953969789
-0.000555327724696
0.0226858384822
-0.000490501770108
0.0231128166808
-0.000427151748079
0.02347820453
-0.000365437129901
0.0237836707803
-0.000305634038619
0.0240314625166
-0.000247830143059
0.0242235449298
-0.000192242916867
0.0243624177199
-0.000138900521984
0.024450237219
-8.7971483314e-05
0.0244896550679
-3.94355774599e-05
0.0244829334981
6.57904206135e-06
0.0244327961517
5.01289149742e-05
0.0243415390155
9.11246616213e-05
0.0242118737239
0.000129665076909
0.0240460650656
0.000165686542818
0.0238467696802
0.00019930236796
0.0236161842612
0.000230473664486
0.0233568622354
0.000259334939599
0.0230708918785
0.000285868728424
0.0227606866775
0.000310222930158
0.0224281977699
0.000332396957683
0.0220756719194
0.00035254715515
0.0217049027567
0.000370686305861
0.0213179517068
0.000386974906602
0.0209164414149
0.000401435832641
0.0205022367458
0.000414230017497
0.0200767825382
0.000425387403879
0.019641742622
0.000435065936848
0.0191983830365
0.000443299668212
0.01874816835
0.000450240569299
0.0182921904694
0.00045592409839
0.0178317220291
0.000460493605745
0.0173676901619
0.000463983494796
0.0169011876228
0.000466526433247
0.0164329901714
0.000468153817031
0.0159640262918
0.000468986147763
0.0154949363712
0.000469050405242
0.0150265024527
0.000468454230146
0.0145592469964
0.000467219508538
0.0140938241452
0.000465441036878
0.0136306556888
0.000463135585336
0.0131702857196
0.00046038587473
0.0127130513099
0.000457204191847
0.0122594024238
0.000453662480871
0.0118096048836
0.00044976960959
0.0113640276873
0.000445588455752
0.0109228759131
0.00044112582424
0.0104864475459
0.000436437358272
0.0100548941385
0.000431529180862
0.00962844942579
0.000426451501267
0.00920721569011
0.000421211023258
0.00879136634197
0.000415854064123
0.00838095610418
0.000410388867953
0.00797609979581
0.000404859070893
0.00757680456441
0.000399275065765
0.00718312693697
0.000393678589025
0.0067950254754
0.000388082383925
0.00641249809285
0.000382526668956
0.00603545362457
0.000377026380571
0.0056638311615
0.000371620203638
0.00529748920067
0.000366324778738
0.00493630858275
0.000361176910678
0.0045800980733
0.00035619417694
0.00422868223805
0.000351410800927
0.00388182260534
0.000346844159445
0.00353929182285
0.000342524608073
0.00320081015494
0.000338467184206
0.00286610814727
0.00033469498844
0.00253488096125
0.000331213935883
0.0022068481544
0.000328025346259
0.00188174497304
0.000325091326379
0.0015594334101
0.000322303925253
0.00124007031722
0.000319352655908
0.000924664624241
0.000315397131301
0.000617152964591
0.000307503845915
0.000332332332244
0.000284814718937
0.000332328236543
0.00148381068924
-0.00282626120528
0.0031401589997
-0.00312604288064
0.00478748223189
-0.00311598573421
0.00641113082429
-0.00307368553515
0.0080037482332
-0.00301603936767
0.0095584052399
-0.00294477738009
0.0110685800282
-0.00286094365974
0.0125282185782
-0.00276566280877
0.0139319451756
-0.00266011197153
0.015274967498
-0.00254555541428
0.0165532520546
-0.00242325433625
0.0177633589499
-0.00229451314504
0.0189026164986
-0.00216057677747
0.0199689007863
-0.00202269604658
0.0209608188101
-0.0018820163295
0.0218774420891
-0.00173966467299
0.0227185053577
-0.00159663117156
0.0234841038512
-0.00145387776685
0.024174913132
-0.00131221236297
0.0247918595585
-0.0011724175088
0.0253363645633
-0.00103511676236
0.0258099966615
-0.000900920098791
0.0262147405706
-0.000770281816746
0.026552637393
-0.00064365881865
0.0268260761
-0.000521359743582
0.0270374267102
-0.000403712247632
0.0271893494398
-0.000290903938692
0.02728442458
-0.000183155475932
0.0273254735962
-8.05549986964e-05
0.0273151884889
1.67654942445e-05
0.0272564566143
0.00010880040887
0.0271520004885
0.000195492345653
0.0270047138663
0.000276900883209
0.0268172934283
0.000353028512993
0.0265925633665
0.000423990471934
0.0263331291105
0.000489838943757
0.0260416990175
0.000550731110792
0.0257207489658
0.000606758638931
0.0253728342203
0.000658110834715
0.0250002692558
0.000704909828474
0.024605427841
0.000747367840687
0.0241904398991
0.000785629345406
0.0237574779124
0.000819921277899
0.0233084720644
0.000850403080215
0.0228453816865
0.000877308958629
0.0223699294382
0.000900806479036
0.0218838569449
0.000921130277995
0.0213886783786
0.000938449649343
0.0208859198974
0.000952993391828
0.0203768925618
0.000964926660864
0.0198629154091
0.000974466877003
0.0193451072932
0.000981769944334
0.0188245936796
0.000987037339384
0.0183023166548
0.000990411659978
0.0177792255992
0.000992075148783
0.0172561043792
0.00099215438593
0.0167337462047
0.00099081058625
0.0162127968322
0.000988153125588
0.015693913959
0.000984321985638
0.0151776252085
0.000979409680826
0.0146644725616
0.000973536235577
0.0141548838936
0.000966778994609
0.0136493030233
0.000959240508661
0.013148073664
0.000950985646185
0.0126515558334
0.000942102759159
0.0121600211946
0.000932647494134
0.0116737566536
0.000922697605433
0.0111929702151
0.000912302865299
0.0107178827211
0.000901533901816
0.0102486434679
0.000890437642637
0.00978541107291
0.000879080565188
0.009328278215
0.000867509152205
0.00887734266147
0.000855787958672
0.00843264056558
0.000843964614617
0.00799420864038
0.000832103118457
0.00756202550941
0.000820252975956
0.00713606597142
0.000808478128696
0.00671624993695
0.000796829872797
0.00630248961556
0.000785371807398
0.00589464561693
0.000774156222658
0.0054925677972
0.000763245412693
0.00509605815512
0.000752691257233
0.00470490594683
0.00074255315723
0.00431885708843
0.000732880516749
0.00393764408264
0.00072372738183
0.00356096171185
0.000715137307929
0.00318849213561
0.000707154229921
0.00281988612496
0.000699808219038
0.00245478121666
0.000693120207825
0.00209277814161
0.000687083682019
0.00173341597995
0.000681655974098
0.00137602638581
0.000676731841566
0.001019294227
0.00067212081697
0.000659285685688
0.000667504358508
0.000283997709432
0.00066009610766
0.000616323845342
0.00150999279721
-0.00433639412703
0.0031875173441
-0.00480371862722
0.0048584626325
-0.00478708086547
0.00650562736882
-0.00472100222797
0.00812090320594
-0.00463146499689
0.00969705524346
-0.00452108171978
0.011227368612
-0.00439140655048
0.0127056879807
-0.00424413469987
0.0141265250626
-0.00408109793157
0.0154850547723
-0.00390423731067
0.0167771853059
-0.00371553233715
0.0179995054857
-0.00351698427753
0.0191493321845
-0.00331054853524
0.0202246210032
-0.00309813340027
0.0212240012516
-0.00288153794899
0.0221466598132
-0.00266246799311
0.0229923725777
-0.0024424802888
0.0237613707916
-0.00222301550797
0.0244543764804
-0.0020053479709
0.0250724596212
-0.00179063353875
0.0256170833058
-0.00157986269194
0.0260899581503
-0.00137391990702
0.0264931000637
-0.00117353717167
0.0268286858384
-0.000979360584501
0.0270991236667
-0.000791901420676
0.0273069114391
-0.000611606253451
0.0274547177988
-0.000438803986005
0.027545243368
-0.000273777068965
0.0275813095041
-0.000116704488016
0.0275657224771
3.22668642968e-05
0.0275013675248
0.000173082291755
0.0273910759851
0.000305708433363
0.027237723634
0.000430190051278
0.0270441020572
0.000546584446557
0.0268130168759
0.000655021801621
0.0265471649623
0.000755634387326
0.0262492330269
0.000848617724056
0.0259217810079
0.000934162585714
0.0255673394048
0.00101251479049
0.0251882991483
0.0010839095172
0.0247870067278
0.00114862930891
0.0243656609412
0.00120694114188
0.0239264049488
0.00125915207491
0.023471230245
0.00130554942581
0.0230020651461
0.00134645365205
0.0225206861682
0.00138216182954
0.0220288025163
0.00141299745019
0.0215279749701
0.00143925744365
0.0210196961926
0.00146125878073
0.020505317022
0.00147928918635
0.0199861223559
0.00149365053938
0.0194632646097
0.00150461345868
0.0189378350447
0.00151245763466
0.0184108039329
0.00151743035881
0.017883087083
0.00151978393935
0.01735549214
0.00151973822129
0.0168287801388
0.00151751527454
0.0163036172422
0.00151330579943
0.0157806310969
0.00150730121258
0.0152603673206
0.00149966377155
0.0147433405734
0.00149055615879
0.0142299951272
0.00148011502318
0.0137207506058
0.0014684780912
0.0132159660969
0.00145576079459
0.0127159807049
0.00144208092845
0.0122210807745
0.00142753797176
0.0117315354846
0.00141223528978
0.011247566909
0.00139626179093
0.0107693810452
0.00137971170732
0.0102971405392
0.00136266824227
0.00983099158689
0.00134522098701
0.00937103925532
0.0013274512916
0.00891737077503
0.00130944743275
0.00847003342663
0.00129129148215
0.00802905471569
0.00127307237098
0.00759442282517
0.00125487410428
0.00716610416055
0.00123678690413
0.00674402635364
0.0012188966499
0.00632809358413
0.00120129428415
0.0059181721155
0.00118406640398
0.0055141037463
0.00116730310609
0.00511569382648
0.00115108965533
0.00472272308326
0.00113551289582
0.0043349380225
0.00112065390519
0.00395206121959
0.00110659299825
0.00357378376553
0.0010934031513
0.00319977347371
0.00108115342115
0.00282966772047
0.00106990274305
0.00246307568031
0.00105970152599
0.00209956210379
0.00105058653465
0.00173862289193
0.00104258534354
0.00137961643555
0.00103572806814
0.00102163582624
0.00103009083818
0.000663388587167
0.00102574447393
0.000305122668568
0.00101835685307
0.000921443440833
0.00153319993003
-0.00586973425703
0.00323362197288
-0.00650429011388
0.00492758660509
-0.0064811960499
0.00659709995447
-0.00639066643345
0.00823358128676
-0.00626809698637
0.00982947964407
-0.0061171313081
0.0113778513993
-0.0059399290731
0.01287239285
-0.00573882754251
0.014307506149
-0.00551636175695
0.0156783212991
-0.00527520344601
0.0169807263754
-0.00501808696266
0.0182113487986
-0.00474775635338
0.0193675555157
-0.00446690271576
0.020447403257
-0.0041781282396
0.0214496191528
-0.00388389791394
0.0223735303882
-0.00358652236065
0.023219035285
-0.0032881243807
0.0239865221251
-0.00299064001881
0.0246768396041
-0.00269579832244
0.025291213282
-0.00240513798109
0.0258312222738
-0.00211999685155
0.0262987194298
-0.00184153962259
0.0266958181659
-0.00157075223269
0.0270248193397
-0.0013084750623
0.0272882087171
-0.00105539738015
0.0274885905155
-0.000812091341846
0.0276286935733
-0.00057900333758
0.0277113100423
-0.000356486392178
0.0277393076759
-0.000144787880013
0.0277155723616
5.59198644872e-05
0.0276430248719
0.000245554460375
0.0275245656264
0.000424095691463
0.0273630956977
0.000591594745188
0.0271614653825
0.000748152637446
0.0269224970768
0.000893934339813
0.0266489380749
0.00102914043477
0.0263434848318
0.00115402389076
0.0260087397404
0.00126886305241
0.0256472367847
0.00137397844279
0.0252614020176
0.00146970705015
0.0248535799653
0.00155641887199
0.0244259977201
0.00163449256982
0.0239807916705
0.00170433145875
0.0235199752083
0.00176634051489
0.0230454655227
0.00182094154984
0.0225590549229
0.00186855157363
0.0220624375343
0.00190959702529
0.0215571842306
0.00194449354523
0.021044769108
0.00197365925267
0.0205265479179
0.00199749605154
0.0200037841606
0.00201640207443
0.0194776308003
0.00203075468382
0.0189491557471
0.00204092226577
0.0184193264783
0.0020472490927
0.0178890345848
0.00205006666753
0.0173590828139
0.0020496805585
0.016830208297
0.00204638143959
0.0163030714472
0.0020404339081
0.0157782774698
0.00203208728482
0.015256366559
0.00202156630402
0.01473783335
0.00200908162633
0.0142231179195
0.00199482218248
0.0137126229417
0.00197896526957
0.0132067051292
0.00196167024951
0.0127056900012
0.00194308804199
0.0122098635449
0.00192335584717
0.011719484651
0.00190260584378
0.0112347769298
0.00188096061753
0.0107559390084
0.00185854090047
0.0102831365542
0.00183546143935
0.00981651072006
0.00181183767458
0.0093561705189
0.00178778185537
0.00890219976087
0.0017634086259
0.00845464995721
0.00173883127365
0.00801354610031
0.00171416625945
0.00757888028064
0.00168952955377
0.00715061663844
0.00166504019746
0.00672868584808
0.00164081673195
0.00631298951524
0.0016169799083
0.00590339564226
0.00159364924676
0.0054997426824
0.00157094501834
0.00510183603555
0.00154898497737
0.00470945187281
0.00152788572438
0.00432233460541
0.0015077596439
0.00394020040196
0.00148871573034
0.00356273527996
0.00147085675941
0.00318959766404
0.00145427970798
0.0028204157523
0.00143907343218
0.00245478679842
0.00142531963563
0.00209226965237
0.0014130932211
0.0017323748306
0.00140246928373
0.00137455294255
0.00139353940099
0.00101820697603
0.00138642842901
0.0006629230955
0.00138101993517
0.000310609806471
0.00137066351279
0.00123205145337
0.00156299084451
-0.00743286471245
0.00329509501813
-0.00823654422573
0.00502015247994
-0.00820640337852
0.00671954244936
-0.0080902069606
0.00838424225913
-0.00793294725074
0.0100063342332
-0.00773937422456
0.011578586991
-0.00751233272643
0.0130944907645
-0.00725488259765
0.0145483102113
-0.00697033218656
0.0159351096975
-0.00666215399223
0.0172507671162
-0.00633389466005
0.0184919591229
-0.00598909821186
0.019656141265
-0.00563123329972
0.0207415033116
-0.00526363762449
0.0217469269827
-0.00488946676758
0.0226719229362
-0.00451166163015
0.0235165772645
-0.00413291909297
0.0242814809226
-0.00375568139093
0.0249676749505
-0.00338212636153
0.0255765815898
-0.00301417521468
0.0261099561537
-0.00265349762626
0.026569826317
-0.00230153191832
0.0269584550148
-0.00195949810789
0.0272782903784
-0.00162842302212
0.027531939883
-0.00130915412193
0.0277221295317
-0.00100238329783
0.0278516864208
-0.000708656928125
0.0279235040613
-0.000428395652152
0.0279405302172
-0.000161899985994
0.0279057360115
9.06332005847e-05
0.0278221073496
0.000329107837154
0.0276926157374
0.000553516920853
0.0275202149052
0.000763930547496
0.0273078142412
0.00096049288237
0.0270582767949
0.00114341637742
0.0267743974517
0.00131296857034
0.0264589029999
0.00146947170964
0.0261144332979
0.00161328986118
0.025743543623
0.00174482932137
0.0253486884484
0.00186452666033
0.0249322256112
0.0019728497311
0.0244964024396
0.00207028649369
0.0240433614122
0.00215734632235
0.0235751285476
0.00223454944983
0.0230936204247
0.00230242833593
0.0226006348227
0.00236151761999
0.0220978590104
0.00241235542306
0.0215868626551
0.00245547384853
0.021069107326
0.00249140025414
0.0205459416117
0.00252064844035
0.0200186116752
0.0025437200453
0.0194882584058
0.00256109667313
0.0189559287742
0.00257324165553
0.0184225746797
0.00258059337237
0.0178890646896
0.00258356761188
0.0173561841156
0.00258255229685
0.0168246466593
0.00257791060136
0.0162950951615
0.00256997715463
0.015768112623
0.00255906193092
0.0152442230862
0.00254544785854
0.0147239015792
0.00252939536165
0.0142075746637
0.00251114114245
0.0136956289524
0.00249090312367
0.0131884110098
0.00246888008186
0.0126862342777
0.00244525667585
0.0121893781787
0.00242020355457
0.0116980934417
0.00239388214222
0.0112126004311
0.00236644487325
0.0107330930334
0.0023380394568
0.0102597363619
0.00230880895093
0.00979266946023
0.00227889530964
0.00933200262519
0.00224843911339
0.00887781925221
0.00221758230669
0.00843017304565
0.00218646749636
0.0079890893286
0.00215523987834
0.00755456240407
0.00212404610849
0.00712655662868
0.00209303549136
0.00670500414288
0.00206235848506
0.00628980594331
0.00203216726593
0.00588083014416
0.00200261396942
0.00547791321678
0.00197385076433
0.00508085886411
0.00194602794059
0.00468943949424
0.00191929362776
0.00430339567767
0.00189379185284
0.00392243775812
0.00186966205075
0.00354624564912
0.00184703726769
0.00317447014938
0.00182604375254
0.0028067325103
0.00180679982996
0.00244262459014
0.00178941649715
0.00208170787612
0.00177399898843
0.00172351523
0.00176065193291
0.00136755810285
0.00174948614136
0.0010133658141
0.00174060943454
0.000660684974553
0.0017336937759
0.000311324663433
0.00172001905847
0.00154337297845
0.00160065930607
-0.00903366318437
0.00337371923377
-0.0100097519647
0.00513878454023
-0.00997161842386
0.006876467863
-0.00982803998506
0.00857722554402
-0.00963385521625
0.0102326993408
-0.00939499854945
0.0118353049633
-0.00911508933214
0.0133782757727
-0.00879800460301
0.0148557106312
-0.00844791843936
0.0162625972576
-0.00806919190029
0.0175948140523
-0.0076662624483
0.0188491098297
-0.00724354431904
0.020023068802
-0.00680534161556
0.0211150594893
-0.00635577629336
0.0221241763063
-0.00589872975386
0.0230501707563
-0.00543780009523
0.0238933821932
-0.00497627184051
0.0246546632423
-0.00451710079617
0.0253353110274
-0.00406290893758
0.0259369972603
-0.00361599252894
0.0264617090514
-0.00317833615568
0.0269116910337
-0.00275163628934
0.0272894006586
-0.0023373251547
0.0275974645634
-0.00193659950045
0.0278386476171
-0.00155044432988
0.0280158205402
-0.00117965820604
0.0281319380485
-0.000824870755174
0.0281900127397
-0.000486561346497
0.0281930977312
-0.000165070254843
0.0281442635432
0.000139387402686
0.0280465835178
0.00042671347354
0.0279031118355
0.000696919327916
0.0277168737057
0.00095010472783
0.0274908459519
0.00118646149089
0.0272279483072
0.00140625979433
0.0269310289208
0.00160983812711
0.0266028579832
0.00179759724849
0.0262461161536
0.00196999021793
0.0258633905145
0.0021275173782
0.0254571654138
0.00227071760473
0.0250298202527
0.00240016407563
0.0245836224018
0.00251645644591
0.0241207265757
0.0026202170446
0.0236431697081
0.00271208364328
0.0231528718598
0.00279270579454
0.0226516330641
0.00286273799721
0.0221411358074
0.00292283607552
0.0216229438879
0.00297365072129
0.0210985064949
0.00301582399985
0.020569159048
0.00304998342976
0.0200361287983
0.00307673887412
0.019500537475
0.00309667744974
0.0189634081619
0.00311036115358
0.0184256693866
0.0031183229391
0.0178881628474
0.00312106541937
0.0173516484201
0.00311905837981
0.0168168121737
0.00311273877598
0.0162842716768
0.00310250978977
0.0157545837003
0.00308874215535
0.0152282492142
0.00307177466484
0.0147057202359
0.00305191664635
0.0141874040121
0.00302944963933
0.0136736686138
0.0030046306883
0.0131648459762
0.00297769477639
0.0126612360345
0.00294885850346
0.0121631084961
0.00291832281698
0.0116707055139
0.00288627663521
0.0111842422611
0.00285289944417
0.0107039083124
0.00281836448866
0.0102298672416
0.0027828408988
0.00976225700029
0.00274649618625
0.0093011888508
0.00270949769301
0.00884674708959
0.00267201426144
0.00839898765341
0.00263421693064
0.00795793753313
0.00259627977106
0.00752359336827
0.00255837986415
0.00709592085413
0.00252069738343
0.00667485358239
0.00248341496597
0.00626029267586
0.00244671717968
0.00585210605851
0.00241078943597
0.00545012847594
0.00237581700765
0.00505416128989
0.00234198364834
0.00466397295026
0.00230947033827
0.00427929930714
0.00227845378816
0.00389984447882
0.00224910511707
0.00352528156145
0.00222158847711
0.0031552537226
0.00219605999087
0.00278937517683
0.00217266694963
0.00242723277678
0.00215154781209
0.00206838830968
0.0021328328199
0.00171238299549
0.00211664591179
0.001358750946
0.00210310732041
0.00100704917103
0.00209230295654
0.000656996671658
0.00208373753933
0.000310200148325
0.00206680876387
0.0018535715188
0.00164703060392
-0.0106808317988
0.00347076958103
-0.0118336394106
0.00528528781272
-0.0117862849645
0.00707020144393
-0.0116131029087
0.00881531704922
-0.0113791203339
0.0105117363607
-0.0110915681296
0.0121514492065
-0.0107549528668
0.0137273819742
-0.0103740887083
0.015233444092
-0.00995413209809
0.0166645439107
-0.00950044354151
0.0180165797871
-0.00901844984545
0.0192864069361
-0.00851352263725
0.0204717882001
-0.0079908730446
0.0215713289364
-0.00745546600625
0.0225844036661
-0.00691195162353
0.0235110741614
-0.0063646155991
0.0243520059305
-0.00581734590836
0.0251083828287
-0.00527361690128
0.0257818260752
-0.00473648783468
0.0263743174719
-0.00420861559897
0.0268881318226
-0.0036922778802
0.027325777545
-0.00318940465601
0.0276899482355
-0.00270161359009
0.0279834825956
-0.00223024631107
0.0282093331324
-0.00177640200211
0.028370539945
-0.00134096649891
0.0284702090942
-0.000924635842186
0.0285114923649
-0.000527934760337
0.0284975687145
-0.00015123117063
0.0284316254169
0.000205251876465
0.0283168409568
0.000541424553308
0.0281563682616
0.000857324145346
0.0279533180297
0.00115309224516
0.0277107463527
0.00142897557546
0.0274316418208
0.0016853114962
0.0271189145134
0.00192251723372
0.0267753874566
0.00214108038458
0.0264037882467
0.00234154958483
0.0260067429961
0.00252452654438
0.0255867699848
0.00269065802879
0.0251462755381
0.00284062915695
0.0246875493166
0.00297515622795
0.0242127618824
0.0030949807398
0.023723961573
0.00320086259458
0.0232230737764
0.00329357444068
0.0227118995052
0.00337389500234
0.0221921164897
0.00344260358562
0.0216652796073
0.00350047353913
0.0211328238874
0.00354826701669
0.0205960668671
0.00358672880648
0.0200562134559
0.00361658165922
0.0195143601042
0.00363852091071
0.0189715012699
0.00365321082173
0.0184285350397
0.00366128047314
0.0178862706979
0.00366332154887
0.0173454352249
0.00365988589534
0.0168066813061
0.00365148502548
0.0162705940065
0.00363858950733
0.0157376984984
0.00362163021668
0.0152084662193
0.00360099945517
0.0146833216782
0.00357705371526
0.0141626475312
0.00355011617779
0.0136467899977
0.00352048054254
0.0131360624997
0.00348841439112
0.0126307494615
0.00345416352488
0.0121311084009
0.00341795561406
0.0116373721214
0.00338000447733
0.0111497493735
0.00334051348426
0.0106684256569
0.00329967930167
0.0101935627374
0.00325769463768
0.00972529841024
0.00321475113142
0.00926374525351
0.00317104119603
0.00880898976176
0.00312675990334
0.00836109073464
0.00308210584973
0.0079200781738
0.00303728204007
0.00748595166482
0.00299249583871
0.00705867937291
0.00294795897075
0.00663819670019
0.00290388670622
0.00622440562888
0.00286049716038
0.00581717385137
0.00281800990697
0.00541633462154
0.00277664478611
0.0050216864644
0.00273662016
0.00463299360481
0.00269815144467
0.00424998627711
0.00266144923366
0.00387236171378
0.00262671778628
0.0034997850297
0.00259415327814
0.00313189073351
0.00256394253953
0.0027682843801
0.0025362618024
0.00240854484876
0.00251127598688
0.00205222787403
0.00248913849158
0.0016988723831
0.00246999127888
0.00134800817804
0.0024539609015
0.000999176975483
0.00244112215599
0.000652047657304
0.00243085984514
0.000308079466448
0.00241077237034
0.0021616476691
0.00170291388374
-0.0123838827613
0.00358778443104
-0.0137186551257
0.00546189108628
-0.0136605393775
0.00730360014864
-0.0134549598142
0.00910190881674
-0.0131775779486
0.0108472633326
-0.0128370721749
0.0125311459612
-0.0124389860317
0.0141461285009
-0.0119892224024
0.0156859127424
-0.0114940682451
0.0171453367324
-0.0109600196875
0.018520349526
-0.0103936149749
0.0198079621266
-0.00980128716234
0.0210061789546
-0.00918924113868
0.0221139157166
-0.00856335276837
0.0231309071816
-0.00792909143181
0.0240576089385
-0.00729146348001
0.0248950967071
-0.00665497708949
0.0256449664131
-0.00602362684906
0.0263092393666
-0.00540089731402
0.0268902749052
-0.00478978362062
0.0273906948281
-0.00419282569148
0.0278133197909
-0.00361215274071
0.0281611201899
-0.00304953182667
0.028437178203
-0.00250641685609
0.0286446610849
-0.00198399165902
0.0287867998459
-0.00148320640039
0.0288668729273
-0.00100480407146
0.0288881894475
-0.000549340675161
0.0288540735614
-0.000117198675449
0.0287678466143
0.000291401112708
0.0286328082669
0.000676391002049
0.0284522247764
0.00103784116984
0.0282293087235
0.00137594728848
0.027967206447
0.00169102188572
0.0276689866348
0.00198348030603
0.0273376297424
0.0022538276776
0.0269760200881
0.00250264798328
0.0265869383337
0.00273059329027
0.0261730558553
0.00293837475705
0.0257369292293
0.00312675382897
0.0252809961106
0.00329653462389
0.0248075712617
0.00344855630622
0.0243188437603
0.00358368606056
0.0238168745806
0.00370281194801
0.0233035952881
0.00380683596112
0.0227808073844
0.00389666700669
0.0222501827605
0.00397321388588
0.0217132650498
0.00403737837264
0.0211714720742
0.00409004827758
0.0206260993454
0.00413209089806
0.0200783245666
0.00416434661316
0.0195292131896
0.0041876232297
0.0189797247456
0.00420269073267
0.0184307200507
0.00421027714542
0.0178829688265
0.00421106504357
0.0173371578677
0.0042056894293
0.0167938991831
0.00419473639723
0.0162537382823
0.00417874323795
0.015717161994
0.00415819930778
0.0151846060456
0.00413354822518
0.0146564618054
0.00410519064733
0.0141330824916
0.0040734881093
0.0136147883058
0.00403876714243
0.0131018708722
0.00400132409838
0.0125945965155
0.00396142990266
0.0120932088292
0.00391933513647
0.0115979301426
0.00387527471844
0.0111089623901
0.00382947258122
0.0106264870495
0.00378214569392
0.0101506646826
0.00373350783756
0.00968163377698
0.00368377257924
0.00921950943026
0.00363315587073
0.00876438157851
0.00358187780397
0.00831631330198
0.00353016397364
0.00787533888898
0.00347824603756
0.00744146217789
0.00342636194875
0.00701465482334
0.00337475547791
0.0065948549893
0.00332367552182
0.00618196608162
0.00327337481712
0.00577585600218
0.00322410857592
0.0053763565143
0.00317613264735
0.00498326316827
0.00312970174018
0.00459633537927
0.00308506729397
0.00421529705237
0.00304247554471
0.00383983738336
0.00300216536804
0.00346961219119
0.00296436644324
0.0031042454696
0.00292929733456
0.00274333154139
0.00289716397631
0.00238643783961
0.00286815830463
0.00203310856985
0.00284245688044
0.00168286876101
0.00282021925715
0.00133523309085
0.00280158532206
0.000989718543091
0.00278662854987
0.000645940161272
0.00277462904135
0.000305265918541
0.00275143942628
0.00246691210636
0.00176925665275
-0.0141532744629
0.00372666699021
-0.0156762111301
0.00567138514433
-0.0156054028766
0.00758023438493
-0.0153639559612
0.00944122242712
-0.0150387135054
0.0112440072112
-0.0146400058513
0.0129794783033
-0.014174606984
0.0146398080951
-0.0136497033603
0.0162184839787
-0.0130728960468
0.0177102963114
-0.0124519848122
0.0191112933535
-0.0117947649566
0.0204187082695
-0.0111088550956
0.0216308687318
-0.0104015538973
0.0227470914764
-0.00967972683716
0.0237675692155
-0.00894971875456
0.0246932509856
-0.00821729269625
0.025525721829
-0.00748759258276
0.0262670839926
-0.00676513037049
0.0269198452883
-0.00605379617508
0.027486818291
-0.00535688985861
0.0279710346812
-0.00467717067025
0.0283756775285
-0.00401691899605
0.0287040316321
-0.00337800403019
0.0289594510638
-0.00276194859098
0.0291453387854
-0.00216998593834
0.0292651347456
-0.0016031027588
0.0293223057007
-0.0010620694721
0.0293203350083
-0.000547458165407
0.0292627085766
-5.96544903342e-05
0.0291528991069
0.000401134472837
0.0289943452116
0.000834874520037
0.0287904413493
0.00124168046215
0.0285445151419
0.00162181428867
0.0282598155738
0.00197566756654
0.0279395013054
0.00230374555582
0.0275866318033
0.00260665288591
0.0272041596882
0.00288508010437
0.026794924835
0.00313979222755
0.0263616490495
0.00337161832763
0.0259069316165
0.00358144246788
0.025433245299
0.00377019525181
0.0249429328536
0.00393884585045
0.0244382042512
0.00408839430072
0.0239211343483
0.00421986369267
0.0233936616344
0.00433429253711
0.0228575874709
0.00443272671696
0.0223145767595
0.00451621170469
0.0217661591843
0.00458578429117
0.0212137321505
0.00464246481759
0.020658564339
0.00468724907544
0.0201018010521
0.00472110109429
0.0195444700845
0.0047449459429
0.0189874892434
0.00475966387208
0.0184316741199
0.00476608487306
0.0178777471372
0.00476498496252
0.0173263464264
0.00475708319055
0.0167780354639
0.00474304056915
0.0162333120494
0.00472345983084
0.0156926175034
0.00469888705919
0.0151563447616
0.00466981403344
0.0146248462295
0.00463668217393
0.0140984402153
0.00459988690213
0.0135774168165
0.00455978317622
0.0130620422432
0.00451669103854
0.0125525624704
0.00447090184911
0.012049205369
0.00442268411241
0.0115521822117
0.00437228952684
0.0110616878567
0.00431995827472
0.0105779004816
0.00426592417056
0.0101009802935
0.00421041881604
0.00963106803549
0.00415367539169
0.00916828280073
0.00409593136012
0.00871271990247
0.00403743073241
0.00826444835217
0.00397842527132
0.00782350862577
0.00391917530435
0.00738991027077
0.00385994957892
0.00696362998536
0.00380102484939
0.00654460969314
0.0037426846495
0.00613275522063
0.00368521795129
0.00572793505635
0.0036289171631
0.00532997979679
0.00357407617311
0.00493868170283
0.00352098788431
0.0045537949881
0.00346994194355
0.00417503620781
0.00342122211177
0.00380208539133
0.00337510395601
0.00343458727884
0.00333185232464
0.00307215328319
0.00329171923583
0.0027143637467
0.00325494167646
0.0023607706691
0.00322173966451
0.00201090128402
0.00319231454494
0.00166426312899
0.00316684712295
0.00132034673289
0.00314549080828
0.000978637214904
0.00312832528592
0.000638713346808
0.00311454580708
0.000301871685
0.0030882765922
0.00276878025569
0.0018472105096
-0.0160006182535
0.00388977658646
-0.0177189178203
0.00591723082727
-0.0176330011992
0.00790452263198
-0.017351392229
0.00983845749733
-0.0169727947004
0.0117077602187