/*--------------------------------*- C++ -*----------------------------------*\
| =========                 |                                                 |
| \\      /  F ield         | OpenFOAM: The Open Source CFD Toolbox           |
|  \\    /   O peration     | Version:  v1906                                 |
|   \\  /    A nd           | Web:      www.OpenFOAM.com                      |
|    \\/     M anipulation  |                                                 |
\*---------------------------------------------------------------------------*/
FoamFile
{
    version     2.0;
    format      ascii;
    class       surfaceScalarField;
    location    "56";
    object      phia;
}
// * * * * * * * * * * * * * * * * * * * * * * * * * * * * * * * * * * * * * //

dimensions      [0 3 -1 0 0 0 0];
oriented        oriented;


internalField   nonuniform List<scalar> 
18240
(
0.000995465821948
-0.000963957098459
0.00186871732478
-0.000842789632834
0.00277601187257
-0.000881976435595
0.00368961472778
-0.000881752148626
0.00458492521174
-0.00087110601117
0.0054693798901
-0.000851368120774
0.00632234661204
-0.000830073035089
0.00715873452849
-0.0008021911978
0.00795547508312
-0.000775348553404
0.0087328979592
-0.000742277727648
0.00946467186667
-0.000712102595528
0.0101733340227
-0.000672757761815
0.0108284637207
-0.000637374209553
0.0114613118277
-0.000596436557844
0.0120374547852
-0.00056054955676
0.0125913318577
-0.000517314411881
0.0130844316517
-0.000479894626817
0.0135598048465
-0.000439074912315
0.0139773781573
-0.000406972379324
0.0143822109478
-0.00036915801629
0.0147301577269
-0.000340093912832
0.0150621792917
-0.000297434378017
0.0153280934823
-0.000260926761264
0.0155824758622
-0.000221262584002
0.0157799795325
-0.000195449945346
0.0159747507853
-0.000163430227777
0.016114083149
-0.000140197362178
0.0162476745062
-0.000104356938721
0.0163218420187
-7.78347535137e-05
0.0163887415276
-4.00818688288e-05
0.0164008964811
-1.85482488542e-05
0.016402131187
2.28978277655e-05
0.0163275149331
6.5700561029e-05
0.0162459553265
0.000102760713697
0.0161092362308
0.000125570447969
0.015968474517
0.000158996810982
0.0157742286519
0.000181154766115
0.0155760474456
0.000213479745825
0.0153245827176
0.000236654528164
0.0150685296008
0.000268467055879
0.0147647890505
0.000287487107464
0.014458813272
0.000315565926838
0.0140999347998
0.000341420353322
0.0137308480324
0.000375950949121
0.0133191023872
0.000393285498223
0.0129091916985
0.000414105556137
0.012462137569
0.000427762262621
0.0120173853205
0.000446315795002
0.0115407572643
0.000456739772994
0.0110702555082
0.000469415615063
0.0105784071932
0.000471635998746
0.0100986933337
0.000476001243438
0.00960581417322
0.000472658521239
0.0091301920547
0.000469358062398
0.0086540189608
0.00045617685874
0.00820052381057
0.000444741414151
0.00775098265698
0.000430012175293
0.00732074590823
0.000419055232908
0.00689817267589
0.000403714166734
0.00649925161031
0.000385443604127
0.00611865451724
0.000362641042673
0.00576378942187
0.000339415530499
0.00543238004392
0.000314713298206
0.00512372414404
0.000291638812566
0.00483443793931
0.000274195778716
0.00455782633359
0.000258474184779
0.00430213708249
0.000242590511765
0.00406196211776
0.000221552866618
0.00384466468218
0.000206689784105
0.00362813167215
0.000198273702567
0.00342306132179
0.000197111635825
0.00321102897068
0.000195219977385
0.00301113180661
0.00019467259252
0.00280762650108
0.000188733321468
0.0026162433559
0.00018886729204
0.0024267474315
0.000176504662687
0.0022673573966
0.000159394403088
0.00211959828104
0.000136455870841
0.00199214850908
0.000128930589995
0.0018542913225
0.00012884199638
0.00172615885059
0.000130318622104
0.0016032615106
0.000115494027044
0.00151261901865
9.36827887485e-05
0.00142206942517
8.44657523908e-05
0.0013327908669
9.2583531977e-05
0.00123768706429
9.01756661823e-05
0.00116749572943
7.30672328629e-05
0.00110996966361
5.37893791651e-05
0.00104031536639
7.18473441728e-05
0.000929219512667
0.000108551908865
0.000807361878759
0.00012416266191
0.000678586643494
0.000128187899367
0.000523827618124
0.000155819556604
0.000341471313649
0.000184248469354
0.000155265450496
0.000189099152886
0.000156398264129
0.000882042706606
-0.00181859113559
0.00193662481621
-0.00186732346327
0.0029420855059
-0.00185868019263
0.00392620176534
-0.0018353538563
0.00488816596252
-0.00180452094373
0.00583118840671
-0.00176359522811
0.00674574150881
-0.00171644833025
0.00763530460723
-0.00166080443553
0.00848817715863
-0.00160060206193
0.00931041798875
-0.00153360747035
0.0100906844112
-0.0014655035035
0.0108405368223
-0.00139193309037
0.011546619656
-0.00131756813796
0.0122146645676
-0.00123428306284
0.0128349844531
-0.00115620436027
0.0134218528312
-0.0010747799388
0.0139592682896
-0.000994211530709
0.0144624231853
-0.000913992299198
0.0149154258154
-0.000838719276259
0.0153315857994
-0.000758587687854
0.0156969776397
-0.000686400188416
0.0160388988432
-0.000614483304557
0.0163362949376
-0.00054159183519
0.0166049711992
-0.000467148806227
0.0168243210209
-0.000400587729869
0.017013932394
-0.000332612485373
0.0171588731143
-0.000273551987176
0.0172838780717
-0.000211475721046
0.0173721283589
-0.000157253949764
0.0174403962035
-9.31537282799e-05
0.0174558798686
-2.79351539559e-05
0.0174430865802
4.80548405818e-05
0.0173929291883
0.000119226801499
0.0173202379763
0.000185009461681
0.0172008526283
0.000245680281268
0.017055711903
0.000310949687666
0.0168684876488
0.00036659856884
0.0166583269363
0.000427831549718
0.0164056691748
0.000485260480542
0.0161282977919
0.000547621509248
0.015805447267
0.000604185800742
0.0154593549739
0.000661166981858
0.0150837264758
0.000709026136139
0.0146940712086
0.0007628889324
0.0142665525395
0.000811120013589
0.0138225741459
0.000853195555464
0.0133500114549
0.000889132088786
0.0128669898957
0.000922379190121
0.0123605808719
0.000950556043578
0.0118501253357
0.000970973879608
0.0113298945429
0.000977978874348
0.0108137251482
0.000981510163741
0.0102967820669
0.000974618168131
0.00979133210059
0.000962535895503
0.00928713728859
0.000944477860889
0.00879802241861
0.000920125113665
0.00832354696965
0.00088789085598
0.00787483519911
0.000852670855787
0.00744232528652
0.00081903975415
0.00702443421333
0.000786980589563
0.00662391224347
0.000745617305755
0.00624700338763
0.000699059838856
0.00589259940884
0.000651595681097
0.00556155455672
0.000604942663593
0.00525669224337
0.00056192559637
0.00497215711373
0.000525178516903
0.00470122174502
0.000497104610467
0.00443220795179
0.000473396627945
0.00416804670781
0.000455883943065
0.00391382043851
0.000436803929844
0.00368548203787
0.000412577087972
0.00346941981513
0.000397581439463
0.00326557839158
0.000388152624413
0.00306376309597
0.000379267278687
0.00285501431105
0.000389745633188
0.00264484882548
0.000377749336802
0.00243484582134
0.000363936685054
0.00221741980315
0.000347251872517
0.00203398124242
0.000309554902143
0.00188840937349
0.000269537620473
0.00176257343936
0.000255289424765
0.00162883144191
0.000245725850232
0.00150079915469
0.00022182357662
0.0013812038039
0.000202186317414
0.00127707621664
0.000196832642278
0.00117508560543
0.00019101957243
0.00109946022844
0.000148853791228
0.00104356124149
0.00010870114344
0.000990880086669
0.000124276009344
0.000924578757673
0.000174557658394
0.000822871107755
0.000226053872558
0.00070221442146
0.000248965674429
0.000566489985529
0.000292662064581
0.000399248464136
0.000353435227836
0.000188037278952
0.000402784215483
0.000345825300012
0.000936059058789
-0.00272668725626
0.00196120586215
-0.00286279058089
0.00297161109356
-0.00283946035734
0.00396568775996
-0.00279939598584
0.00494003893563
-0.00274928012344
0.00589172444871
-0.00268517735343
0.00681523451489
-0.00261052841051
0.00770968251517
-0.00252522923278
0.00857070737795
-0.00243249913769
0.0093987525784
-0.00233187382357
0.0101871317526
-0.00222524496033
0.0109360199256
-0.00211149785262
0.0116417144048
-0.00199535296334
0.0123158532294
-0.00187980245794
0.0129464362595
-0.00175983816985
0.0135312822467
-0.00163202430223
0.0140729059985
-0.00151022186608
0.0145738279086
-0.00138869207084
0.0150288063692
-0.00126975858837
0.015445677737
-0.00115097235899
0.0158172118759
-0.00103598243838
0.0161497919263
-0.000924625676974
0.0164458773242
-0.000817942534642
0.0167099084019
-0.00071098513661
0.0169396451127
-0.000612993966716
0.0171434860138
-0.000518710166654
0.0173103469636
-0.000425679239471
0.0174406645955
-0.000326716103216
0.0175263202617
-0.000230932301014
0.0175839447015
-0.000138489709252
0.0176058832734
-4.0727161069e-05
0.0176015374277
6.18913752473e-05
0.0175627880813
0.000164304033488
0.0174870541405
0.000267436686311
0.017370205997
0.000366123062359
0.0172177080009
0.000467396191635
0.0170245261025
0.000560804088779
0.0168010153675
0.000652792249465
0.0165419130799
0.000743032522856
0.0162530000498
0.000835623296194
0.0159308344309
0.000922902377277
0.0155891503013
0.000999676826504
0.0152183738788
0.00107431829932
0.0148291005182
0.0011469450352
0.0144133457299
0.00121942064356
0.0139760622898
0.00128335474893
0.0135141788534
0.00134174608981
0.0130356581852
0.00139195380086
0.0125455235539
0.00142975204896
0.0120362387611
0.00146956985936
0.0115061956046
0.00149555510023
0.0109722409315
0.00150320510387
0.0104343465748
0.00149871305792
0.00990289430804
0.00148035061541
0.00937925501346
0.00145317839933
0.0088693256156
0.00141517837542
0.00837628440335
0.0013649935938
0.00790695821682
0.00130605857457
0.00746270748277
0.00124652238444
0.00704142017565
0.00119137352477
0.00664165345439
0.0011279700395
0.00626750878128
0.00105562842903
0.00592439546972
0.000976983523312
0.00561278968477
0.000898615932818
0.00532836664085
0.000828598646842
0.00506613683876
0.000769449849626
0.00482559235444
0.000720276454315
0.00460346883377
0.000678117124203
0.00439798191495
0.00064505565617
0.00419815736186
0.000620548067163
0.00398485008918
0.000611182044535
0.00376596280579
0.000602626246601
0.0035367826362
0.000604967268342
0.00331130248725
0.000593646905486
0.00311223318277
0.000579076478675
0.00292212068782
0.000559247864249
0.00273513565275
0.000543530947654
0.00254770121499
0.000529046774522
0.00233968406495
0.000512682780498
0.00210606129881
0.000500393788273
0.00188093212571
0.000477835489566
0.00169424467214
0.00043117769624
0.00154389340289
0.000371622495242
0.00140945271661
0.000335870127936
0.00129298769733
0.000313569327842
0.00119628531991
0.000287244321351
0.00109029430171
0.000255400535071
0.000978399206701
0.000220500980796
0.000910840214457
0.000192028994223
0.000890034138129
0.00019535801912
0.000804307657725
0.000312354664527
0.000666049296014
0.00038738782944
0.000532193247977
0.000426957961608
0.000370726306093
0.00051705371307
0.000188121836152
0.000588086399718
0.000535041395017
0.000962255895386
-0.00366075705162
0.00199109910938
-0.00386175813
0.0030115450851
-0.00383004864373
0.0040180455645
-0.00377587096538
0.00500445886053
-0.00370578371743
0.00596682503028
-0.00361752653794
0.00690098678391
-0.00351485212827
0.00780576165076
-0.00340008928376
0.00867634053304
-0.00327343723356
0.00950917595966
-0.00313505703425
0.010301613273
-0.00298843617255
0.0110536466497
-0.0028343607283
0.0117683777591
-0.00268146300974
0.0124414846367
-0.00252445100536
0.0130678886939
-0.00235853711048
0.0136540857509
-0.00219082111218
0.0141954283138
-0.00202513577912
0.0146941446525
-0.00186143140584
0.0151487509105
-0.00169957847556
0.0155636483287
-0.00154168304264
0.0159398494674
-0.00138936581491
0.0162757661883
-0.00123841983045
0.0165739296953
-0.00109548329971
0.0168437061485
-0.00096090661941
0.0170822618924
-0.000833342226216
0.0172850725109
-0.000704200382853
0.0174474867338
-0.00057254761127
0.0175793285801
-0.000443982827407
0.0176744816571
-0.000313364014092
0.0177266662417
-0.000178944662391
0.0177421984589
-4.64049549591e-05
0.0177239260726
8.89899808778e-05
0.0176724373888
0.000222793939152
0.0175922624251
0.000353621776781
0.0174770971875
0.00048551923743
0.0173334690472
0.000614352637623
0.0171541043059
0.000741845192836
0.0169333443823
0.000874351839755
0.016681166732
0.000994521330367
0.0164225095305
0.00109275243571
0.0161438440454
0.00119857263783
0.0158231463495
0.00131664723688
0.0154559490094
0.00143638299224
0.0150438601134
0.00155320359186
0.0146001238537
0.00165608398198
0.014134261255
0.0017414771013
0.0136447435725
0.0018223621159
0.0131363221877
0.00189088563881
0.0126131235676
0.0019423568452
0.0120898627886
0.00198170279094
0.0115594607907
0.00201381589214
0.0110131583012
0.00203686794189
0.0104610493107
0.00203731764779
0.00991661852681
0.002010803185
0.00937972563586
0.00197531236907
0.00885515867938
0.00192458227631
0.00834510951222
0.00185921568064
0.0078541457571
0.00178090499104
0.00739078677179
0.00169327547859
0.0069583093775
0.00160693524577
0.00655769767325
0.00151129955489
0.00618882518674
0.00140694684941
0.00585353393899
0.00129444912686
0.00554886681802
0.00118529361387
0.0052726162164
0.00108682728324
0.00502204232486
0.00100191525205
0.00479603859783
0.000928508532545
0.00458600760588
0.000870564926936
0.00438699402599
0.000827363875461
0.00420002875385
0.000791069204303
0.00402720994762
0.000769064856306
0.00385284983863
0.000762411683303
0.00366189744056
0.000783368296352
0.0034671556457
0.000776527171356
0.00328446886854
0.000751786719405
0.00310493838629
0.000729331589479
0.00292054154195
0.00072090673271
0.00272319702344
0.000720013438951
0.00253206855081
0.000699715383438
0.00234853560532
0.000680732120381
0.00215701653729
0.00066736224184
0.00194063195797
0.000646519322739
0.00172521015824
0.000586323433683
0.00152508708221
0.000536530845505
0.00135562690139
0.000482840472711
0.00120491395786
0.000438982794021
0.00106749758856
0.000393886844681
0.000959941455234
0.000329034162842
0.000845947107777
0.000307136679999
0.000725724486273
0.000316496840405
0.000694302659557
0.000344214339624
0.000592946305815
0.00048888896975
0.000435828746124
0.00058517160162
0.000316439903657
0.000637827038142
0.000174105045218
0.000732649887991
0.000710595513763
0.000985263933284
-0.00461766106429
0.0020301547794
-0.00487686570302
0.00306741809482
-0.00483726662228
0.00409075054762
-0.0047691321257
0.00509266601914
-0.00467762465603
0.00606958283543
-0.00456434244401
0.00701867044652
-0.0044338924324
0.00793536852562
-0.00428673424064
0.0088148700331
-0.00412302920619
0.00965589089135
-0.00394623973654
0.0104558455004
-0.00375881395214
0.0112177465018
-0.00356684521977
0.0119369710201
-0.00337164829658
0.0126076004671
-0.00316635930279
0.0132350084566
-0.00295779575923
0.0138198655514
-0.00274801404528
0.0143597451312
-0.00253810408933
0.0148574134545
-0.00233288150446
0.0153157776716
-0.0021326679986
0.0157321095201
-0.00193360089221
0.016101198662
-0.00173514198104
0.0164347778347
-0.00154968337844
0.01673828683
-0.00137787658829
0.0170113379157
-0.00121397027678
0.0172474952073
-0.00105085401186
0.0174464274556
-0.000885769166633
0.0176084659524
-0.000718683647653
0.017728149754
-0.000549119347071
0.0178122483324
-0.000384440378577
0.0178629553726
-0.000218036588121
0.0178818072153
-5.51750284786e-05
0.0178769247958
0.000102547439647
0.0178382428869
0.000268652049472
0.0177592423712
0.000438466363746
0.0176418705507
0.000607315602364
0.0174869120158
0.000772462112626
0.0173158093753
0.000914761909801
0.0171387864956
0.00105201481039
0.0169289649921
0.00120368157041
0.0166599431474
0.00136002067422
0.0163374551599
0.00151807731852
0.0159767955906
0.00167331299005
0.0155853383159
0.00182270775526
0.0151775711507
0.00195493206219
0.0147404734847
0.00208605353612
0.0142674041579
0.00220659356664
0.0137652790056
0.00231557852587
0.013239473538
0.00240695367075
0.0126984369559
0.00247280993214
0.0121441216444
0.00252471595897
0.0115875068321
0.0025583346445
0.0110353287705
0.00257629741264
0.010479066035
0.00258005069512
0.00992224717326
0.00255350698484
0.00937036958392
0.00251240437377
0.00882977597034
0.00244988670421
0.00830573684699
0.00236748476132
0.0078013264499
0.00226922428528
0.00733126654178
0.00214686070965
0.00689606056009
0.00202540978467
0.00649624280347
0.00189379086918
0.00613820341074
0.00174728892875
0.00581818652373
0.00159628998138
0.00552364324741
0.00146140872528
0.00525855167866
0.00133331581138
0.00501476548418
0.00122715092258
0.00478327858648
0.0011414984643
0.00457642012768
0.00105959078719
0.00438814512301
0.00099806267926
0.0042097584067
0.000953021367416
0.00402867239522
0.00093416524432
0.00385329270909
0.000923598776319
0.00369720183758
0.000925946448511
0.0035391518303
0.000922937144148
0.00336868998465
0.00091140495229
0.00316114455658
0.000928200563175
0.00292347473983
0.000951233513509
0.00270021390473
0.000937518306821
0.00250383607303
0.000892316438127
0.00231735382786
0.000864103234072
0.00212426712412
0.000859102302273
0.00191735361873
0.000852064222947
0.00173721957141
0.000766959558378
0.00160087457731
0.000672800780236
0.00145604074746
0.000628819299606
0.00130221880326
0.000594156368972
0.00113758939462
0.000560273327869
0.00092955587289
0.000539244612451
0.000759501066779
0.000478866814772
0.000628467091231
0.000448878427089
0.000557927216801
0.000415538989787
0.000536418420544
0.000510754726259
0.000414761485654
0.000706974739219
0.000262730903333
0.000791733938465
0.000143079354472
0.00085471579953
0.000854514786805
0.0010102670478
-0.00559953528337
0.00207875600628
-0.00591534850433
0.00313889443169
-0.00586733750629
0.00418372644777
-0.00578379870279
0.00520587878137
-0.00566959804419
0.0062029201441
-0.0055311675567
0.00716887138428
-0.00536960123693
0.00809904192063
-0.00518668087595
0.008991381686
-0.00498518644414
0.00984297711674
-0.00476775564353
0.0106525001133
-0.00453839353422
0.011421375276
-0.00430597830558
0.0121427094695
-0.00406351130969
0.0128161358246
-0.00381070062251
0.0134453539768
-0.00355837759939
0.014030763002
-0.00330535542783
0.0145741799939
-0.00305412674394
0.0150732034953
-0.00280526443232
0.0155244185163
-0.00255814042802
0.0159319000739
-0.00231627376616
0.0163011631753
-0.00208064728274
0.0166373266255
-0.0018631340366
0.0169432946163
-0.00166232105534
0.0172158437022
-0.00146619902625
0.0174452393918
-0.00126129866364
0.0176313352122
-0.00105426476386
0.0177802721265
-0.000851489375185
0.0178958311349
-0.000649968302637
0.0179814858899
-0.000456923092426
0.0180445962947
-0.000269424886781
0.018074439539
-7.48669047887e-05
0.0180611471421
0.000124548467116
0.0180119840485
0.000325035044729
0.0179336325032
0.000522662132319
0.0178324301114
0.000712947891708
0.0177162899239
0.000891731325577
0.0175627564349
0.00107004506228
0.0173614282352
0.00125385445853
0.0171182835577
0.00144604106819
0.0168279639855
0.00164839368435
0.0165006271046
0.00184231018898
0.016151918505
0.00201783229887
0.0157679587005
0.00220142359196
0.0153341683886
0.00238244566402
0.0148683531215
0.0025446452819
0.0143824201263
0.00268437823423
0.0138818117485
0.00280713240065
0.0133575760671
0.00292130095111
0.0128030265659
0.00301668208867
0.0122294442708
0.00308684103387
0.0116521484501
0.00312347184235
0.011078177729
0.00313733655839
0.0105033598061
0.00314125044241
0.00993056952037
0.00311196845016
0.00937222194386
0.0030559278984
0.00883265925737
0.0029741151666
0.00830504606698
0.00287946062981
0.0078029472645
0.00275543966434
0.0073272656684
0.00260626615254
0.00692119593517
0.00241445132536
0.00658586764971
0.00221146443154
0.00626075053827
0.00205389388174
0.00596087918629
0.00187716240387
0.00566611961284
0.00173678785325
0.00538060696099
0.00159927801281
0.00513308861133
0.00145504504758
0.00490559104885
0.00134978025816
0.0046835548568
0.00126272358734
0.00448476754399
0.00117886934753
0.00431359247239
0.00110663333777
0.00415981153474
0.00107195641922
0.00401605215918
0.00105209050223
0.00387344291845
0.00105508181989
0.00369302280842
0.00109092988383
0.00345798093967
0.00113612619087
0.00323044095194
0.00114712976673
0.00301951307084
0.00115514750758
0.00279911062099
0.00115286107776
0.00255410450617
0.00113327869278
0.00230240288117
0.00111407241648
0.00210007942219
0.00105975280125
0.00193972851345
0.00101232636567
0.0017321618154
0.000974636840223
0.00154488445374
0.000861014464988
0.00138068166255
0.000794341197808
0.00120124706915
0.000775023484807
0.00105080495318
0.000713095328485
0.000931042140039
0.000661180507426
0.000774424675976
0.000637805329437
0.000611626704659
0.000613524879056
0.000453947460687
0.000574101171535
0.000401814119637
0.000563472694061
0.000380547347384
0.000729547543289
0.000244045495263
0.000929520058207
0.000129139687718
0.000971153431343
0.000984670968135
0.00103951621287
-0.00661059735378
0.00213771320654
-0.00698370190058
0.00322664166538
-0.00692611998197
0.00429822929018
-0.00682519890915
0.00534709898481
-0.00668819885505
0.00636711586752
-0.00652084221034
0.00735163083215
-0.00632372376367
0.00830018194617
-0.00610478406445
0.00920829042273
-0.00586286336152
0.010072511097
-0.00560156579018
0.0108952788011
-0.00533086172725
0.011671462407
-0.00505197834833
0.0123961582422
-0.00475830926001
0.0130776777064
-0.0044626211848
0.0137122862776
-0.00416384964571
0.0142966078769
-0.00386106755215
0.0148325487606
-0.00356214953439
0.0153216363099
-0.00326720519592
0.0157667153492
-0.00297695669476
0.0161684700894
-0.00269272707105
0.0165387720885
-0.00242666627905
0.0168793618022
-0.00218054201751
0.0171819495644
-0.00194291185139
0.0174392410518
-0.00170280901657
0.0176546514484
-0.00145739420001
0.0178357135226
-0.00121745545922
0.0179835998584
-0.00098295180033
0.0181088108957
-0.000760281972487
0.0182042788734
-0.000538998239734
0.0182581847003
-0.000311539634416
0.0182771823204
-8.35673090677e-05
0.0182650952548
0.000145380205981
0.0182303275301
0.00036710877884
0.0181663623509
0.000592463923316
0.018080194673
0.000803559008271
0.0179693959224
0.00100552914634
0.0178055416933
0.00123556460382
0.0175854610429
0.00147422178761
0.0173269727236
0.00170358593791
0.0170488346272
0.00192436407595
0.0167314257389
0.00215640038094
0.0163614490668
0.00238340652001
0.0159553946895
0.00260199433753
0.0155250939637
0.00280625956442
0.0150633130977
0.00299894488734
0.0145592335398
0.00318008901382
0.0140215249225
0.003335602001
0.0134607716369
0.00347201515015
0.012898342147
0.00356825828945
0.0123211251175
0.00365249514656
0.0117211259443
0.00371108163349
0.0111244604976
0.00372088558925
0.0105290734422
0.00372274688288
0.00994474481507
0.00368191936757
0.00936317420908
0.003622563429
0.00880925363112
0.00351298185832
0.00827480339458
0.00339860198006
0.0077976699956
0.00321678591963
0.00744027538488
0.0029469987436
0.007089119446
0.00274812531618
0.00674579785039
0.00253641447028
0.00639988788926
0.00238057517771
0.0060594010752
0.00219795033545
0.00575072125032
0.00202520111748
0.00547138258477
0.00185810184884
0.00518499269976
0.00172096341598
0.00492822543989
0.00158641562228
0.00470316519546
0.00146823168783
0.00450108159896
0.00136194416225
0.00430624794532
0.00128375075915
0.0041334897771
0.00122809759798
0.00398956296209
0.00118085278258
0.00384198331418
0.00118906260769
0.00367120735128
0.00124982323012
0.00346293466495
0.00133427639196
0.00324396330604
0.00135794072521
0.00303251478529
0.00136043224363
0.00280664100009
0.001374013606
0.00259669757068
0.00134083887953
0.00239159334932
0.00131760371958
0.00217273189024
0.00127823390729
0.00196296589483
0.00122238764298
0.00178597307414
0.00115248007302
0.00158435266763
0.00106423120968
0.00137714627924
0.00100273688662
0.0012054842185
0.000948892486694
0.00100559226176
0.000915113811242
0.000841265645323
0.000827944320268
0.000683253967566
0.000798339389691
0.000560926665876
0.000737916790932
0.000421089826521
0.000715751882395
0.000293701312161
0.000692024407262
0.000288306632708
0.000735423408864
0.000212473900824
0.00100697118425
0.000110874436138
0.00107429119715
0.00109580531759
0.00107378267942
-0.00765601997128
0.00220824604809
-0.00808820717644
0.00333221772275
-0.00802001965449
0.00443516623651
-0.00789793579457
0.00551350520239
-0.00773622694694
0.00655957645696
-0.00753649589425
0.00756990767372
-0.00730350243715
0.00854177727716
-0.00704601090824
0.00946906762957
-0.00675942221662
0.0103505070843
-0.00645227661438
0.0111849309238
-0.00613454222194
0.0119661537247
-0.00580259520793
0.0127009226787
-0.00546263652848
0.0133854289088
-0.00511700317928
0.0140156103365
-0.0047643053194
0.0145962498691
-0.00441253521104
0.0151277148617
-0.00406509950196
0.0156117931322
-0.00372354071894
0.0160507170932
-0.00338902031444
0.0164495356841
-0.00306563599838
0.0168174538023
-0.00276973018846
0.0171520470694
-0.00249139081532
0.0174418149843
-0.00221020476424
0.0176856477888
-0.001925501458
0.0178949734591
-0.00164702742133
0.0180719521588
-0.00137618176602
0.0182261517175
-0.00112044416335
0.0183495095158
-0.000868449881294
0.018434339629
-0.00061028808765
0.018487386933
-0.000352574649605
0.0185077912285
-9.36053460177e-05
0.018508199567
0.000153874896397
0.0184786389295
0.000403973439432
0.0184296750513
0.00064729185268
0.0183582626944
0.00087928887092
0.0182285728473
0.00113812128222
0.0180508703241
0.00141470981275
0.0178463258625
0.00167887647622
0.0176045583369
0.00194415365374
0.0173070156832
0.00221948757975
0.0169651109463
0.00249473826841
0.0165857075569
0.00275811197873
0.0161843103181
0.00299763336001
0.0157412936549
0.00324248399647
0.0152489383402
0.00348357371912
0.0147230640097
0.00369733521031
0.0141820709003
0.0038671356117
0.0136138985759
0.00402989296068
0.0130086824083
0.00416244680886
0.0124063415468
0.00424297678906
0.011792011419
0.00431274964502
0.0111694426774
0.00433002173529
0.0105468248246
0.00433137323899
0.00992949000436
0.00428473228188
0.00932740404334
0.00421004669035
0.00876277297716
0.00406275666965
0.00831288132017
0.00383311486991
0.00793444507086
0.00357904119437
0.00752234375879
0.0033422268626
0.00710164593016
0.00315113128348
0.00671693080593
0.00290262682843
0.00636553193273
0.00271256819856
0.00606454096005
0.0024787566596
0.0057748912869
0.00229390902436
0.0055269660022
0.00208464349659
0.00531206446988
0.0019142755362
0.00510567127644
0.00177147996537
0.00490550229145
0.00164738162886
0.00468812117579
0.00155939150927
0.00451534328071
0.00143756029
0.00433980779873
0.0013861750504
0.00414774681449
0.00135742907047
0.00398520963887
0.00133784265895
0.00381252469695
0.00141063499423
0.00362279122832
0.0015142040834
0.00336909332511
0.00160392698759
0.00309097607416
0.00163305159828
0.00283720617006
0.00162442188527
0.00256744087235
0.00160887652841
0.00229063173135
0.00159386084423
0.0020795527662
0.0014898095205
0.00185956836715
0.00144314366477
0.00166293137348
0.00135082346813
0.00149374658341
0.00123487343273
0.00132742441469
0.0011711812867
0.00117955975396
0.0010990026914
0.00101583840405
0.00108122467081
0.000809125758721
0.0010373734687
0.00063274015345
0.000977299243074
0.000453204913144
0.000919767693008
0.000365313893519
0.000805514187712
0.000256523961681
0.000802133313436
0.000192795357952
0.00080059940235
0.000189783413191
0.00101055879444
8.93324529545e-05
0.001175185443
0.00118560324668
0.00111409448382
-0.00874181503582
0.00229124554894
-0.00923565595779
0.00345589990125
-0.00915464352462
0.00459708364449
-0.00900897996576
0.00571194775577
-0.00882077148194
0.00679185113572
-0.00858590600279
0.00783173777033
-0.0083127203345
0.00882808578387
-0.00801149265961
0.00977595707461
-0.0076763136144
0.0106742971527
-0.00731950565312
0.0115210624865
-0.00695017916978
0.0123152104847
-0.00656560769635
0.0130559065275
-0.00617236380748
0.0137382902076
-0.00576864193644
0.0143670053721
-0.00536269362839
0.0149435541137
-0.00495924541096
0.0154691515875
-0.00456152532723
0.0159457482964
-0.00417171056086
0.0163745754077
-0.00379030719493
0.0167684439851
-0.0034329413529
0.0171308648018
-0.00310662130371
0.0174515748157
-0.00278777332557
0.0177278827197
-0.00246347588392
0.0179642593587
-0.002140259261
0.0181674027735
-0.00183000152772
0.0183482394718
-0.00153837570181
0.0184984248194
-0.00125352783171
0.0186095267278
-0.000964110274399
0.0186927244232
-0.000679647102167
0.0187473359949
-0.000395055797279
0.0187788240907
-0.000114489279157
0.018784238492
0.000157371367106
0.018773346723
0.000422267989113
0.018739092474
0.000687290965365
0.018648666517
0.000973956053141
0.0185086964204
0.00128077868292
0.0183447031165
0.00157995930187
0.018140180516
0.00188325065025
0.0178839668801
0.00219890105472
0.0175865643328
0.00251418517693
0.0172571372353
0.0028202695259
0.0168866539358
0.00312356028535
0.0164571503242
0.00342100959341
0.0159868778626
0.00370562887637
0.0154890354722
0.00397333838746
0.014956518698
0.00422091328021
0.0143724494804
0.00444140408218
0.0137766367838
0.00461513717184
0.0131556698745
0.00477198924095
0.0125198731721
0.00486653920617
0.0118759493106
0.00494363294932
0.0112161487237
0.00497616151824
0.0105655228951
0.00496786529985
0.00991654297386
0.00491943926296
0.00932814468651
0.0047838582832
0.00887102901458
0.00450472538868
0.00840683386253
0.00428158202264
0.00790871861828
0.00406106978758
0.00744285469409
0.00379132071564
0.00700924201951
0.00356742716343
0.00662511167368
0.00326853734265
0.00628737068063
0.00303083842042
0.00599816876929
0.00274752986066
0.00577873261214
0.0024916087198
0.00557766722293
0.002263349449
0.00540000977996
0.00206929394175
0.00523148960388
0.00191725916508
0.00507056992648
0.00178637304728
0.00492279609605
0.00168568836585
0.00472585557135
0.0016143331083
0.00456934876348
0.00152459930442
0.00440732043477
0.00150298416299
0.00420967658596
0.0015214375374
0.00399327390024
0.00161577415811
0.00377487931177
0.0017225649193
0.0035163852288
0.00185614279738
0.00318574172496
0.00195875057772
0.00288510543633
0.00192289166599
0.00260478034598
0.00188811544148
0.00231027735455
0.00188855263029
0.0020366470087
0.0017639423674
0.00183112582657
0.00165006730821
0.00159991124304
0.00158362951865
0.00138050683259
0.0014564595006
0.00119319867664
0.00136099015449
0.00101256495583
0.00128199541463
0.000872321038131
0.00122412923334
0.000731896385113
0.00118031474574