/*--------------------------------*- C++ -*----------------------------------*\
| =========                 |                                                 |
| \\      /  F ield         | OpenFOAM: The Open Source CFD Toolbox           |
|  \\    /   O peration     | Version:  v1906                                 |
|   \\  /    A nd           | Web:      www.OpenFOAM.com                      |
|    \\/     M anipulation  |                                                 |
\*---------------------------------------------------------------------------*/
FoamFile
{
    version     2.0;
    format      ascii;
    class       volVectorField;
    location    "900";
    object      U;
}
// * * * * * * * * * * * * * * * * * * * * * * * * * * * * * * * * * * * * * //

dimensions      [0 1 -1 0 0 0 0];


internalField   nonuniform List<vector> 
9216
(
(0.00156749803727 -0.00156906678218 0)
(0.00160753566876 -0.00488984378346 6.54876390807e-28)
(0.0015962219304 -0.00821880633849 1.08866818426e-31)
(0.00157308056671 -0.0115277888797 0)
(0.00154198051134 -0.0147781091414 0)
(0.00150369530277 -0.0179558000784 0)
(0.00145911449151 -0.0210468087653 0)
(0.0014089898444 -0.0240388282707 0)
(0.00135416178062 -0.0269211579781 0)
(0.00129536679714 -0.0296847849567 0)
(0.00123342865996 -0.032322288089 0)
(0.00116901021825 -0.0348278437828 0)
(0.00110285142844 -0.0371970526111 0)
(0.00103548178754 -0.0394268855109 0)
(0.000967514045418 -0.0415154606044 0)
(0.000899316198458 -0.0434619653313 0)
(0.00083136256296 -0.0452664168551 0)
(0.000763860204068 -0.0469295896985 0)
(0.000697156903442 -0.0484527846927 0)
(0.000631316865883 -0.0498377811075 0)
(0.000566585882598 -0.051086626518 0)
(0.00050291129293 -0.0522016203565 0)
(0.000440464707829 -0.0531851291946 0)
(0.000379102950063 -0.054039602513 0)
(0.000318950160681 -0.0547674115517 0)
(0.000259796901325 -0.0553708932725 0)
(0.000201743086892 -0.0558522108962 0)
(0.000144534136846 -0.056213423076 0)
(8.82670865416e-05 -0.056456363775 0)
(3.2662920497e-05 -0.0565827325169 0)
(-2.21645868364e-05 -0.0565939989049 0)
(-7.6502518605e-05 -0.0564915093081 0)
(-0.000130199833799 -0.056276402375 0)
(-0.000183523604783 -0.0559497577973 0)
(-0.000236262777794 -0.0555125353535 0)
(-0.000288646887816 -0.0549657303925 0)
(-0.000340386157742 -0.0543103446602 0)
(-0.000391653360308 -0.0535475535827 0)
(-0.000442067972453 -0.0526786977754 0)
(-0.000491738501801 -0.0517054510249 0)
(-0.000540196403677 -0.0506298180554 0)
(-0.000587495753403 -0.0494542802102 0)
(-0.000633104343948 -0.0481817817199 0)
(-0.000677052536919 -0.046815828838 0)
(-0.000718786497956 -0.0453604471059 0)
(-0.000758352872649 -0.0438202179616 0)
(-0.000795217140022 -0.042200212999 0)
(-0.000829462538847 -0.0405059857608 0)
(-0.00086057385986 -0.0387435273989 0)
(-0.000888627763502 -0.0369192756901 0)
(-0.000913050811119 -0.035040180993 0)
(-0.000933788906 -0.0331138204604 0)
(-0.00095007318401 -0.0311486425788 0)
(-0.000961591510163 -0.0291541952954 0)
(-0.000967336303153 -0.0271414561787 0)
(-0.000966829870875 -0.0251229470997 0)
(-0.000959114497395 -0.0231127811954 0)
(-0.000943998137037 -0.021126261113 0)
(-0.000921068350228 -0.0191793819634 0)
(-0.000890701151821 -0.0172881055509 0)
(-0.000853011204705 -0.0154679065903 0)
(-0.000808682427037 -0.0137333670183 0)
(-0.000758138270749 -0.0120979848023 0)
(-0.000702376536072 -0.010573831931 0)
(-0.000642730979225 -0.0091707012751 0)
(-0.000581637079505 -0.00789427458283 0)
(-0.000521113802104 -0.00674536192878 0)
(-0.000462775264619 -0.00572077318669 0)
(-0.000407060950257 -0.00481527570142 0)
(-0.000354566179788 -0.00402267629811 0)
(-0.000305584944906 -0.00333597531963 0)
(-0.000260775158258 -0.00274711141562 0)
(-0.000220252809512 -0.00224721483355 0)
(-0.000184142672607 -0.001827126884 0)
(-0.000151980611247 -0.0014781397003 0)
(-0.000123644896653 -0.00119221349899 0)
(-9.90081801908e-05 -0.000961576620557 0)
(-7.8399937045e-05 -0.000778095147398 0)
(-6.15733230287e-05 -0.00063350337417 0)
(-4.8188997206e-05 -0.000520154766181 0)
(-3.74518356961e-05 -0.000431713856279 0)
(-2.89310690854e-05 -0.000363136987152 0)
(-2.20729016295e-05 -0.000310414422697 0)
(-1.65142734656e-05 -0.000270647923633 0)
(-1.14145932911e-05 -0.000238108920536 0)
(-9.00806741701e-06 -0.000219405489071 0)
(-7.93971061425e-06 -0.000201670176126 0)
(-6.48327212661e-06 -0.000186943742952 0)
(-6.48385282859e-06 -0.000175161330296 0)
(-7.39047069079e-06 -0.000160866617958 0)
(-7.74961987522e-06 -0.000145948382888 0)
(-8.5005090988e-06 -0.000128778186238 0)
(-1.05726191783e-05 -0.000108363685795 0)
(-1.28552759256e-05 -8.40950106298e-05 0)
(-1.52658874752e-05 -5.27220908919e-05 0)
(-1.70472543361e-05 -1.68268126392e-05 0)
(0.0049013722137 -0.00162557939181 0)
(0.00516411619711 -0.00520422036422 0)
(0.00512490321668 -0.0087515626478 -6.73387795398e-28)
(0.00504894491856 -0.0122799942481 0)
(0.00494793246163 -0.0157425129759 0)
(0.00482436616911 -0.0191260071886 0)
(0.00468068201648 -0.0224158542335 0)
(0.00451928923042 -0.0255990411696 0)
(0.00434279311705 -0.0286642402144 0)
(0.00415365839654 -0.0316019138652 0)
(0.00395444102388 -0.0344042731887 0)
(0.00374739090118 -0.0370652341062 0)
(0.00353476897182 -0.0395802753571 0)
(0.00331841035741 -0.0419463222588 0)
(0.00310013888963 -0.0441615528986 0)
(0.00288128700036 -0.046225254654 0)
(0.00266320620798 -0.0481376183905 0)
(0.00244673165073 -0.0498996013816 0)
(0.002232782736 -0.0515127360241 0)
(0.00202175938869 -0.0529790185197 0)
(0.00181422832062 -0.054300745032 0)
(0.00161023998679 -0.055480433394 0)
(0.0014100981821 -0.0565206896221 0)
(0.00121359057635 -0.0574241619721 0)
(0.00102084267175 -0.0581934353157 0)
(0.00083145748269 -0.0588310136559 0)
(0.000645456202889 -0.0593392385704 0)
(0.000462325558202 -0.0597202961083 0)
(0.000282048902787 -0.0599761564629 0)
(0.000104060898815 -0.0601086034287 0)
(-7.16293137054e-05 -0.0601191922632 0)
(-0.000245577269867 -0.0600093064376 0)
(-0.000417681565314 -0.0597801469601 0)
(-0.000588413781516 -0.0594327951355 0)
(-0.000757509450783 -0.0589682280533 0)
(-0.000925289062908 -0.0583874169481 0)
(-0.0010912605153 -0.0576913627673 0)
(-0.00125553374954 -0.056881214831 0)
(-0.00141734681355 -0.0559583253285 0)
(-0.00157657456025 -0.0549243749213 0)
(-0.00173219082734 -0.0537814304652 0)
(-0.0018838695328 -0.0525320548876 0)
(-0.00203039534911 -0.0511793439973 0)
(-0.00217134526746 -0.0497269923076 0)
(-0.00230545142015 -0.0481792848091 0)
(-0.00243233487776 -0.0465410995745 0)
(-0.00255081101837 -0.044817852184 0)
(-0.00266062588851 -0.0430154510565 0)
(-0.00276068306293 -0.0411402402764 0)
(-0.0028507273068 -0.0391989824157 0)
(-0.00292948970859 -0.0371989055621 0)
(-0.00299630192323 -0.0351478335014 0)
(-0.0030492366418 -0.0330544470306 0)
(-0.00308675364617 -0.030928613844 0)
(-0.00310605790942 -0.0287817961972 0)
(-0.00310499970895 -0.0266273242063 0)
(-0.00308086743866 -0.0244804670843 0)
(-0.00303248446951 -0.022358030943 0)
(-0.00295901976324 -0.0202775816465 0)
(-0.002861267703 -0.0182566045425 0)
(-0.00274013849455 -0.0163118379228 0)
(-0.002597326683 -0.0144590722117 0)
(-0.00243456126052 -0.0127129638261 0)
(-0.00225419554134 -0.0110872915467 0)
(-0.00206096932274 -0.00959396531968 0)
(-0.00186293714438 -0.00823973963594 0)
(-0.00166762053346 -0.00702460590903 0)
(-0.00147984629888 -0.00594350319403 0)
(-0.0013009404326 -0.00498978312627 0)
(-0.00113219861576 -0.00415670424647 0)
(-0.000974900762665 -0.00343690256963 0)
(-0.000831008366395 -0.00282164099158 0)
(-0.000701284608086 -0.00230095240321 0)
(-0.000585775184773 -0.00186451673573 0)
(-0.000483032791998 -0.00150284829007 0)
(-0.000392174131029 -0.0012077819465 0)
(-0.000313190997889 -0.000971548192496 0)
(-0.000247225683834 -0.000785388576517 0)
(-0.000193849539129 -0.000639826660978 0)
(-0.000151557124418 -0.000526171950788 0)
(-0.000117807259854 -0.000437609182826 0)
(-9.09425936485e-05 -0.000369042418972 0)
(-6.95559015652e-05 -0.000316342853597 0)
(-5.27085258589e-05 -0.000276003910292 0)
(-3.89175741014e-05 -0.000243755163259 0)
(-2.97857122739e-05 -0.000214841939443 0)
(-2.3899449405e-05 -0.000197547679972 0)
(-1.93267522482e-05 -0.000183953483929 0)
(-1.88541554429e-05 -0.000170214795713 0)
(-2.11121591666e-05 -0.000159487783588 0)
(-2.3097772451e-05 -0.000147446602976 0)
(-2.65850686653e-05 -0.000129463647947 0)
(-3.2043487907e-05 -0.000108300251616 0)
(-4.26441335581e-05 -8.7503757823e-05 0)
(-5.51561948195e-05 -5.66779237832e-05 0)
(-5.14170066053e-05 -1.54229584176e-05 0)
(0.00829461500149 -0.00164684661822 0)
(0.0087437212541 -0.00526937533097 0)
(0.0086697926266 -0.00885342086841 -6.7243632558e-28)
(0.00853801028296 -0.0124210599297 0)
(0.00836486863848 -0.0159206156111 0)
(0.00815391129448 -0.0193383131822 0)
(0.00790896157493 -0.0226590852744 0)
(0.00763414989293 -0.0258696849334 0)
(0.00733383672058 -0.0289586927319 0)
(0.00701234662808 -0.0319165860455 0)
(0.00667394728474 -0.0347356999709 0)
(0.00632260510804 -0.0374101459128 0)
(0.00596204052313 -0.0399356691355 0)
(0.00559551204572 -0.0423094917714 0)
(0.00522595090298 -0.044530121219 0)
(0.00485576603778 -0.0465971689845 0)
(0.00448704740906 -0.0485111539029 0)
(0.00412137461895 -0.0502733325868 0)
(0.00376007321207 -0.0518855247626 0)
(0.00340400878124 -0.0533499742423 0)
(0.00305388285593 -0.0546692076017 0)
(0.00270999866605 -0.0558459307964 0)
(0.00237258857293 -0.0568829220148 0)
(0.00204154359652 -0.0577829614566 0)
(0.00171676974665 -0.0585487536824 0)
(0.0013978783558 -0.0591828849946 0)
(0.0010845724908 -0.0596877702655 0)
(0.000776298566267 -0.0600656333881 0)
(0.000472666040735 -0.0603184749321 0)
(0.000173062156714 -0.0604480731814 0)
(-0.000122890887863 -0.0604559737334 0)
(-0.000415755574852 -0.0603435109835 0)
(-0.000705784315067 -0.0601118186168 0)
(-0.000993373558531 -0.0597618794234 0)
(-0.00127853039439 -0.0592945615123 0)
(-0.00156136256778 -0.0587106928773 0)
(-0.00184151545506 -0.0580111264039 0)
(-0.00211870471162 -0.0571968390138 0)
(-0.00239213415659 -0.0562690187872 0)
(-0.00266108087193 -0.0552291776658 0)
(-0.00292430874309 -0.0540792432516 0)
(-0.00318071412252 -0.0528216605935 0)
(-0.00342874570793 -0.0514594594115 0)
(-0.00366710664271 -0.0499963104939 0)
(-0.00389417435042 -0.0484365333501 0)
(-0.00410872859591 -0.0467850770163 0)
(-0.00430933463523 -0.0450474529088 0)
(-0.00449503147923 -0.043229647384 0)
(-0.00466461310238 -0.0413380213388 0)
(-0.00481719453823 -0.0393792384081 0)
(-0.00495134083842 -0.0373602644011 0)
(-0.00506549074731 -0.0352884852 0)
(-0.00515701582711 -0.0331719970392 0)
(-0.00522270045504 -0.0310200691353 0)
(-0.00525811404948 -0.0288437475107 0)
(-0.00525865809393 -0.0266564153293 0)
(-0.00521977225918 -0.0244740377981 0)
(-0.00513863909019 -0.0223147555055 0)
(-0.00501448801257 -0.0201975340908 0)
(-0.00484833404533 -0.0181410742618 0)
(-0.00464269003985 -0.0161627143514 0)
(-0.00439962173928 -0.0142787645521 0)
(-0.00412261580263 -0.0125042246531 0)
(-0.00381294748225 -0.0108549424335 0)
(-0.00347929187879 -0.00934704219101 0)
(-0.00313736816609 -0.00798935301119 0)
(-0.00280324637383 -0.00677949731092 0)
(-0.00248444202848 -0.00570786679715 0)
(-0.00218157716875 -0.00476535059748 0)
(-0.00189538664829 -0.00394531620893 0)
(-0.00162861962491 -0.00324099273913 0)
(-0.00138499022256 -0.00264330036509 0)
(-0.00116658323378 -0.00214089874762 0)
(-0.000972931057628 -0.00172184747672 0)
(-0.000800871007699 -0.00137597085272 0)
(-0.000647577477489 -0.00109617671498 0)
(-0.000513835747438 -0.000876240788423 0)
(-0.000402877191189 -0.000707098302494 0)
(-0.000314701048093 -0.000577310377739 0)
(-0.000245738860941 -0.000476635363513 0)
(-0.000190949367847 -0.000398191982 0)
(-0.000147071588482 -0.000337761938857 0)
(-0.000112436319389 -0.000291807740942 0)
(-8.55646897147e-05 -0.000257141614205 0)
(-6.54108775247e-05 -0.000229585099646 0)
(-5.0717936666e-05 -0.00020551131348 0)
(-4.08906179229e-05 -0.000194456464808 0)
(-3.31655859174e-05 -0.000176169391147 0)
(-2.94926142742e-05 -0.000160688643902 0)
(-3.14993742312e-05 -0.000152575874463 0)
(-3.92700010157e-05 -0.000145993184524 0)
(-4.46375693709e-05 -0.00012125396926 0)
(-5.56660368223e-05 -0.000103031573242 0)
(-7.06942521863e-05 -7.69842707262e-05 0)
(-8.43881109524e-05 -4.69311445739e-05 0)
(-8.42994701999e-05 -1.43603344062e-05 0)
(0.0117531882371 -0.00167313193208 0)
(0.0123944770004 -0.00535166744443 0)
(0.012287794128 -0.00898816007792 6.72346951414e-28)
(0.0120981267365 -0.0126070302805 0)
(0.0118492345214 -0.0161543738858 0)
(0.0115464165152 -0.0196156243589 0)
(0.0111952296589 -0.0229751219368 0)
(0.0108017224184 -0.0262192805248 0)
(0.0103722117314 -0.0293365577477 0)
(0.00991301068135 -0.0323174919645 0)
(0.00943025543132 -0.0351546386597 0)
(0.00892969936429 -0.0378424501883 0)
(0.00841662954807 -0.0403771052496 0)
(0.00789573791374 -0.0427563128708 0)
(0.0073711259403 -0.0449790975558 0)
(0.00684623948021 -0.0470455866436 0)
(0.00632394103351 -0.0489568007584 0)
(0.00580648205896 -0.0507144632372 0)
(0.00529561644523 -0.0523208232883 0)
(0.00479258451118 -0.0537785046218 0)
(0.00429824604971 -0.0550903699254 0)
(0.00381305757619 -0.0562594106169 0)
(0.00333721200368 -0.0572886496376 0)
(0.00287059979912 -0.0581810662431 0)
(0.00241295068672 -0.0589395296739 0)
(0.00196377639722 -0.0595667512725 0)
(0.00152251546082 -0.0600652417898 0)
(0.00108845993272 -0.0604372847271 0)
(0.000660907528339 -0.0606849130605 0)
(0.000239076472963 -0.0608099010627 0)
(-0.000177729736737 -0.0608137622142 0)
(-0.000590215774372 -0.0606977592411 0)
(-0.000998914318157 -0.0604629213535 0)
(-0.00140428605572 -0.0601100864893 0)
(-0.00180652541377 -0.0596399448314 0)
(-0.00220567036717 -0.0590531077255 0)
(-0.00260140223563 -0.058350185888 0)
(-0.00299317690069 -0.0575318892509 0)
(-0.00338003373495 -0.0565991339057 0)
(-0.003760765663 -0.0555531636945 0)
(-0.00413375768819 -0.0543956684468 0)
(-0.0044972140936 -0.0531289005464 0)
(-0.00484904215913 -0.0517557680424 0)
(-0.00518713996461 -0.0502799007571 0)
(-0.00550931567602 -0.0487056677631 0)
(-0.00581360143657 -0.0470381435796 0)
(-0.00609814981091 -0.0452830124304 0)
(-0.00636148114753 -0.0434464218895 0)
(-0.00660224150611 -0.0415348031418 0)
(-0.00681924876956 -0.0395547019063 0)
(-0.00701099312464 -0.0375126827918 0)
(-0.00717540990905 -0.0354153902564 0)
(-0.00730917718207 -0.0332698662862 0)
(-0.00740747801555 -0.0310841942705 0)
(-0.00746368353475 -0.0288684738756 0)
(-0.00747006605303 -0.0266359289582 0)
(-0.00741907679232 -0.024403636107 0)
(-0.00730566484678 -0.0221922200352 0)
(-0.00712950395292 -0.0200231091359 0)
(-0.00689207941819 -0.0179171021733 0)
(-0.00659896837498 -0.0158920171926 0)
(-0.00625159115676 -0.0139646456131 0)
(-0.0058568121869 -0.0121488789013 0)
(-0.00540807793664 -0.0104637070729 0)
(-0.00491825447788 -0.00893550330974 0)
(-0.00441651109771 -0.00757842829675 0)
(-0.00393495483902 -0.00638427089123 0)
(-0.00348229275731 -0.00533251537554 0)
(-0.0030532346342 -0.00440972204957 0)
(-0.00264587605625 -0.00361126460526 0)
(-0.00226539829955 -0.0029327450289 0)
(-0.00191921230442 -0.00236474678718 0)
(-0.00161179982657 -0.00189310444805 0)
(-0.00134191884949 -0.00150223349669 0)
(-0.00110234929019 -0.00118027419078 0)
(-0.00088557942298 -0.000922994700717 0)
(-0.000694211563591 -0.0007286679734 0)
(-0.000537861054156 -0.000587733982705 0)
(-0.000417762199446 -0.000483900587298 0)
(-0.000326402694154 -0.000403422308143 0)
(-0.000253667609959 -0.000339779514958 0)
(-0.00019443775562 -0.000291239012714 0)
(-0.000147912984573 -0.000255445453674 0)
(-0.000112026490652 -0.000229470325258 0)
(-8.54462082712e-05 -0.000208052586969 0)
(-6.73899527527e-05 -0.000193296240832 0)
(-5.46900076875e-05 -0.000182130450477 0)
(-4.58243292731e-05 -0.000166779769136 0)
(-4.27062845e-05 -0.000157759421 0)
(-4.2860557994e-05 -0.000142368882316 0)
(-5.09757204905e-05 -0.000128313001942 0)
(-6.71569516475e-05 -0.000118120795417 0)
(-7.821678281e-05 -8.97692855805e-05 0)
(-9.59106654118e-05 -6.47528614622e-05 0)
(-0.000112995323121 -3.99721767333e-05 0)
(-0.000115268768289 -1.30039350434e-05 0)
(0.0152736714019 -0.00170831526819 0)
(0.016106937829 -0.00546283948033 0)
(0.0159652669293 -0.00917214624795 0)
(0.0157141479058 -0.0128609376784 0)
(0.0153848887128 -0.0164731899018 0)
(0.0149847890841 -0.0199933437513 0)
(0.0145214338008 -0.0234049802294 0)
(0.014003043464 -0.0266940735716 0)
(0.0134381432726 -0.0298489385868 0)
(0.012835225654 -0.0328602328895 0)
(0.0122024772466 -0.0357208508747 0)
(0.0115475451493 -0.0384257527137 0)
(0.010877384972 -0.0409717449017 0)
(0.0101981461307 -0.0433572349955 0)
(0.00951513487966 -0.0455819763989 0)
(0.00883279574399 -0.0476468195606 0)
(0.00815475607598 -0.0495534777449 0)
(0.00748386476588 -0.0513043162289 0)
(0.00682227938765 -0.0529021659857 0)
(0.00617152616756 -0.0543501650314 0)
(0.00553259944229 -0.055651623891 0)
(0.00490601893177 -0.0568099155353 0)
(0.00429192455455 -0.057828384361 0)
(0.00369011994844 -0.0587102738981 0)
(0.00310015715501 -0.0594586675991 0)
(0.00252136500693 -0.0600764430938 0)
(0.00195292588705 -0.0605662350704 0)
(0.00139389333341 -0.0609304083528 0)
(0.000843266989402 -0.0611710374557 0)
(0.000300006216753 -0.061289894917 0)
(-0.000236889253704 -0.0612884504072 0)
(-0.000768364166036 -0.0611678745059 0)
(-0.00129521642387 -0.0609290558911 0)
(-0.00181807657858 -0.0605726393125 0)
(-0.00233730724209 -0.0600990702212 0)
(-0.00285298156746 -0.0595086635618 0)
(-0.00336478252139 -0.058801690177 0)
(-0.00387199566747 -0.0579784851117 0)
(-0.0043734288359 -0.057039573554 0)
(-0.00486744506419 -0.055985813177 0)
(-0.0053519327545 -0.054818543039 0)
(-0.00582440936225 -0.0535397306135 0)
(-0.00628206905924 -0.0521520995625 0)
(-0.00672197240044 -0.0506592217689 0)
(-0.00714116716672 -0.0490655510067 0)
(-0.00753692840837 -0.0473763809829 0)
(-0.00790687635262 -0.0455977115763 0)
(-0.00824914019843 -0.0437360229695 0)
(-0.00856229788889 -0.0417979739019 0)
(-0.00884524753668 -0.0397900725218 0)
(-0.00909673950987 -0.0377184024559 0)
(-0.00931476283679 -0.0355885379148 0)
(-0.0094956095469 -0.0334058233147 0)
(-0.00963300547964 -0.0311762215016 0)
(-0.00971748188915 -0.0289078683083 0)
(-0.00973684938308 -0.0266132276729 0)
(-0.00967849768553 -0.0243109423123 0)
(-0.00953351927902 -0.0220263760962 0)
(-0.00930375205142 -0.0197850321688 0)
(-0.00899061008887 -0.0176115152122 0)
(-0.00860762646041 -0.0155231000002 0)
(-0.00815119141458 -0.013537384007 0)
(-0.00764090441956 -0.0116613945446 0)
(-0.00704052583394 -0.00991698067652 0)
(-0.00636771514698 -0.00835599146148 0)
(-0.0056778086121 -0.00700649749505 0)
(-0.00503948420345 -0.00584565746591 0)
(-0.00445557235199 -0.0048264662435 0)
(-0.0039012911971 -0.00392920181777 0)
(-0.00336828199494 -0.00315770285261 0)
(-0.00286766623449 -0.00251451333422 0)
(-0.00241509677956 -0.00198985339148 0)
(-0.00201992296487 -0.00156372916751 0)
(-0.00168004214258 -0.0012124978465 0)
(-0.00137914602474 -0.000919713588745 0)
(-0.00109720136425 -0.000688106203461 0)
(-0.000840828912485 -0.000528577351401 0)
(-0.000637838549388 -0.000430693772592 0)
(-0.000492312535312 -0.000365888783743 0)
(-0.000387554617482 -0.000312571210861 0)
(-0.000302171413005 -0.000266252541978 0)
(-0.000229115572278 -0.000232028845707 0)
(-0.0001726227218 -0.000209411319581 0)
(-0.000129398413433 -0.000194568050607 0)
(-9.70542201224e-05 -0.000181078088464 0)
(-7.90889794439e-05 -0.00017796050231 0)
(-6.68665392191e-05 -0.000171339610212 0)
(-5.86200888094e-05 -0.00016049688659 0)
(-5.35189534834e-05 -0.000143797272513 0)
(-5.63749042202e-05 -0.000134449354602 0)
(-6.39427825417e-05 -0.000117031744047 0)
(-8.40703465337e-05 -0.00010563622457 0)
(-0.000107599091895 -8.7000362633e-05 0)
(-0.000120931710236 -5.82540592023e-05 0)
(-0.00013470320552 -3.48807154347e-05 0)
(-0.000137486738213 -1.14996885725e-05 0)
(0.0188773591687 -0.00175336158354 0)
(0.019905081382 -0.00560587033753 0)
(0.0197250251083 -0.00940943219393 0)
(0.0194073363986 -0.0131882873312 0)
(0.0189912453331 -0.0168837865551 0)
(0.0184863716102 -0.0204791137423 0)
(0.0179026929596 -0.0239569067122 0)
(0.0172509551801 -0.0273026154189 0)
(0.0165422227597 -0.030504424941 0)
(0.015787442773 -0.0335532121614 0)
(0.0149970808707 -0.0364423778843 0)
(0.014180835089 -0.0391676054814 0)
(0.0133474400298 -0.0417265713302 0)
(0.0125045470875 -0.0441186338058 0)
(0.0116586813828 -0.0463445223023 0)
(0.0108152502915 -0.0484060430562 0)
(0.00997860167874 -0.0503058123295 0)
(0.00915210412966 -0.0520470232366 0)
(0.00833825158408 -0.0536332476557 0)
(0.00753876658642 -0.0550682725352 0)
(0.00675471161299 -0.0563559670765 0)
(0.00598658535352 -0.0575001771182 0)
(0.00523442032017 -0.0585046416913 0)
(0.00449786010479 -0.0593729279317 0)
(0.00377623821106 -0.0601083798923 0)
(0.00306863651564 -0.0607140785775 0)
(0.00237394962746 -0.0611928100393 0)
(0.00169093165883 -0.061547040521 0)
(0.00101825512309 -0.0617788971758 0)
(0.000354555895293 -0.0618901541166 0)
(-0.000301502834801 -0.0618822297418 0)
(-0.000951178888494 -0.0617561837757 0)
(-0.00159557430753 -0.0615127310005 0)
(-0.00223557051348 -0.0611522742382 0)
(-0.00287173881263 -0.0606749462769 0)
(-0.00350426682166 -0.0600806788188 0)
(-0.0041328662479 -0.0593692949902 0)
(-0.00475670925029 -0.0585406295885 0)
(-0.00537436026549 -0.0575946761773 0)
(-0.00598375768438 -0.0565317591732 0)
(-0.00658221275255 -0.0553527228201 0)
(-0.00716648404309 -0.0540591252747 0)
(-0.00773288959099 -0.0526534176809 0)
(-0.00827750950845 -0.0511390834735 0)
(-0.00879642371685 -0.0495207062148 0)
(-0.00928601465592 -0.0478039328758 0)
(-0.00974324408966 -0.0459953018248 0)
(-0.0101658950011 -0.0441019183614 0)
(-0.0105526432062 -0.0421309825847 0)
(-0.0109029102214 -0.0400892126568 0)
(-0.0112163372206 -0.037982264111 0)
(-0.0114918371709 -0.0358143230975 0)
(-0.0117261367862 -0.0335881684378 0)
(-0.0119119885652 -0.0313061227864 0)
(-0.012036487567 -0.0289723705843 0)
(-0.0120806939818 -0.0265969940749 0)
(-0.0120229374038 -0.0242003516816 0)
(-0.0118459190715 -0.0218175157476 0)
(-0.0115599162162 -0.019480237727 0)
(-0.0111611977746 -0.0172210101649 0)
(-0.010687513045 -0.0150526292125 0)
(-0.0101113338545 -0.0129979497578 0)
(-0.00950696756365 -0.0110382338895 0)
(-0.00873851216339 -0.00919053060603 0)
(-0.0078321840114 -0.00757279249133 0)
(-0.00689651021747 -0.0062501932208 0)
(-0.00609655064587 -0.00516198619249 0)
(-0.00539958686774 -0.00419422721451 0)
(-0.00472667112177 -0.00332230594351 0)
(-0.00405848112706 -0.00257749647731 0)
(-0.00342359641928 -0.00197941052256 0)
(-0.0028559987425 -0.00151685969661 0)
(-0.00237488050369 -0.0011579225788 0)
(-0.00197880321651 -0.000861355416328 0)
(-0.00163239471674 -0.00059736833156 0)
(-0.00128086975399 -0.000384652725833 0)
(-0.000938054336906 -0.000269297656043 0)
(-0.000683744260886 -0.000239214048753 0)
(-0.000526687210291 -0.00023361440386 0)
(-0.000427123835544 -0.000213280196661 0)
(-0.000336815043738 -0.0001813407292 0)
(-0.000248034660665 -0.000161690584387 0)
(-0.000183989679947 -0.000155720928239 0)
(-0.00013594477471 -0.00015366545152 0)
(-0.000100091796115 -0.000150842073181 0)
(-8.23847539882e-05 -0.000155453941268 0)
(-6.99223925575e-05 -0.000151590152903 0)
(-6.64286274033e-05 -0.000149651346081 0)
(-6.70971299514e-05 -0.000143470303633 0)
(-7.3577494107e-05 -0.000134419212085 0)
(-7.96625455628e-05 -0.000111316119322 0)
(-9.74851193589e-05 -9.3893439548e-05 0)
(-0.00012789947322 -8.10385271354e-05 0)
(-0.000146700310035 -5.76722603343e-05 0)
(-0.000157299588136 -3.38242166763e-05 0)
(-0.000161014950011 -1.12364413986e-05 0)
(0.0225859720519 -0.00180943918491 0)
(0.0238117639965 -0.00578406469788 0)
(0.0235887136643 -0.0097050741564 6.67581335611e-28)
(0.0231975980467 -0.0135957792653 0)
(0.0226860981756 -0.0173941900924 0)
(0.0220665943229 -0.0210819008948 0)
(0.0213519375924 -0.0246404007277 0)
(0.0205558705974 -0.0280545480164 0)
(0.0196924285412 -0.0313124554263 0)
(0.0187753753179 -0.0344053793861 0)
(0.0178177402081 -0.0373274633302 0)
(0.0168314696577 -0.0400753984777 0)
(0.0158271978781 -0.0426480379644 0)
(0.0148141248346 -0.0450459988253 0)
(0.0137999875453 -0.0472712784807 0)
(0.0127911018907 -0.0493269046319 0)
(0.0117924569802 -0.0512166293328 0)
(0.0108078397972 -0.0529446717842 0)
(0.00983997726077 -0.0545155089997 0)
(0.008890679567 -0.055933710458 0)
(0.00796097980131 -0.0572038105402 0)
(0.0070512601635 -0.0583302121808 0)
(0.00616136643523 -0.0593171148756 0)
(0.00529070532963 -0.0601684611636 0)
(0.00443833066317 -0.0608878962135 0)
(0.0036030150356 -0.0614787365503 0)
(0.00278331542799 -0.0619439446276 0)
(0.00197762995417 -0.062286107365 0)
(0.00118425562065 -0.0625074175095 0)
(0.000401443976016 -0.0626096568549 0)
(-0.000372534399267 -0.0625941897705 0)
(-0.00113932290968 -0.0624619509465 0)
(-0.00190039630176 -0.0622134527054 0)
(-0.00265697201028 -0.0618488092396 0)
(-0.00340990663629 -0.0613677721965 0)
(-0.0041595890141 -0.0607697969215 0)
(-0.00490582581998 -0.0600541387984 0)
(-0.00564773740215 -0.0592199856005 0)
(-0.00638366545681 -0.0582666287456 0)
(-0.00711111775789 -0.057193672714 0)
(-0.00782675721077 -0.056001276742 0)
(-0.0085264655045 -0.0546904150889 0)
(-0.00920548837962 -0.0532631329489 0)
(-0.009858687088 -0.0517227640845 0)
(-0.0104808845849 -0.050074064587 0)
(-0.0110673006684 -0.0483232099971 0)
(-0.0116140187534 -0.0464776007263 0)
(-0.0121184180412 -0.0445454310031 0)
(-0.0125794442251 -0.0425349980947 0)
(-0.0129975778396 -0.0404537755093 0)
(-0.0133743059129 -0.0383073383296 0)
(-0.0137108842948 -0.0360983463244 0)
(-0.0140061674463 -0.0338259834744 0)
(-0.0142533768434 -0.031486581035 0)
(-0.0144361835978 -0.0290765826009 0)
(-0.0145254786489 -0.0265996864162 0)
(-0.0144826710291 -0.0240761763277 0)
(-0.0142682771662 -0.0215633613933 0)
(-0.0139238111639 -0.0191003174781 0)
(-0.0134145298994 -0.0167391151978 0)
(-0.0128588950531 -0.0144732355502 0)
(-0.0121266964001 -0.0123568183144 0)
(-0.0115192115785 -0.0102884547883 0)
(-0.0105638684418 -0.0082420034916 0)
(-0.00932169679124 -0.00651371198863 0)
(-0.0080030655676 -0.00527027620837 0)
(-0.00705491258279 -0.00434668417768 0)
(-0.00630026324395 -0.00345304812503 0)
(-0.00552692862649 -0.00258360759432 0)
(-0.00470275958561 -0.00184960432141 0)
(-0.00390789169007 -0.00130682566319 0)
(-0.00321075756756 -0.000936136401882 0)
(-0.00264951383437 -0.000682109916611 0)
(-0.00222968340263 -0.000466483666329 0)
(-0.00188173149359 -0.000219489987135 0)
(-0.00144923151676 7.12465184793e-06 0)
(-0.000957306826091 6.88484563131e-05 0)
(-0.000638822931829 -1.9161548825e-05 0)
(-0.000503289443899 -0.000109156559888 0)
(-0.000450573166802 -0.000122636152913 0)
(-0.000365908500377 -8.71488957886e-05 0)
(-0.000246115325717 -7.9198203465e-05 0)
(-0.000179044003636 -9.72871296637e-05 0)
(-0.000130119341255 -0.000109666812649 0)
(-9.38930094742e-05 -0.000121602471544 0)
(-7.88732866237e-05 -0.000134152679947 0)
(-6.91708637854e-05 -0.000140034925385 0)
(-6.80594892225e-05 -0.000140714588337 0)
(-7.45427700524e-05 -0.000139137984797 0)
(-8.4489586749e-05 -0.000126771919154 0)
(-0.000101958055821 -0.00011599477769 0)
(-0.000115898293501 -9.24512296176e-05 0)
(-0.000140674592684 -7.53145458637e-05 0)
(-0.00016858600835 -5.83926718188e-05 0)
(-0.000179585693226 -3.44099559677e-05 0)
(-0.00018427593894 -1.15018707665e-05 0)
(0.0264238196289 -0.00187790390917 0)
(0.0278521591701 -0.00600157791292 0)
(0.0275801125233 -0.0100656893551 -6.67478427765e-28)
(0.0271066424525 -0.0140921723037 0)
(0.0264886171117 -0.0180148315541 0)
(0.0257417908949 -0.0218132786927 0)
(0.024882533541 -0.0254676337129 0)
(0.023928208852 -0.0289621277185 0)
(0.0228963813034 -0.0322849234716 0)
(0.0218040920535 -0.0354279037515 0)
(0.0206672816091 -0.0383862868116 0)
(0.0195003760206 -0.0411581510912 0)
(0.0183160339277 -0.0437439194455 0)
(0.0171250365301 -0.0461458474382 0)
(0.0159362945683 -0.0483675485444 0)
(0.0147569419302 -0.0504135769057 0)
(0.0135924871018 -0.0522890776788 0)
(0.0124469961162 -0.0539995061663 0)
(0.0113232868816 -0.0555504110329 0)
(0.0102231190685 -0.0569472730603 0)
(0.00914737030217 -0.0581953894467 0)
(0.00809619240581 -0.0592997933344 0)
(0.0070691464502 -0.0602651992423 0)
(0.0060653162138 -0.0610959662718 0)
(0.00508340310919 -0.0617960725903 0)
(0.00412180483586 -0.0623690960381 0)
(0.00317868272977 -0.0628181971539 0)
(0.00225202111718 -0.0631461021559 0)
(0.00133968452569 -0.0633550847563 0)
(0.000439476323969 -0.0634469454396 0)
(-0.000450794651563 -0.063422998809 0)
(-0.00133323863523 -0.0632840482525 0)
(-0.00220979252136 -0.0630303829015 0)
(-0.00308211188901 -0.0626617876182 0)
(-0.00395144544635 -0.0621775665908 0)
(-0.00481849509373 -0.0615766015963 0)
(-0.00568326535414 -0.0608574472741 0)
(-0.00654491321193 -0.0600184734408 0)
(-0.00740161058342 -0.0590580610842 0)
(-0.00825044091885 -0.0579748558283 0)
(-0.00908735278765 -0.0567680758293 0)
(-0.00990720233716 -0.0554378620749 0)
(-0.0107039135175 -0.0539856452652 0)
(-0.0114707855674 -0.0524144860409 0)
(-0.0122009600157 -0.0507293264984 0)
(-0.0128880421893 -0.0489370740544 0)
(-0.013526828488 -0.047046426466 0)
(-0.0141140517893 -0.0450673513002 0)
(-0.0146489927842 -0.0430101499828 0)
(-0.0151337600857 -0.0408840820101 0)
(-0.0155729564553 -0.0386955782347 0)
(-0.0159723628854 -0.0364461922521 0)
(-0.0163360900466 -0.0341306685578 0)
(-0.0166614485477 -0.031736146575 0)
(-0.0169309330096 -0.0292444805476 0)
(-0.0171014851916 -0.0266434901537 0)
(-0.017103117006 -0.0239431605463 0)
(-0.0168281314413 -0.0212586579498 0)
(-0.0164337340201 -0.0186264878587 0)
(-0.0157441022874 -0.0161560523581 0)
(-0.0151604827654 -0.0137645754829 0)
(-0.0141028557977 -0.011657523816 0)
(-0.013782247453 -0.00947124447591 0)
(-0.0126152888474 -0.00698669837059 0)
(-0.0108461282054 -0.00500319349588 0)
(-0.00886500491804 -0.00396434967839 0)
(-0.00804416700301 -0.00338876218723 0)
(-0.00747487045221 -0.00254677554716 0)
(-0.00663760351306 -0.00157454891808 0)