/*--------------------------------*- C++ -*----------------------------------*\
| =========                 |                                                 |
| \\      /  F ield         | OpenFOAM: The Open Source CFD Toolbox           |
|  \\    /   O peration     | Version:  v1906                                 |
|   \\  /    A nd           | Web:      www.OpenFOAM.com                      |
|    \\/     M anipulation  |                                                 |
\*---------------------------------------------------------------------------*/
FoamFile
{
    version     2.0;
    format      ascii;
    class       volVectorField;
    location    "900";
    object      Ua;
}
// * * * * * * * * * * * * * * * * * * * * * * * * * * * * * * * * * * * * * //

dimensions      [0 1 -1 0 0 0 0];


internalField   nonuniform List<vector> 
24444
(
(-0.654496789645 -0.151341644012 0)
(-0.00123745723118 3.76671067279e-05 -2.9207373129e-19)
(-0.00117945278965 -0.000190857423091 -6.54887495729e-19)
(0.769373449232 -0.298875817169 4.82241826696e-19)
(0.448741698053 -0.18687127731 0)
(-0.00102855107436 -0.000488464572159 6.58302253924e-19)
(0.3879176307 0.275267825529 1.19117461732e-18)
(-1.37051913701 -0.483526694474 -1.22727528328e-18)
(0.00283450091327 0.0516896532532 -4.05486001573e-19)
(-1.5254449231 0.798449916326 1.82651395197e-18)
(0.971229800485 0.137281044701 0)
(-0.193916649496 -0.240279061961 -1.46952385279e-20)
(-0.166027401118 -0.206652522423 8.12152173368e-22)
(-0.00145082822016 7.25638530998e-05 -9.89811602284e-20)
(0.00453220292384 -0.00100326479393 4.40850585809e-22)
(-3.3121926237 -0.532246166655 1.46689199837e-18)
(0.000544913397202 0.00029714806207 -4.29947265063e-19)
(-0.000158868247454 -0.001027120645 2.59157479136e-19)
(0.00857956306286 -0.0231274794052 0)
(-0.000545594239591 0.000464541294099 3.42797520647e-20)
(0.0743772130278 0.0332365130096 -3.41714204486e-19)
(-2.15503620613 -0.938216822583 -5.35055305969e-18)
(-2.19265691803 -0.939252424452 2.18980400459e-18)
(-0.001340400118 7.07943903225e-05 0)
(-0.00131612139041 5.14518301875e-05 -1.82594941657e-19)
(0.00742968997744 0.0723657047241 8.151758121e-19)
(0.00656134655292 0.0624521980446 -8.6659513557e-19)
(0.0211748128528 -0.114436109355 0)
(0.0191993493555 -0.0968091411702 6.96882626154e-21)
(0.0647914407868 -0.00914494773258 1.29431450715e-19)
(-0.399221119204 1.56502746225 -1.13862446162e-18)
(0.0315879156575 0.0979827647447 0)
(-0.00106252049938 -0.000480231553448 -4.53983015494e-19)
(0.00384013577052 0.000153236049731 0)
(0.0151195704334 -0.0224134222331 -4.82484555422e-19)
(0.991801672187 -0.0124323843488 0)
(-0.000665591993606 0.000128189764312 0)
(-0.00112306743796 0.000352829944186 -2.90269379285e-19)
(-0.0998853958552 1.07784409118 0)
(-1.0678937502 -2.38813909303 0)
(-0.0888659042391 1.03711066602 0)
(-1.17218135851 -2.39302433815 0)
(-0.000668476749065 -0.000543835142026 0)
(-0.000683966491148 -0.000528717731335 -1.36132216914e-19)
(-0.335914426456 1.50595412638 -1.16845196802e-18)
(-0.00100624132198 0.000498253066613 1.1686422078e-19)
(-0.00111468196088 0.00103397410664 1.76573967623e-19)
(0.705063088279 0.199647384968 0)
(0.299641892718 0.309632691405 -8.74081923127e-19)
(-0.000310910681135 -0.000756911779896 -5.52970136271e-19)
(0.011176388532 -0.027848955702 1.90859390921e-18)
(8.66162871106e-05 0.000154689399921 7.09031754905e-20)
(-0.000398508325365 -0.000685035138781 -5.3380836583e-19)
(0.0544758519474 -0.0732893645768 0)
(-0.00104904274688 -0.000419523522562 -4.06102991631e-19)
(0.310122388742 0.103898557463 -5.87426172608e-19)
(-0.00102131947797 0.0015177265385 6.84969740791e-20)
(0.569585263872 0.433082648607 -6.66039290075e-19)
(-0.0363830915536 0.0604876152024 -4.01930405861e-18)
(-0.00136937035867 -6.36897694666e-05 4.63640677576e-19)
(-0.0014216337666 1.39408927239e-05 9.8893692824e-20)
(-0.00141879695691 1.45342507805e-05 2.19412486193e-19)
(-0.000754944342349 -0.000698032608367 2.49947175912e-19)
(-0.000936338006822 -0.000305578397449 -2.59952328759e-19)
(0.738090947409 0.0784275933632 8.39024106486e-19)
(0.970275462333 0.124182811999 2.24481306828e-18)
(0.0762074529704 -0.0151544470751 -4.5614653735e-19)
(-0.000506165764779 -0.000854791483599 -1.27354938119e-19)
(-0.00107104946961 0.000598166213451 0)
(-0.00039228451703 -0.000972173746029 0)
(-0.000338867605641 -0.00102943637397 2.47857571201e-19)
(-0.342677081163 -1.31405339817 0)
(-0.46432997696 1.32144717383 -1.51143497388e-18)
(-0.000848172926298 0.000859940287673 0)
(-0.000432564026168 -0.000738828955171 3.46616768794e-19)
(-0.00142677550872 3.4327837494e-05 0)
(2.25414300085e-05 -0.00144712646122 -9.23027425912e-19)
(-0.000919665546969 -0.000297632699757 2.56404042881e-19)
(0.0609612508303 -0.228692688226 0)
(0.984377908314 0.103582195086 0)
(-0.000341793096334 -0.00106688036879 -6.5563527072e-20)
(-6.75014630734 0.0287616688286 -4.9478905253e-18)
(-5.44509199367e-06 -0.00112328771069 0)
(-0.00100525816329 -9.98069273234e-06 -2.24018272863e-19)
(-0.00305832001981 0.000203894091403 0)
(0.00206888679107 -0.033803399105 0)
(-0.636597292337 -0.0975255857346 3.93011758619e-19)
(-0.00133314176463 8.19261668606e-06 0)
(0.000921576565351 0.015636422333 -4.22563502243e-19)
(-0.00126997069594 0.000313301830188 0)
(-0.00147574133114 -2.02847506791e-06 1.02536217157e-19)
(0.0059454408392 -0.00226403376978 7.3024466393e-22)
(-3.13541948991 -0.574484248814 -2.06717475663e-18)
(0.000810993542984 0.00120035245282 0)
(-0.00155717261734 0.00156836548086 8.16818137597e-20)
(-0.00144071663123 1.63889670039e-05 -5.52344666109e-19)
(-3.9766492672 -0.0548328239909 3.41165863174e-19)
(-0.00181319904994 0.000722832510546 0)
(-0.00136517200781 0.000120990803912 -3.16847164649e-19)
(0.0243528452224 -0.00470956076876 -2.60364393086e-19)
(-0.00133758582593 0.000391961213032 1.64822909439e-20)
(-0.00114909916476 0.000890507520307 8.84889252563e-20)
(-0.00108586258773 0.000928903892945 7.13848318996e-20)
(-3.30887352155e-06 -0.001460270088 6.4390988238e-19)
(0.835695073229 0.253093352105 -7.18524967183e-19)
(-0.013848060049 0.0324041613199 1.84458542667e-18)
(-0.0176469541265 0.0443853628898 -9.32124342417e-19)
(-0.000873529408937 -0.000182760873277 5.66859569322e-19)
(-0.000914609849414 -0.000171111140739 0)
(0.189105730457 -0.0560427396908 5.38469420866e-19)
(-0.00130967282558 -0.000125904208302 5.04170836764e-19)
(-0.00125720118667 0.000462178272708 -2.47196458701e-19)
(0.0121246208948 -0.0291513384503 0)
(-0.00131309851815 0.000133516862322 3.11040806468e-19)
(-0.00145643276635 -1.7390245835e-05 4.29585125028e-19)
(-4.3553840192 -0.0597959297777 0)
(-0.00173968265845 0.000619734364577 0)
(-0.99065983138 0.395250715909 1.03281651007e-18)
(-1.17980793581 0.542944126085 0)
(-0.000171804268922 0.00160313441104 0)
(-0.000283958624848 0.00157845596575 -1.89112692288e-19)
(-8.26214878688e-05 -0.00110361394459 -1.43132139868e-19)
(-9.47325278244e-05 -0.00108766319931 1.46234050353e-19)
(-0.00121334732178 -0.000105003979042 5.39265299031e-19)
(-0.00124934254829 -7.16797332686e-05 -5.54010319411e-19)
(-0.000672297433036 -0.000442450560937 2.70979123126e-19)
(-0.161228279641 0.437884710619 -5.05920805491e-19)
(-0.00104997095391 0.0009806971264 -1.272134046e-19)
(-0.000164662291916 -0.00101764685004 0)
(0.0123537786925 0.0256758894218 6.65511461161e-19)
(0.841092957297 0.0636241898068 -1.75210994077e-18)
(-0.000107645873407 -0.00109710489222 0)
(0.00141415045091 6.85430083459e-05 0)
(-0.00656951128307 -0.0171274598488 3.80543135132e-19)
(-0.00742146990487 -0.0193559819068 -1.94247524994e-18)
(0.301181780523 1.03025583273 0)
(0.318217996836 1.00973379071 0)
(0.325834988642 0.32993247398 1.05049507644e-18)
(-0.000352480032903 -0.000824745491408 4.89435149383e-19)
(-0.000743142678452 0.00101219825898 0)
(-3.2282454059 -1.91945884617 -4.87751978385e-18)
(-0.00126992281994 0.000174152442637 0)
(0.0251571222087 0.273306718735 -1.1027698871e-18)
(0.665368734106 -1.96086985441 -4.16135760637e-18)
(-0.000335421855701 -0.00106576786244 0)
(-0.00134093635801 0.000110875068746 -1.80866265962e-19)
(0.000630769006473 -0.000488070692081 6.73242239324e-23)
(-0.280617647082 -0.0467489390732 0)
(0.348220490829 -0.30908001408 -2.48986551279e-19)
(-0.00141315285703 -4.24209265152e-06 2.06118381051e-19)
(0.995164338551 -0.00558031026896 0)
(-2.70986170749 -0.158379186491 0)
(-2.83254395676 -0.167318871716 -4.21089209851e-18)
(-0.000252494811114 -0.00115753034303 8.21788028076e-19)
(0.37290155043 -0.259746744081 0)
(-3.38839073046e-05 -0.00143090922503 0)
(-9.89855170925e-06 -0.00140363776078 6.91500382896e-19)
(0.864378749668 -0.245083965245 -6.06687596438e-19)
(0.841302345971 -0.23277243872 1.41568180176e-18)
(0.00677053828987 -0.0229253538581 8.75977708685e-19)
(0.00571505562758 -0.0228888048218 3.18085925947e-19)
(0.447820911551 0.0405557282353 -1.07174322779e-18)
(-0.000381372185567 -0.00098738009212 0)
(0.390241108307 -0.311350836653 0)
(-0.00137858334295 -6.62157894873e-06 0)
(0.295953727053 0.186698879433 3.52957459057e-19)
(0.176696545409 0.21827340678 0)
(-0.000177973562234 -0.00118409802871 1.27061258277e-19)
(-0.000248805839236 -0.00115402839269 -2.65662291794e-19)
(-0.00108040914087 -0.000126022782711 -5.12326281097e-19)
(0.503519372682 0.490830953652 0)
(0.750937437964 0.25583177278 0)
(0.755910446867 0.240809174472 -1.53154968692e-18)
(-0.396038636947 1.50836376671 1.8889510834e-18)
(-0.391399758711 1.47127926183 -2.5893095348e-18)
(-0.15892573082 -1.54859275441 -4.39076715188e-18)
(-0.215561733987 -1.55317709805 2.12882893096e-18)
(-0.000408046871054 -0.000817977756911 5.09529041457e-19)
(-0.000412841178373 -0.000801546187233 -5.69738790943e-19)
(-0.000818041627163 0.000946672387261 1.14395114374e-19)
(-0.000852647340384 0.000953763169804 0)
(0.0184148528672 -0.0170253643556 2.40268943796e-19)
(0.0128435198684 0.00269412252247 -6.03746375408e-19)
(0.408730425685 -0.495625760128 -6.55096509534e-19)
(-0.00138201644444 5.53107138208e-05 0)
(0.623350898559 -0.206875942002 8.07764126402e-19)
(-0.000302233503452 -0.000687190540519 0)
(-0.000277123056674 -0.000713817518187 5.42323645834e-19)
(0.00524218130299 -0.0171307028342 5.30661956046e-19)
(0.552742680508 0.357062540559 1.86282937143e-18)
(0.5814971258 0.366279320673 -1.85367648621e-18)
(-0.000368777795541 -0.000817184724012 6.12088922808e-20)
(-0.000735073442208 0.00101673929369 5.92202016467e-20)
(0.579698251232 0.0183164112525 1.05372210797e-18)
(0.474044227558 0.0588541044556 -7.67130182033e-19)
(-0.00127857817918 -6.86988635008e-05 -4.90904816945e-19)
(-0.00123420617668 0.000307352014959 -1.39701110207e-19)
(0.722077168668 -0.121658395987 0)
(-0.00145288650296 4.76675437865e-05 2.15483311174e-19)
(-0.000296541569145 0.00176436325292 0)
(-0.00126096992239 -7.17553359361e-05 2.73098762875e-19)
(-0.00124626852928 0.00113909959594 -5.73210641433e-20)
(-0.00138995292295 1.06259594083e-05 0)
(-1.94416325532 -0.786410938648 0)
(0.00382945242396 0.0424237002469 0)
(0.00197109987987 -0.0201103387586 0)
(0.000591467298544 -0.0194023755609 6.53940110645e-19)
(0.593985114058 0.840853202526 -1.30575725042e-20)
(0.576673314972 0.842729134872 1.98677401268e-18)
(-0.000537565842382 0.00127437834122 0)
(1.21135074505 -0.260276854887 4.21705481538e-21)
(-0.000251740748402 -0.00114381235461 0)
(0.0140024012124 -0.0246828997712 -1.91907026611e-18)
(0.352430274545 0.25234980667 -7.33934663529e-19)
(0.0127009769016 -0.0212106224117 0)
(-0.00130948588697 -0.000117252346365 0)
(0.0567397467817 -0.208392812453 -6.14434679958e-20)
(-4.96154959738e-05 -0.00134112638518 2.62646044099e-19)
(-1.11261742802 -0.343745212436 0)
(0.00176209079914 0.0406489217025 1.06747603481e-19)
(-1.4287111485 1.89697196055 3.55146690554e-18)
(-0.000203578877082 -0.00110261786609 2.6949298044e-19)
(-0.0912449835691 -0.947124202043 0)
(0.752508790023 -0.0424637101455 7.50574025359e-19)
(-0.000262270721456 -0.000741638251243 -6.27314230704e-19)
(-0.000287966344584 -0.000745278235374 5.34380928797e-19)
(0.268083514857 -0.877644122504 5.83675929478e-19)
(-0.00132289107589 -6.46739673583e-05 4.80001863557e-20)
(-0.00358560807125 -0.0180702687735 1.70272912438e-19)
(-0.00107093975525 -0.0190593275768 1.16576797427e-18)
(0.454455941482 0.967028386981 -1.40561191807e-18)
(0.471636647451 0.945939447792 1.32291655066e-18)
(0.0734161785915 -0.189137168496 5.3927276619e-20)
(0.0759778008931 -0.203518824366 0)
(-0.000236390498011 0.000890009908165 -1.34300444746e-19)
(-0.0300839497402 0.0213538223677 0)
(-0.0214796303636 -0.0614817577074 -6.63172000952e-20)
(-0.000974410416228 -0.000507960994614 0)
(-0.00140037443704 7.4315518559e-05 -1.3984505637e-21)
(0.977734045825 -0.00952938079488 0)
(0.0363483292116 -0.0236130444428 0)
(0.0620428746512 0.0106773040863 -5.6734390595e-19)
(-0.00117659337725 4.10814553935e-05 0)
(-0.00182538629972 0.00716023099694 2.27669702634e-19)
(-0.000278954479907 -0.000774733184327 4.19125461104e-19)
(0.836783136483 0.442674865669 1.08769019195e-18)
(-0.00127044167332 0.000441816630241 1.00867290492e-19)
(-0.000417124928185 -0.000875797925358 0)
(0.47648436138 -0.123689878092 -8.36528010394e-20)
(0.657019638359 -1.92858894588 3.59334383886e-18)
(-0.00127847814777 0.000191156081637 7.22735740279e-20)
(0.343837734228 0.253988369823 7.65619464514e-19)
(-0.00101597859763 -0.000287604412417 0)
(-0.00137064192331 -5.18011585283e-05 -2.31792671844e-19)
(-0.00133822257432 4.20269719314e-05 4.13311654437e-19)
(-0.0001832437487 -0.000815113254773 0)
(-0.00018424856125 -0.000823061711805 -5.43663369262e-19)
(0.26623289574 0.22432784895 0)
(-0.00037478688697 -0.000684690199179 0)
(0.649798166979 0.0940722381402 -4.16881362858e-19)
(0.0154172774611 -0.0244400571687 -4.97367494878e-20)
(0.383296646909 -1.13115272917 9.30261228254e-19)
(-0.115365878664 -0.119650604625 1.43035403861e-18)
(-0.0013086227539 0.000201995978273 0)
(0.0857224270919 0.466671729434 6.84648641282e-19)
(0.0144750731822 -0.0253998212215 1.16960515736e-18)
(-0.0016162845592 0.00194158773298 6.62845038766e-20)
(-0.00137501706379 -7.0112426633e-05 -1.19729107295e-19)
(-0.000354692758509 -0.000709873672927 -4.29816833594e-19)
(-0.00109746477939 -4.59289235389e-05 6.02955387166e-19)
(-4.52623330939e-05 -0.00102778550479 5.79511059631e-19)
(-8.52837118582e-05 0.0014198591979 1.74062107182e-19)
(-0.312092343483 -1.24980138035 8.19048305447e-19)
(-0.501849264188 1.32837323987 1.59250303996e-18)
(-0.000809307833503 0.000925066616 0)
(-0.000418688742276 -0.000767198511142 -5.56406319498e-19)
(-0.00112364279099 0.000810019065671 8.10862776309e-20)
(-0.276562943417 1.52360992756 -1.87728983427e-18)
(0.850430624175 0.139692718378 1.15895497737e-18)
(0.869468659536 0.130432405257 1.561898397e-18)
(-0.961280065288 1.72311515351 1.75650237232e-18)
(-0.937342859859 1.76010604234 0)
(0.0104785554259 0.0766464145497 6.17120401649e-19)
(-0.000351493260018 -0.00048756936966 2.94495660963e-19)
(-0.0246448027943 0.0253011343024 -5.18291011866e-19)
(-0.000475799827002 0.000573884282467 0)
(-0.0497895144235 -0.074946301705 1.50849917362e-19)
(0.0114332083862 -0.028933088669 -2.893791484e-18)
(-0.000760257262441 -0.000114863305118 2.86263424607e-19)
(0.846922402624 0.15644118564 3.91053498282e-19)
(0.863912925518 0.171229558229 -7.36572845823e-19)
(0.110728993697 0.340303445836 -1.77740405517e-18)
(0.119915341366 0.295016578051 7.04430985906e-19)
(-1.18943813659 -2.06113662469 0)
(-0.000803729563038 -0.000449389596003 -2.67304769056e-19)
(-0.000887590333256 0.00136165741257 0)
(0.974359526309 0.0884457634885 2.47820184684e-19)
(-0.000948657703307 0.00193208406836 -5.98991416005e-20)
(-0.000860561147539 0.00194609504953 0)
(-0.0013515181151 5.61495680082e-05 0)
(-0.00127711408697 8.73665207748e-05 0)
(0.0528578015064 0.335327708228 -4.3277409936e-19)
(-0.159916670179 0.0112635474257 -2.20044575229e-18)
(-0.0011453547304 -0.0139987280235 7.35042775573e-19)
(0.849425777478 0.452531356366 0)
(-0.00015819006113 -0.00123749223672 -2.62700169698e-19)
(-0.000118175765049 -0.00123635901721 2.62586738466e-19)
(0.169668446611 0.218508517697 0)
(0.844697880826 0.250316988979 0)
(0.344490681376 0.216660209818 -1.77635267181e-19)
(-0.00820757295277 0.0109262856619 -1.47229882335e-18)
(-0.00109968650254 0.000648998935865 -1.3786466325e-19)
(0.735602468979 -0.364571608253 -7.49819116094e-19)
(0.444353206436 0.265161803983 6.83765110879e-21)
(0.752870583792 0.325640270138 1.80674945757e-18)
(-0.00145813241563 -3.07068329903e-05 7.01507083204e-20)
(0.0597745783082 -0.410732823838 0)
(0.168556827367 -0.468122926978 -2.27391441869e-19)
(-1.22394910322e-05 -0.00141116490238 6.28692363969e-20)
(1.10593742151 -0.216285426613 0)
(-0.00215691025136 0.00171311259503 -3.02411698587e-20)
(-3.05878879635 -1.76919114597 2.25319382903e-18)
(-0.00131556122973 0.00011327086442 -2.53821687214e-19)
(0.01943613229 0.243741401293 4.5554583603e-19)
(0.280195692935 -0.060509097981 -6.82499884226e-19)
(-0.00127224390928 -5.9633341478e-05 0)
(-0.00142068354753 3.43929163161e-05 0)
(0.0551302751715 -0.0197750613593 -3.73081846818e-19)
(0.0771993302569 -0.0277124139527 4.61983899235e-20)
(1.23432358626 -0.430338143275 0)
(1.2030365073 -0.428143282497 -2.09830393449e-18)
(0.94751798906 -0.284819013866 -6.29449015807e-19)
(-0.00122853513801 -0.00015621083468 -2.24985481604e-19)
(0.311185554022 0.1987328347 -2.08540305721e-19)
(-0.296509049423 1.30049329183 0)
(-0.277770447589 1.33770860733 0)
(-0.447245554762 -1.86274532389 -4.40590693497e-18)
(-0.495399412995 -1.7990530224 1.44100011694e-18)
(-0.000493470905911 -0.000684563861098 0)
(-0.000496649981956 -0.000694380118137 0)
(0.511105267696 0.0402026258915 1.95853048274e-19)
(0.257527634133 0.223769394299 -3.58119608026e-19)
(0.0189347728891 -0.0241747267874 0)
(-0.00139951260261 9.50752661089e-06 -1.84501129581e-19)
(0.507153665756 0.0648980601485 7.2552118139e-19)
(0.292101368105 -0.0665026664104 4.34129037192e-19)
(0.326619926038 -0.0717716668795 6.24229843876e-19)
(-0.00136914819163 -5.97306698997e-05 -1.23041858676e-19)
(-0.000447118760261 -0.00084067698991 0)
(-0.000471568114896 -0.000878098959506 0)
(-0.0010871393948 0.000606670900483 -1.27410929071e-19)
(0.561055151341 -0.0469619554636 -7.58894594041e-19)
(0.242074432217 0.630152720114 0)
(0.000966794081282 -0.000274945821138 0)
(1.05857988528 -0.19206897789 2.57884944691e-18)
(0.0167944671808 -0.0230451536223 8.34861505327e-19)
(0.631771521434 -0.481706311441 0)
(-1.02609688 0.660181267381 -2.6712461198e-19)
(-0.000145799739552 -0.00101084910052 2.0740103667e-19)
(-0.00102698741229 -0.000283718761165 1.32898390098e-19)
(0.545644324145 0.606802001199 -6.69721661874e-19)
(0.560269420865 0.599156928382 6.98051628776e-19)
(-0.00109982024345 0.00125233027756 -3.12391409586e-21)
(0.0254362659178 -0.0577194459414 1.41183656417e-21)
(-0.00140035304168 5.88055021386e-05 0)
(0.0231040206742 -0.0502795616507 0)
(-0.00142157446326 2.58143713486e-05 4.47717753721e-19)
(-0.00102834617417 -0.000405143222175 -2.51003670186e-19)
(0.0228139724266 0.00345975399962 -1.04575367037e-20)
(-0.00117374530567 0.000850592140406 2.62131102863e-21)
(-0.00115368393843 0.000782706616979 1.60277364469e-19)
(0.991301787817 0.105536418221 -1.39882625177e-18)
(-0.000350993990509 -0.000888974032413 4.78294487831e-19)
(-0.00114902788431 0.000427051697503 0)
(-0.00139199967748 7.89515013413e-05 4.82881116625e-19)
(-0.00113048414311 -0.000356227652504 -1.03650004877e-19)
(-0.00107990877478 -0.000130818722495 5.35619677366e-19)
(0.858861465362 -0.465413399237 6.51686600283e-19)
(0.874047712553 -0.459040647486 -1.29686697718e-18)
(-0.00139216554049 8.15667307921e-06 1.45159348042e-21)
(-0.00135753108854 1.83259967744e-05 9.98090136723e-20)
(1.01671311093 -0.0928745532622 -4.46691407826e-19)
(-0.00198292936651 -0.0342072755126 -3.11420449028e-20)
(-0.193758025453 -0.0277577795589 3.58660166604e-20)
(0.695320851813 0.18417435063 0)
(-0.00958610598635 -0.0306041941832 0)
(0.147636104729 0.518885227307 1.11208886304e-19)
(0.960007663501 0.157707208004 -6.50261861529e-19)
(0.942697650467 0.157851155225 1.35726634362e-18)
(0.403211449725 -0.0706457538742 -2.82287437542e-19)
(0.271156377591 0.123958487001 0)
(0.363945318585 -0.0911752717783 6.48814327717e-19)
(-0.0014511257916 1.96738869684e-05 -2.2967386233e-19)
(1.0751117675 -0.299332249613 1.42734790639e-18)
(1.06303337446 -0.29253605041 -7.7340360556e-19)
(-0.336269296969 1.53160975488 -4.61185870821e-19)
(1.19239060305 -0.277789490899 -1.02671607731e-18)
(-1.29881837162 1.8531962884 0)
(-0.000223480455591 -0.00103455177381 -3.48971939612e-23)
(-0.00127843305968 9.42967429871e-05 1.0494927688e-21)
(0.0475736690648 0.307086655864 -4.80328042496e-19)
(-0.00130206551853 0.000570989376297 0)
(-0.00127701238781 0.000485251649616 0)
(0.00916968355717 -0.03102810173 -1.718596481e-18)
(0.0106074562336 -0.0204040546696 3.48170425723e-19)
(0.490950570499 0.862638631369 -6.3902120261e-19)
(0.091440370511 -0.0100578775174 9.23927187852e-19)
(-0.00136984285814 -8.03381163628e-05 2.21494724919e-19)
(-0.00141516217048 -4.7814018786e-05 -1.08967866497e-19)
(-0.000961396587267 0.000781014741443 -1.16788490594e-19)
(-0.000956917236725 0.000748600932296 -1.14462567414e-19)
(1.1572926266 -0.28535682451 -8.72377662071e-19)
(-1.17474817925 1.72503785521 0)
(0.385359076417 0.124684052789 0)
(0.358593352508 0.118232086868 7.43867899216e-19)
(-0.000742987541316 -0.000103487610205 -2.84867552704e-19)
(0.0132352665545 -0.00113232037006 2.6941352429e-19)
(-0.00127859679006 -0.000123518522089 -9.60549136743e-20)
(0.946652974644 -1.65909466611 -1.77871227004e-18)
(0.128249303799 0.0896054657006 0)
(0.921077429213 -0.0329256298013 5.30877423721e-19)
(1.00881830034 -0.106107492036 -8.86346150002e-19)
(0.115920631181 0.377362215345 -2.15171504464e-19)
(-0.279715080502 1.51758763601 -1.87603216313e-18)
(0.837831723418 0.323103603364 0)
(0.856458932908 0.337192155739 0)
(0.0128097256882 -0.00386778341355 0)
(0.525605333515 0.186945056104 3.59990249929e-21)
(0.0121943947018 0.00291338730902 6.62087598089e-19)
(0.710547605333 0.607036681943 -5.90671873515e-19)
(-0.00105798721606 -0.000365272939821 1.70843246516e-19)
(0.204046404173 0.279943996027 0)
(-0.226278139707 1.4926498857 1.50971288001e-18)
(0.0123302767038 -0.0244593948003 0)
(0.0117810273219 -0.026606586304 1.18727261428e-18)
(-0.00141190075716 0.000112286776405 0)
(0.49129435447 1.0023566385 0)
(0.507160521246 0.993927707908 0)
(-0.00289546532339 -0.0389438309804 0)
(-0.218610667599 -0.0395083243522 -1.87417863724e-20)
(-0.514796660441 -0.484031511941 5.92525849314e-19)
(-0.000988577773041 0.000311246586583 0)
(0.762918395929 0.308301878566 -1.14694088297e-18)
(-0.00140854012744 6.21505724081e-07 -1.97936687026e-19)
(-0.00138477168371 -1.49609089217e-05 -5.6449218983e-19)
(1.06340475499 -0.115481289971 0)
(-0.590635286115 -2.40615334462 2.12717511066e-18)
(-0.0550043733795 1.25077467514 1.88403155164e-19)
(-0.000620131340648 -0.000623252777164 5.04772053215e-19)
(0.0705351471316 -0.402203005167 0)
(-4.81904294773e-06 -0.00140823733039 -1.27714361597e-19)
(0.482282910059 -0.103100103768 0)
(0.00067983883047 -0.000899692342422 -1.07444973629e-19)
(-0.00139258724796 2.00737979546e-05 -1.53815554565e-19)
(-0.0013826229773 2.14728335774e-05 0)
(-1.55486993611 -0.527286543314 -5.17968403023e-18)
(-1.44621606181 -0.414556475963 2.68397278548e-19)
(0.00485681133755 -0.0254283634594 0)
(0.00660925962603 -0.0239093348583 0)
(0.00206186885158 0.0149658463934 -1.97985944128e-18)
(0.00116932976575 0.015143607809 1.18862219677e-18)
(-0.00115054695764 0.00062052184797 -2.56371458096e-19)
(-0.00173795070036 0.000952670033996 5.43353620996e-20)
(0.950545415424 0.309128045596 0)
(0.0512769102968 -0.366488377694 0)
(-0.000852763152691 -0.0181880438769 -1.90759346944e-18)
(0.493920036408 0.888077466058 5.98888437413e-19)
(-0.000416968769269 -0.00100429033695 3.74013497237e-20)
(0.0191936793267 -0.00359456601462 0)
(0.647076632256 0.215229810987 1.35977105333e-18)
(0.0620014763877 -0.34953363791 0)
(0.0189152591201 -0.0144453979837 0)
(0.01943085107 -0.0209990199598 0)
(-0.000996533801288 -0.000249635967042 0)
(-0.00163387100081 0.00127270584017 0)
(-0.000163743315241 -0.000675682674021 2.95958912901e-19)
(-0.000240049637707 0.000809019240213 0)
(-0.00403526178772 0.00480272563659 0)
(-0.0163714367655 -0.041489249057 -7.95307942394e-20)
(-0.00122941179034 0.000265836543048 2.12012345024e-19)
(0.305206409669 -0.0423551104916 0)
(0.00191086570977 -0.000894831905328 -7.62057324425e-19)
(0.0875997163971 0.0546504341079 0)
(0.0930857132609 0.0583737924345 -2.95011638056e-19)
(0.219491186201 -0.0786029974107 0)
(-0.0898606252721 0.0251443433041 -1.19733273058e-18)
(0.288555093851 0.0858002599481 -6.59344324927e-19)
(0.307679672136 0.0941687009179 0)
(0.819751074463 0.252460214498 6.66810609336e-20)
(0.792319726716 0.240145051622 9.78640718381e-19)
(0.0259158259352 0.00431502272328 4.62164050325e-19)
(0.00599241554927 -0.016716386979 -1.38403032922e-18)
(-0.000674880984468 -0.000748525562361 0)
(0.0165930713781 -0.00944816676351 0)
(0.00752315837703 -0.00382553226885 0)
(-0.00129214635422 -0.00012144874432 0)
(-0.00132711859237 -0.000156856970316 0)
(0.0108511149463 0.0214014637596 3.39951091396e-19)
(-0.00145931666632 1.62808567415e-05 0)
(0.837128213843 0.417302589256 1.10829464106e-18)
(-0.00113424981696 0.000376297539613 1.57099964924e-19)
(-0.000761587326983 -0.150029384785 1.981050086e-21)
(-0.000105738291972 -0.0013357739514 -7.69695222644e-19)
(0.0366678318779 0.00659327884814 1.51225716921e-19)
(0.255314638362 0.117041928389 0)
(-0.00123358238038 0.00031422009706 7.05540327562e-20)
(0.0166792191678 -0.0243368510628 2.12056616275e-18)
(1.0040652275 -0.0027249303995 1.33656613887e-18)
(-0.00127829392016 0.000337780868088 0)
(0.0182769492564 -0.0257200707122 0)
(-0.000676749529744 -0.000745300420768 -1.38473686394e-19)
(0.867285654096 0.378635353211 7.96201451336e-19)
(-0.208898598414 0.116447226567 1.24778486159e-18)
(-0.0168299443582 -0.0954599346317 9.73401806844e-21)
(-0.153346525299 0.0792999764813 -1.79992815935e-18)
(-0.0142696120352 -0.0829799506139 -1.11599978514e-19)
(-0.00021379830048 0.00116896661852 -1.28200778211e-19)
(-0.000164875981615 0.00114141452541 0)
(-0.0201894569088 -2.17583410377 0)
(-0.107413793223 -2.20685227399 0)
(-0.0874278964236 1.41708813238 -9.63690445211e-19)
(-0.100653740542 1.40347629052 -1.78323312544e-18)
(-0.000510288186654 -0.000754141532681 -5.20488579059e-19)
(-0.000528749894415 -0.000741727328447 0)
(0.324955075303 -0.1920194529 2.56390134635e-19)
(-0.00133462174637 -0.00017890641835 -2.19177732671e-19)
(-0.000367981435936 -0.0010017851946 4.4595604447e-19)
(-0.0010359983359 -0.000419606860666 4.36358619731e-19)
(-0.00112734758685 0.000953592622531 -6.63463824421e-20)
(-0.00131582624995 -0.000158005648557 2.86522268031e-20)
(0.00121984065183 -0.0170199406836 8.75142350563e-19)
(0.689140922017 0.789195458052 -3.25729227135e-19)
(0.000855259604262 -0.161745067831 1.20657924808e-21)
(0.522122300382 -0.109840316886 -4.24767827321e-21)
(0.0160207867575 -0.02374252598 -6.26305227796e-19)
(-0.000289719690156 0.000867272021309 -2.39923462369e-19)
(-0.0281031460493 0.0238327796529 0)
(-0.0247454859906 -0.0616244411081 0)
(0.106175755453 -0.010113131486 -3.95864991788e-19)
(-0.00082028462708 -0.000372916006349 2.85447965326e-19)
(0.0470489268312 -0.0106698014455 -3.08013327578e-20)
(0.624657292038 0.211483260406 0)
(0.743935851368 -0.181106991268 0)
(-0.00106494739655 -0.00037508307112 0)
(-0.00128455287094 0.000167054977384 2.81141358742e-19)
(0.495610294297 0.17759229901 2.91606167482e-18)
(-1.33796289669 0.555336600411 -3.31242838872e-18)
(-0.000101052859311 -0.00112736076799 2.55146419392e-19)
(-0.000317346568845 0.00168699673376 0)
(-0.00126769655523 -9.2773239791e-05 5.17513206235e-19)
(-0.00956605861095 -0.0732698750603 5.06185837553e-20)
(-0.205909297216 0.0976697189995 -1.0498836743e-18)
(-9.78604519976e-05 -0.000951212922158 -2.79412204814e-19)
(-0.000200961484508 0.00123802040243 3.55851112865e-19)
(0.149606845346 -0.0858620418763 -3.08072003593e-19)
(-0.00130530369447 0.0011354890614 6.03381406833e-20)
(-0.122978107798 0.0417948524454 1.09916960806e-18)
(0.332844768571 -0.165307120138 -4.86351229673e-19)
(0.0772861116419 -0.00581571844867 0)
(-0.000636300357766 -0.000770362900914 0)
(0.849900466447 0.551541351175 0)
(0.933545801514 0.170670593625 -9.85422505895e-19)
(-2.53345849534e-05 -0.00134949366013 5.290736948e-19)
(-0.0014111589062 -1.88986413735e-05 2.4135167667e-19)
(-7.37226139638e-05 -0.00135470623845 1.94849223801e-21)
(-0.00142769183815 -4.22292514539e-05 2.24178049345e-19)
(-0.0134459355301 -0.00726372383464 0)
(0.198237697843 1.14487000939 -3.59912319441e-19)
(-1.40032066566 0.527766977737 2.85598041193e-18)
(-9.16129016733e-05 -0.00115824383606 0)
(-0.000269471418792 0.00176999498615 0)
(-0.00130046704443 -7.40156593222e-05 0)
(0.975944280841 0.0981585921554 6.8773326856e-19)
(0.765856150286 -0.083614325743 0)
(0.233824439608 -0.315632405443 0)
(0.197618569312 -0.265119524208 7.38106040353e-20)
(0.00680122225748 -0.021435511553 -7.34087131548e-19)
(-0.000434100262699 -0.000660215266181 4.22427523427e-19)
(-0.000336451017067 -0.00101769097675 -1.37682666483e-19)
(-0.000359133923291 -0.00100466312699 -3.09470900166e-19)
(-6.87863374939 0.0271558975339 0)
(2.71016834875e-05 -0.00112001533309 1.09590961412e-18)
(-0.00098936771463 2.53228943845e-05 -4.74710643909e-19)
(-0.00275756256974 0.000213365646479 0)
(0.0180769705335 -0.0203116476865 -7.53873703639e-19)
(0.413088580897 -0.00189874543438 -1.89003162418e-19)
(-0.000979797661527 0.000518240222849 1.38466871612e-19)
(0.130422470413 0.0472197654773 0)
(0.00239483180858 0.00046941968206 4.18293330499e-20)
(-0.211648675608 -0.178714485444 -4.08408615396e-18)
(0.0816179629186 0.430441934767 -5.05833239056e-19)
(0.00376043907271 -0.0179439592476 2.16466656107e-19)
(0.750032047013 -0.367310491255 4.69549786014e-19)
(-0.000799879174067 -0.00038612986674 -2.65110396231e-19)
(-0.00118985897097 0.000768883577145 0)
(0.0660812441333 0.0386692542781 3.018380956e-19)