/*--------------------------------*- C++ -*----------------------------------*\
| =========                 |                                                 |
| \\      /  F ield         | OpenFOAM: The Open Source CFD Toolbox           |
|  \\    /   O peration     | Version:  v1906                                 |
|   \\  /    A nd           | Web:      www.OpenFOAM.com                      |
|    \\/     M anipulation  |                                                 |
\*---------------------------------------------------------------------------*/
FoamFile
{
    version     2.0;
    format      ascii;
    class       volVectorField;
    location    "900";
    object      Ua;
}
// * * * * * * * * * * * * * * * * * * * * * * * * * * * * * * * * * * * * * //

dimensions      [0 1 -1 0 0 0 0];


internalField   nonuniform List<vector> 
24444
(
(0.0464845128285 0.0169683952788 0)
(-0.00322579338013 2.89339539562e-05 -1.20146467577e-18)
(-0.00323196335094 -0.00046485408964 -2.84873990049e-18)
(-0.00751184415655 0.00372225707657 3.87185773765e-19)
(-0.00568717331149 0.00296448709899 0)
(-0.00444771284251 -0.0011846203708 3.17450275969e-18)
(-0.00501027101422 -0.00662216045576 4.49533769675e-18)
(0.0673295920569 0.0482987797778 2.72339015368e-18)
(-0.000622391614116 -0.0108139788417 -2.1886714249e-18)
(-0.0327521615801 -0.0863452696678 4.4774105393e-18)
(-0.0119273144207 -0.0033783959096 0)
(0.0071582252802 0.0103290755316 3.25712498809e-19)
(0.00725457799884 0.00865612493539 -2.08341357977e-19)
(-0.00378649989544 0.000421464273297 -4.11546133673e-19)
(0.00523382462923 0.00253146956206 9.96095387746e-21)
(-0.1369504098 0.00807199530676 -1.40568001392e-18)
(0.000495072134706 -0.00957056705913 -2.43634996499e-18)
(-0.000495549603275 -0.00329542174475 1.49535200046e-18)
(-0.0319605916421 0.0120270075181 0)
(-0.00332738329653 0.00337914931587 1.78016719456e-19)
(-0.0279604798599 -0.0242603010984 -1.20281980871e-18)
(0.0646189066703 0.0797871855147 7.28339953463e-18)
(0.0585557817539 0.105477255267 -3.21109843963e-18)
(-0.00355393075966 0.000264172315331 0)
(-0.00334775289786 0.000111255885638 -7.28589372701e-19)
(0.000276209289068 -0.0109113487092 3.90085838386e-18)
(0.00107981966354 -0.0109870579229 -4.60368723747e-18)
(0.003106787832 0.0137969983481 0)
(0.00325408006709 0.0126959966089 3.66380763522e-19)
(-0.00594102999753 -0.000380048037595 4.06615581105e-19)
(-0.000685547416925 -0.0288849130999 -3.54074246376e-18)
(-0.00128897833208 -0.00983215070912 0)
(-0.00440550359054 -0.00128755384882 -2.18764335773e-18)
(-0.0421304877883 -0.0542685194412 0)
(-0.0408658958682 -0.0174458684198 -1.65449637375e-18)
(-0.00933336327189 -0.000640182318445 0)
(-0.00170358349051 0.000354793621689 0)
(-0.00299883039599 0.00102167045144 -1.29282260845e-18)
(0.00121461662678 -0.016391202983 0)
(0.00332757940179 0.018943005786 0)
(0.00100834193825 -0.0144910810869 0)
(0.00384287898789 0.0211522257555 0)
(-0.00254109968863 -0.00152055684819 0)
(-0.00250009995556 -0.00151734351099 -7.46173285021e-19)
(-0.00389913913223 -0.0303309564337 -3.86530291506e-18)
(-0.00274992642363 0.00133097415769 4.8353263096e-19)
(-0.0041454762596 0.00340990532384 8.54951715217e-19)
(-0.0148339918183 -0.00461158816349 0)
(-0.00420545593727 -0.00669429138396 -3.37925874279e-18)
(-0.00116920224898 -0.00225517325776 -3.75046767438e-18)
(-0.0567210675557 0.0270730795923 -9.11264943119e-19)
(-0.00397155002111 0.00352829712746 1.88786649458e-19)
(-0.00135801378514 -0.00205018133747 -3.64666784246e-18)
(-0.000335165268021 0.00413974926888 0)
(-0.00401331498818 -0.000729108658742 -1.757796284e-18)
(-0.0201073935876 0.00406099492195 -4.62823757955e-19)
(-0.00344017701497 0.00381859015333 2.81410967205e-19)
(-0.0135331884721 -0.0130903719986 -2.00695977691e-18)
(-0.04091907128 -0.0620921699711 -1.13332053523e-17)
(-0.00404790435915 -0.000100724814525 2.10956027737e-18)
(-0.00356104071012 0.000163782592476 3.92624164981e-19)
(-0.00353026483724 0.000223907692494 9.46396436286e-19)
(-0.00420242866857 -0.00202681852582 1.29705367065e-18)
(-0.00316446645803 -0.000444579751907 -1.39709530157e-18)
(-0.0156678457812 0.000680407668586 8.44397982564e-19)
(-0.0113822754415 -0.00144788806789 3.63496703027e-18)
(-0.00600481024799 -5.94896999158e-05 -1.38685676526e-18)
(-0.00282429463613 -0.00283981692726 -6.77893446678e-19)
(-0.00304867984215 0.00173691150446 0)
(-0.00275931905 -0.00289216001464 0)
(-0.00172764166465 -0.00322866519041 1.24108318408e-18)
(0.00244387220418 0.0136356876753 0)
(0.0050612269497 -0.0211511675853 -6.18318945742e-18)
(-0.00245201681094 0.00223796105452 0)
(-0.00178023425655 -0.00220096730961 2.47430628297e-18)
(-0.0039005783899 0.0001152614409 0)
(-4.02420358837e-05 -0.0060806716122 -6.18044238822e-18)
(-0.00304749743641 -0.000370985200115 1.33726837773e-18)
(0.00302356453921 0.0117541441245 0)
(-0.00945748395592 -0.00129374433499 0)
(-0.00221228513197 -0.00398750572376 -3.45700565445e-19)
(2.62720367465 -0.0464848837904 -1.12828871224e-17)
(0.000161537757909 -0.00480493422769 0)
(-0.00343770409312 0.000129596757874 -8.37065504158e-19)
(-0.00796850533536 0.000595372076091 0)
(0.000453191365889 0.0139585168199 0)
(0.0756963054769 0.0183249547823 -3.18729098314e-18)
(-0.00339940186505 -2.03223010037e-05 0)
(-0.000567118346651 -0.0116616328324 -2.60105256754e-18)
(-0.00370239551065 0.00123560113821 0)
(-0.00410177431506 -4.69321930215e-05 4.71844924883e-19)
(0.00529373301355 0.0032990630097 1.13627272872e-20)
(-0.146607511412 0.030724003737 1.66458830366e-18)
(-0.00055968856373 -0.0102682529978 0)
(-0.00454837543712 0.00397044560285 3.28126355988e-19)
(-0.00355491918612 0.000277282119197 -2.44229481422e-18)
(-0.0835947658603 -0.00217427155784 1.22005383711e-19)
(-0.00308942838571 0.00128810640048 0)
(-0.0039521592248 0.00035492800198 -1.29466979367e-18)
(-0.00546221825884 -0.000641104926264 -8.26435100352e-19)
(-0.00515836874153 0.00155467441354 7.9092739583e-20)
(-0.00430050931661 0.00297531004975 3.8351205456e-19)
(-0.00386185740473 0.00297191422297 3.13616563012e-19)
(-0.00034213279369 -0.00615995954392 3.96312797751e-18)
(-0.0121128282011 -0.00556424920411 -1.26278135388e-18)
(0.00203821429555 -0.00985936259259 9.7891787261e-18)
(0.0012283990548 -0.00938856456391 -4.88608496704e-18)
(-0.00224332930069 -0.000401286843375 3.67916368321e-18)
(-0.00235337459305 -0.000549820673152 0)
(-0.00552375025958 0.00188617862187 1.41608437061e-18)
(-0.00358630705684 -0.00058591522312 2.01743405361e-18)
(-0.004280788139 0.00132342353967 -1.10882032611e-18)
(-0.0473107696572 0.0261787382834 0)
(-0.00367916756252 0.000460968077604 1.23432226953e-18)
(-0.00366861647422 -8.94616094066e-05 1.76084423251e-18)
(-0.0932388673751 -0.00359679936556 0)
(-0.00298231618253 0.00127659273028 0)
(0.0416238666276 -0.0150384459021 3.91006400798e-18)
(0.0356077699988 -0.0207549451081 0)
(-0.000495528802645 0.00449443204334 0)
(-0.00104421460222 0.00431567439376 -6.58525533535e-19)
(-0.000353921320831 -0.00327046893823 -7.90679319304e-19)
(-0.000327257054752 -0.00328318427707 8.05546425489e-19)
(-0.00294989501374 -0.000305124453272 2.80173788128e-18)
(-0.00296595075251 -4.34573922085e-06 -2.74889134814e-18)
(-0.0022143171861 -0.00109138659878 1.89801375658e-18)
(0.00302627516648 -0.0128755968346 -2.8463670934e-18)
(-0.00366293737785 0.00302164204149 -5.9838823123e-19)
(-0.000758155685456 -0.00311761027773 0)
(-0.00160920177903 -0.00767055622588 3.37119541888e-18)
(-0.0162747049677 0.00212614208053 -1.22533525883e-18)
(-0.000513995699089 -0.00343426900923 0)
(-0.00299482486886 -0.00418162126676 0)
(-0.0092497587275 0.0214336601022 -3.82020917344e-19)
(-0.00770336882763 0.022170108943 1.80126797436e-18)
(-0.00400651857373 -0.0143731630638 0)
(-0.00327201138574 -0.0135491915774 0)
(-0.00444253160432 -0.00700150333362 4.36987825894e-18)
(-0.00118978583388 -0.00272069768065 3.59548552853e-18)
(-0.00203371471256 0.00267986690396 0)
(0.0182168279992 0.0552448946287 2.58033314991e-18)
(-0.00327522760309 0.000603450105702 0)
(-6.83215364872e-05 -0.0103716829278 -7.20267549901e-18)
(-0.00363706284304 0.0146155710972 1.12291150566e-18)
(-0.00141658673664 -0.00408634624997 0)
(-0.0034229816193 0.000602791658485 -7.5623475727e-19)
(-0.00259635850356 -0.00447901854227 -3.89920765748e-21)
(-0.0661107817417 -0.00118935654354 0)
(-0.00384160246626 0.00544796696459 -9.22379707771e-20)
(-0.00415635495539 -5.34992115461e-05 9.03443933412e-19)
(-0.00977382144542 -0.00148622401381 0)
(-0.0666029518919 0.00451276744099 0)
(-0.0669809525153 0.00687971964408 -3.5260181107e-19)
(-0.00206953795978 -0.00432864508026 4.21040366089e-18)
(-0.00484524556619 0.00477953957742 0)
(-0.000763224751962 -0.00588127887168 0)
(-0.000523800639286 -0.00568080356441 4.78001975735e-18)
(-0.00801419944632 0.00284268979033 -5.98419064961e-19)
(-0.00780931447401 0.00308393291881 1.44370596781e-18)
(-0.0244371885881 0.0161917146238 1.50265559619e-19)
(-0.0245256097907 0.0140162741018 2.23219661866e-20)
(-0.00674544203236 -0.00203139635168 -2.68121350511e-18)
(-0.00257910275515 -0.00322572244402 0)
(-0.00405453167374 0.00513768711357 0)
(-0.00400254731364 6.40469059913e-05 0)
(-0.00570146859317 -0.00547742522428 1.66001472224e-18)
(-0.00420291502085 -0.00753399581791 0)
(-0.00260603298376 -0.00495339886778 7.85115251324e-19)
(-0.00212700515746 -0.00425683730838 -1.42621830921e-18)
(-0.00261985645273 -9.82527756229e-05 -3.2928253526e-18)
(-0.00523566385145 -0.00776520652116 0)
(-0.00820313481943 -0.00436230465295 0)
(-0.0082790802716 -0.00395782200188 -3.15700548417e-18)
(0.00364655813473 -0.0226508163701 5.93861315767e-18)
(0.00305243915952 -0.0203984530973 -7.97794911602e-18)
(0.000749617945509 0.0152916825334 2.6485397378e-18)
(0.00101045647855 0.015310203691 -1.37042518491e-18)
(-0.00164936536097 -0.00264495732056 2.89219425686e-18)
(-0.00160261951514 -0.00260694244515 -3.10756922959e-18)
(-0.00213568378972 0.00268169633228 4.01754739184e-19)
(-0.00238283236349 0.00261709442411 0)
(-0.0283039696736 -0.0394532353017 2.95597891584e-18)
(-0.00402100442397 -0.00214324068383 -2.95080229775e-18)
(-0.00256396693422 0.00694323847366 6.62781008054e-20)
(-0.00392552998131 0.000219326224046 0)
(-0.00660437147381 0.00246186571278 1.11960159733e-18)
(-0.00106808432997 -0.00197441130995 0)
(-0.000975937973263 -0.00210334094852 3.46334519154e-18)
(-0.0215253070582 0.0107511729475 1.2039044444e-19)
(-0.00631011242232 -0.00573782195884 5.30709891455e-18)
(-0.00606903510182 -0.00599252766151 -5.12186983132e-18)
(-0.00140558241499 -0.00266414000022 4.48968299742e-19)
(-0.00197934023366 0.00277082455151 2.63907554817e-19)
(-0.0151805084678 0.00867717725983 2.79079151237e-19)
(-0.00634629903338 -0.00222414197014 -2.26467852163e-18)
(-0.00325898008506 -9.2905584213e-05 -2.02615934356e-18)
(-0.00350364474219 0.00102788011825 -5.49637785218e-19)
(-0.00760677565385 0.00147383210659 0)
(-0.0041051872642 0.000324697419504 9.72479498344e-19)
(-0.00117105310357 0.00500010523396 0)
(-0.00309344843041 -0.000148919511614 1.14605609693e-18)
(-0.00383155344358 0.00320665944048 -2.40966936204e-19)
(-0.00381016656587 9.74700658936e-06 0)
(0.0797625614322 0.0914343564577 0)
(-0.00199743287814 -0.0104920305471 0)
(-0.0150346224299 0.0170245888306 0)
(-0.0150344077248 0.0173974637602 -3.02198691497e-19)
(-0.00632379634715 -0.0103899152056 -2.55177696071e-20)
(-0.00654919328086 -0.010242197833 6.10339910179e-18)
(-0.00160927297121 0.0034245948713 0)
(-0.0111204110973 0.0059344172731 -1.31654787346e-20)
(-0.00139546325865 -0.00416074478036 0)
(-0.0425373044258 -0.0023945616376 -2.83160713233e-18)
(-0.00557413777082 -0.00586757307568 -3.02350382697e-18)
(-0.0345418266031 0.0027165469143 0)
(-0.00354328291687 -0.000427221832722 0)
(0.00444191959174 0.0112517784401 3.10197877461e-19)
(-0.000986547083089 -0.00571306050289 1.58121167428e-18)
(0.0665451063327 0.0467826469506 0)
(-0.000377394802813 -0.0105843913132 6.69885138115e-19)
(0.0145144836722 -0.050610096195 7.9548658509e-18)
(-0.00104415642306 -0.0037738414802 1.20060635403e-18)
(0.0012117277646 0.0136332538771 0)
(-0.00891205738008 6.75389849292e-05 1.46391140195e-18)
(-0.000826017658498 -0.00221288965981 -4.13942098683e-18)
(-0.00103937944972 -0.00218630512001 3.61087595838e-18)
(-0.000682098603208 0.010943761406 -3.2014927954e-19)
(-0.00412192427225 -2.75959268388e-05 2.12700710862e-19)
(-0.0115202149587 0.0196850935235 -1.24075680478e-19)
(-0.0138976282732 0.0200283184761 -8.13483733389e-19)
(-0.00513623937972 -0.0125766305429 -4.07488442818e-18)
(-0.00561432132233 -0.0127405629513 3.7696373899e-18)
(0.00293680698647 0.00818290488461 -1.61764953985e-19)
(0.00238679902137 0.00925846893589 0)
(-0.000552200755272 0.00242390893256 -7.10683383401e-19)
(0.0108744856101 -0.00493760643607 0)
(0.00202718517402 0.00942516765057 -1.05076034999e-18)
(-0.0045419928333 -0.00122224342995 0)
(-0.00393887154901 0.000275116970063 -5.56739984537e-21)
(-0.00930559456623 0.000456210528989 0)
(-0.0520562868765 -0.0443859471468 0)
(-0.00511566850644 -0.00210803113338 -2.35861173457e-18)
(-0.00300644017254 4.63199197862e-05 0)
(0.00011659162349 -0.0110382681249 1.38586369705e-18)
(-0.000911627310279 -0.00235198977181 2.79835925489e-18)
(-0.0107448448345 -0.00711537075873 2.20496969276e-18)
(-0.00456268331144 0.00188336357362 4.70709680764e-19)
(-0.00169968142437 -0.00283327209368 0)
(-0.00743039070082 0.00190129768207 -1.8775891445e-19)
(-0.000478179194935 0.0138760919801 -1.14127095996e-18)
(-0.00362024277389 0.0006163205966 2.80042588818e-19)
(-0.00603139491849 -0.00601145543893 3.67880307212e-18)
(-0.0031031566245 -0.000771093795472 0)
(-0.00399049583304 -0.000103690142402 -1.01683060842e-18)
(-0.00345851452729 0.000103406837778 1.62237198709e-18)
(-0.000632562911799 -0.00232693565026 0)
(-0.000817453574785 -0.00228132154442 -4.29133668709e-18)
(-0.00470567634522 -0.00604096602996 0)
(-0.00124399256202 -0.00202568254439 0)
(-0.00747517284815 -0.00274041361226 -9.59764803514e-19)
(-0.0463515978374 -0.0139226168786 9.38012476531e-20)
(-0.00109510542503 0.0113751590716 -4.385410038e-19)
(-0.00511428711395 0.0442438743372 -1.57939272676e-18)
(-0.00353272940686 0.00065475258108 0)
(-0.00190443668691 -0.0117326537312 3.58924659427e-18)
(-0.0493708170244 -0.00747723319849 1.69359875609e-18)
(-0.00545847436847 0.00450981548684 2.64914294822e-19)
(-0.00357978638452 -0.000260651085383 -5.3259901428e-19)
(-0.00122838197892 -0.00210614410566 -3.12192564733e-18)
(-0.00277330908263 -5.44091994221e-05 3.22571839258e-18)
(-0.000102081435205 -0.00300644942426 3.13475957773e-18)
(-0.000129853320353 0.00378014936527 5.79542718289e-19)
(0.00318383286158 0.0137615641369 -8.96214797998e-19)
(0.00617011017541 -0.0204991453055 6.52753045581e-18)
(-0.00225250452569 0.00250533515573 0)
(-0.00170798575273 -0.00239688003926 -3.79600896779e-18)
(-0.00435793941097 0.00267266091174 3.87702724935e-19)
(0.000792834141782 -0.0261449391923 -6.14861893289e-18)
(-0.0135732016623 -0.00305815176952 1.58496379165e-18)
(-0.0122427414377 -0.00278717599906 2.15455479309e-18)
(0.0112787949835 -0.0302708096112 4.61309839492e-18)
(0.00698638599868 -0.0337237862804 0)
(-0.00115175524568 -0.00983070749789 3.88860155791e-18)
(-0.00102338001259 -0.00141062422682 2.77937568851e-18)
(0.00625129322381 -0.00660141320885 -3.42777180485e-18)
(-0.00123771590881 0.0015560059317 0)
(0.00455406088408 0.0077563924396 2.66264169846e-18)
(-0.0493224147609 0.021859752906 4.44264185927e-19)
(-0.00188271143312 -0.000282790296194 2.34758369679e-18)
(-0.0131506411736 -0.00263369915634 5.47711247661e-19)
(-0.0121720891494 -0.00335839346708 -1.09358328953e-18)
(-0.0223863504803 -0.0365272530343 -7.51165818034e-18)
(-0.0229717458733 -0.0324519551489 2.70736527114e-18)
(0.000204343408325 0.0233840996782 0)
(-0.00291053630166 -0.00106844878274 -1.42934424544e-18)
(-0.00302340069203 0.00345208303142 0)
(-0.0106231842221 -0.00196892291558 5.15255981601e-19)
(-0.00360882343204 0.00517298722209 -2.27799494877e-19)
(-0.00321853139269 0.00528817133838 0)
(-0.00366227817541 5.81059683645e-05 0)
(-0.00324673209348 7.73117681322e-05 0)
(-0.00158077375358 -0.0109934481422 -2.54728019495e-18)
(-0.0598713497655 -0.0564216977334 -3.35494639223e-18)
(-0.063796315647 -0.0559441061071 2.97359738094e-18)
(-0.00969836076967 -0.0068387029845 0)
(-0.00105525802313 -0.00448377790775 -1.28591543823e-18)
(-0.000624020098588 -0.00428737673252 1.30655661293e-18)
(-0.00387487374977 -0.00804730267531 0)
(-0.00861001600076 -0.00295740907198 0)
(-0.00560924565939 -0.00524528027241 -7.7504136737e-19)
(0.003009751972 -0.00831313768213 -9.90677721254e-18)
(-0.00372936875081 0.00197429345805 -5.91332873687e-19)
(-0.00663190032945 0.00428467206199 -5.09734544958e-19)
(-0.016248301424 -0.0122937206787 3.87566823138e-20)
(-0.013529975364 -0.00671041590101 3.72085403735e-18)
(-0.00357042573833 -0.000203649254371 3.09180103387e-19)
(0.00157438998858 0.0115769276701 0)
(0.00166052487343 0.00950871293236 2.34808361011e-19)
(-0.000583619675347 -0.00598780741811 3.70121337373e-19)
(-0.010733633825 0.00533269039365 0)
(-0.00690910872627 0.00334701214355 -1.10957888338e-19)
(0.0197853427551 0.0491962606753 -1.35865215803e-18)
(-0.00351215689835 0.000172780880115 -1.07064277691e-18)
(-0.00117905505549 -0.01190368447 2.89837587989e-18)
(-0.00687997274962 0.00103094027192 -1.71365675396e-18)
(-0.00299039466492 1.31583916285e-06 0)
(-0.00404200699114 0.00022623483595 0)
(-0.00535881057495 0.00155791574467 -1.01906744576e-18)
(-0.00525304133368 0.00210340935279 1.15026860494e-19)
(-0.00940982191223 0.00699315682891 0)
(-0.0095857228362 0.00700874481779 -4.36443804579e-19)
(-0.00823285787214 0.00336931287026 -4.60368839451e-19)
(-0.00359357477466 -0.000317350399037 -1.10119663956e-18)
(-0.0047808655608 -0.00581879078834 -1.01401009674e-18)
(0.000991027871521 -0.0183385743664 0)
(0.000290296913358 -0.017970696368 0)
(0.000840238802512 0.0159571783051 2.40305870736e-18)
(0.00155811121332 0.0160216604155 -7.9329463347e-19)
(-0.00189905921807 -0.00200652341781 0)
(-0.00191226591693 -0.00205139754345 0)
(-0.00729178915507 -0.00186738552696 5.50277793583e-19)
(-0.00546383235944 -0.00612281381237 -1.91069032079e-18)
(-0.0509643341096 -0.0340056167505 0)
(-0.00453862654777 0.000235334158162 -8.29778321697e-19)
(-0.00710566637021 -0.00161988490057 2.2070450311e-18)
(-0.00650539280373 0.00154476194876 1.10172654807e-18)
(-0.00630167178709 0.000791113075828 1.55571999433e-18)
(-0.00396607339703 -0.000232348151923 -5.00060410896e-19)
(-0.00214792478303 -0.00226087442983 0)
(-0.00193802725877 -0.00281768409943 0)
(-0.00307846403692 0.00181673637866 -5.52214012155e-19)
(-0.00758150599722 6.90935485657e-05 -1.42405412058e-18)
(-0.0139269181272 -0.0247442527614 0)
(-0.00288959876049 -0.00301943054266 0)
(-0.0115773433268 0.00294274517266 1.70759170366e-18)
(-0.0477254875524 -0.00119979794844 1.4547499799e-18)
(-0.00429431303756 0.00651413630109 0)
(0.02690397305 -0.0184425869854 -1.04807414217e-18)
(-0.000552317718907 -0.0030777562178 1.20464339297e-18)
(-0.00324602106594 -0.000562191600098 6.94372445178e-19)
(-0.0111579179249 -0.0149426136197 -2.21346676939e-18)
(-0.0127516587877 -0.0149530258917 1.93994997472e-18)
(-0.00372188833527 0.00319125328904 -1.55528691658e-20)
(0.00497567269448 0.00742076954041 -7.48358951947e-20)
(-0.00372522682209 0.000304573569473 0)
(0.00564772640889 0.00714734112064 0)
(-0.00394713467462 0.000112873780498 1.93119019905e-18)
(-0.00348887170877 -0.00115055128775 -1.1805964279e-18)
(-0.00477851832396 -0.00225987125684 -4.25659811667e-20)
(-0.00456746457441 0.00292948969915 1.53226541616e-20)
(-0.00444878707215 0.00256082210925 8.02338273331e-19)
(-0.0104110588684 -0.00240343549096 -2.13222178099e-18)
(-0.00141995315876 -0.00291997154029 2.50245905787e-18)
(-0.00322514183937 0.00136635290572 0)
(-0.00412798699537 0.000152233862814 2.01714598059e-18)
(-0.0044340696284 -0.000591073641086 -4.61496966666e-19)
(-0.00270141218954 -6.89666057266e-05 3.14833759835e-18)
(-0.00653554738856 0.00531990716423 2.49117263794e-19)
(-0.00704537961359 0.00551273657636 -6.0303710042e-19)
(-0.00491325356864 0.000354718280348 6.60654304863e-21)
(-0.00450495002672 0.000592063229786 5.13043921013e-19)
(-0.0132016644188 0.00465262431916 -3.39738924635e-19)
(-0.000755747225215 0.0117282652295 -4.50739178646e-19)
(0.0252699048038 0.000845512132797 -2.15504311783e-18)
(-0.0151547252586 -0.0048992795762 0)
(-0.0151193715723 0.0381883639168 0)
(-0.00258997493853 -0.011682025097 4.97885815569e-19)
(-0.00895145401903 -0.00284651938915 -1.10522875823e-18)
(-0.00902533263475 -0.00190264742369 2.34668429336e-18)
(-0.00716661854491 0.00127391451522 -7.5052894738e-19)
(-0.00504389926605 -0.00510108138753 0)
(-0.00691402581577 0.00165205315872 1.49431704948e-18)
(-0.00381569447772 0.000139153716789 -1.00026288022e-18)
(-0.00971795618027 0.00512387227393 6.67191144646e-19)
(-0.00976624974066 0.00513806001078 -3.38167001655e-19)
(0.00063636426041 -0.0256737218606 -1.40132107365e-18)
(-0.0113662992422 0.0063556027907 -3.21506086854e-19)
(0.0150554368489 -0.0391340698814 0)
(-0.00100610524765 -0.0034012121033 -1.73244322243e-22)
(-0.00329412516104 0.000151861984316 7.13955534846e-21)
(-0.00158261849454 -0.0104421842476 -3.04510282258e-18)
(-0.00463853240709 0.0021973014211 0)
(-0.00422902361283 0.00151389695421 0)
(-0.0526804606196 0.0254747903413 8.21638866266e-19)
(-0.0334930714901 -0.000259653825886 4.77014838037e-19)
(-0.00942257675613 -0.0156971979048 -1.80441103315e-18)
(-0.00556365068478 5.74084964142e-05 3.3884937679e-18)
(-0.00373319207117 -0.000530729090169 8.71961319012e-19)
(-0.00409541055124 -0.0002380659918 -4.35448367331e-19)
(-0.00261535339969 0.00229641486275 -4.33381432686e-19)
(-0.00267794712965 0.00206729572714 -4.33098352594e-19)
(-0.0104631164768 0.00492722059606 -2.94021628594e-19)
(0.00966136248883 -0.0566670334087 0)
(-0.0191929756206 -0.00664850254368 0)
(-0.020449968369 -0.00579355660711 1.14703305011e-18)
(-0.00192486949685 -0.000251258435714 -2.33373853215e-18)
(-0.0050922558759 -0.00134394281796 8.48802499893e-19)
(-0.00457552413177 0.000472098179425 -4.58904128987e-19)
(-0.00378507646332 0.0142180901267 5.3358536683e-19)
(-0.0247199398966 -0.0245160195915 0)
(-0.00890918155884 0.000486692686002 8.2558642931e-19)
(-0.0129678384811 0.00338673982728 -7.36933194059e-19)
(-0.0022129356511 -0.0101905968439 -9.80443188386e-19)
(0.000135618983632 -0.0237210266405 -5.94641564816e-18)
(-0.0117328932054 -0.00628728766401 0)
(-0.0115730933125 -0.00559481741109 0)
(-0.0316122497162 -0.0385022851964 0)
(-0.0154256490466 -0.00768177347573 1.83523940389e-20)
(-0.00454229002955 -0.0031762548184 2.93518353431e-18)
(-0.00668250408061 -0.00844408150205 -1.75350937117e-18)
(-0.00476372523149 -0.000166957486436 8.20544295301e-19)
(-0.00361010825288 -0.00826112729832 0)
(-0.00156197135777 -0.0249940112252 5.09683610486e-18)
(-0.0456980269976 0.00800326219106 0)
(-0.0439964008283 0.00947490744578 4.45078576342e-19)
(-0.00387475382945 0.000912953379624 0)
(-0.00830624268051 -0.0140493778117 0)
(-0.00691197718645 -0.0142881536245 0)
(-0.000842841152463 0.0119648785649 0)
(0.0270289236882 0.0022807591244 4.59853770881e-18)
(0.0115685968812 0.0140846564815 -2.70827579465e-18)
(-0.00266698816805 0.000795013515851 0)
(-0.0124211257368 -0.00682066985574 -2.27829909401e-18)
(-0.00396970978177 -3.88259120974e-05 -7.91174246703e-19)
(-0.00380531529777 -0.000211466962544 -2.18135943778e-18)
(-0.0128387671331 0.0046997451319 0)
(-0.000801276771894 0.0187036589756 -8.55050847654e-19)
(0.000614372705717 -0.0163458850813 6.64717770649e-19)
(-0.00237724293968 -0.00185766967729 3.15576768822e-18)
(0.00173960318567 0.0110363330097 0)
(-0.000525397305426 -0.00590080527273 -7.65267218186e-19)
(-0.00684883193711 0.00157825085385 0)
(-0.00306053342277 0.00342259339376 -2.16354893649e-19)
(-0.0037148234832 1.4509400583e-05 -6.07726380978e-19)
(-0.00362942629202 4.85863051605e-05 0)
(0.162961435257 0.146967074337 1.23576506745e-17)
(0.151805705344 0.0782197355001 -3.04496197717e-19)
(0.00223046195829 0.017113607784 0)
(0.00398343575651 0.0169660091607 0)
(-0.000278419004262 -0.0109048149893 -1.02005298497e-17)
(-9.53847475672e-05 -0.0114829965364 6.76375120578e-18)
(-0.00382833032898 0.00182761681276 -1.22472046999e-18)
(-0.00333526997954 0.00278851203346 1.70941537432e-19)
(-0.0098190747231 -0.00470700405804 0)
(0.00149342079602 0.012090210013 0)
(-0.0155426996914 0.0185772543711 1.18634368775e-18)
(-0.00535400898023 -0.0120437156537 1.70929210332e-18)
(-0.0028035764304 -0.00373742013652 2.4837751134e-19)
(-0.00577462662015 -0.000695391155096 0)
(-0.0135351172049 -0.00693383198267 2.36244282825e-18)
(0.00243767477426 0.0116240927647 0)
(-0.0359428376079 -0.037152457157 0)
(-0.0249648740284 -0.0363748855388 0)
(-0.00295301592509 -0.000590329830028 0)
(-0.004084986978 0.0025761646474 0)
(-0.00049867498755 -0.00183557137703 2.65417164126e-18)
(-0.000647528230248 0.00209435839004 0)
(0.0083346828735 -0.0047388521858 0)
(0.00217027986617 0.00745188296502 -1.16135705748e-18)
(-0.00344242188605 0.000795605198936 8.05252735418e-19)
(-0.00703635977378 0.000252275925667 0)
(-0.00496687025811 -0.00104875983669 -2.38163840427e-18)
(-0.00396756856651 -0.00546318895195 0)
(-0.00351446888904 -0.0050752322071 -1.50218897473e-18)
(-0.00553064626346 0.00204925257693 0)
(0.0257240236108 -6.97631838238e-05 -7.63128808625e-18)
(-0.00542975200642 -0.0033832524264 -2.2838107796e-18)
(-0.00599678820758 -0.00378752861915 0)
(-0.00760839148111 -0.0042010886329 1.44145529263e-19)
(-0.00744001858351 -0.00425625893755 1.98033991407e-18)
(-0.00428027485251 -0.00213442188759 1.66197793422e-18)
(-0.0199391572985 0.0137017061044 -1.08638477815e-19)
(-0.00368206620036 -0.00208985007307 0)
(-0.0038645798158 0.00320099130609 0)
(-0.00373095371402 0.00424808154173 0)
(-0.00395133956639 -8.12472797299e-05 0)
(-0.00443279913422 -0.00036484223727 0)
(-0.00155195347512 -0.00771470822198 1.78713679128e-18)
(-0.00423713244952 6.80656155666e-05 0)
(-0.0118116445579 -0.00720310611723 2.25638462378e-18)
(-0.00303526641846 0.00110524312895 7.44669687617e-19)
(0.000704506500795 0.0126576405065 3.98104939423e-19)
(-0.00139672233838 -0.00572125745259 -4.50907610241e-18)
(-0.00482095787587 -0.00271596720691 5.04740356459e-19)
(-0.00490774693064 -0.00424304141858 0)
(-0.00371262575467 0.00100505293135 2.95501950384e-19)
(-0.0387887955118 -0.0244320052235 8.38400609419e-18)
(-0.00959243763392 -0.000954062100109 1.94791573702e-18)
(-0.00396205279691 0.00116459157369 0)
(-0.0595777658808 -0.0170687621223 0)
(-0.00287163581544 -0.00198730444229 -7.9279922442e-19)
(-0.00896564099242 -0.00631098755789 2.25204896719e-18)
(0.0181308238919 -0.00774286098513 6.3379519983e-18)
(0.00118461325483 0.0110174120218 3.73540991074e-20)
(0.0168153465714 -0.00486790884536 -1.01817146368e-17)
(0.000290792000803 0.0107500091285 -1.73364508437e-18)
(-0.00058554057029 0.0031425878334 -4.72443667234e-19)
(-0.00029207712117 0.00307271654366 0)
(-0.000319987800764 0.0160443566554 0)
(-0.000252488187618 0.0160713682885 0)
(-0.00164266630635 -0.0203286812532 -2.93464358996e-18)
(-0.000635958347503 -0.0202192417321 -5.2078306613e-18)
(-0.00207244239675 -0.00226995466118 -2.71822377976e-18)
(-0.00214838259197 -0.00233592869225 0)
(-0.00548642073277 0.0044869120195 2.97985290341e-19)
(-0.00450339156105 -0.000400483882298 -8.87185826816e-19)
(-0.00295114872645 -0.00343197154178 2.1955783237e-18)
(-0.0038439695059 -0.00068591099653 2.01311345967e-18)
(-0.00422407721696 0.00336056499329 -3.19600798141e-19)
(-0.00432635856466 -0.000475631173934 1.35149938911e-19)
(-0.0140533500573 0.0131123749035 -9.93806953223e-20)
(-0.00750155403421 -0.0100593867406 -9.62310643985e-19)
(0.000768684354142 0.0124282533406 7.22465377709e-19)
(-0.00710757102576 0.00139964907035 -1.56993737205e-20)
(-0.0511291905546 -0.0105480054895 -1.02376736897e-18)
(-0.000878826508163 0.00235949199407 -1.26860983425e-18)
(0.0113605877561 -0.0067369728201 0)
(0.00355022807208 0.00965038592217 0)
(-0.00573666822365 -0.000232320997818 -1.36218538399e-18)
(-0.00285122605485 -0.000755676356432 1.65383050361e-18)
(-0.00588025657145 0.000971068589278 -1.06542723646e-19)
(-0.013515620113 -0.00771196840804 0)
(-0.00755612449462 0.00187634708133 0)
(-0.00339447757131 -0.000852477964905 0)
(-0.00346121645577 0.000609127783065 1.01985930145e-18)
(-0.0171974741612 -0.00778432322702 4.81603237057e-18)
(0.0465840253503 -0.025204835917 -1.15333563904e-17)
(-0.000605936049804 -0.00341727760497 1.19843366624e-18)
(-0.00121317628579 0.00479173008436 0)
(-0.0030384226572 -0.000378033378502 2.53113840801e-18)
(0.00142048994598 0.0115489149921 8.24407208821e-19)
(0.0223300210525 -0.00833981174423 -5.49110279203e-18)
(-0.000432970103678 -0.00270051661485 -1.69450739634e-18)
(-0.000614764134076 0.00328027919866 1.2724409226e-18)
(-0.00432548193338 0.00422113267148 -4.44202498492e-19)
(-0.00407208324471 0.00297948532669 2.71605290115e-19)
(0.0276015990674 -0.00162223601751 6.7767445065e-18)
(-0.00521133206751 0.00416935518398 -6.0303714549e-19)
(-0.0058261447128 -0.000372809998247 0)
(-0.00336520215545 -0.0020870945399 0)
(-0.0101200984728 -0.00789429167854 0)
(-0.00954774034073 -0.00280841302384 -1.79523714052e-18)
(-0.000907383423261 -0.00548318749472 2.90746062836e-18)
(-0.00360905336399 -7.18588968425e-05 8.85932120135e-19)
(-0.00137450222883 -0.00564200023885 2.03256748972e-20)
(-0.00375067865188 -0.000277196526285 8.18055016312e-19)
(-0.0071550208292 0.0204825561876 0)
(-0.00401014145036 -0.0158895349787 -1.24585374786e-18)
(0.0540771471679 -0.0243204114058 1.15560282226e-17)
(-0.000578936549741 -0.00363612928462 0)
(-0.00104327345302 0.00531278609102 0)
(-0.00317256613532 -0.000279370641741 0)
(-0.00901875604861 -0.00278077690859 1.31131564655e-18)
(-0.00756191740431 0.000690793112011 0)
(-0.00123507604747 0.00610215751279 0)
(-0.00127761391396 0.00588364684083 -1.46224474695e-20)
(-0.0296958032288 0.00840380147738 -2.94841120851e-19)
(-0.0016490341534 -0.0019089244588 3.17557058044e-18)
(-0.00147916709974 -0.00330986961205 -7.17820862275e-19)