/*--------------------------------*- C++ -*----------------------------------*\
| =========                 |                                                 |
| \\      /  F ield         | OpenFOAM: The Open Source CFD Toolbox           |
|  \\    /   O peration     | Version:  v1906                                 |
|   \\  /    A nd           | Web:      www.OpenFOAM.com                      |
|    \\/     M anipulation  |                                                 |
\*---------------------------------------------------------------------------*/
FoamFile
{
    version     2.0;
    format      ascii;
    class       surfaceScalarField;
    location    "840";
    object      phia;
}
// * * * * * * * * * * * * * * * * * * * * * * * * * * * * * * * * * * * * * //

dimensions      [0 3 -1 0 0 0 0];
oriented        oriented;


internalField   nonuniform List<scalar> 
18240
(
0.00134689180236
-0.00134687426304
0.00282144215153
-0.00147452353299
0.00429492167358
-0.00147346384702
0.00574965865468
-0.0014547080542
0.00717761795479
-0.00142794665644
0.00857207428566
-0.00139442565372
0.00992694166264
-0.00135485775128
0.0112367946056
-0.0013098208662
0.0124967113398
-0.00125991020953
0.0137024520324
-0.00120570758422
0.0148502881191
-0.00114783278642
0.0159371989774
-0.00108687705075
0.016960654468
-0.00102345542071
0.0179188193921
-0.000958130721826
0.0188102921221
-0.000891475915341
0.0196343195089
-0.00082399306371
0.0203904996961
-0.000756186543725
0.0210790119872
-0.000688478104194
0.0217002926066
-0.000621290108259
0.0222552834381
-0.000554957010826
0.0227450882404
-0.000489817280596
0.0231712425909
-0.000426121112196
0.023535356475
-0.000364129269694
0.0238394057364
-0.000304016796147
0.0240853647443
-0.000245977119509
0.0242755178229
-0.000190121566261
0.0244120843618
-0.000136587268474
0.0244975475628
-8.54327986275e-05
0.0245342734645
-3.67490469756e-05
0.0245248545
9.44810801272e-06
0.0244717259497
5.31031089939e-05
0.0243775133837
9.42403203785e-05
0.0242446393061
0.000132846549545
0.0240756945331
0.000168971008164
0.0238730486541
0.000202616385363
0.0236392175936
0.000233855665384
0.023376471694
0.00026271464981
0.0230872092349
0.00028928532939
0.022773566604
0.000313609748661
0.022437794044
0.00033579361175
0.0220818689043
0.000355890833184
0.0217078714895
0.000374016571183
0.0213176029671
0.000390232914738
0.0209129594344
0.000404660736881
0.0204955558163
0.000417366911995
0.020067096458
0.000428474560361
0.0196290065037
0.000438052270246
0.0191827974141
0.000446222258895
0.018729706981
0.000453051965541
0.0182710582826
0.000458659810746
0.0178079095535
0.000463109594456
0.017341405115
0.000466513487332
0.0168724359401
0.000468929557769
0.0164019811625
0.00047046176186
0.0159307802066
0.000471160968006
0.0154596634937
0.000471121647204
0.0149892366644
0.000470386643643
0.0145201991989
0.000469040367876
0.0140530413372
0.000467117584015
0.0135883494054
0.000464692832746
0.0131265158054
0.000461793388957
0.0126680300108
0.000458484724833
0.0122132021513
0.000454787810872
0.0117624387853
0.000450760363558
0.0113159804674
0.000446418570092
0.0108741616176
0.000441813948203
0.010437162645
0.000436959605481
0.0100052533851
0.000431902495129
0.0095785602518
0.00042665425938
0.00915729290326
0.000421258750905
0.00874152703644
0.000415727549566
0.00833141404713
0.000410102594195
0.00792697996014
0.000404396422954
0.00752831796883
0.000398649840033
0.0071354040629
0.000392876966027
0.00674827237221
0.000387117847011
0.00636684790154
0.000381388371787
0.00599110466181
0.000375727793833
0.00562091592957
0.00037015359351
0.00525619514304
0.000364703865285
0.00489676395888
0.000359397174444
0.00454247591742
0.000354269796493
0.00419310258902
0.000349340612637
0.00384844002296
0.000344643135204
0.00350821331132
0.000340195408314
0.00317216610523
0.0003360266128
0.00283998458135
0.000332151584672
0.00251137183109
0.000328590895982
0.00218599583697
0.000325347342023
0.00186356060113
0.000322412388109
0.00154380861415
0.000319725134944
0.00122667124041
0.000317114342029
0.000912559530811
0.000314087998873
0.000603609493342
0.000308927433896
0.000308882704863
0.0002947012293
0.000308869222504
0.00148904586385
-0.0028358994644
0.00315123343197
-0.00313668599483
0.00480431452879
-0.00312652368318
0.00643359371385
-0.00308396232151
0.00803163868602
-0.00302597146287
0.0095915141246
-0.00295427630595
0.0111066176656
-0.00286994243659
0.0125709053223
-0.00277408406929
0.0139789178676
-0.00266790547318
0.0153258915003
-0.0025526573736
0.0166077077241
-0.00242963349486
0.0178209745165
-0.00230012085293
0.0189629343954
-0.0021654017158
0.02003153057
-0.00202670496413
0.0210252836798
-0.00188521746593
0.0219433506394
-0.00174203931607
0.0227853791028
-0.00159820556049
0.0235515662412
-0.00145464590303
0.0242424994581
-0.00131221602106
0.0248592212989
-0.00117166099338
0.0254030634979
-0.00103365435266
0.0258757223378
-0.000898763670364
0.0262790909288
-0.000767494895106
0.0266153469276
-0.000640258160936
0.0268867855407
-0.000517414924399
0.0270959193255
-0.000399242423625
0.0272453125666
-0.000285981811901
0.027337691475
-0.000177800526246
0.0273757795753
-7.48405302345e-05
0.0273624157354
2.28213484911e-05
0.0273003875979
0.00011512584757
0.0271925637317
0.000202071788271
0.027041737539
0.000283665370859
0.0268507486564
0.000359965674094
0.0266223201675
0.00043103560404
0.0263591964388
0.000496983353523
0.0260639849799
0.000557914993317
0.0257392953823
0.000613977061618
0.0253875830345
0.000665309220318
0.0250112901865
0.000712086781508
0.0246126924071
0.000754474040687
0.0241940409679
0.000792666535816
0.0237574125222
0.00082684518575
0.0233048519689
0.000857218047629
0.0228382257882
0.00088397538959
0.0223593646464
0.000907330724337
0.0218699208448
0.000927476939691
0.0213715099658
0.000944626468251
0.0208655728097
0.000958968642568
0.0203535154124
0.00097070889355
0.0198365757851
0.000980027499423
0.0193159615943
0.000987117775253
0.0187927218683
0.000992146406322
0.0182678816062
0.000995290591826
0.0177423185274
0.000996700120192
0.0172168938299
0.000996533450195
0.0166923339296
0.000994921660088
0.0161693566041
0.000992003404287
0.0156485576523
0.000987890800304
0.0151305316917
0.000982703182949
0.0146157636383
0.000976534946648
0.0141047435384
0.00096948796411
0.0135978628514
0.000961641341392
0.0130955228162
0.000953082359825
0.0125980355754
0.000943878077437
0.0121057257443
0.000934104627738
0.0116188365436
0.000923820580905
0.0111376243789
0.000913094457383
0.0106622702148
0.000901979775939
0.0101929671159
0.000890540651258
0.00972983719278
0.000878828472319
0.00927301214716
0.00086690550015
0.0088225561283
0.000854823153376
0.00837853939894
0.000842643548885
0.00794096746878
0.000830419398519
0.00750984801479
0.000818213479245
0.00708512660673
0.000806080171245
0.00666674702229
0.000794082862233
0.00625459385353
0.000782277172682
0.0058485463297
0.000770726320874
0.0054484280139
0.00075948608296
0.00505405422185
0.000748618137683
0.00466518899048
0.000738176793297
0.00428158615118
0.000728220294416
0.00390295371038
0.000718799266519
0.00352898863478
0.000709965804976
0.00315934874753
0.000701763292175
0.00279368095304
0.00069423250258
0.00243159915937
0.000687401287358
0.00207270016093
0.00068128503701
0.00171652673383
0.000675871934591
0.0013625013601
0.000671114415503
0.00100965720613
0.00066690681701
0.00065556122981
0.000662999040287
0.000293871685961
0.000656366702394
0.000602728875265
0.00151535808933
-0.00435123602485
0.00319883154269
-0.00482013611877
0.00487566036846
-0.00480332937102
0.00652856943486
-0.00473684787297
0.0081493925596
-0.00464677228793
0.00973086239527
-0.00453572310071
0.0112662104631
-0.00440526916306
0.0127492589561
-0.0042571102965
0.0141744704648
-0.00409309680675
0.015537009198
-0.00391517488633
0.0168327401388
-0.00372534565924
0.0180582541543
-0.00352561491166
0.0192108314013
-0.00331796175025
0.0202884423012
-0.00310429734756
0.0212896858662
-0.00288644553376
0.0222137759321
-0.00266611244156
0.0230604638554
-0.00244487979172
0.0238300186029
-0.00222418539708
0.0245231424145
-0.00200532803713
0.0251409520672
-0.00178945715861
0.0256848943563
-0.00157758677839
0.0261567337394
-0.00137059139452
0.0265584720586
-0.00116922532987
0.0268923450284
-0.000974121336698
0.0271607478111
-0.000785811797705
0.0273662403128
-0.000604727023778
0.0275114782228
-0.000431215802883
0.0275992256119
-0.000265541912663
0.0276322901832
-0.000107903142887
0.0276135415426
4.15740882808e-05
0.0275458501008
0.000182817291248
0.0274321092736
0.000315814823353
0.0272751785337
0.000440594201086
0.0270779093388
0.000557235193991
0.0268430893817
0.000665851755183
0.026573472525
0.000766598677383
0.0262717260042
0.000859655869373
0.0259404633845
0.000945236315049
0.0255821943595
0.00102357079171
0.0251993599543
0.0010949160269
0.0247942847954
0.00115954000707
0.0243692141349
0.00121773028194
0.0239262685868
0.00126977984548
0.0234674825926
0.00131599542632
0.0229947616027
0.0013566838763
0.0225099216994
0.00139216036318
0.0220146492977
0.00142273527805
0.0215105416462
0.00144872227198
0.0209990690341
0.00147042572102
0.0204816158953
0.00148814866457
0.019959445503
0.0015021809524
0.0194337413149
0.00151280715088
0.0189055739742
0.00152029549834
0.0183759424759
0.0015249059053
0.0178457432495
0.00152687986058
0.0173158106324
0.00152644859261
0.0167868876725
0.00152382399696
0.0162596653836
0.00151920700686
0.0157347549368
0.00151277956355
0.0152127251713
0.00150471313628
0.0146940758176
0.00149516165575
0.0141792728367
0.00148427008583
0.0136687224542
0.00147216819359
0.0131628039981
0.00145897899161
0.0126618445923
0.00144481315806
0.0121661493278
0.00142977717418
0.0116759766389
0.00141396821536
0.0111915657663
0.00139748178805
0.010713112917
0.00138040691705
0.0102407961166
0.00136283314438
0.00977475238804
0.0013448458937
0.00931510015742
0.00132653271933
0.00886191770507
0.00130797876922
0.00841526335397
0.00128927224744
0.00797515549467
0.00127049996071
0.00754159077782
0.0012517519871
0.00711452596767
0.00123311732591
0.00669389435384
0.00121468781943
0.00627958967422
0.00119655396299
0.00587148090531
0.00117880813192
0.00546939841616
0.00116154061491
0.00507314725466
0.00114484221207
0.00468249564773
0.00112880054783
0.00429718681759
0.00111350206571
0.00391692982028
0.00109902862435
0.0035414097771
0.00108545884053
0.00317028072147
0.0010728648561
0.00280317329249
0.00106131284191
0.0024396873639
0.00105085984709
0.00207939169569
0.00104155383152
0.00172180371476
0.0010334331328
0.00136635660165
0.00102653588757
0.00101232280537
0.00102091602529
0.000658790428405
0.00101650624432
0.000306485288995
0.00100864690305
0.000909202446127
0.00153870140079
-0.00588991561396
0.00324521038905
-0.00652662061816
0.00494519840961
-0.00650329396511
0.00662058803634
-0.00641221384252
0.00826274511201
-0.00628890644622
0.00986407625647
-0.00613703135271
0.0114175919851
-0.00595876277726
0.0129169545254
-0.00575645086304
0.0143565275388
-0.0055326487964
0.0157314170099
-0.00529004354345
0.0170374812419
-0.00503139018881
0.0182713346409
-0.00475944886702
0.0194303236079
-0.00447693253091
0.0205125029777
-0.00418645881323
0.021516588307
-0.00389051432898
0.0224419153268
-0.00359142322669
0.0232883788524
-0.00329132855394
0.0240563848973
-0.00299217697821
0.0247467853755
-0.0026957155957
0.0253608310806
-0.00240349024294
0.0259001094618
-0.0021168541493
0.0263665042581
-0.00183697546492
0.0267621407024
-0.00156485270043
0.0270893543369
-0.00130132617042
0.0273506446908
-0.00104709504144
0.0275486527721
-0.00080272824661
0.0276861218284
-0.000568679708815
0.0277658814383
-0.000345296607549
0.0277908133437
-0.000132831858625
0.0277638402961
6.85501112026e-05
0.0276878958807
0.000258762956801
0.0275659158796
0.000437795877093
0.0274008124034
0.000605697001896
0.0271954689726
0.000762577771732
0.0269527169545
0.00090860120708
0.0266753342523
0.00104397864985
0.026366024084
0.00116896160814
0.0260274166272
0.00128383919894
0.0256620504769
0.0013889306987
0.0252723766099
0.00148458352122
0.0248607421768
0.00157116642463
0.0244293964389
0.0016490678948
0.0239804766957
0.00171868986315
0.0235160159605
0.00178044634093
0.0230379309284
0.00183475752784
0.0225480312523
0.00188204858338
0.0220480095033
0.00192274406497
0.0215394519242
0.00195726682837
0.021023830321
0.00198603284672
0.0205025141472
0.00200945031971
0.0199767641936
0.00202791499537
0.0194477457579
0.00204180964975
0.0189165238908
0.00205150009646
0.0183840773064
0.00205733521324
0.017851294829
0.00205964379909
0.0173189895889
0.00205873530064
0.0167878962298
0.00205489762786
0.016258684896
0.00204839863666
0.0157319587315
0.00203948490146
0.0152082671672
0.00202838391091
0.0146881032853
0.00201530369494
0.0141719160007
0.00200043557841
0.0136601069662
0.00198395445687
0.0131530413611
0.00196602188429
0.0126510441509
0.00194678674491
0.0121544093564
0.00192638841058
0.0116633956356
0.00190495753656
0.0111782340492
0.0018826190403
0.0106991230669
0.00185949278706
0.0102262349793
0.00183569618347
0.0097597105378
0.00181134457332
0.00929966424126
0.00178655331386
0.00884617887656
0.00176143778323
0.00839930995492
0.00173611487935
0.00795908044122
0.00171070261038
0.00752548460753
0.00168532102786
0.00709848321545
0.00166009143677
0.00667800702759
0.00163513682264
0.00626395266552
0.00161058075633
0.00585618596065
0.00158654740728
0.00545453864258
0.00156316023972
0.00505881164452
0.00154054171045
0.00466877269924
0.00151881185073
0.00428415961604
0.0014980877365
0.00390467872156
0.00147848203402
0.00353000794228
0.00146010231588
0.00315979571902
0.00144304967542
0.00279366315284
0.00142741810374
0.00243120195095
0.00141329366985
0.00207197318431
0.00140075542978
0.00171550141823
0.00138987852329
0.00136126901836
0.00138074255986
0.00100872525571
0.00137343408442
0.000657465391174
0.00136774141027
0.000309169010943
0.00135691875621
0.00121835913261
0.00156867088666
-0.00745856411871
0.00330705330811
-0.00826497949643
0.00503832249983
-0.00823453887545
0.00674376858337
-0.00811763621712
0.00841431486149
-0.0079594292403
0.0100419965656
-0.00776468997901
0.0116195370992
-0.00753628071765
0.0131403880796
-0.0072772797083
0.0145987776997
-0.00699101692355
0.0159897418324
-0.00668098674727
0.0173091320561
-0.00635076025154
0.0185536075898
-0.00600390489314
0.0197206083143
-0.0056439146091
0.0208083176227
-0.00527415020201
0.021815611853
-0.00489779157855
0.0227420055756
-0.00451780074575
0.0235875887045
-0.00413689647331
0.0243529649738
-0.00375753885633
0.0250391868636
-0.00338192413447
0.0256476964788
-0.00301198734841
0.026180266334
-0.00264941256293
0.0266389490872
-0.00229564763645
0.0270260287563
-0.00195192287932
0.0273439817128
-0.00161927050078
0.0275954386612
-0.0012985444639
0.0277831554146
-0.000990438342161
0.0279099829774
-0.00069550172146
0.0279788448727
-0.000414153812442
0.0279927122596
-0.000146695659233
0.0279545853468
0.000106679753794
0.0278674720568
0.000345877874174
0.0277343713113
0.000570897408743
0.0275582567824
0.000781811225964
0.0273420629477
0.000978770469157
0.0270886704099
0.0011619915267
0.0268008965362
0.00133174949312
0.0264814830745
0.00148837097871
0.0261330896196
0.00163222776701
0.0257582838424
0.00176373054686
0.0253595372799
0.00188332338505
0.0249392177564
0.00199147823527
0.0244995871574
0.00208869003402
0.0240427958139
0.00217547175922
0.0235708820802
0.00225234991231
0.0230857685724
0.00231985992101
0.0225892634854
0.00237854186938
0.0220830586644
0.00242893616623
0.0215687326191
0.00247157950422
0.0210477503763
0.00250700084289
0.0205214681061
0.00253571772632
0.0199911346387
0.00255823276128
0.0194578975006
0.00257503050931
0.0189228058265
0.00258657470005
0.0183868174695
0.00259330595814
0.0178508029143
0.00259563999362
0.0173155529914
0.00259396636292
0.0167817832798
0.00258864777884
0.0162501418912
0.00258002000162
0.0157212138322
0.00256839228241
0.0151955283282
0.00255404831496
0.0146735626494
0.00253724766836
0.0141557485364
0.0025182275996
0.0136424751282
0.00249720521249
0.013134094192
0.00247437981898
0.0126309219392
0.00244993548079
0.0121332429407
0.0024240435733
0.0116413108061
0.00239686535952
0.0111553508287
0.00236855441746
0.0106755596443
0.00233925893389
0.010202106795
0.0023091237301
0.00973513361221
0.00227829205118
0.00927475397006
0.00224690701221
0.00882105268941
0.00221511275652
0.00837408579639
0.00218305525386
0.00793387876585
0.00215088280368
0.00750042658494
0.00211874620073
0.00707369211787
0.00208679863634
0.00665360623574
0.00205519531968
0.00624006653711
0.00202409288599
0.00583293773413
0.00199364859613
0.00543205088245
0.00196401938629
0.00503720413808
0.00193536078718
0.00464816256548
0.00190782575799
0.00426465927577
0.00188156346356
0.00388639575133
0.00185671803729
0.00351304324711
0.00183342738174
0.00314424340215
0.00181182207395
0.00277960951568
0.00179202452528
0.00241872711648
0.00177414869197
0.00206115480161
0.00175830063127
0.00170642551075
0.00174458087549
0.00135405348385
0.0017330887322
0.00100355857713
0.00172390440861
0.000654621391015
0.0017166530529
0.000308858423398
0.0017026563252
0.00152720574258
0.00160656625853
-0.00906510780573
0.00338615136198
-0.0100445392084
0.00515767001293
-0.0100060332374
0.00690164059022
-0.00986158242172
0.00860846276944
-0.00966622761735
0.0102697275469
-0.00942593125046
0.011877803806
-0.00914433399278
0.0134258832345
-0.00882533663267
0.014908027753
-0.00847313957259
0.0163191942985
-0.00809213203027
0.0176552356427
-0.00768678108383
0.0189128816578
-0.00726153110032
0.020089702661
-0.00682071665212
0.0211840600237
-0.00636848937884
0.0221950454707
-0.00590875975961
0.0231224142015
-0.00544515303951
0.0239665127717
-0.00498097958404
0.0247282067328
-0.00451921822363
0.0254088084514
-0.00406251227586
0.0260100097548
-0.00361317596733
0.0265338189245
-0.0031732100949
0.0269825057455
-0.00274432372664
0.0273585526783
-0.00232796014408
0.0276646145081
-0.00192532357855
0.0279034830784
-0.00153740535636
0.0280780585084
-0.00116500701015
0.0281913229125
-0.000808760438516
0.0282463181208
-0.000469144247017
0.0282461238563
-0.000146497694788
0.0281938385877
0.000158967814617
0.0280925605518
0.000447157635978
0.0279453700844
0.000718088704411
0.0277553148268
0.000971866253102
0.0275253949932
0.00120868918696
0.0272585502606
0.00142883410098
0.0269576492889
0.00163264743564
0.0266254793784
0.00182053683472
0.0262647387877
0.00199296345242
0.0258780289366
0.00215043449198
0.0254678489779
0.00229349660774
0.0250365900736
0.00242272942837
0.0245865318522
0.0025387397405
0.0241198385127
0.00264215564139
0.0236385570239
0.00273362116744
0.0231446150045
0.00281379079762
0.0226398206659
0.00288332432129
0.0221258624991
0.00294288157696
0.0216043109926
0.00299311754358
0.0210766201453
0.0030346773931
0.0205441309336
0.00306819196684
0.0200080745595
0.00309427337873
0.019469577496
0.00311351117878
0.0189296662149
0.00312646884533
0.0183892734592
0.00313368098025
0.0178492440128
0.003135651012
0.0173103416832
0.00313284970572
0.0167732555396
0.00312571428697
0.016238607004
0.00311464838408
0.0157069559402
0.00310002259245
0.0151788072526
0.00308217577035
0.0146546162706
0.00306141686337
0.0141347943598
0.00303802728449
0.0136197131865
0.00301226365111
0.0131097090178
0.00298436085028
0.0126050856441
0.00295453525011
0.0121061172504
0.00292298799424
0.0116130499771
0.00288990823286
0.0111261034382
0.00285547621802
0.0106454710794
0.00281986616211
0.010171320576
0.00278324879232
0.00970379327489
0.00274579355325
0.00924300379772
0.00270767040677
0.00878903891792
0.00266905123119
0.00834195673069
0.00263011078455
0.0079017853211
0.00259102727777
0.00746852184028
0.00255198253692
0.00704213127886
0.0025131618302
0.00662254573434
0.00247475334555
0.0062096635353
0.00243694741688
0.00580334890396
0.00239993548375
0.0054034315922
0.0023639088945
0.00500970705397
0.00232905753408
0.00462193665943
0.00229556839103
0.00423984839823
0.00226362404417
0.00386313763403
0.00223340118772
0.00349146827829
0.0022050691861
0.00312447399279
0.00217878881069
0.00276175979185
0.00215471119649
0.00240290374978
0.00213297719203
0.00204745953131
0.00211371746054
0.00169496079377
0.00209705316165
0.00134492854299
0.00208309508941
0.000996891790005
0.00207191510986
0.000650512293265
0.00206300770666
0.000307274942965
0.00204586896365
0.00183446817625
0.00165321719834
-0.0107183016555
0.00348378681401
-0.0118750844784
0.00530505680247
-0.0118272779
0.0070965431489
-0.0116530441659
0.00884799175491
-0.0114176517733
0.0105504499674
-0.0111283655255
0.0121958577393
-0.0107897182619
0.0137770972088
-0.0104065531694
0.0152880389883
-0.00998405900971
0.0167235592364
-0.00952763062547
0.0180795300989
-0.00904273099938
0.0193527875776
-0.00853476842632
0.0205410813061
-0.00800899101844
0.0216430101927
-0.00747039978016
0.0226579478652
-0.00692367980179
0.0235859612218
-0.0063731497033
0.0244277256209
-0.00582272819036
0.025184439686
-0.0052759174786
0.0258577430545
-0.00473580176739
0.0264496395933
-0.00420505964149
0.0269624286572
-0.00368598724697
0.0273986455912
-0.00318052978156
0.0277610123126
-0.00269031695187
0.0280523971016
-0.00221669949703
0.0282757825069
-0.00176078286005
0.0284342390224
-0.00132345667224
0.0285309028363
-0.000905418367726
0.0285689555393
-0.000507192110172
0.028551605062
-0.000129143340967
0.0284820668596
0.000228508850922
0.0283635460593
0.000565680312421
0.0281992215674
0.000882414041074
0.0279922283069
0.00117885941176
0.0277456452084
0.00145527116223
0.0274624819969
0.00171199525594
0.0271456685319
0.00194945784061
0.0267980458287
0.00216815556297
0.0264223581771
0.00236864614584
0.0260212466276
0.0025515401884
0.0255972432519
0.00271749317319
0.0251527665164
0.00286719848422
0.0246901172726
0.00300138037598
0.0242114757833
0.00312078768022
0.0237188993579
0.00322618724814
0.0232143210484
0.00331835795299
0.0226995490207
0.00339808433671
0.0221762670475
0.00346615076227
0.0216460357435
0.00352333524263
0.0211102949529
0.00357040384105
0.0205703668995
0.00360810490222
0.0200274604393
0.00363716402138
0.0194826759922
0.00365827907795
0.0189370114079
0.00367211622352
0.0183913683093
0.00367930618683
0.01784655909
0.00368044172201
0.0173033140844
0.00367607556301
0.0167622890348
0.00366671961363
0.0162240723863
0.00365284471629
0.0156891925088
0.00363488162058
0.0151581244195
0.00361322246351
0.0146312961126
0.00358822328331
0.0141090941398
0.00356020686749
0.0135918685786
0.00352946637094
0.0130799371112
0.00349626901675
0.0125735883886
0.003460860258
0.0120730844928
0.0034234677544
0.0115786627027
0.00338430550721
0.0110905364504
0.00334357756978
0.0106088956977
0.00330148166526
0.0101339066776
0.00325821221039
0.00966571123442
0.00321396307395
0.00920442574452
0.00316892965479
0.00875013983413
0.00312331061072
0.00830291490039
0.00307730890488
0.00786278261965
0.00303113249478
0.0074297434538
0.00298499440453
0.00700376530039
0.00293911248747
0.00658478229593
0.00289370868212
0.00617269387582
0.00284900804066
0.00576736409098
0.00280523738124
0.00536862124593
0.00276262381032
0.00497625784621
0.00272139300565
0.00459003088488
0.00268176746898
0.00420966244728
0.00264396467231
0.00383484062596
0.00260819527462
0.00346522076934
0.00257466136953
0.00310042701512
0.00254355490936
0.0027400542019
0.00251505631138
0.0023836703898
0.00248933343227
0.00203081991184
0.00246654064773
0.00168102762974
0.00244681823474
0.00133380643173
0.00243029022277
0.000988670956187
0.00241702597405
0.000645242082806
0.00240641073576
0.00030490672359
0.00238617860153
0.00213936303746
0.00170943745795
-0.0124277155168
0.00360150673761
-0.0137671270534
0.00548272478036
-0.0137084705521
0.00733135015899
-0.0135016440212
0.00913631464036
-0.0132225913555
0.0108880054796
-0.0128800317866
0.0125778515894
-0.0124795403411
0.014198377196
-0.0120270552722
0.0157432432519
-0.0115289022202
0.0172072537741
-0.0109916189668
0.0185863311027
-0.0104217869243
0.0198774667105
-0.00982588339591
0.021078652703
-0.00921015724559
0.022188799417
-0.00858052756688
0.0232076427623
-0.00794250516317
0.0241356456494
-0.00730113549747
0.0249738964634
-0.00666096290684
0.0257240088406
-0.00602601468489
0.0263880256985
-0.00539980448526
0.0269683317072
-0.00478535246055
0.027467576392
-0.00418521979734
0.0278886105629
-0.00360155278155
0.0282344358019
-0.00303613208879
0.0285081667817
-0.00249042134518
0.0287130031914
-0.0019656112145
0.0288522089161
-0.00146265531194
0.0289290944058
-0.000982297848898
0.0289470005785
-0.000525093240802
0.0289092819515
-9.14207446026e-05
0.0288192895273
0.000318504282187
0.0286803508052
0.000704620974637
0.0284957588534
0.00106700698138
0.0282687510781
0.00140586711824
0.0280024972925
0.00172152393876
0.0277000875505
0.00201440294702
0.0273645223065
0.00228502010922
0.0269987038193
0.00253397005175
0.0266054293346
0.00276191572725
0.026187384914
0.00296957870705
0.0257471405584
0.00315773074447
0.0252871456785
0.00332718560885
0.0248097256857
0.00347879175831
0.0243170789043
0.00361342491378
0.0238112746294
0.00373198115037
0.0232942516195
0.00383536968938
0.0227678178355
0.0039245060573
0.0222336507605
0.00400030491399
0.0216932990694
0.00406367325727
0.0211481849946
0.00411550342254
0.0205996080743
0.00415666661576
0.0200487496124
0.0041880065055
0.0194966784217
0.00421033361785
0.0189443571434
0.00422442012631
0.0183926495902
0.00423099573369
0.017842328377
0.00423074425184
0.0172940831884
0.00422430147962
0.0167485289462
0.00421225395426
0.0162062141663
0.00419513904857
0.0156676288152
0.00417344594239
0.0151332119324
0.00414761781275
0.0146033584152
0.00411805473138
0.0140784252445
0.00408511750584
0.0135587366531
0.00404913193942
0.0130445885495
0.0040103936724
0.0125362518124
0.00396917309817
0.0120339748028
0.00392572047751
0.011537984817
0.00388027079621
0.0110484888501
0.0038330484819
0.0105656734842
0.0037842716008
0.0100897042726
0.00373415566305
0.00962072449767
0.00368291674763
0.00915885365568
0.00363077409596
0.0087041855848
0.00357795197365
0.00825678654764
0.00352468096874
0.00781669320492
0.00347119860012
0.00738391073903
0.0034177494125
0.00695841107006
0.00336458449057
0.00654013136548
0.00331196056097
0.00612897278751
0.0032601386584
0.00572479962081
0.0032093825063
0.00532743872643
0.00315995661843
0.00493667940773
0.00311212424726
0.00455227363788
0.00306614520612
0.00417393669238
0.00302227366479
0.00380134813538
0.00298075595851
0.00343415321006
0.00294182848361
0.00307196458362
0.00290571573636
0.0027143645905
0.00287262853251
0.00236090785629
0.00284276237529
0.00201112465349
0.002816296201
0.00166452541768
0.00279339087232
0.00132060502263
0.00277418451646
0.000978853681897
0.00275875087607
0.000638856309366
0.00274638312935
0.000301927108415
0.00272308295346
0.0024412774653
0.00177617974142
-0.0142038705899
0.00374122547616
-0.0157321472337
0.00569348089054
-0.015660699225
0.00760965316879
-0.0154177903899
0.00947767830135
-0.0150905907133
0.0112871502368
-0.0146894785144
0.0130289004721
-0.0142212658272
0.0146950504691
-0.0136931811413
0.0162790438123
-0.0131128720624
0.0177756353093
-0.0124881877094
0.0191808454194
-0.011826975026
0.0204918880358
-0.0111369048605
0.0217070792481
-0.0104253281371
0.0228257322102
-0.00969916114799
0.0238480430642
-0.00896479752821
0.0247749711001
-0.00822804604363
0.0256081174536
-0.00749409270396
0.026349605671
-0.00676748738661
0.0270019692248
-0.00605215348442
0.0275680497643
-0.00535141951326
0.0280509108631
-0.00466806838657
0.0284537692011
-0.00400439969513
0.0287799446424
-0.00336229709159
0.0290328266531
-0.00274329401178
0.0292158539987
-0.00214863020392
0.0293325017537
-0.00157929580895
0.029386271476
-0.00103606129886
0.0293806799633
-0.000519496550468
0.0293192457105
-2.99822935021e-05
0.0292054721629
0.000432280935983
0.029042827513
0.000867267757076
0.0288347336518
0.00127510189293
0.0285845441048
0.0016560567536
0.0282955315346
0.00201053552671
0.0279708766236
0.00233905592793
0.0276136586674
0.00264223508265
0.0272268484498
0.00292077635682
0.0268133019825
0.00317545725088
0.0263757556343
0.00340711920304
0.0259168214826
0.00361665803946
0.0254389836731
0.00380501567894
0.0249445948774
0.0039731718418
0.0244358737757
0.00412213645
0.0239149027825
0.00425294164214
0.0233836269575
0.00436663419404
0.0228438533799
0.00446426741935
0.0222972518967
0.00454689339997
0.0217453565509
0.0046155547551
0.0211895685314
0.00467127685268
0.0206311599403
0.00471505981326
0.0200712791004
0.00474787125186
0.0195109566486
0.00477063922032
0.0189511129844
0.00478424628434
0.0183925662618
0.00478952424292
0.0178360413511
0.0047872503356
0.0172821789269
0.00477814441901
0.0167315450134
0.00476286781309
0.0161846401648
0.00474202323345
0.0156419085711
0.00471615634552
0.0151037463422
0.00468575829011
0.0145705092689
0.00465126956848
0.0140425194268
0.00461308459722
0.0135200709605
0.00457155721022
0.013003434548
0.00452700641897
0.0124928609293
0.00447972264365
0.0119885831325
0.0044299737711
0.011490817823
0.00437801122887
0.0109997655216
0.00432407551344
0.0105156101381
0.00426840137152
0.0100385176503
0.00421122217917
0.00956863436738
0.0041527737447
0.00910608465969
0.00409329719321
0.00865096855401
0.00403304118611
0.00820335910581
0.00397226323811
0.00776329988597
0.00391123039756
0.00733080250337
0.00385021913693
0.00690584443164
0.00378951471356
0.00648836706371
0.0037294099097
0.00607827419314
0.00367020338971
0.00567543084489
0.00361219762772
0.0052796625925
0.00355569661116
0.00489075528168
0.00350100330509
0.00450845524486
0.00344841704424
0.00413246993357
0.00339823085812
0.00376246900102
0.0033507288568
0.00339808582364
0.00330618369547
0.00303891943004
0.00326485419074
0.0026845368715
0.00322698310762
0.00233447621063
0.00319279520411
0.00198824970806
0.00316249517886
0.0016453473261
0.00313626571521
0.00130524190268
0.00311426361615
0.000967397229683
0.0030965708645
0.000631361627048
0.0030823925676
0.000298390760369
0.00305602777838
0.00273965630909
0.00185460227125
-0.0160584478235
0.00390531504505
-0.0177828315291
0.00594080553282
-0.017696162776
0.00793589592075
-0.0174128536505
0.00987731316285
-0.0170319815258