/*--------------------------------*- C++ -*----------------------------------*\
| =========                 |                                                 |
| \\      /  F ield         | OpenFOAM: The Open Source CFD Toolbox           |
|  \\    /   O peration     | Version:  v1906                                 |
|   \\  /    A nd           | Web:      www.OpenFOAM.com                      |
|    \\/     M anipulation  |                                                 |
\*---------------------------------------------------------------------------*/
FoamFile
{
    version     2.0;
    format      ascii;
    class       surfaceScalarField;
    location    "583";
    object      phi;
}
// * * * * * * * * * * * * * * * * * * * * * * * * * * * * * * * * * * * * * //

dimensions      [0 3 -1 0 0 0 0];
oriented        oriented;


internalField   nonuniform List<scalar> 
18240
(
-0.000352253675574
0.000352267497716
-0.000737947496381
0.000385713218325
-0.0011232965508
0.000385362015775
-0.00150367641272
0.000380400470326
-0.00187702174898
0.000373356536735
-0.0022415815295
0.000364581393806
-0.00259584912401
0.00035427702363
-0.00293845413711
0.000342627437561
-0.00326824579207
0.000329799249126
-0.00358419591628
0.000315973149636
-0.0038855010266
0.000301310777511
-0.0041714631607
0.000285985561267
-0.00444160266263
0.000270143213349
-0.00469551750729
0.000253938482057
-0.00493300787115
0.0002374920769
-0.00515391790007
0.000220933695906
-0.00535827389813
0.000204355733992
-0.00554611229802
0.000187861921561
-0.00571763231106
0.000171517769439
-0.00587301296555
0.000155403869698
-0.00601258007839
0.000139562952686
-0.0061366143171
0.000124056995931
-0.00624553132492
0.000108910964202
-0.00633968210899
9.41729495043e-05
-0.00641954471108
7.98547729658e-05
-0.00648551785305
6.59945935211e-05
-0.0065381221678
5.25947612342e-05
-0.006577787936
3.96864028516e-05
-0.00660506406475
2.72649731986e-05
-0.00662040091071
1.53565719675e-05
-0.00662436570525
3.9521153119e-06
-0.00661741927432
-6.92768870797e-06
-0.00660013398494
-1.72993576234e-05
-0.00657297148087
-2.71448152413e-05
-0.00653650512241
-3.6481730936e-05
-0.00649119298446
-4.52955571489e-05
-0.00643760138073
-5.36081429064e-05
-0.00637617756573
-6.14083899516e-05
-0.00630747391051
-6.87212743357e-05
-0.00623192101215
-7.55386636301e-05
-0.00615005145195
-8.18881240213e-05
-0.00606227433491
-8.77641024635e-05
-0.00596909759619
-9.31961637874e-05
-0.0058709049604
-9.81808603544e-05
-0.00576817596772
-0.000102749150763
-0.00566126624287
-0.000106899204629
-0.00555062433023
-0.000110662726037
-0.00543657609131
-0.000114038980927
-0.00531953761555
-0.00011705982511
-0.00519980446398
-0.000119725161035
-0.00507775983987
-0.000122066437874
-0.00495366933388
-0.000124083780378
-0.00482788370538
-0.000125807796326
-0.00470063969672
-0.000127238544425
-0.00457225670032
-0.000128405452038
-0.00444294416474
-0.000129308322446
-0.00431299158203
-0.000129975224262
-0.00418258294111
-0.000130405668236
-0.0040519794093
-0.00013062629759
-0.00392134126609
-0.000130636394897
-0.00379090281049
-0.000130461252353
-0.00366080216492
-0.000130100106342
-0.00353124789859
-0.000129577037718
-0.0034023570889
-0.00012889146078
-0.00327431330417
-0.000128066448277
-0.00314721328047
-0.000127101848791
-0.00302121587798
-0.000126019909691
-0.00289639773298
-0.000124821126166
-0.00277289293727
-0.000123527077278
-0.00265075799141
-0.000122139067563
-0.00253010192836
-0.000120678078109
-0.0024109608829
-0.000119146288432
-0.00229341848788
-0.000117564082027
-0.00217749032785
-0.000115934500712
-0.00206323440425
-0.000114277236152
-0.00195064571658
-0.000112596089137
-0.00183975667299
-0.000110909907848
-0.00173054198973
-0.000109223093237
-0.00162300889246
-0.000107553438736
-0.00151711250263
-0.00010590573535
-0.00141283573359
-0.000104296484775
-0.00131011529826
-0.000102730630309
-0.00120891118614
-0.000101223103832
-0.00110914344633
-9.97787066308e-05
-0.00101075121389
-9.84104288526e-05
-0.000913640506446
-9.71224288244e-05
-0.000817733011353
-9.5924914069e-05
-0.000722925720874
-9.48198081136e-05
-0.000629131330022
-9.38110643527e-05
-0.000536254364311
-9.28901157048e-05
-0.00044423622822
-9.20337812846e-05
-0.000353081288475
-9.11682801047e-05
-0.000263001051017
-9.00940282853e-05
-0.000174905550817
-8.81084603254e-05
-9.237187881e-05
-8.25491507514e-05
-9.2380352266e-05
-0.000389360204343
0.000741643550254
-0.00082405254185
0.000820424161814
-0.00125627470861
0.000817600613185
-0.00168219025813
0.000806334541775
-0.00209987798107
0.000791060042037
-0.00250755060977
0.000772272461748
-0.00290355716901
0.000750298589593
-0.00328639689461
0.000725485400274
-0.00365477354944
0.000698189976168
-0.00400756420855
0.00066878167709
-0.00434385973948
0.000637619320484
-0.00466291377282
0.000605056939567
-0.00496418024409
0.000571421518821
-0.00524724930001
0.000537024219289
-0.00551188634469
0.000502139697516
-0.005757959496
0.000467022741661
-0.00598548335061
0.000431888826647
-0.00619454151862
0.000396935085817
-0.00638533705309
0.000362321159021
-0.00655811234501
0.000328193166034
-0.00671320688457
0.00029466391963
-0.00685097566798
0.000261838711902
-0.00697185394796
0.000229794233607
-0.00707627453428
0.000198605335462
-0.00716473858973
0.00016832236882
-0.00723773178667
0.000138998409502
-0.00729579994122
0.00011066502791
-0.00733946387702
8.33597470038e-05
-0.00736929867477
5.71004719124e-05
-0.00738584700158
3.1913076676e-05
-0.00738970019652
7.80464329766e-06
-0.00738141257352
-1.52083699749e-05
-0.00736158644579
-3.71274850975e-05
-0.0073307809685
-5.79445882893e-05
-0.00728959658385
-7.76693919385e-05
-0.00723858640903
-9.63012553096e-05
-0.00717834202622
-0.000113857032376
-0.00710940414411
-0.000130343008509
-0.00703234852417
-0.000145782566377
-0.00694769694464
-0.000160188170135
-0.00685600304316
-0.000173588810092
-0.00675776405675
-0.000186002181588
-0.00665350624704
-0.00019746180257
-0.00654369782912
-0.000207989506206
-0.00642883366526
-0.000217622132846
-0.00630934973391
-0.000226384468052
-0.00618570676303
-0.00023431543646
-0.00605830655111
-0.000241441593744
-0.00592757423286
-0.000247802748733
-0.00579387670625
-0.000253426122341
-0.00565760320769
-0.000258351341516
-0.0055190860655
-0.000262605352705
-0.00537867928535
-0.000266226726402
-0.00523668180301
-0.00026924141458
-0.00509341376976
-0.000271686316067
-0.00494914245586
-0.000273585941302
-0.00480415595735
-0.000274975180294
-0.00465869187157
-0.000275876936452
-0.00451300814807
-0.000276324043856
-0.00436731465587
-0.000276337905428
-0.00422184094792
-0.000275949495808
-0.00407677083192
-0.000275179036752
-0.00393230683525
-0.000274056025338
-0.0037886079079
-0.000272599958602
-0.00364585043252
-0.000270839321755
-0.00350416919324
-0.000268793377888
-0.00336371479825
-0.000266490060029
-0.00322459806651
-0.00026394883189
-0.00308694378244
-0.000261197432423
-0.00295083865139
-0.000258255824818
-0.00281638131681
-0.000255151756822
-0.00268363403779
-0.000251905812935
-0.00255266893282
-0.000248545763601
-0.00242352351448
-0.00024509274695
-0.00229624311786
-0.000241574392459
-0.00217084041326
-0.000238012155632
-0.00204733399428
-0.000234433208781
-0.00192571196224
-0.000230858956804
-0.00180596663406
-0.000227315692101
-0.00168806227453
-0.000223824311865
-0.00157196589587
-0.000220409734482
-0.00145761919595
-0.00021709183401
-0.00134496540999
-0.000213893604896
-0.00123392551151
-0.000210833307622
-0.00112442109679
-0.000207931336579
-0.00101635489758
-0.000205203509137
-0.000909629645181
-0.000202666463726
-0.0008041327777
-0.000200331776893
-0.000699750685212
-0.000198209286384
-0.000596355182264
-0.000196300859564
-0.00049380452679
-0.000194599882737
-0.000391903758354
-0.000193083739669
-0.000290303790812
-0.000191708746889
-0.000188035209216
-0.000190391171114
-8.22892965305e-05
-0.000188308986025
-0.000174676662052
-0.000396318163653
0.00113797807812
-0.000836655447261
0.00126077909301
-0.00127513317423
0.00125609585386
-0.00170723509452
0.00123845420235
-0.00213083288508
0.00121467486189
-0.00254405559629
0.00118551262791
-0.00294520171052
0.00115146117074
-0.00333274970567
0.00111305039231
-0.00370538249577
0.00107083854369
-0.00406198127671
0.00102539683293
-0.0044016354891
0.000977288472681
-0.00472362164684
0.000927058707093
-0.00502740530276
0.000875219160063
-0.0053126110619
0.000822244696593
-0.00557902180551
0.000768563357117
-0.00582654478247
0.00071455943797
-0.00605521203288
0.000660567842083
-0.00626514599021
0.000606881669286
-0.00645656345281
0.000553749153093
-0.00662974260054
0.000501383772223
-0.00678503144809
0.000449962018073
-0.00692281691014
0.000399634403734
-0.00704353757971
0.000350522824752
-0.00714765467069
0.000302731387408
-0.00723566840774
0.000256342685535
-0.00730809027866
0.000211427944508
-0.00736546207567
0.000168042045547
-0.00740832883931
0.000126232868902
-0.00743725968748
8.60351982089e-05
-0.00745282096052
4.74794009494e-05
-0.00745559823752
1.05844626456e-05
-0.00744616941129
-2.46334379636e-05
-0.00742512739217
-5.81682614672e-05
-0.00739305303148
-9.00164675473e-05
-0.00735053808207
-0.000120184376074
-0.00729815810038
-0.000148680003423
-0.00723649571736
-0.00017552067859
-0.00716611369456
-0.000200725015392
-0.00708757834698
-0.000224320372108
-0.00700143287733
-0.000246334802248
-0.00690822092406
-0.000266804359829
-0.00680846034471
-0.000285765063703
-0.00670266681744
-0.000303260025138
-0.00659132822838
-0.000319331493315
-0.00647492828028
-0.000334027815117
-0.00635392159101
-0.000347395608412
-0.0062287572045
-0.000359486553736
-0.00609985448854
-0.000370349766079
-0.00596762646695
-0.000380038437027
-0.00583245655966
-0.000388602447104
-0.00569472160036
-0.000396094860021
-0.0055547694491
-0.000402564833634
-0.00541294158519
-0.00040806398191
-0.005269551585
-0.000412639611482
-0.00512490713526
-0.00041634094583
-0.00497928936526
-0.000419212725708
-0.00483297415887
-0.000421301296079
-0.0046862123085
-0.000422648573389
-0.00453924997703
-0.000423297970077
-0.004392309656
-0.000423288736254
-0.00424560967818
-0.000422661696847
-0.00409934596267
-0.000421453940863
-0.003953710474
-0.000419704323345
-0.0038088737708
-0.000417448483037
-0.00366500236873
-0.000414724067307
-0.00352224212237
-0.000411566037793
-0.00338073445441
-0.000408011568062
-0.00324060063515
-0.00040409561673
-0.00310195689365
-0.000399855466061
-0.00296489966443
-0.000395326536907
-0.00282951959075
-0.000390546541633
-0.00269588782455
-0.000385551542163
-0.00256406896227
-0.000380379712951
-0.0024341084702
-0.000375067643157
-0.0023060445715
-0.000369653711454
-0.00217989686652
-0.000364174653849
-0.00205567720036
-0.000358668565759
-0.00193337952271
-0.000353171750701
-0.0018129897376
-0.000347721363287
-0.00169447683934
-0.000342352561944
-0.00157780174937
-0.000337100807335
-0.00146290974237
-0.000331999327801
-0.00134973825148
-0.00032708107523
-0.00123821058675
-0.000322376503248
-0.00112824267448
-0.000317915160819
-0.00101973799631
-0.000313723743471
-0.00091259307194
-0.000309827257461
-0.000806693231065
-0.000306247259568
-0.000701915841768
-0.000303002503737
-0.000598124688555
-0.000300107560826
-0.000495166069952
-0.000297574046353
-0.000392851461687
-0.000295413246624
-0.000290928471508
-0.000293646001044
-0.000189056560499
-0.000292277742846
-8.73472021366e-05
-0.000290032892821
-0.000262030690137
-0.000402522855992
0.00154051746179
-0.000848978433372
0.00170725292957
-0.00129355853827
0.00170069366348
-0.00173152027237
0.00167643375716
-0.00216059863031
0.00164377062348
-0.00257883327293
0.00160376465156
-0.00298446384311
0.00155710867523
-0.00337593812953
0.00150454152439
-0.0037519247211
0.00144684143018
-0.00411131197931
0.0013848002528
-0.0044532060987
0.00131919810072
-0.00477691652288
0.00125078446893
-0.0050819444551
0.00118026167927
-0.00536796089673
0.00110827552805
-0.00563479158952
0.00103540760749
-0.00588239309096
0.000962174275514
-0.00611083861425
0.00088902579295
-0.00632029570568
0.000816350952309
-0.00651101549478
0.000744480165914
-0.00668331365938
0.000673692911777
-0.0068375638963
0.000604222208745
-0.00697418243093
0.000536262640698
-0.00709362539902
0.000469974438248
-0.00719637633097
0.000405490712147
-0.00728294656252
0.000342920222824
-0.00735386478893
0.000282353232147
-0.00740967949802
0.000223862715018
-0.00745094972063
0.000167508815833
-0.00747824862215
0.000113338713341
-0.00749215481025
6.13899810582e-05
-0.00749325656153
1.16894987806e-05
-0.00748214302659
-3.57438953774e-05
-0.00745940875252
-8.0900561053e-05
-0.0074256451793
-0.000123778255524
-0.00738144520136
-0.000164383655359
-0.00732739463009
-0.00020273004928
-0.00726407678115
-0.00023883907246
-0.00719206412755
-0.000272738367176
-0.00711192304901
-0.000304463193332
-0.00702420573482
-0.000334053996129
-0.00692945513086
-0.000361557863707
-0.00682819718729
-0.000387026024989
-0.00672094604
-0.000410515178222
-0.00660819668181
-0.000432084959986
-0.00649043038755
-0.00045179917616
-0.0063681078495
-0.000469723298624
-0.00624167483191
-0.000485925645497
-0.00611155578896
-0.000500474955369
-0.0059781597076
-0.00051344155325
-0.00584187419291
-0.000524895053897
-0.0057030714396
-0.000534905554969
-0.0055621027526
-0.000543541508399
-0.00541930456749
-0.000550870968198
-0.00527499334752
-0.000556959666204
-0.00512947156081
-0.000561872339882
-0.00498302288687
-0.000565671031426
-0.00483591804914
-0.000568416500072
-0.00468841025258
-0.000570166750377
-0.00454074077317
-0.000570978522449
-0.00439313455939
-0.000570906030042
-0.00424580549437
-0.000570002495212
-0.00409895210645
-0.000568319061642
-0.00395276244491
-0.000565906329273
-0.0038074098778
-0.000562813389866
-0.00366305755516
-0.000559089302526
-0.00351985429921
-0.000554782198105
-0.00337793866152
-0.000549940643082
-0.00323743494476
-0.000544612762468
-0.00309845688885
-0.000538847446982
-0.00296110387997
-0.000532693462964
-0.00282546431597
-0.000526200480343
-0.00269161207146
-0.000519418155044
-0.00255960959916
-0.000512396972198
-0.00242950471325
-0.000505187307914
-0.00230133347532
-0.000497840101837
-0.00217511734993
-0.000490405916515
-0.0020508659131
-0.000482935461543
-0.00192857441464
-0.000475478677047
-0.00180822632849
-0.000468085136517
-0.00168979134196
-0.00046080317902
-0.00157322775423
-0.000453680213658
-0.00145848089262
-0.000446761920315
-0.00134548534488
-0.000440092471258
-0.00123416377878
-0.000433713809703
-0.00112442895987
-0.000427665794258
-0.00101618287409
-0.000421985560471
-0.000909318342177
-0.000416707601696
-0.00080371809645
-0.000411863271906
-0.000699255404366
-0.000407481025685
-0.000595792149169
-0.000403586547986
-0.000493177017707
-0.000400204455931
-0.000391242940176
-0.000397362259774
-0.00028981070544
-0.000395093233914
-0.0001887487273
-0.000393354093894
-8.85638198614e-05
-0.000390232101933
-0.00035060174918
-0.000410522721008
0.00195105704549
-0.000865469143605
0.0021622171453
-0.00131831465835
0.00215355736344
-0.00176412507104
0.00212226204718
-0.00220049993331
0.00208016322511
-0.00262537397805
0.00202865620848
-0.00303691337899
0.00196866530667
-0.00343352443068
0.00190116954565
-0.00381386109259
0.0018271946858
-0.00417682256617
0.00174777799208
-0.00452154453206
0.00166393587471
-0.0048473826453
0.00157663799982
-0.00515389356136
0.00148678748793
-0.00544081172541
0.00139520813662
-0.00570802729421
0.00130263703465
-0.00595556249235
0.00120972283717
-0.00618355149132
0.00111702752037
-0.00639222011242
0.00102503176535
-0.00658187016816
0.000934141735475
-0.00675286393573
0.000844697627095
-0.00690561346
0.000756981972517
-0.00704056960867
0.000671228438734
-0.007158215622
0.000587629368477
-0.00725905973463
0.000506343139786
-0.00734363176636
0.000427499825269
-0.00741247805952
0.000351206486705
-0.00746615987553
0.000277550740939
-0.00750524954625
0.000206604090958
-0.00753032972278
0.000138423745776
-0.00754198998389
7.30544970148e-05
-0.0075408263796
1.05294058024e-05
-0.00752743780947
-4.91295410389e-05
-0.00750242583294
-0.000105910343837
-0.0074663910992
-0.00015981136984
-0.00741993287011
-0.000210840981835
-0.00736364556467
-0.000259017005944
-0.00729811823809
-0.000304366746592
-0.00722393124679
-0.000346926241152
-0.00714165587922
-0.000386740120351
-0.00705185124326
-0.000423860702577
-0.00695506414505
-0.000458347684505
-0.00685182629005
-0.000490267092279
-0.006742654471
-0.000519690838772
-0.00662804814593
-0.000546695590587
-0.00650848997489
-0.000571362254931
-0.00638444380024
-0.000593774822734
-0.00625635552795
-0.000614019844727
-0.00612465150849
-0.000632185317629
-0.0059897397428
-0.0006483602112
-0.00585200863209
-0.000662633450505
-0.00571182845364
-0.000675093543223
-0.0055695504285
-0.000685827711738
-0.00542550840233
-0.000694921668144
-0.0052800181564
-0.00070245893268
-0.00513337919943
-0.000708520787072
-0.00498587423498
-0.000713185808559
-0.00483777097085
-0.000716530018282
-0.00468932164522
-0.000718626631745
-0.00454076474917
-0.000719546389674
-0.00439232452469
-0.000719357504356
-0.00424421252001
-0.000718126137517
-0.00409662698956
-0.000715916488988
-0.00394975422061
-0.000712791357846
-0.00380376780189
-0.000708812306816
-0.00365882970574
-0.000704040233967
-0.00351508942642
-0.00069853553463
-0.00337268483178
-0.000692358609329
-0.00323174121072
-0.000685569959859
-0.00309237194693
-0.00067823057878
-0.00295467753578
-0.000670401932964
-0.00281874614286
-0.000662146202699
-0.00268465266393
-0.000653526138199
-0.00255245924058
-0.000644605146524
-0.00242221442907
-0.000635447027886
-0.00229395372971
-0.000626115928818
-0.00216769891916
-0.000616675987206
-0.00204345863857
-0.000607191185311
-0.00192122792157
-0.000597724937256
-0.00180098886132
-0.000588339877603
-0.00168271034979
-0.000579097428021
-0.00156634882912
-0.000570057554722
-0.00145184823605
-0.000561278342148
-0.00133914081996
-0.000552815745193
-0.00122814726327
-0.000544723194698
-0.00111877752194
-0.000537051368367
-0.00101093103455
-0.000529847857923
-0.000904497455443
-0.000523157014687
-0.000799356797725
-0.000517019791823
-0.00069537979163
-0.000511473856921
-0.000592427917231
-0.000506554108285
-0.000490354130036
-0.00050229388102
-0.000389004875511
-0.000498726538511
-0.000288230148001
-0.000495882212603
-0.000187935937676
-0.000493663231914
-8.8603284194e-05
-0.000489579653322
-0.000439211937459
-0.000420694996589
0.00237176902567
-0.000886669410676
0.00262821034579
-0.00135019581688
0.00261710199857
-0.00180609868269
0.00257818317491
-0.00225181456052
0.00252589705538
-0.00268515028314
0.00246200971141
-0.0031041832111
0.00238771572477
-0.00350727043697
0.00230427398539
-0.00389305323361
0.00221299433661
-0.00426045034647
0.00211519160344
-0.00460864272995
0.00201214432059
-0.00493705117362
0.00190506208197
-0.0052453103039
0.00179506174924
-0.00553324016252
0.00168315264548
-0.0058008183862
0.00157022934066
-0.00604815322282
0.00145707122534
-0.00627545963375
0.00134434686151
-0.00648303772542
0.00123262221691
-0.00667125512948
0.00112237083655
-0.00684053185381
0.00101398544592
-0.00699132888124
0.000907789398032
-0.00712413863388
0.000804047965639
-0.00723947848457
0.000702978275762
-0.00733788525685
0.000604758330523
-0.0074199119522
0.000509534207375
-0.00748612462109
0.000417426199739
-0.007537100758
0.000328533187177
-0.00757342719485
0.000242936195583
-0.00759569904344
0.000160700529335
-0.00760451775493
8.18775083905e-05
-0.00760049012232
6.50534956283e-06
-0.00758422575773
-6.53909526932e-05
-0.00755633613856
-0.000133797722087
-0.00751743209663
-0.000198713779111
-0.00746812227103
-0.000260149868238
-0.00740901061858
-0.000318128309903
-0.00734069483297
-0.000372682857545
-0.00726376392229
-0.000423858046704
-0.00717879676648
-0.000471708820912
-0.00708635991571
-0.000516299646457
-0.0069870064128
-0.000557703906668
-0.00688127392231
-0.000596002826629
-0.00676968390345
-0.00063128470073
-0.00665274013573
-0.00066364370293
-0.0065309282817
-0.000693179026901
-0.00640471483221
-0.000719993666838
-0.00627454706391
-0.000744193552753
-0.00614085239561
-0.000765886378659
-0.00600403871373
-0.000785180804221
-0.00586449410281
-0.000802185400741
-0.00572258748997
-0.00081700798552
-0.00557866869038
-0.00082975474551
-0.00543306929716
-0.000840529759134
-0.00528610295837
-0.00084943434975
-0.00513806641974
-0.00085656683982
-0.00498923993275
-0.000862022167313
-0.00483988834025
-0.000865891892347
-0.00469026150458
-0.000868264083237
-0.004540595326
-0.000869223567
-0.00439111208645
-0.000868852054936
-0.00424202130478
-0.000867228588077
-0.00409351991459
-0.000864429838355
-0.00394579289363
-0.000860530670618
-0.00379901323476
-0.000855604527667
-0.00365334232967
-0.000849724010708
-0.00350892973659
-0.00084296125021
-0.00336591334453
-0.000835388411235
-0.0032244189843
-0.000827077963631
-0.00308456043478
-0.000818103039003
-0.00294643895102
-0.000808537544542
-0.0028101431938
-0.000798456334449
-0.00267574875946
-0.000787935147548
-0.00254331811485
-0.000777050591257
-0.00241290020526
-0.000765879918018
-0.00228453046278
-0.000754500850127
-0.00215823055058
-0.00074299123249
-0.00203400849069
-0.000731428742272
-0.00191185857837
-0.000719890465527
-0.00179176165113
-0.000708452540427
-0.00167368518472
-0.000697189703735
-0.00155758370472
-0.000686174910643
-0.00144339905485
-0.000675478890444
-0.00133106093397
-0.000665169779065
-0.00122048730734
-0.000655312716975
-0.00111158503284
-0.000645969529218
-0.00100425035719
-0.000637198408338
-0.000898369566162
-0.000629053699678
-0.000793819496404
-0.000621585758552
-0.000690468249804
-0.00061484102679
-0.000588176005117
-0.000608862215652
-0.000486796337382
-0.000603688865698
-0.000386179888315
-0.00059935801848
-0.000286182065963
-0.000595895251838
-0.000186700918712
-0.000593158853034
-8.81667988177e-05
-0.000588128211901
-0.000527386101122
-0.00043330297603
0.0028050894418
-0.000913011253034
0.00310793691282
-0.00138981214672
0.00309392170334
-0.00185821539193
0.00304660485049
-0.00231544985879
0.00298314986153
-0.00275916517387
0.00290574308952
-0.00318733286241
0.00281590123215
-0.0035982559094
0.00271521453833
-0.0039905689833
0.00260532457936
-0.00436322526635
0.00248786466684
-0.00471547265666
0.0023644080766
-0.00504682274432
0.00223642807263
-0.00535701594053
0.00210527036842
-0.00564598558054
0.00197213717868
-0.00591382332553
0.00183808144177
-0.00616074743703
0.00170400910596
-0.00638707493473
0.00157068754456
-0.0065931980883
0.00143875792062
-0.00677956527571
0.00130874995205
-0.00694666598413
0.00118109741042
-0.0070950194711
0.00105615349182
-0.00722516659327
0.000934204995435
-0.00733766414617
0.000815485068135
-0.00743308120882
0.000700183917398
-0.00751199685308
0.000588457699026
-0.0075749988262
0.000480435297184
-0.00762268268613
0.000376223492661
-0.00765565117933
0.000275910413243
-0.00767451350623
0.000179567907402
-0.00767988442352
8.7252761004e-05
-0.00767238327341
-9.92129637992e-07
-0.00765263219227
-8.51390653813e-05
-0.00762125449247
-0.000165173103506
-0.0075788730745
-0.000241093566021
-0.00752610811343
-0.000312913831143
-0.00746357499355
-0.000380661098138
-0.00739188214349
-0.000444375987885
-0.00731162897259
-0.000504112142254
-0.0072234038387
-0.000559935469809
-0.00712778220884
-0.000611923410609
-0.00702532493033
-0.000660163885744
-0.00691657674624
-0.000704754305155
-0.0068020649671
-0.000745800316588
-0.00668229841115
-0.000783414662023
-0.00655776652194
-0.000817715835814
-0.00642893875396
-0.000848826893941
-0.00629626413623
-0.000876874121147
-0.00616017108884
-0.000901985887916
-0.0060210674053
-0.000924291415151
-0.00587934045834
-0.00094391975913
-0.00573535754633
-0.000960998749636
-0.0055894664234
-0.000975654176797
-0.0054419959336
-0.000988008972554
-0.00529325677471
-0.000998182662096
-0.00514354231551
-0.00100629084361
-0.00499312947961
-0.00101244495085
-0.00484227962405
-0.0010167520622
-0.00469123941484
-0.00101931498445
-0.0045402416367
-0.00102023238058
-0.00438950593769
-0.00101959914165
-0.00423923945876
-0.00101750677495
-0.00408963735159
-0.00101404398193
-0.00394088315283
-0.00100929720442
-0.00379314902743
-0.00100335129324
-0.00364659586802
-0.000996290088015
-0.00350137327148
-0.000988197048616
-0.00335761939701
-0.000979155746414
-0.00321546073514
-0.000969250349871
-0.0030750118036
-0.000958565935722
-0.00293637480031
-0.000947188757926
-0.00279963923573
-0.000935206332622
-0.00266488157215
-0.000922707469763
-0.00253216489126
-0.000909782134789
-0.00240153860909
-0.000896521265177
-0.00227303825633
-0.000883016447823
-0.00214668533349
-0.000869359573008
-0.00202248725416
-0.000855642387006
-0.00190043737435
-0.000841956045137
-0.00178051511876
-0.000828390601552
-0.00166268619309
-0.000815034520779
-0.00154690289071
-0.000801974159044
-0.00143310447591
-0.000789293282959
-0.00132121765139
-0.000777072585847
-0.00121115708505
-0.000765389254395
-0.00110282601141
-0.000754316558637
-0.000996116859984
-0.00074392350638
-0.000890911957111
-0.000734274557481
-0.000787084281814
-0.000725429432479
-0.000684498263732
-0.000717442983325
-0.000583010965988
-0.000710365300791
-0.000482473868409
-0.000704241764874
-0.000382735002376
-0.000699112035743
-0.000283644628534
-0.000694999882745
-0.00018508741461
-0.000691731185051
-8.74555572628e-05
-0.000685775179561
-0.000614848591332
-0.000448625581802
0.00325373261962
-0.000945030312979
0.00360436119258
-0.0014379361148
0.00358684639903
-0.0019214486632
0.00353013635635
-0.00239253576473
0.00345425559514
-0.00284865457241
0.00336188035284
-0.00328765363942
0.00325491846475
-0.00370778051792
0.00313535929134
-0.00410767580179
0.00300523737904
-0.00448635009339
0.00286655609669
-0.00484314857703
0.00272122325931
-0.00517770781444
0.00257100355789
-0.00548990945543
0.00241748774333
-0.00577983427919
0.00226207722223
-0.00604771955844
0.00210598136209
-0.0062939211968
0.00195022481735
-0.00651888187787
0.00179566166467
-0.00672310509889
0.00164299396929
-0.006907135213
0.00149279221629
-0.0070715425003
0.00134551620296
-0.00721691294779
0.00120153473414
-0.00734384147384
0.00106114364886
-0.00745292824329
0.000924581233421
-0.00754477681641
0.000792041205469
-0.00761999392595
0.000663682780257
-0.00767918976713
0.000539638425212
-0.0077229788257
0.000420019093138
-0.00775198034321
0.000304917790932
-0.00776681870921
0.000194411393892
-0.00776812310634
8.85616043675e-05
-0.0077565266364
-1.2584882944e-05
-0.00773266554314
-0.000108997102313
-0.00769717736381
-0.00020065894139
-0.00765069881743
-0.000287570414613
-0.00759386386166
-0.000369747783981
-0.00752730126679
-0.000447223313712
-0.00745163243868
-0.00052004510927
-0.0073674690212
-0.000588276454199
-0.00727541086724
-0.000651995165802
-0.00717604390339
-0.000711292494295
-0.00706993844035
-0.000766272090182
-0.00695764744989
-0.000817048589743
-0.0068397053234
-0.000863746330878
-0.00671662663422
-0.000906497766323
-0.00658890538515
-0.000945442065558
-0.00645701427256
-0.000980723488153
-0.00632140441843
-0.00101248999335
-0.00618250511536
-0.00104089168398
-0.00604072400791
-0.00106607952349
-0.00589644727248
-0.00108820394413
-0.00575004019093
-0.00110741375991
-0.00560184769609
-0.00112385502364
-0.00545219525407
-0.00113767021805
-0.0053013896769
-0.00114899744082
-0.00514972019985
-0.00115796994619
-0.00499745943232
-0.00116471571778
-0.00484486448852
-0.00116935740302
-0.00469217792624
-0.00117201229375
-0.00453962877931
-0.00117279264614
-0.00438743333718
-0.00117180602959
-0.00423579594385
-0.00116915596098
-0.00408490950297
-0.00116494252052
-0.00393495595509
-0.00115926317291
-0.00378610645144
-0.00115221350178
-0.00363852148719
-0.00114388805774
-0.00349235075679
-0.00113438104926
-0.00334773299
-0.00112378706291
-0.00320479556517
-0.00111220157133
-0.00306365414724
-0.00109972141014
-0.00292441217467
-0.00108644501673
-0.00278716042366
-0.00107247261008
-0.00265197649336
-0.00105790613852
-0.00251892441488
-0.00104284917046
-0.00238805424121
-0.00102740658677
-0.00225940179082
-0.00101168423824
-0.00213298841443
-0.000995788452377
-0.00200882092607
-0.000979825535869
-0.00188689158083
-0.000963901176697
-0.00176717821123
-0.000948119870296
-0.0016496444197
-0.000932584290102
-0.00153423991244
-0.00091739470346
-0.00142090088947
-0.000902648368634
-0.00130955055402
-0.000888438991306
-0.00120009967093
-0.00087485619175
-0.001092447226
-0.000861985041474
-0.000986481121122
-0.000849905638203
-0.000882078964983
-0.000838692754721
-0.000779108890799
-0.000828415545612
-0.00067743057391
-0.000819137370502
-0.00057689637182
-0.000810915521265
-0.000477352532077
-0.000803801004111
-0.000378641753374
-0.000797837966482
-0.000280606695048
-0.000793050398929
-0.000183117302767
-0.000789235128937
-8.65409307994e-05
-0.000782366068824
-0.000701396993505
-0.000467000971687
0.00372075180136
-0.000983409661278
0.00412078889164
-0.00149555665234
0.004099013029
-0.00199704165706
0.00403164057557
-0.00248450620739
0.00394173928833
-0.00295517574941
0.00383256874797
-0.00340675951829
0.00370652084345
-0.00383745448404
0.00356607254338
-0.00424592902489
0.00341372986286
-0.0046312856071
0.00325193021789
-0.00499300882686
0.00308296359214
-0.00533090578445
0.002908917143
-0.00564504460014
0.00273164268971
-0.00593569585327
0.00255274404684
-0.00620327993634
0.00237358045884
-0.00644832233176
0.00219528160408
-0.00667141723723
0.00201877035351
-0.0068731996308
0.00184478947205
-0.00705432474614
0.00167392979339
-0.00721545425043
0.00150665745548
-0.00735724761352
0.00134333917013
-0.00748035788577
0.00118426425302
-0.00758543038984
0.00102966337645
-0.00767310375084
0.000879723448377
-0.00774401195192
0.000734599162862
-0.00779878712796
0.000594421019565
-0.00783806204365
0.000459300727302
-0.00786247231349
0.000329334019782
-0.00787265762534
0.000204601972885
-0.00786926234592
8.51708402882e-05
-0.00785293470276
-2.89086915803e-05
-0.00782432672806
-0.000137601979337
-0.0077840917778
-0.000240891457873
-0.00773288271695
-0.000338777760332
-0.00767134945217
-0.000431279977531
-0.00760013654036
-0.000518435850279
-0.00751988051159
-0.000600301384082