/*--------------------------------*- C++ -*----------------------------------*\
| =========                 |                                                 |
| \\      /  F ield         | OpenFOAM: The Open Source CFD Toolbox           |
|  \\    /   O peration     | Version:  v1906                                 |
|   \\  /    A nd           | Web:      www.OpenFOAM.com                      |
|    \\/     M anipulation  |                                                 |
\*---------------------------------------------------------------------------*/
FoamFile
{
    version     2.0;
    format      ascii;
    class       volScalarField;
    location    "727";
    object      pa;
}
// * * * * * * * * * * * * * * * * * * * * * * * * * * * * * * * * * * * * * //

dimensions      [0 2 -2 0 0 0 0];


internalField   nonuniform List<scalar> 
9216
(
977.143765296
976.779199972
976.038470864
974.918376427
973.422589846
971.555370486
969.322100284
966.729133221
963.783799192
960.494267226
956.869560857
952.919404315
948.654248519
944.08510393
939.223581123
934.081716485
928.672031611
923.007357563
917.10091624
910.966147763
904.616815349
898.066838595
891.330421267
884.421891433
877.355849551
870.147014587
862.810387828
855.361102931
847.814599432
840.186473619
832.492654795
824.74925337
816.972730118
809.179738025
801.38727664
793.612522734
785.872958916
778.186190224
770.570038147
763.042341967
755.621011082
748.323813463
741.168381937
734.171996725
727.351543435
720.723300768
714.302848083
708.104872188
702.143020509
696.429742882
690.97608633
685.791591784
680.88403372
676.259399389
671.92159178
667.872522037
664.111805696
660.636985194
657.443249527
654.523780937
651.869522563
649.469621786
647.31126514
645.380214261
643.660788526
642.136562422
640.790588727
639.60614738
638.566932585
637.657559277
636.863559556
636.171645866
635.569604124
635.046422597
634.592141801
634.197896868
633.855752612
633.558712855
633.300574343
633.075926508
632.880011145
632.708703484
632.558373002
632.425847833
632.307800263
632.2055299
632.121373367
632.054595148
632.003822045
631.966718973
631.940782951
631.923233334
631.911644908
631.90469135
631.90122167
631.900017488
977.507899164
977.142185331
976.400197886
975.277051209
973.776963281
971.904349343
969.664668197
967.064352769
964.110788013
960.812223123
957.177737544
953.21714022
948.940936309
944.360220692
939.48665143
934.332343744
928.909855338
923.232086188
917.312279704
911.163932304
904.800812678
898.236883282
891.486337905
884.56353516
877.483052448
870.259629657
862.908235827
855.444019862
847.882384849
840.238941647
832.529584622
824.770442673
816.977949925
809.168789346
801.359949117
793.568652365
785.812391961
778.108840737
770.47585702
762.931371783
755.493359905
748.179704079
741.008130209
733.996052166
727.160472988
720.517818012
714.083804687
707.873272985
701.900025465
696.176663663
690.71439975
685.522910594
680.610129602
675.98214072
671.642974316
667.594573523
663.83662638
660.366627797
657.179770473
654.269108159
651.625517901
649.237942292
647.093407215
645.177344756
643.473737222
641.965658253
640.635741909
639.466843453
638.442408129
637.54684501
636.765617
636.085373365
635.493920829
634.98026186
634.534509302
634.14785237
633.812439845
633.521331895
633.268404476
633.04830941
632.856374154
632.688547936
632.541313662
632.411667773
632.296955282
632.196668754
632.113660524
632.048826949
631.999118406
631.962676606
631.937666086
631.920813293
631.909540217
631.903027476
631.89993706
631.898699103
978.250118424
977.881241558
977.135026097
976.005539504
974.497032309
972.613984039
970.361944416
967.747458466
964.778023746
961.462018976
957.808646999
953.827853807
949.530268523
944.92711985
940.030179772
934.851683835
929.404284315
923.700979735
917.755081999
911.580159106
905.190019004
898.598667408
891.820308891
884.869319512
877.760263427
870.507877973
863.127102266
855.633070944
848.041150022
840.366934499
832.62628595
824.835328078
817.010479252
809.168440487
801.326215025
793.501080835
785.710589631
777.972516971
770.304833323
762.725626592
755.253040656
747.905168741
740.699959121
733.655082522
726.78780896
720.114856054
713.6522428
707.415125974
701.417634494
695.672698297
690.191864259
684.985123176
680.060715125
675.424974727
671.082155075
667.034330355
663.281279636
659.820474339
656.647042226
653.753852115
651.13157179
648.768819332
646.652231573
644.766664723
643.09531387
641.620233468
640.323073017
639.185844653
638.19142917
637.323883266
636.568506474
635.911870684
635.341797193
634.847354293
634.418783522
634.047416308
633.725553525
633.446386716
633.203930112
632.992976873
632.809006889
632.648109898
632.506907946
632.382514187
632.272282211
632.175902297
632.09794841
632.037172802
631.989565709
631.954931635
631.931754375
631.915843883
631.905544429
631.899710633
631.896662574
631.895160271
979.377926416
979.005385233
978.252661906
977.113414866
975.591979058
973.692938519
971.421980273
968.78581237
965.79210962
962.449443707
958.767214719
954.755573235
950.425347842
945.787965913
940.855384161
935.640014825
930.154665504
924.41247655
918.426875214
912.211528476
905.780314616
899.147293489
892.326696172
885.332912118
878.180495022
870.88416405
863.458822169
855.919567186
848.281717718
840.560828952
832.772721064
824.93349341
817.059548325
809.167598202
801.27467691
793.398130611
785.555608459
777.765029018
770.044541993
762.412463622
754.887204196
747.48716999
740.230656614
733.135720972
726.220046347
719.50079265
712.994441672
706.716633447
700.681995793
694.903967421
689.394608711
684.164408604
679.22207949
674.5743658
670.225857331
666.178856171
662.433263768
658.986545492
655.833698304
652.967333902
650.377780056
648.053231115
645.979758604
644.141456748
642.520233908
641.096415449
639.849950345
638.761492184
637.813060407
636.988258837
636.272198347
635.651380712
635.113658593
634.648227651
634.245547561
633.897199272
633.595721645
633.334503784
633.107752979
632.910485778
632.738414587
632.587841706
632.455581304
632.338901073
632.23510331
632.145449561
632.074259513
632.018307862
631.975366152
631.944054731
631.922383175
631.90796183
631.898855982
631.893501922
631.890539066
631.889088223
980.894308466
980.517060774
979.755535282
978.603058458
977.064102352
975.143403289
972.846838592
970.181337798
967.154820056
963.776119762
960.05490963
956.00161884
951.627351937
946.9438063
941.963194285
936.698167219
931.16174764
925.367266174
919.32830953
913.058675026
906.572337923
899.883425817
893.006206012
885.95507899
878.744583582
871.389406126
863.904399163
856.304601487
848.605265259
840.821881674
832.970211519
825.066309984
817.12655341
809.167657936
801.206694266
793.261089735
785.348621685
777.487393208
769.695795204
761.99244728
754.396121835
746.925646506
739.599790372
732.437132239
725.455917303
718.673902658
712.108196936
705.775093341
699.689897332
693.866744027
688.318401853
683.056059276
678.089093529
673.42483709
669.068357457
665.022282889
661.286693491
657.859053038
654.734175414
651.904295496
649.35928878
647.086864276
645.072444172
643.299415412
641.747806271
640.395117205
639.218574262
638.196820663
637.310774171
636.54362493
635.880391592
635.307549961
634.81300185
634.386149943
634.017806369
633.699954653
633.425478352
633.188006008
632.981964311
632.802689241
632.646229414
632.509179269
632.388614664
632.282021451
632.186757018
632.106225899
632.04340776
631.9939276
631.955563814
631.927917209
631.909211442
631.896750064
631.888648858
631.883852719
631.881141228
631.87979705
982.80389543
982.420745208
981.648054748
980.478768305
978.917548027
976.96933468
974.640255265
971.937526612
968.869385005
965.445004434
961.674410979
957.568393535
953.138413995
948.396517759
943.355247725
938.027562416
932.426761365
926.566418039
920.460323112
914.122437717
907.566858829
900.80779545
893.859556853
886.736550573
879.453290653
872.024413194
864.464699464
856.789103473
849.012784411
841.151140822
833.219847762
825.23489112
817.212602262
809.169687671
801.123252336
793.09081279
785.090298365
777.140035752
769.258715628
761.465337552
753.779132845
746.21946449
738.805705745
731.55710053
724.492609515
717.630747712
710.989417123
704.585738111
698.435876705
692.554861706
686.95638376
681.652558064
676.653658524
671.967821219
667.600758386
663.555546642
659.832495335
656.429114451
653.339943793
650.55666444
648.068532376
645.862809078
643.924233339
642.236351801
640.776506062
639.517423407
638.431999351
637.496014268
636.689225289
635.994770023
635.397909314
634.885147058
634.444395582
634.065353595
633.739406952
633.459190656
633.218076873
633.00991211
632.829276423
632.671972795
632.534544039
632.413956254
632.307622597
632.213289739
632.129273253
632.059964668
632.005338783
631.962337392
631.929961981
631.907629316
631.891776173
631.881346674
631.874732583
631.870261014
631.867792009
631.866551585
985.11248806
984.722142592
983.935812706
982.745979522
981.157546895
979.175715819
976.806928299
974.058761891
970.939850377
967.459792515
963.629056248
959.458879552
954.961170439
950.148407977
945.033546831
939.629927094
933.951191863
928.011214086
921.82403482
915.403813744
908.76479325
901.921275799
894.887614701
887.678216711
880.307555654
872.790194722
865.140816442
857.374258029
849.505551557
841.549966904
833.523058164
825.440708148
817.31917422
809.175130429
801.025703383
792.888498369
784.781612494
776.723630031
768.733596733
760.830969307
753.035538015
745.367321815
737.846437329
730.49294622
723.326686689
716.367098152
709.633045764
703.142650836
696.913124309
690.960594643
685.29990675
679.944373402
674.905450891
670.19235377
665.811658268
661.767000198
658.059001932
654.685310713
651.640116737
648.914131325
646.495723181
644.371856451
642.526221962
640.946003644
639.604449995
638.465581618
637.495281866
636.665381777
635.954905797
635.348028192
634.831042881
634.390417642
634.01378947
633.691244294
633.415140486
633.179219596
632.977575516
632.804075467
632.653121994
632.521294425
632.405933354
632.30441007
632.21452288
632.134394915
632.063529903
632.005965172
631.960478539
631.925552079
631.900116551
631.882219285
631.86941174
631.861031235
631.856105887
631.852463212
631.850439333
631.849445345
987.827158291
987.428236366
986.625654139
985.411335925
983.790483184
981.768618164
979.352570861
976.55036185
973.371112286
969.82494085
965.922855783
961.67664353
957.098756538
952.202202485
947.000437393
941.507264951
935.736744505
929.703110024
923.420702159
916.903915098
910.167159252
903.224840093
896.091352503
888.781089322
881.30846203
873.687931427
865.934046031
858.061486523
850.085114867
842.020027181
833.881610822
825.685600736
817.448138884
809.18583165
800.915801688
792.655730824
784.423889199
776.239145066
768.120950216
760.089296023
752.164636383
744.367776444
736.719727809
729.241536693
721.954093044
714.877935356
708.033062115
701.438764453
695.113475076
689.074624434
683.338469223
677.919835307
672.831740823
668.084859932
663.686907335
659.642190444
655.951643938
652.613420883
649.621345621
646.964144969
644.628806072
642.602412597
640.864823315
639.418709138
638.229679993
637.244287414
636.417002788
635.714430562
635.116534822
634.611218245
634.187560628
633.831305353
633.528757991
633.270503165
633.05066553
632.865012379
632.70881542
632.575346664
632.45771214
632.354115479
632.263403342
632.183159144
632.111515793
632.047332899
631.991067459
631.94580913
631.910482751
631.883853017
631.864847546
631.851185465
631.842330588
631.83624539
631.832684709
631.830677936
631.829244012
631.828621676
990.956328163
990.547351129
989.725734571
988.482745221
986.823944152
984.755244
982.283945209
979.418604622
976.168932242
972.545673927
968.560488805
964.225823297
959.554784383
954.561014618
949.258571484
943.661813723
937.785297534
931.643685458
925.251670722
918.623919226
911.775030748
904.719519619
897.47181422
890.046273135
882.457215351
874.718961125
866.845880888
858.852449764
850.753306891
842.563318689
834.297648022
825.971823545
817.601815478
809.204111201
800.795787424
792.39457439
784.018906434
775.687951299
767.421611531
759.240490405
751.165816764
743.219325395
735.423093472
727.799339663
720.370199492
713.157495795
706.182531026
699.465916958
693.02746057
686.88607633
681.059690539
675.565029388
670.41719257
665.628883898
661.209377571
657.16360623
653.492544453
650.195960101
647.267879494
644.692137727
642.453953776
640.541609289
638.916452287
637.637308989
636.649878362
635.86235904
635.211365771
634.657103132
634.18505096
633.792887395
633.476461948
633.217829201
632.998799082
632.810949833
632.651932632
632.521453311
632.417092465
632.329921708
632.24818357
632.174208573
632.11031596
632.053196538
632.000898366
631.953904295
631.912723933
631.88012834
631.855285653
631.837206421
631.824561673
631.815924508
631.810467254
631.807441897
631.80568282
631.80534926
631.804666094
631.80450499
994.509860655
994.089234343
993.245598454
991.96945099
990.26678454
988.143981298
985.608906844
982.670760831
979.339957735
975.627992325
971.547299783
967.111112482
962.333316204
957.228308361
951.810860883
946.095990766
940.098841594
933.834579728
927.318308655
920.565004793
913.589476704
906.406348565
899.03006655
891.474925511
883.755111513
875.884755927
867.877996667
859.749044247
851.512251441
843.182187346
834.773718725
826.302093732
817.783036148
809.232843034
800.668481864
792.107682257
783.569014605
775.071946232
766.636865536
758.285063568
750.038663617
741.920492549
733.953891168
726.162472423
718.569841091
711.199312337
704.073655803
697.214930781
690.644405561
684.382598698
678.449330537
672.863678108
667.643563753
662.804697873
658.358645775
654.310570631
650.659824556
647.41117652
644.562035399
642.081484985
639.95666247
638.183454635
636.637481015
635.577380421
634.872849835
634.344736632
633.907199855
633.51011926
633.158769974
632.879725606
632.689929179
632.55295049
632.432100836
632.321384638
632.226063688
632.15417976
632.109361795
632.077324623
632.031096964
631.984817445
631.950146435
631.918098607
631.884984562
631.855772531
631.829267865
631.809311718
631.79505708
631.785927042
631.780259249
631.777037413
631.775126415
631.774772071
631.775614962
631.776861756
631.777297072
631.777600051
998.499166403
998.065159116
997.196274291
995.88212002
994.129203415
991.944468745
989.336456302
986.315131451
982.89174571
979.078681726
974.889293066
970.337741049
965.438831302
960.207852459
954.660419619
948.812325731
942.679404918
936.277412351
929.621925677
922.728272435
915.611486847
908.286297004
900.767141134
893.068208555
885.203499258
877.186894852
869.032235049
860.75339585
852.364369402
843.879347374
835.31281407
826.679644475
817.995219551
809.275549607
800.537402585
791.798430586
783.07728569
774.393712628
765.768605911
757.22401585
748.783089544
740.469933373
732.309391978
724.326744351
716.547344831
708.996239534
701.697842654
694.675722226
687.952601989
681.550560868
675.491412172
669.797028741
664.489251408
659.588584414
655.110677032
651.059744921
647.426494697
644.22986644
641.486650043
639.112872318
637.123445754
635.528133719
633.707152739
632.920272127
632.70154946
632.565253287
632.434348488
632.306922573
632.196310898
632.113145827
632.040297655
631.957242166
631.867799876
631.787622922
631.72978548
631.713462162
631.754632555
631.817467438
631.812767682
631.786732089
631.787057745
631.78328795
631.765814321
631.755616531
631.742196163
631.735275215
631.73129112
631.730769686
631.731800204
631.734046236
631.736831031
631.739704935
631.74278573
631.745848098
631.747765371
631.748581252
1002.93733133
1002.48804534
1001.59038983
1000.23294666
998.422835935
996.167672618
993.476800007
990.361091838
986.832789545
982.90532281
978.593125846
973.911451569
968.876186005
963.503664801
957.810493965
951.813378181
945.528961264
938.973685001
932.163673147
925.114647491
917.841880962
910.360190235
902.683965715
894.827233071
886.803736284
878.627031557
870.310582155
861.867849512
853.312380774
844.657898575
835.918402796
827.108282315
818.24245284
809.336510845
800.406899682
791.471080577
782.547696823
773.656716478
764.819536595
756.059028451
747.399500908
738.866561523
730.4868557
722.287685106
714.296516846
706.540452785
699.045734867
691.83745862
684.939593083
678.375452137
672.168575099
666.343871675
660.92853369
655.951349354
651.437414447
647.388335487
643.758883247
640.60370306
638.026818668
635.655780355
633.653416978
632.77178364
632.432193803
632.406067022
632.444972923
632.433534282
632.387738166
632.323140495
632.250004851
632.176583745
632.103682679
632.028842192
631.95484357
631.889423002
631.844885984
631.83864535
631.864133746
631.823629581
631.617836421
631.537331091
631.605920576
631.655292994
631.642737182
631.657747059
631.651824495
631.659049896
631.663997287
631.672374124
631.680086377
631.688096059
631.695793793
631.702849729
631.708624131
631.713435676
631.71704957
631.718576988
1007.83926907
1007.37260761
1006.44230931
1005.03577742
1003.16086157
1000.82597685
998.041420773
994.819142229
991.172549495
987.116301884
982.666099178
977.838470765
972.65056592
967.11994575
961.264377953
955.101637265
948.649317157
941.924660751
934.944421052
927.724760553
920.281198837
912.628612232
904.781283786
896.752994356
888.557139973
880.206857361
871.715142393
863.094953216
854.35930088
845.521338018
836.594463651
827.592445154
818.529580438
809.420887021
800.282314857
791.130972831
781.98535593
772.865555122
763.793429162
754.792710335
745.88901237
737.10970309
728.483610312
720.04053257
711.81057344
703.823345191
696.107201139
688.688704776
681.592616637
674.842637751
668.462986198
662.48096877
656.930334081
651.854598888
647.304600432
643.285106864
639.596630586
636.254323137
634.029025037
632.828472949
632.726938198
632.740436082
632.703996483
632.694707398
632.692817233
632.667724675
632.622900792
632.560417875
632.48449304
632.401601455
632.314091965
632.222059392
632.128837855
632.04031624
631.965172084
631.912126297
631.870887311
631.800685229
631.72565857
631.715778683
631.720134584
631.60226838
631.482513217
631.565513193
631.553728717
631.581471334
631.592385385
631.611906124
631.62653233
631.640660229
631.653659904
631.6649461
631.674150559
631.681055009
631.686391254
631.688700012
1013.22190371
1012.73552912
1011.76829723
1010.30625787
1008.35813111
1005.93328745
1003.04315859
999.700964736
995.92148645
991.720822038
987.116146917
982.125476188
976.767429952
971.060999362
965.025312246
958.67940027
952.041973774
945.131215274
937.964605866
930.558800586
922.929566374
915.091791114
907.059562104
898.846301486
890.464934498
881.928061602
873.248107572
864.437434919
855.508426851
846.473561793
837.345509271
828.137256605
818.862295753
809.534854179
800.170164123
790.784758464
781.396777821
772.026269576
762.695454159
753.428924314
744.253730932
735.199302773
726.297132524
717.580176945
709.081937621
700.835275338
692.871129202
685.217501058
677.899190568
670.938678013
664.358397254
658.185029955
652.457740505
647.242447207
642.661646637
638.775248009
634.703973676
633.329180454
633.156538429
633.149834878
633.137142091
633.141618638
633.110666559
633.07322841
633.038062374
632.997786426
632.945925782
632.877799956
632.794833207
632.700959541
632.598097063
632.488528188
632.376419956
632.267594546
632.169205615
632.086283843
632.011036558
631.92289239
631.832386287
631.769061971
631.713718997
631.661960176
631.656470991
631.606882577
631.416311187
631.502207243
631.513112119
631.55222545
631.571931908
631.592441932
631.611594791
631.627649328
631.640418215
631.649881068
631.656787451
631.659980972
1019.1043882
1018.59567186
1017.58671247
1016.0620062
1014.03131465
1011.50515247
1008.49630177
1005.01948644
1001.09109845
996.72891452
991.951822641
986.779558268
981.232446287
975.331141793
969.096364484
962.548626103
955.707957895
948.593652459
941.224041337
933.616332664
925.786532267
917.749463434
909.518886913
901.107703056
892.528199217
883.79229265
874.911722939
865.898169934
856.763309708
847.518849383
838.176594347
828.748569072
819.247230394
809.685748044
800.078343576
790.440670421
780.790220341
771.146737262
761.532613205
751.973224521
742.497153502
733.136210666
723.925161878
714.901027166
706.101862711
697.564991453
689.324868113
681.411124661
673.847642786
666.653311602
659.844224293
653.438591355
647.46425291
641.962274212
636.997302873
633.797744678
633.54285695
633.631512
633.673740571
633.703678674
633.678272935
633.632749845
633.576688559
633.521411617
633.468610151
633.412619273
633.346436682
633.26514348
633.16971838
633.061886046
632.942787565
632.815819579
632.685319345
632.556583744
632.435160083
632.324015783
632.218384752
632.108326081
631.997865862
631.902022666
631.815056218
631.734826011
631.673150857
631.606873052
631.584264351
631.551194115
631.407203123
631.497796981
631.515207802
631.543552789
631.570609178
631.59211801
631.608832362
631.62103847
631.629340812
631.633512822
1025.50836717
1024.97432542
1023.91823932
1022.32281702
1020.1990731
1017.55889829
1014.41668794
1010.78894724
1006.69395866
1002.15144976
997.182284928
991.808178962
986.05142152
979.934597396
973.48028947
966.710759652
959.647614396
952.311474575
944.721680335
936.896069338
928.850866379
920.600713798
912.158850394
903.537416526
894.74782688
885.801127514
876.708252621
867.48013647
858.12770389
848.661820552
839.093296177
829.432985555
819.692031562
809.88221015
800.016354637
790.108836313
780.176088827
770.237165333
760.31430217
750.433456526
740.624733976
730.922628736
721.365889856
711.996826502
702.859780314
693.998568539
685.452985799
677.255073302
669.427045828
661.98184742
654.924918798
648.253358473
641.918702536
635.610020634
634.459797436
634.146765243
634.210942369
634.319567397
634.338698163
634.308571065
634.256417868
634.193086822
634.123587355
634.053462722
633.982770169
633.907187285
633.821328399
633.721743433
633.609718462
633.4852925
633.348790354
633.203597365
633.053623633
632.903312555
632.756855594
632.616312812
632.479559294
632.342914234
632.209236286
632.085762095
631.971292161
631.864329779
631.769123134
631.680949002
631.615137873
631.554241373
631.535950976
631.516686624
631.447518486
631.493353535
631.532835374
631.560115863
631.580682027
631.595587197
631.605433736
631.610499793
1032.45829313
1031.89550755
1030.78616206
1029.11090114
1026.88225599
1024.11378238
1020.82181291
1017.02496953
1012.74375231
1008.00014692
1002.81728199
997.219129605
991.230226383
984.875384833
978.179369172
971.16652249
963.860351249
956.283092798
948.455311024
940.395578274
932.120306986
923.643783927
914.978431896
906.135273441
897.124508763
887.956063534
878.639950892
869.186354787
859.605482688
849.907348032
840.101651686
830.197844734
820.205415517
810.13432516
799.995540834
789.801629103
779.567414525
769.310699276
759.053048441
748.820579226
738.644726113
728.562823896
718.618354531
708.860471477
699.342328344
690.117611442
681.234890419
672.730497362
664.624715736
656.924283835
649.62146543
642.654118164
635.55980278
634.67919058
634.879653819
635.001573417
635.064478736
635.062362487
635.031399482
634.974629828
634.903974144
634.826176036
634.743702361
634.658535417
634.569656292
634.473630087
634.366663271
634.24775058
634.117348394
633.974042912
633.818471989
633.653342549
633.481892273
633.307743463
633.134231061
632.963277025
632.794706427
632.628063996
632.465884133
632.312133359
632.167586494
632.032770965
631.909836583
631.798046943
631.701581137
631.620056153
631.56761267
631.535639585
631.499137032
631.443637855
631.501512343
631.533879774
631.557364919
631.574769478
631.586276974
631.592142939
1039.98181003
1039.3863242
1038.21669285
1036.45116728
1034.10412837
1031.19116146
1027.73094297
1023.74462384
1019.25530747
1014.28758004
1008.86713738
1003.02049326
996.774724853
990.157199499
983.195234862
975.915666488
968.344325232
960.505458931
952.42116177
944.110899974
935.59123524
926.875842474
917.975881044
908.900704063
899.658776706
890.258558293
880.709049298
871.019803507
861.200498834
851.260401077
841.208026278
831.051150329
820.797179902
810.45373483
800.029321202
789.534045514
778.98039873
768.384166584
757.765447336
747.149801163
736.569420779
726.064321913
715.683267375
705.484025906
695.532088166
685.8964706
676.641001669
667.809695162
659.420984421
651.473310721
643.91054786
636.257627044
635.297783643
635.53580155
635.819098163
635.886401103
635.88890203
635.844746085
635.781667939
635.703478946
635.616790999
635.525312742
635.429821718
635.329861289
635.223420092
635.107473083
634.979628715
634.841216543
634.691176252
634.527281048
634.350888482
634.163987952
633.969190299
633.769442426
633.567552318
633.365552111
633.164509891
632.965547962
632.771116876
632.584143378
632.406405749
632.239600513
632.085725794
631.945895634
631.822559431
631.717072999
631.633276033
631.569399729
631.514666606
631.497652827
631.488303533
631.516368258
631.540268875
631.559581147
631.572825467
631.579474673
1048.11021979
1047.47740761
1046.2393644
1044.3715544
1041.89063021
1038.81467223
1035.16522238
1030.96647958
1026.24461074
1021.02717676
1015.34273992
1009.22062075
1002.69071977
995.783304588
988.528679257
980.956688548
973.096054842
964.973590864
956.613377133
948.036032894
939.258241521
930.292698616
921.148615513
911.832801801
902.351158141
892.710163518
882.917778214
872.983298802
862.916356724
852.72577947
842.418881126
832.001419493
821.478157331
810.853707615
800.133399545
789.324081723
778.435012742
767.4789255
756.473345562
745.442083839
734.416981147
723.439870142
712.564696822
701.859375816
691.406171379
681.298119916
671.627218387
662.451314157
653.779886763
645.55870576
637.306023049
636.300396709
636.521591601
636.753408397
636.830755983
636.808991727
636.756089578
636.677344965
636.587217879
636.490026869
636.389475604
636.28571452
636.177267808
636.062032743
635.937485642
635.801126613
635.652043872
635.492756924
635.321378802
635.135698976
634.937220321
634.727522047
634.508674498
634.283023599
634.052924147
633.820411123
633.587172026
633.3550576
633.126570267
632.904468373
632.691177954
632.489125019
632.30077879
632.128365828
631.974456408
631.841047596
631.730148318
631.640764287
631.568929802
631.52511714
631.507607471
631.499881422
631.526689409
631.550003649
631.565833314
631.573415708
1056.87905382
1056.20345171
1054.88750246
1052.90342513
1050.27067315
1047.01041924
1043.14776067
1038.71062108
1033.72879096
1028.23320253
1022.25554289
1015.8281367
1008.98393754
1001.75645443
994.179475296
986.286510357
978.109944676
969.679954899
961.023307165
952.162218022
943.11352119
933.888427541
924.493150749
914.930540149
905.20254552
895.312838014
885.268450878
875.079306959
864.756029637
854.307671575
843.740391526
833.057426668
822.260092259
811.349145842
800.325909753
789.193076656
777.955580394
766.621814795
755.20520408
743.726099598
732.2140305
720.710615343
709.273366873
697.980407115
686.935161131
676.267717355
666.1279693
656.59313764
647.602355358
638.644395793
637.57054858
637.819317157
637.994053514
637.97158807
637.892379242
637.788446149
637.677113106
637.560773934
637.445858421
637.332086001
637.218297156
637.101281121
636.977628878
636.844267912
636.698580198
636.539008642
636.366985379
636.184352335
635.988922541
635.780037108
635.558892309
635.326657046
635.084777917
634.834913735
634.578839664
634.318320508
634.055141037
633.791355787
633.529479938
633.272320225
633.022744419
632.783745419
632.558401167
632.34975936
632.160905009
631.994519712
631.852725313
631.735740854
631.642543302
631.575908228
631.534402345
631.510984179
631.511702428
631.546028538
631.566600607
631.575078221
1066.32877242
1065.60387981
1064.19879448
1062.08203663
1059.27648396
1055.80716191
1051.7036728
1046.99859322
1041.72604112
1035.92071721
1029.61758046
1022.85200213
1015.66009087
1008.07889073
1000.14623465
991.900136879
983.377707389
974.613654745
965.638524614
956.476911102
947.145990274
937.654840697
928.005083497
918.193267987
908.214971518
898.069595462
887.763654281
877.309623072
866.72120231
856.008921794
845.177851565
834.227824522
823.155445198
811.956506796
800.627466022
789.165931724
777.571300806
765.846041595
753.997592856
742.040532346
729.999133863
717.911022212
705.832757473
693.848640664
682.083756964
670.721223911
660.039286541
650.10035573
640.3086708
639.087755758
639.347220707
639.506486924
639.37759531
639.174716365
638.982890101
638.804137141
638.641341171
638.492401816
638.355477778
638.224925065
638.095153375
637.960440185
637.816129798
637.658783648
637.486167046
637.298149567
637.098667999
636.888585871
636.66624459
636.432896945
636.189319253
635.936140574
635.673986604
635.403611637
635.125960344
634.842191641
634.553747613
634.262486382
633.970760393
633.68134186
633.397317549
633.122069919
632.859217202
632.612514989
632.385749946
632.182418097
632.005393518
631.856304729
631.735912666
631.645416624
631.583109048
631.543666859
631.525467833
631.55292307
631.579379454
631.58601523
1076.50561261
1075.72370795
1074.21596473
1071.94711295
1068.94401769
1065.23649028
1060.86002474
1055.85321245
1050.25542464
1044.10548085
1037.4415148
1030.30167844
1022.72508299
1014.75248085
1006.42636453
997.790327897
988.887675803
979.7593653
970.441443614
960.962262241
951.339922904
941.580661602
931.679140601
921.621704988
911.393154957
900.985784913
890.406605684
879.674765075
868.811099295
857.829813183
846.734781498
835.520666586
824.177164455
812.693646134
801.061039144
789.271146957
777.316533535
765.191899677
752.896498109
740.436453963
727.826987556
715.095914635
702.289935697
689.486806795
676.819437558
664.517277714
653.143603554
642.317549897
640.845399041
641.044967493
641.204599869
641.005528697
640.674960847
640.356004618
640.080832871
639.845426492
639.644214151
639.468471059
639.309677105
639.158374687
639.006258869
638.846250292
638.673125594
638.483493482
638.275921701
638.052106052
637.817967362
637.574996299
637.322953902
637.064021439
636.798806676
636.527233702
636.248852331
635.963211814
635.670108008
635.369743101
635.062837728
634.750716531
634.435335291
634.119232245
633.805461318
633.497552844
633.199459122