/*--------------------------------*- C++ -*----------------------------------*\
| =========                 |                                                 |
| \\      /  F ield         | OpenFOAM: The Open Source CFD Toolbox           |
|  \\    /   O peration     | Version:  v1906                                 |
|   \\  /    A nd           | Web:      www.OpenFOAM.com                      |
|    \\/     M anipulation  |                                                 |
\*---------------------------------------------------------------------------*/
FoamFile
{
    version     2.0;
    format      ascii;
    class       surfaceScalarField;
    location    "666";
    object      phi;
}
// * * * * * * * * * * * * * * * * * * * * * * * * * * * * * * * * * * * * * //

dimensions      [0 3 -1 0 0 0 0];
oriented        oriented;


internalField   nonuniform List<scalar> 
18240
(
-0.000198977104217
0.000198947133632
-0.000407378543151
0.000208364413568
-0.000614378328774
0.000206970092484
-0.000818358928963
0.000203942277821
-0.0010182491156
0.000199862358091
-0.00121313681797
0.00019484838049
-0.00140217590456
0.000189013327359
-0.00158466811411
0.000182452148874
-0.00175996849777
0.000175276835996
-0.00192759010089
0.00016758110577
-0.0020870865909
0.000159475306461
-0.00223817072677
0.000151043525307
-0.00238057466283
0.000142385201206
-0.00251418214967
0.000133567111284
-0.00263887024601
0.00012467190281
-0.0027546556585
0.000115745635951
-0.00286152179465
0.000106852498671
-0.00295957881177
9.80182199282e-05
-0.00304887974327
8.92898677451e-05
-0.00312959273152
8.06755476515e-05
-0.00320180945678
7.22081638482e-05
-0.00326572710907
6.38819350322e-05
-0.00332145222103
5.57189780128e-05
-0.00336918930307
4.77034213096e-05
-0.00340904296741
3.98497953961e-05
-0.00344120989014
3.21356101294e-05
-0.00346578222362
2.4570570661e-05
-0.00348293955777
1.71286001539e-05
-0.0034927564892
9.81704853863e-06
-0.00349539158998
2.60910276449e-06
-0.00349090172977
-4.48807009856e-06
-0.00347942512604
-1.14998056575e-05
-0.00346100539431
-1.8416523636e-05
-0.00343576706841
-2.52587974423e-05
-0.00340375038207
-3.20122892926e-05
-0.00336507764812
-3.86906953079e-05
-0.00331979974984
-4.52725733692e-05
-0.00326805286887
-5.17627179452e-05
-0.00320991596546
-5.81308696959e-05
-0.00314555803613
-6.43721625541e-05
-0.00307510435096
-7.04471456363e-05
-0.00299877512382
-7.63423851243e-05
-0.00291675728455
-8.20108816202e-05
-0.00282933578917
-8.74339074388e-05
-0.00273676773523
-9.25606231296e-05
-0.00263940746038
-9.73717446973e-05
-0.00253758199625
-0.000101817222696
-0.0024317105592
-0.000105881071455
-0.00232218462315
-0.000109516401645
-0.00220948176308
-0.000112709200234
-0.00209405910343
-0.000115411398063
-0.00197645972467
-0.000117600807213
-0.00185723026408
-0.000119216304387
-0.00173701199622
-0.000120213517394
-0.00161648610431
-0.000120511126913
-0.00149642961775
-0.000120044972336
-0.00137767960119
-0.000118734389734
-0.00126112974379
-0.000116531885081
-0.00114770804464
-0.000113406292485
-0.00103831054551
-0.000109374284653
-0.000933802654566
-0.000104494040902
-0.000834904291474
-9.88715401627e-05
-0.000742235624065
-9.26574802226e-05
-0.000656176710478
-8.60299774887e-05
-0.000576980818965
-7.91878800169e-05
-0.000504654437035
-7.22965105031e-05
-0.000439152481078
-6.5497410941e-05
-0.00038024485801
-5.88775013532e-05
-0.000327718207316
-5.25255860867e-05
-0.000281194663443
-4.64939926e-05
-0.000240347832105
-4.08492396608e-05
-0.000204707791618
-3.56121907825e-05
-0.000173897133182
-3.08166293882e-05
-0.000147419965994
-2.64524585604e-05
-0.000124890999553
-2.25385735459e-05
-0.000105809548128
-1.90606893618e-05
-8.9791293952e-05
-1.60309497996e-05
-7.63619157103e-05
-1.3412746113e-05
-6.51908701567e-05
-1.11859375052e-05
-5.58880826293e-05
-9.28989748294e-06
-4.82097160729e-05
-7.69451820493e-06
-4.18588096667e-05
-6.34120558068e-06
-3.66766398262e-05
-5.19872962484e-06
-3.24778005086e-05
-4.19106675951e-06
-2.93074148095e-05
-3.1862589471e-06
-2.66366900275e-05
-2.6661239339e-06
-2.42077280808e-05
-2.44439842338e-06
-2.21092434128e-05
-2.09718190233e-06
-2.00713519668e-05
-2.05359655075e-06
-1.78567101482e-05
-2.21763438505e-06
-1.55928499854e-05
-2.28138223836e-06
-1.32392459235e-05
-2.36301727391e-06
-1.05462656001e-05
-2.70793172493e-06
-7.3213991252e-06
-3.24625458137e-06
-3.59689412825e-06
-3.75773857339e-06
-3.61226888594e-06
-0.000210521686751
0.000409435861851
-0.000433583603103
0.000431390364522
-0.00065442380131
0.00042777604586
-0.000871795017559
0.000421277219736
-0.00108468573021
0.000412719626558
-0.00129215239458
0.000402278912866
-0.00149331916899
0.000390147648086
-0.00168743027292
0.000376527506849
-0.0018738204539
0.000361635763432
-0.0020519570786
0.000345682624864
-0.00222139308883
0.000328881463697
-0.0023818088642
0.000311425092792
-0.00253295296947
0.00029350106297
-0.00267468667122
0.000275267764808
-0.00280691607348
0.000256874852897
-0.00292964126735
0.00023843919978
-0.00304288291156
0.000220069662344
-0.0031467370828
0.000201842432987
-0.00324129862977
0.000183829048616
-0.0033267217765
0.000166070641563
-0.00340314187504
0.000148608134111
-0.00347074101207
0.000131455131696
-0.00352966933287
0.000114629480587
-0.00358011440028
9.81248267628e-05
-0.00362222303329
8.19429593347e-05
-0.00365617298892
6.60643044674e-05
-0.0036820962365
5.0480684606e-05
-0.00370015156479
3.51651378417e-05
-0.00371045021897
2.0104856545e-05
-0.00371312814917
5.27072805438e-06
-0.00370827525082
-9.34962624932e-06
-0.00369600666481
-2.37822639042e-05
-0.00367639577474
-3.80340262447e-05
-0.00364954344556
-5.2122706007e-05
-0.00361551622316
-6.60442951177e-05
-0.00357441333894
-7.98031107151e-05
-0.00352630980697
-9.3379340412e-05
-0.00347132079199
-0.000106759580315
-0.00340954902306
-0.000119904688973
-0.00334114625746
-0.0001327815431
-0.00326626353089
-0.0001453311103
-0.00318510940222
-0.000157502336538
-0.00309790091368
-0.000169220088212
-0.00300491825898
-0.000180421839408
-0.00290645437703
-0.000191024711105
-0.00280286583664
-0.000200964780194
-0.00269452041297
-0.000210161880511
-0.00258184461215
-0.000218559767258
-0.00246527174779
-0.000226086671145
-0.00234528818469
-0.0002326928548
-0.00222238889396
-0.000238305266007
-0.00209712598132
-0.000242859794468
-0.00197008021605
-0.00024625306964
-0.00184191086429
-0.000248374055482
-0.00171334234119
-0.000249066848298
-0.00158519835728
-0.000248175103617
-0.00145838482316
-0.000245531808535
-0.00133388088435
-0.000241017482845
-0.00121270442423
-0.00023456438139
-0.00109586075054
-0.000226196604615
-0.000984302021869
-0.000216033645636
-0.000878849463625
-0.000204301461426
-0.00078017410263
-0.000191314226095
-0.000688710104487
-0.000177471124146
-0.000604682598367
-0.00016319821672
-0.00052808829203
-0.000148868729416
-0.000458816155102
-0.000134754523691
-0.000396631943997
-0.000121040949947
-0.0003412623745
-0.00010788247446
-0.000292328243244
-9.5409233333e-05
-0.000249430546968
-8.37369835436e-05
-0.000212091988078
-7.29345350941e-05
-0.000179862240943
-6.3039904722e-05
-0.000152249801521
-5.40523911778e-05
-0.000128805625153
-4.59801912967e-05
-0.000109030407023
-3.88273482688e-05
-9.24638551194e-05
-3.25984815512e-05
-7.86251844703e-05
-2.72464714307e-05
-6.71186808459e-05
-2.26963029597e-05
-5.75643892296e-05
-1.8842322014e-05
-4.96700684012e-05
-1.55948794465e-05
-4.3149299339e-05
-1.28626735008e-05
-3.7780359847e-05
-1.05749673889e-05
-3.33137071942e-05
-8.65980975661e-06
-2.94249117654e-05
-7.0825605274e-06
-2.61228369442e-05
-5.97237291106e-06
-2.35323674363e-05
-5.04338877655e-06
-2.14088489795e-05
-4.22637860721e-06
-1.94789629227e-05
-3.99281982161e-06
-1.75221784484e-05
-4.18362486197e-06
-1.53523949505e-05
-4.4631974989e-06
-1.30055478412e-05
-4.72155744575e-06
-1.04548423643e-05
-5.27580243962e-06
-7.42806710328e-06
-6.29388359627e-06
-3.68020300514e-06
-7.53225499391e-06
-7.30839439385e-06
-0.000213384239051
0.000622786626803
-0.000438734419993
0.00065670478652
-0.000662046249161
0.000651052697951
-0.00088180951964
0.000641004867578
-0.00109693747413
0.0006278128605
-0.00130644454186
0.000611750824812
-0.00150944090089
0.000593109994382
-0.00170515436143
0.000572206477058
-0.00189292438475
0.000549372700204
-0.0020722151376
0.000524939786602
-0.00224259792293
0.000499232325532
-0.00240375885748
0.000472553574735
-0.00255547360939
0.000445185273632
-0.0026976131854
0.000417376268473
-0.00283011455548
0.000389347292784
-0.0029529873334
0.000361282518406
-0.00306628301006
0.000333338220942
-0.00317010425932
0.000305636060345
-0.00326457449719
0.000278274178966
-0.00334985046056
0.00025132101815
-0.00342609288089
0.000224827609534
-0.00349348220505
0.000198821073891
-0.00355219065244
0.00017331727703
-0.00360240051004
0.00014831363242
-0.00364427756721
0.000123801731987
-0.00367799131332
9.97594142162e-05
-0.00370368977337
7.61632719297e-05
-0.00372152100809
5.29801885081e-05
-0.00373160944082
3.01798149463e-05
-0.00373407827661
7.72582447716e-06
-0.00372902755793
-1.44114656758e-05
-0.00371655726811
-3.62639152184e-05
-0.00369674745021
-5.7852731643e-05
-0.00366968197828
-7.91973046319e-05
-0.00363543091994
-0.000100302196335
-0.00359407495663
-0.000121166213941
-0.00354568995856
-0.000141769449018
-0.00349037188746
-0.0001620831808
-0.00342822304258
-0.000182057329277
-0.00335937696674
-0.000201632024205
-0.00328398515477
-0.000220725886929
-0.00320224109448
-0.000239250167253
-0.00311436565527
-0.000257098052233
-0.00302062907271
-0.000274161847416
-0.00292133303753
-0.000290322871749
-0.00281682957309
-0.000305471102296
-0.00270749870247
-0.000319493930741
-0.00259376424707
-0.00033229567483
-0.00247606869312
-0.000343781447663
-0.00235488906713
-0.000353871291203
-0.00223071618587
-0.000362474246574
-0.0021040784524
-0.000369492396252
-0.00197553704462
-0.000374786443926
-0.00184572353451
-0.000378177703823
-0.00171535118842
-0.000379426583137
-0.0015852494622
-0.000378262269544
-0.00145635986197
-0.000374404509378
-0.00132972620992
-0.000367632547085
-0.00120644702572
-0.000357823671044
-0.00108763250434
-0.000344990075775
-0.000974330127146
-0.000329315189191
-0.000867460729644
-0.0003111488632
-0.000767764893053
-0.000290989502805
-0.00067570893996
-0.000269505309162
-0.000591461075522
-0.000247426268774
-0.00051493617668
-0.000225373489952
-0.000445934922408
-0.000203737913564
-0.000384195473808
-0.000182762148578
-0.000329409637159
-0.000162652776038
-0.000281186659279
-0.000143616144547
-0.000239076613038
-0.000125834285709
-0.000202577495536
-0.000109420708512
-0.00017119683596
-9.44114161679e-05
-0.000144451869153
-8.0788599493e-05
-0.00012188108233
-6.85459482765e-05
-0.000102987529334
-5.77160186753e-05
-8.72603474548e-05
-4.83241064573e-05
-7.41959008684e-05
-4.0309281692e-05
-6.33649194001e-05
-3.35286675138e-05
-5.44021009167e-05
-2.78063383271e-05
-4.70103071631e-05
-2.2990461903e-05
-4.09251087236e-05
-1.89514319427e-05
-3.59238339006e-05
-1.55817148812e-05
-3.17947065184e-05
-1.27932551506e-05
-2.83269243459e-05
-1.05566702561e-05
-2.53662519708e-05
-8.93917103933e-06
-2.26807510219e-05
-7.73695141602e-06
-2.02017515718e-05
-6.71313244749e-06
-1.82166743192e-05
-5.98705783569e-06
-1.65979755318e-05
-5.81274644967e-06
-1.4477557595e-05
-6.59702831285e-06
-1.19057496624e-05
-7.30651805644e-06
-9.17924632087e-06
-8.01507194229e-06
-6.14807198688e-06
-9.34609554216e-06
-3.16149727201e-06
-1.05448766044e-05
-1.04814412722e-05
-0.000216814075193
0.00083956699124
-0.000445527969479
0.000885383249541
-0.000672127559932
0.000877616714817
-0.000895002135518
0.000863843982212
-0.00111300142477
0.000845777036016
-0.00132509264245
0.000823807066411
-0.00153035926923
0.000798342163296
-0.00172801277581
0.000769825720358
-0.00191739315995
0.00073871949745
-0.00209797115048
0.00070548446137
-0.00226933848517
0.000670567172016
-0.00243120288493
0.000634385844426
-0.00258337197906
0.000597323218065
-0.00272574513303
0.000559718716617
-0.00285829499013
0.000521867566272
-0.00298105951446
0.000484017992401
-0.00309412398111
0.000446374896392
-0.00319761523592
0.000409100139775
-0.00329168558851
0.000372318731902
-0.00337651000465
0.000336120328143
-0.00345227229308
0.000300566267807
-0.00351916510434
0.000265691011205
-0.00357737820194
0.00023150904801
-0.00362710075066
0.000198015661514
-0.00366851127034
0.000165193328887
-0.00370178165754
0.000133011719189
-0.00372706847726
0.000101433627798
-0.0037445183046
7.04144130887e-05
-0.00375426019316
3.99077201825e-05
-0.00375641216653
9.86467825179e-06
-0.00375107489111
-1.97602686045e-05
-0.00373833935456
-4.90101359034e-05
-0.00371828200382
-7.7919236532e-05
-0.00369097381565
-0.000106513865449
-0.00365647709505
-0.000134805880896
-0.00361485610192
-0.000162793512378
-0.00356617559206
-0.000190455054925
-0.003510512917
-0.00021775050348
-0.00344795791437
-0.00024461605597
-0.00337862588766
-0.000270967596508
-0.00330265780461
-0.000296696913281
-0.00322023289754
-0.000321678112853
-0.00313156735861
-0.00034576627089
-0.00303692471074
-0.00036880739234
-0.00293661067982
-0.000390639426207
-0.00283097926288
-0.000411105033388
-0.00272042179733
-0.000430053188008
-0.00260536753844
-0.000447351168377
-0.00248626742743
-0.000462881469452
-0.00236359245406
-0.000476544895139
-0.00223782020999
-0.000488243067941
-0.00210944437182
-0.000497862880603
-0.00197898272631
-0.000505240102368
-0.00184701543475
-0.000510134604977
-0.00171422258769
-0.000512206530471
-0.00158143284308
-0.000511036387194
-0.00144964111943
-0.000506178839605
-0.00131999111766
-0.000497262614108
-0.00119371253111
-0.00048408157581
-0.00107208261956
-0.000466598381369
-0.000956309072466
-0.000445066496563
-0.000847470745641
-0.00041996571646
-0.000746455652679
-0.000391982469175
-0.00065378387579
-0.000362155297153
-0.000569517991579
-0.000331671285292
-0.000493376847951
-0.000301494712066
-0.000425019583501
-0.000272076867639
-0.000364141433495
-0.000243622750067
-0.00031042036806
-0.000216357847928
-0.000263440046347
-0.000190581478454
-0.000222683814405
-0.000166577448106
-0.00018758072413
-0.00014451209598
-0.000157586529715
-0.000124396653122
-0.000132225214259
-0.000106142723991
-0.000111060444909
-8.97061561007e-05
-9.35884402638e-05
-7.51843955314e-05
-7.92226959846e-05
-6.26885259374e-05
-6.73870694965e-05
-5.21442809966e-05
-5.76169734905e-05
-4.33001631345e-05
-4.95647517074e-05
-3.58608943446e-05
-4.29531431025e-05
-2.96060093448e-05
-3.7541281849e-05
-2.43679647025e-05
-3.312515718e-05
-2.00032792821e-05
-2.95199573177e-05
-1.64040609955e-05
-2.65797798241e-05
-1.35028926412e-05
-2.37660836576e-05
-1.17604134308e-05
-2.1231958256e-05
-1.02798761933e-05
-1.90294216148e-05
-8.92497753076e-06
-1.68187325216e-05
-8.20845701965e-06
-1.45310258935e-05
-8.11254487032e-06
-1.27875757051e-05
-8.35241073241e-06
-1.03428163525e-05
-9.76424650724e-06
-7.44617220441e-06
-1.09285693422e-05
-4.93979421906e-06
-1.18683760361e-05
-2.56854189234e-06
-1.29357841715e-05
-1.30630454048e-05
-0.000221392463528
0.00106092573269
-0.000454788914323
0.00111874390884
-0.000685895380671
0.00110868757444
-0.000913006202914
0.00109091923605
-0.00113489646016
0.00106763204124
-0.00135047572596
0.00103935130345
-0.0015587906632
0.00100662245952
-0.00175903412308
0.000970034876245
-0.0019505463175
0.000930197887307
-0.00213281193687
0.000887716728235
-0.00230545033356
0.000843172841284
-0.00246820424914
0.000797107598954
-0.00262092394086
0.000750011497357
-0.00276355266871
0.000702316716312
-0.00289610954322
0.000654394584636
-0.00301867576283
0.000606555152829
-0.00313137927556
0.000559050335487
-0.00323438388065
0.000512077577357
-0.00332787699211
0.000465785765742
-0.00341206212563
0.000420280383909
-0.00348714976963
0.000375630008816
-0.00355335285362
0.000331871273116
-0.00361088014077
0.000289014755806
-0.00365993394563
0.000247049027739
-0.00370070534266
0.000205945576135
-0.00373337346184
0.000165661875484
-0.00375810198165
0.000126145504736
-0.00377503956774
8.73365713332e-05
-0.00378431738333
4.91714410429e-05
-0.00378605054625
1.15849771811e-05
-0.00378033668688
-2.54856621081e-05
-0.00376725860367
-6.20985338746e-05
-0.00374688417264
-9.83026946889e-05
-0.00371927054194
-0.00013413535884
-0.00368446579405
-0.000169617309773
-0.00364251504463
-0.000204749914344
-0.00359346411509
-0.000239510672232
-0.00353736758263
-0.000273850932926
-0.0034742942761
-0.000307692623942
-0.00340433667887
-0.000340927990598
-0.00332761724924
-0.000373418898588
-0.00324429766858
-0.000405000116273
-0.00315458395693
-0.00043548247954
-0.00305873311801
-0.000464660764754
-0.00295705398151
-0.000492321145538
-0.00284990815251
-0.000518253334798
-0.00273770282192
-0.000542260550762
-0.00262088313394
-0.000564172308389
-0.00249991490005
-0.000583849923957
-0.00237527021251
-0.000601188473715
-0.0022474087622
-0.000616101341203
-0.00211677548066
-0.000628490643169
-0.00198381308619
-0.000638194351772
-0.00184900991947
-0.000644926931572
-0.001712971874
-0.000648230509788
-0.00157650969314
-0.000647482523219
-0.00144068916098
-0.000641980023525
-0.00130681026515
-0.000631120976229
-0.00117628202551
-0.00061458776131
-0.00105064761469
-0.000592209508336
-0.000931341878836
-0.000564350302672
-0.000819678113425
-0.000531606203142
-0.000716846203394
-0.000494792275221
-0.000623484289367
-0.000455494696836
-0.000539440636973
-0.000415693431212
-0.000464005288178
-0.00037691040443
-0.000396604213174
-0.000339459587953
-0.000336924177272
-0.000303285845082
-0.000284689799388
-0.00026857678281
-0.00023946455614
-0.00023579237766
-0.000200623701936
-0.000205405918678
-0.000167458225159
-0.00017766700424
-0.000139334939518
-0.000152511857369
-0.000115809987088
-0.000129662344871
-9.65541587732e-05
-0.00010895807874
-8.10748693819e-05
-9.06621183244e-05
-6.86311512759e-05
-7.51311777438e-05
-5.84896615053e-05
-6.22864536039e-05
-5.01360841042e-05
-5.16555688606e-05
-4.32775313107e-05
-4.27230238645e-05
-3.7688110186e-05
-3.52001367402e-05
-3.31558087666e-05
-2.89062057047e-05
-2.95057672731e-05
-2.36599455067e-05
-2.65716222964e-05
-1.93445146966e-05
-2.42261713807e-05
-1.58555732605e-05
-2.20130108303e-05
-1.39820036249e-05
-1.97965435525e-05
-1.25061413039e-05
-1.72407443876e-05
-1.14919220242e-05
-1.48485643753e-05
-1.0612526989e-05
-1.25875130012e-05
-1.03861300001e-05
-1.06661634208e-05
-1.02873561989e-05
-8.90194790385e-06
-1.154125292e-05
-6.38195988151e-06
-1.3459278978e-05
-3.9962699384e-06
-1.42715016078e-05
-2.0326908973e-06
-1.49201103347e-05
-1.51040815036e-05
-0.000227263450255
0.00128815527384
-0.000466726802913
0.00135817174717
-0.000703650629945
0.00134557555982
-0.000936206488961
0.00132343950447
-0.00116307481282
0.00129446495463
-0.00138309332338
0.00125933469567
-0.00159526305526
0.00121875739859
-0.00179875646618
0.00117349386998
-0.00199291718527
0.00112432463959
-0.00217725292004
0.00107201898167
-0.00235142221697
0.00101730923215
-0.00251521790239
0.00096087098251
-0.00266854778769
0.000903309784503
-0.00281141540923
0.000845153461905
-0.00294390065389
0.000786849782501
-0.0030661425649
0.000728767855586
-0.00317832331721
0.000671202830592
-0.00328065521123
0.000614382159441
-0.00337336900105
0.00055847330368
-0.00345670519498
0.000503591366149
-0.00353090624658
0.000449807004007
-0.00359621128458
0.00039715337172
-0.00365285111289
0.000345632875841
-0.00370104527872
0.000295222663024
-0.00374099886884
0.000245879927886
-0.00377290103371
0.000197546024395
-0.00379692286855
0.000150150663257
-0.00381321687513
0.000103615157748
-0.00382191560453
5.78561289651e-05
-0.00382313194411
1.27885538177e-05
-0.00381695858703
-3.16703787075e-05
-0.00380346944617
-7.55977569589e-05
-0.00378272038815
-0.000119060443898
-0.0037547522927
-0.000162110922744
-0.0037195937012
-0.000204782071552
-0.00367726615248
-0.000247082565665
-0.00362778927165
-0.000288991578942
-0.00357118868395
-0.000330454767434
-0.00350750357997
-0.000371380262394
-0.00343679672038
-0.000411636997401
-0.00335916354754
-0.000451053959157
-0.00327474258438
-0.000489423001842
-0.00318372376258
-0.000526503336781
-0.00308635618205
-0.000562030651601
-0.00298295177797
-0.000595728003648
-0.00287388586297
-0.000627321752918
-0.00275959052562
-0.000656558145504
-0.00264054166471
-0.0006832228639
-0.00251723580416
-0.00070715639478
-0.00239016079385
-0.000728262636064
-0.00225976157775
-0.000746497472203
-0.00212641866519
-0.000761828002979
-0.00199045417004
-0.000774150296958
-0.00185219425129
-0.000783174755122
-0.0017120937539
-0.000788316506544
-0.00157089709821
-0.000788660805088
-0.00142976838059
-0.000783088778367
-0.00129025589097
-0.000770610522326
-0.00115397392675
-0.00075084567954
-0.00102291270937
-0.000723247413605
-0.000898758803161
-0.00068847947693
-0.00078314661485
-0.0006471961745
-0.000677901021716
-0.00060001440279
-0.00058397156411
-0.000549400830871
-0.000500751695291
-0.000498891045476
-0.000426558469428
-0.000451084376387
-0.000360454276009
-0.00040554543163
-0.000302281614978
-0.000361443170774
-0.000251978937283
-0.0003188641514
-0.000209118724456
-0.000278640376987
-0.000172877107614
-0.000241635845415
-0.000142268687719
-0.000208267240744
-0.000116478824208
-0.000178295856691
-9.51590819307e-05
-0.000150979059742
-7.83091905245e-05
-0.000125807712776
-6.55191746753e-05
-0.000103451125438
-5.56996566045e-05
-8.49521083022e-05
-4.77681996363e-05
-7.02187463469e-05
-4.1148682017e-05
-5.8278547472e-05
-3.57172466597e-05
-4.81588630321e-05
-3.13605105319e-05
-3.95633748666e-05
-2.78838449605e-05
-3.23901379423e-05
-2.5148189938e-05
-2.64037112201e-05
-2.30072166344e-05
-2.14934160884e-05
-2.09913150173e-05
-1.7879850806e-05
-1.90632043622e-05
-1.59193945746e-05
-1.73016877267e-05
-1.42787334179e-05
-1.56310803638e-05
-1.31745889357e-05
-1.35533875961e-05
-1.27039957601e-05
-1.12683204086e-05
-1.26854574472e-05
-8.80116659832e-06
-1.27662728757e-05
-7.08505934914e-06
-1.32693332024e-05
-5.52605771594e-06
-1.50342084373e-05
-3.46544335508e-06
-1.63454698131e-05
-1.7449323982e-06
-1.66552865445e-05
-1.68594061732e-05
-0.000234573097276
0.001522694501
-0.000481602655221
0.00160516529508
-0.000725763614772
0.00158970072084
-0.000965067129181
0.00156270724841
-0.00119807198572
0.00152743432238
-0.00142352701387
0.00148475447307
-0.00164037897608
0.00143557444022
-0.00184777994147
0.00138086027795
-0.00204508383546
0.00132159440912
-0.00223183417455
0.00125873568343
-0.00240774507114
0.00119318704472
-0.0025726782893
0.00112577173083
-0.00272661840422
0.00105721810633
-0.00286964824191
0.000988152250355
-0.00300192577459
0.000919097066239
-0.0031236636352
0.00085047633755
-0.00323511148176
0.000782622215546
-0.00333654153675
0.000715784742434
-0.00342823692928
0.000650142247894
-0.00351048270966
0.000585811792598
-0.00358355895026
0.00052285900473
-0.0036477356755
0.000461307040564
-0.00370326907289
0.000401144405711
-0.00375039877208
0.000342331750035
-0.00378934578101
0.000284807574104
-0.00382031097279
0.000228493169488
-0.00384347385584
0.000173296802492
-0.003858991644
0.000119117570987
-0.00386699848156
6.5848944098e-05
-0.00386760499263
1.3382458234e-05
-0.00386089808301
-3.83885010984e-05
-0.00384694141058
-8.95642049827e-05
-0.00382577637679
-0.000140233859243
-0.00379742427352
-0.000190470012773
-0.00376188943229
-0.000240322600094
-0.00371916403871
-0.000289812413032
-0.00366923434016
-0.000338924685497
-0.00361208878314
-0.000387602804038
-0.00354772768859
-0.000435743209091
-0.00347617443459
-0.000483191604044
-0.00339748780935
-0.000529741854526
-0.00331177440036
-0.00057513764207
-0.00321920109765
-0.000619078297051
-0.00312000501193
-0.000661228587375
-0.00301450153795
-0.000701233865175
-0.00290308593941
-0.000738739777712
-0.00278622875886
-0.000773417805475
-0.00266445887181
-0.000804994625785
-0.00253833240655
-0.000833283862367
-0.0024083838631
-0.00085821053909
-0.00227506287808
-0.000879815358153
-0.00213867486966
-0.000898210170184
-0.00199935894192
-0.000913456483685
-0.0018571609594
-0.000925360056584
-0.00171223281503
-0.000933227725086
-0.00156514763286
-0.000935726418723
-0.00141720215508
-0.000931011160398
-0.00127041784883
-0.000917370258391
-0.00112648945608
-0.000894748796672
-0.00098829936847
-0.000861411040181
-0.000857616741224
-0.000819138792393
-0.000736387022949
-0.000768401775888
-0.000627895964118
-0.000708482135262
-0.00053395250225
-0.000643319477172
-0.000452959005366
-0.000579864402963
-0.000380891408747
-0.000523131058415
-0.000316337212188
-0.000470085982935
-0.000259814971201
-0.000417948425377
-0.000211889975561
-0.000366779590651
-0.000172179493684
-0.000318337214959
-0.000139468283132
-0.00027434112412
-0.000112190940669
-0.000235537005363
-8.91215849131e-05
-0.000201363584109
-7.01210975484e-05
-0.000169979842746
-5.61007112815e-05
-0.000139827561451
-4.69814143654e-05
-0.000112573317579
-4.07922369859e-05
-9.11407572545e-05
-3.56653601643e-05
-7.53487742949e-05
-3.09698722019e-05
-6.29764970694e-05
-2.70918282866e-05
-5.20424641545e-05
-2.4146382759e-05
-4.25159196476e-05
-2.18708159355e-05
-3.46750306088e-05
-2.01809514491e-05
-2.81032931475e-05
-1.89402361362e-05
-2.27440384917e-05
-1.75645329221e-05
-1.92655240529e-05
-1.63253082677e-05
-1.71699378544e-05
-1.48529974614e-05
-1.57632861994e-05
-1.33027717748e-05
-1.47385269692e-05
-1.15326720429e-05
-1.44886186743e-05
-9.8615229762e-06
-1.43711825084e-05
-7.80757559343e-06
-1.4835365967e-05
-5.75904970009e-06
-1.53309101227e-05
-4.60293844798e-06
-1.61996775915e-05
-3.02593220946e-06
-1.79381328912e-05
-1.52324002961e-06
-1.8175156531e-05
-1.83889363093e-05
-0.000243496235479
0.00176615665887
-0.000499755060176
0.00186138849325
-0.000752719481927
0.00184262909404
-0.00100019317448
0.00181014516263
-0.00124058159617
0.00176778710323
-0.0014725247568
0.00171666228035
-0.00169490739212
0.00165792201258
-0.0019068641636
0.00159278235133
-0.00210777116771
0.00152246713043
-0.0022972262259
0.00144815693644
-0.00247502154709
0.00137094910475
-0.00264111229932
0.00129182982423
-0.00279558411098
0.00121165793699
-0.00293862203531
0.00113115892318
-0.00307048250347
0.00105092709437
-0.00319146938185
0.000971433630463
-0.00330191425577
0.000893038444551
-0.00340216104467
0.000816003857031
-0.0034925542445
0.000740508831055
-0.00357343050623
0.000666662511159
-0.00364511257257
0.000594516687732
-0.00370790532405
0.000524076568235
-0.00376209299133
0.000455310094775
-0.00380793751573
0.000388155528002
-0.00384567723565
0.000322527868109
-0.00387552613418
0.000258323936912
-0.00389767292254
0.000195426851216
-0.00391228044104
0.000133709706355
-0.00391948471262
7.30392965394e-05
-0.00391939439865
1.32796408873e-05
-0.00391209001137
-4.57038629879e-05
-0.00389762402202
-0.000104039720139
-0.00387602107263
-0.000161844788472
-0.00384727978521
-0.000219217874367
-0.00381137534221
-0.000276232162723
-0.00376826446742
-0.000332927186247
-0.0037178917588
-0.000389300090038
-0.00366019906399
-0.000445297318441
-0.00359513644691
-0.000500806872096
-0.00352267608929
-0.000555652610544
-0.00344282734449
-0.00060959106454
-0.00335565332051
-0.000662312310148
-0.00326128721973
-0.000713445366875
-0.00315994766398
-0.000762569716699
-0.0030519510429
-0.000809232429889
-0.00293771897362
-0.000852974333676
-0.00281777674608
-0.000893362212981
-0.00269273836525
-0.000930035389117
-0.0025632664435
-0.000962756514124
-0.00243000233097
-0.000991474074641
-0.00229345404129
-0.00101636055583
-0.00215386435969
-0.00103779268181
-0.0020111147766
-0.0010561959718
-0.0018647723773
-0.00107168710419
-0.0017143989376
-0.00108358254942
-0.00156013926103
-0.00108996391676
-0.00140347956764
-0.00108764628422
-0.0012475677818
-0.00107325501729
-0.00109341012417
-0.00104887953791
-0.000946215397194
-0.00100858040394
-0.000806823479733
-0.000958506667995
-0.000677105496864
-0.000898096842487
-0.000563871719825
-0.000821691798766
-0.000471424122492
-0.000735747567781
-0.000395895377708
-0.000655372503604
-0.000327355820998
-0.000591655985502
-0.00026411287052
-0.00053331681432
-0.000208884718457
-0.000473166929843
-0.000163722761584
-0.000411931942271
-0.000128302743189
-0.000353748777064
-0.000100550267548
-0.000302088313636
-7.77265415059e-05
-0.000258352625842
-5.75789699169e-05
-0.000221512849192
-4.03013757609e-05
-0.000187250141643
-2.92582426044e-05
-0.000150872775707
-2.54670830794e-05
-0.000116358895165
-2.46173707123e-05
-9.19912670696e-05
-2.29792294322e-05
-7.69831211445e-05
-2.00166091684e-05
-6.59401904868e-05
-1.75813876866e-05
-5.44821314025e-05
-1.62447422098e-05
-4.38598091915e-05
-1.52785150341e-05
-3.56514878941e-05
-1.47452006272e-05
-2.86482831273e-05
-1.44500532915e-05
-2.30510281657e-05
-1.3922844988e-05
-1.98053073633e-05
-1.33928788408e-05
-1.77131340375e-05
-1.25890090721e-05
-1.65815519619e-05
-1.13251104995e-05
-1.60177028837e-05
-9.93825949338e-06
-1.58916979412e-05
-8.26582722989e-06
-1.60598656852e-05
-6.92865897838e-06
-1.61867235599e-05
-5.27054643149e-06
-1.7002481183e-05
-3.85584463942e-06
-1.76303365754e-05
-2.74667171889e-06
-1.90588337059e-05
-1.35304120659e-06
-1.9580721661e-05
-1.97509893116e-05
-0.0002542535581
0.00202037624172
-0.00052162167186
0.00212872039797
-0.00078514462101
0.00210611610313
-0.00104236307519
0.00206732765647
-0.00129149027075
0.00201687861121
-0.00153103562577
0.00195617215563
-0.00175981568681
0.00188666689772
-0.00197695572655
0.00180988755193
-0.00218187302866
0.00172734999804
-0.00237424640796
0.00164049634605
-0.00255397702846
0.00155064628428
-0.00272114547511
0.00145896543001
-0.00287596918624
0.00136644946724
-0.00301876325035
0.00127392154625
-0.00314990650121
0.0011820396965
-0.00326981369184
0.00109131104992
-0.00337891389638
0.00100210979661
-0.00347763448436
0.000914696599303
-0.00356638998854
0.00082923752334
-0.003645574697
0.000745821529039
-0.00371555823771
0.000664475670868
-0.0037766830466
0.000585178039464
-0.00382926329224
0.000507868220257
-0.00387358438851
0.000432455809042
-0.0039099030101
0.000358826967249
-0.00393844694791
0.000286849736756
-0.00395941497564
0.000216378109653
-0.00397297621952
0.000147255646402
-0.00397926939959