/*--------------------------------*- C++ -*----------------------------------*\
| =========                 |                                                 |
| \\      /  F ield         | OpenFOAM: The Open Source CFD Toolbox           |
|  \\    /   O peration     | Version:  v1906                                 |
|   \\  /    A nd           | Web:      www.OpenFOAM.com                      |
|    \\/     M anipulation  |                                                 |
\*---------------------------------------------------------------------------*/
FoamFile
{
    version     2.0;
    format      ascii;
    class       volScalarField;
    location    "320";
    object      p;
}
// * * * * * * * * * * * * * * * * * * * * * * * * * * * * * * * * * * * * * //

dimensions      [0 2 -2 0 0 0 0];


internalField   nonuniform List<scalar> 
9216
(
303.968120382
304.04815003
304.217748698
304.471535742
304.809032606
305.228522081
305.727811095
306.304286363
306.95500567
307.676718934
308.465950255
309.31900605
310.232058974
311.201143849
312.222242289
313.291264757
314.404134893
315.556757102
316.745100759
317.965153941
319.213008537
320.484801353
321.776801422
323.085339934
324.406900984
325.738041639
327.075486981
328.416041453
329.756688612
331.094494611
332.426713161
333.750681569
335.0639305
336.364073489
337.648921242
338.916365068
340.164495377
341.391479574
342.595684258
343.775548257
344.929708048
346.056866585
347.155921379
348.225829895
349.265739762
350.274851474
351.252550122
352.198266217
353.111608382
353.992223048
354.839927449
355.654569013
356.43615805
357.184727582
357.900465012
358.583573215
359.234400509
359.853303756
360.440775875
360.997311761
361.523532616
362.020055455
362.487613401
362.926929662
363.338832941
363.724136715
364.083748827
364.418556971
364.729531547
365.01761821
365.28383301
365.529162897
365.754652269
365.961312222
366.150197749
366.32232649
366.47874613
366.620463287
366.748501101
366.863838877
366.967460575
367.060305867
367.143311336
367.21737421
367.283390436
367.342236379
367.394827612
367.442355145
367.482084493
367.511902874
367.533401959
367.548274437
367.55802465
367.563754049
367.566561164
367.567529754
303.888184469
303.968667513
304.137019458
304.391622689
304.730689294
305.152261534
305.654029995
306.23331913
306.887130027
307.612171386
308.404917791
309.261640844
310.178467879
311.151405921
312.176396747
313.24933108
314.366098639
315.522592048
316.714752104
317.938562136
319.190089633
320.465472394
321.760957951
323.072882987
324.397711862
325.73201058
327.072485432
328.415952454
329.759376921
331.099838951
332.434573971
333.760935084
335.076434748
336.378704023
337.665535416
338.934839335
340.184687984
341.413269272
342.618931619
343.80013561
344.955499567
346.083749254
347.183764078
348.25452518
349.295162131
350.30489975
351.283105144
352.229233617
353.142875888
354.023703445
354.871515752
355.686185396
356.467705095
357.216132948
357.93163903
358.614451077
359.264900418
359.883368401
360.470331408
361.02630833
361.551904386
362.047759952
362.514592871
362.953148963
363.364242493
363.748708668
364.107441913
364.441350668
364.751393103
365.038534517
365.303780096
365.548135229
365.772634949
365.978307439
366.166199879
366.337345443
366.492785424
366.633540062
366.760627109
366.875036945
366.977748184
367.069707758
367.15184473
367.225056232
367.290220773
367.348190122
367.399792615
367.446036251
367.485183958
367.514776951
367.535765398
367.550196957
367.559625859
367.565014837
367.567569572
367.568547525
303.717828286
303.801378949
303.971574348
304.228852117
304.571456367
304.99738967
305.504258898
306.089300825
306.749423515
307.481247671
308.281157778
309.145344512
310.069854232
311.050625391
312.083531857
313.164410597
314.28909748
315.453445909
316.653355595
317.884783172
319.143765338
320.426423045
321.728980639
323.04776522
324.379223236
325.719916313
327.066536372
328.415898853
329.764957049
331.110793288
332.450632873
333.781833518
335.101899007
336.40846709
337.699322907
338.972385453
340.225720773
341.457527092
342.666147775
343.850055258
345.007863789
346.138312302
347.240276962
348.312753165
349.354867916
350.365861137
351.3450979
352.292049221
353.206304193
354.087550423
354.935586049
355.750300006
356.531683919
357.279812318
357.994854377
358.677054218
359.326742456
359.944316691
360.530252782
361.085085663
361.609420263
362.103912732
362.569280917
363.006286102
363.415742932
363.798501758
364.155457867
364.487534521
364.795691366
365.08090822
365.344192484
365.586563761
365.809060119
366.012723582
366.198605122
366.367751132
366.521207116
366.66000531
366.785167254
366.897692896
366.99856253
367.088727977
367.169114705
367.240615829
367.304094979
367.360383142
367.410271306
367.454713342
367.492354829
367.520672745
367.540579307
367.554220253
367.562840949
367.567714638
367.570202671
367.571337575
303.460526265
303.546025104
303.719140335
303.980658797
304.328796863
304.761484283
305.276216384
305.870102656
306.539915081
307.282138066
308.093021047
308.968627356
309.904882762
310.897617257
311.942605339
313.035598274
314.172355131
315.348665658
316.560373042
317.803388921
319.073709717
320.367425741
321.680733037
323.009938394
324.351468303
325.701871249
327.057824908
328.416136604
329.773749393
331.12774121
332.475330241
333.81387289
335.140868437
336.453956021
337.750918655
339.029679211
340.288303803
341.524996815
342.738103683
343.926105052
345.087619
346.221394429
347.326312825
348.401381002
349.445732483
350.458619738
351.439415275
352.387603502
353.302781605
354.184651157
355.03301885
355.847787947
356.628958912
357.376620796
358.090951792
358.772210616
359.420736999
360.036943114
360.621314007
361.174399116
361.696812613
362.189225055
362.65236362
363.087003911
363.493970051
363.874126658
364.228378742
364.557663866
364.862951773
365.145236709
365.405536691
365.644885967
365.864333819
366.064937115
366.24775855
366.413859274
366.564296534
366.700116444
366.822351127
366.932011857
367.030086048
367.117531272
367.195272757
367.264199134
367.325161502
367.37897313
367.426409078
367.468449799
367.503426682
367.529564369
367.548138684
367.560502823
367.568283636
367.572813424
367.575308553
367.576479755
303.113872962
303.201508529
303.378585692
303.645931562
304.001670428
304.443609041
304.969086662
305.575037159
306.258046388
307.014410798
307.840195493
308.73128883
309.683453493
310.69237162
311.753685132
312.863029489
314.016062958
315.208489891
316.436080671
317.69468676
318.980253804
320.288830938
321.616579391
322.959778146
324.314829832
325.67826422
327.046742549
328.417059685
329.786147486
331.151076082
332.509056572
333.85744141
335.193726329
336.515549973
337.820695072
339.107087223
340.372795303
341.616029406
342.835140518
344.028617666
345.195086928
346.333307897
347.442172114
348.520698975
349.568033708
350.583442836
351.566311822
352.516140208
353.43253903
354.315225741
355.164021474
355.97884584
356.759714109
357.506731941
358.220092525
358.9000713
359.547023074
360.161376759
360.743632494
361.294356414
361.814177779
362.303783788
362.763916712
363.19536877
363.598979245
363.975629418
364.32623964
364.651764312
364.953188864
365.231524728
365.487806146
365.72308507
365.938427689
366.134909149
366.313609667
366.475608981
366.621981944
366.753792648
366.872089498
366.977899109
367.072221061
367.156021908
367.230230161
367.295731162
367.353363528
367.403917202
367.448145996
367.486801042
367.518644601
367.542314812
367.558793408
367.56978634
367.57679137
367.581010888
367.583481237
367.584667783
302.675706603
302.765919087
302.948054335
303.222898437
303.588427287
304.04226802
304.581547864
305.202967188
305.902867397
306.677299368
307.522089318
308.432899903
309.405285447
310.434740125
311.516739224
312.646773292
313.820376131
315.033146915
316.280767754
317.559017036
318.8637799
320.191055964
321.536965559
322.897754287
324.26979702
325.649600844
327.033807979
328.419197862
329.802689478
331.181342963
332.552361451
333.913091975
335.261026649
336.593802914
337.909203972
339.20515822
340.479738877
341.731162569
342.957788175
344.158114616
345.330778982
346.474553641
347.588343763
348.671183871
349.722234897
350.740780313
351.726222845
352.678080311
353.595982109
354.479664867
355.328968795
356.143833241
356.924292972
357.670473688
358.382588286
359.060932371
359.705880524
360.317881838
360.89745621
361.44518991
361.961731897
362.447789448
362.904124495
363.331549303
363.730922847
364.103146524
364.449160544
364.769939668
365.066489566
365.339842518
365.591053661
365.821196554
366.031359187
366.222639244
366.396139694
366.552963576
366.694208954
366.820963061
366.934296475
367.035256558
367.124860862
367.204090029
367.273880689
367.335118271
367.388630038
367.435179215
367.475458695
367.510232586
367.538420525
367.558848405
367.5731359
367.582740156
367.588830629
367.592913832
367.595327784
367.596492167
302.143359731
302.236718116
302.425117472
302.709273661
303.086960638
303.555564662
304.111935042
304.752470486
305.4732
306.26986339
307.137987086
308.07295297
309.070058821
310.124569564
311.23175956
312.386946343
313.585516929
314.822947631
316.094818744
317.396825035
318.724783228
320.074637175
321.442461599
322.824464773
324.216990724
325.61652105
327.019676686
328.423219461
329.824053787
331.219228181
332.605936697
333.981519954
335.343466033
336.689410933
338.017138717
339.324581154
340.609817013
341.871070837
343.106711374
344.315249547
345.495336111
346.645758928
347.765439991
348.853432146
349.908915639
350.931194433
351.919692418
352.873949457
353.793617394
354.678455939
355.528328565
356.343198329
357.123123722
357.868254476
358.578827426
359.255162325
359.897657742
360.506786907
361.083093653
361.627188306
362.139743674
362.621490986
363.073215939
363.495754693
363.88998998
364.256847144
364.597290309
364.912318453
365.202961586
365.470276799
365.715344374
365.939263683
366.143149062
366.328125363
366.495323339
366.645874569
366.78090603
366.901534084
367.008857911
367.103952323
367.187859867
367.261582377
367.326071772
367.382220361
367.430850299
367.472702724
367.508421518
367.538662614
367.562584463
367.579712155
367.591806853
367.599919683
367.605224077
367.60887609
367.61107331
367.612122128
301.513563228
301.610731215
301.80674255
302.102218126
302.494670831
302.981174904
303.558223487
304.221832593
304.967639034
305.790996134
306.687061929
307.65087722
308.677431913
309.761719313
310.898778888
312.083728673
313.311788816
314.578297909
315.878723724
317.208669784
318.563879071
319.940235856
321.333766481
322.740639662
324.15716673
325.579802022
327.005143583
328.429933986
329.851061623
331.265562012
332.670619062
334.063566093
335.441886734
336.80321538
338.14533735
339.466188473
340.763854331
342.036568907
343.282712907
344.500811535
345.689532002
346.847680563
347.974199385
349.068163012
350.128774764
351.155362797
352.147376195
353.104380784
354.026055036
354.912185771
355.762663981
356.577480496
357.356721803
358.10056573
358.809277299
359.48320445
360.122773949
360.728487166
361.300916031
361.840698886
362.348536488
362.825187933
363.271466725
363.688236779
364.076408565
364.436935196
364.770808655
365.079055949
365.362735399
365.622932807
365.860757713
366.077339442
366.273823146
366.451365472
366.611130071
366.75428249
366.88198469
366.995388691
367.095629566
367.183817388
367.261028269
367.328294346
367.386592622
367.436832753
367.479843089
367.516355252
367.546981582
367.572286127
367.591575262
367.605476883
367.615152189
367.621691268
367.626118939
367.628916728
367.630757872
367.631600592
300.782353682
300.884093525
301.089242206
301.398294751
301.808430138
302.316324097
302.918018191
303.60904798
304.384563258
305.239443126
306.168399452
307.166065635
308.227069319
309.346089173
310.517897097
311.737387746
312.999597777
314.299717044
315.633093985
316.995236982
318.381813304
319.788646744
321.211714897
322.647146638
324.091220194
325.540361975
326.991146191
328.440295033
329.884679612
331.321321253
332.747392629
334.160218951
335.557278885
336.936205167
338.294784705
339.630958243
340.94281944
342.228613492
343.486735193
344.715726613
345.914274275
347.081206069
348.215487749
349.316219279
350.382630853
351.414078869
352.410041647
353.370115197
354.294008795
355.181540665
356.032633526
356.847310285
357.625689618
358.367981714
359.074483933
359.745576618
360.381718831
360.983444234
361.551356902
362.086127278
362.588488057
363.059230211
363.499198972
363.909289937
364.29044516
364.643649365
364.969926172
365.270334412
365.54596448
365.79793472
366.027387818
366.235487116
366.423412843
366.592358067
366.743524352
366.878116856
366.997338793
367.102384998
367.194434425
367.274641472
367.344125831
367.403961122
367.455161778
367.498668682
367.535332406
367.565893588
367.59095365
367.610969535
367.625674972
367.636157869
367.64328753
367.648060519
367.651140912
367.653002674
367.65431285
367.654855265
299.944974589
300.052165818
300.268202524
300.593409377
301.024539233
301.557760169
302.188543541
302.911824599
303.72215213
304.613828125
305.581029732
306.617910205
307.718677857
308.877654172
310.089313472
311.348307386
312.649477441
313.987859044
315.358679623
316.757353285
318.179473761
319.620806992
321.077284282
322.544996566
324.020190144
325.499263898
326.978767954
328.455403312
329.926022713
331.387632066
332.837391688
334.272617733
335.690783384
337.089519562
338.466615185
339.820016766
341.147827496
342.448305642
343.719862498
344.961059716
346.170606324
347.347355229
348.49029954
349.598568494
350.671423313
351.708252773
352.708568802
353.672001878
354.598296527
355.487306694
356.338991271
357.153409519
357.930716689
358.67115955
359.375072106
360.042871248
360.675052563
361.27218608
361.834912174
362.363937393
362.86003044
363.324018096
363.756781288
364.159251131
364.532405114
364.877263298
365.194884665
365.486363493
365.752825899
365.995426372
366.215344449
366.413781284
366.591956255
366.751103226
366.892466624
367.017296786
367.126844701
367.222355515
367.305060882
367.376169578
367.436856464
367.488249608
367.531415577
367.567343392
367.596926682
367.620944726
367.640038689
367.654692113
367.665063249
367.671823603
367.676107721
367.678792981
367.680312473
367.68115714
367.681580093
367.681710878
298.995755641
299.109426439
299.338388949
299.682736403
300.138674708
300.701724159
301.366635607
302.127595124
302.978412166
303.912690245
304.923971015
306.00584838
307.152052771
308.356508178
309.613366271
310.91702242
312.262118537
313.643536979
315.05638919
316.496001789
317.957902221
319.437805327
320.931601782
322.435348862
323.94526373
325.457719159
326.969241419
328.476509718
329.976357237
331.465773105
332.941903881
334.402055572
335.843695127
337.264451486
338.662115911
340.034641693
341.380143063
342.696893509
343.983323374
345.238016994
346.459709261
347.647281905
348.799759325
349.916304299
350.99621337
352.038912228
353.04395087
354.010998871
354.939840502
355.830370041
356.682586979
357.49659146
358.272579637
359.01083927
359.711745241
360.375755287
361.00340566
361.595306968
362.152139938
362.67465135
363.163649889
363.620002165
364.044628674
364.438499934
364.802632605
365.138085795
365.445957415
365.727380717
365.983520945
366.215572135
366.424754053
366.612309161
366.779499659
366.927604278
367.057914905
367.171732486
367.27036224
367.355107467
367.427261854
367.488099738
367.538863993
367.580751841
367.614898146
367.642357811
367.664087262
367.680927719
367.693591503
367.702659411
367.708572096
367.711815367
367.713153745
367.713506842
367.713405241
367.712922555
367.712255499
367.711671834
297.927960207
298.049329467
298.293626447
298.660625724
299.145826897
299.74391902
300.448739604
301.253538572
302.151216938
303.134536302
304.19628864
305.329423759
306.527136332
307.782917851
309.090580361
310.444259354
311.838402505
313.267749991
314.727310768
316.212338076
317.718306319
319.240890724
320.775950546
322.319516132
323.867779851
325.417090571
326.96395116
328.505018237
330.037103971
331.557178805
333.06237376
334.549983169
336.017466804
337.462451235
338.882730456
340.276265534
341.641183518
342.975775413
344.278493567
345.547948315
346.782904253
347.982275956
349.145123534
350.27064778
351.358185307
352.407203409
353.417295028
354.388173561
355.319667865
356.211717185
357.064366329
357.87776081
358.652142242
359.387843712
360.085285379
360.744970044
361.367478902
361.953467253
362.503660363
363.018849271
363.499886731
363.947683114
364.363202443
364.747458429
365.101510669
365.426460902
365.723449473
365.993651927
366.238275853
366.458557911
366.655761118
366.831172273
366.986099574
367.121870117
367.239827332
367.341327729
367.427736981
367.500424356
367.560755463
367.610082199
367.649729905
367.680981247
367.705057174
367.723096377
367.736134433
367.745086831
367.750738383
367.753747201
367.75466441
367.754023705
367.752401473
367.750348903
367.7482775
367.746395493
367.744801156
367.743583692
296.733588498
296.864124883
297.126646779
297.520488189
298.040227318
298.679479032
299.430916889
300.286617803
301.238366706
302.277913973
303.3971741
304.588364736
305.844091582
307.157388486
308.521723739
309.930983113
311.379438922
312.861712247
314.372733666
315.907705883
317.462070472
319.031479786
320.611774603
322.198967486
323.78923163
325.378894636
326.96443605
328.542488618
330.10984126
331.663442954
333.20040665
334.718012994
336.213713174
337.685130874
339.130063069
340.54647981
341.93252286
343.286503461
344.606899187
345.89235022
347.141654982
348.353765487
349.52778224
350.662949066
351.758647619
352.814391984
353.829823075
354.804703263
355.738910903
356.632435184
357.48537094
358.297913802
359.070355332
359.803078481
360.496552994
361.151331095
361.768043103
362.347393256
362.890155443
363.397169118
363.869335107
364.307611588
364.713009991
365.086591093
365.429461098
365.742767968
366.027697833
366.285471726
366.517342521
366.724592247
366.908529727
367.070488543
367.211825371
367.333918365
367.43816574
367.525983713
367.598803987
367.65806934
367.705227327
367.74172048
367.76897261
367.788370756
367.801242264
367.808829691
367.812264344
367.812544739
367.810523572
367.806909197
367.802285189
367.797155456
367.791978287
367.787148619
367.782958744
367.77958923
367.777164164
367.77572726
295.403121355
295.544622734
295.828894522
296.254654376
296.81526613
297.502943851
298.308868272
299.22364117
300.237675989
301.341513409
302.526050367
303.782685746
305.103394094
306.480743371
307.907873302
309.378449558
310.886605829
312.426882751
313.994169453
315.583651185
317.190764662
318.811161746
320.440681423
322.075329752
323.711267172
325.344802344
326.97239089
328.590638872
330.196308206
331.786322504
333.357773085
334.90792403
336.434216099
337.934269221
339.405883664
340.847039716
342.255896168
343.630787526
344.970220405
346.272869059
347.537570514
348.763319159
349.94926122
351.094688865
352.199034361
353.261863994
354.282872201
355.261875608
356.198807403
357.093711728
357.946738463
358.758138054
359.528256731
360.257531733
360.946486865
361.595728019
362.20593895
362.777876964
363.312368793
363.810306369
364.272642728
364.700387836
365.094604535
365.456404483
365.786944249
366.087421514
366.359071521
366.603163788
366.820999188
367.013907472
367.183245281
367.330394723
367.456762491
367.563779435
367.652900509
367.725604534
367.783393595
367.827790684
367.860335203
367.882574097
367.896048004
367.902270624
367.902700999
367.898710618
367.891547513
367.882305297
367.871901806
367.861076308
367.850404928
367.840334705
367.831215498
367.823312255
367.81680904
367.8118223
367.808436711
367.806686625
293.925181726
294.079887844
294.390278525
294.854202075
295.463400879
296.208244219
297.077984198
298.061360253
299.147100835
300.324307338
301.582711387
302.912816376
304.305944902
305.754217794
307.250489791
308.788262663
310.361591481
311.964994204
313.593370595
315.241932975
316.90614955
318.581699776
320.264441042
321.950385767
323.635688058
325.316638787
326.989666988
328.651346992
330.298407789
331.927741845
333.536413801
335.121667366
336.680930325
338.211817776
339.712133491
341.179869602
342.613204568
344.010499855
345.370295429
346.691304605
347.972408255
349.212648822
350.41122397
351.567480222
352.680906342
353.751126868
354.777895527
355.761089004
356.700700746
357.596835243
358.449702416
359.259612495
360.026970976
360.752274004
361.436103764
362.079124203
362.682076671
363.24577581
363.771105294
364.259013742
364.710510464
365.126661358
365.508584652
365.857446854
366.174458622
366.460870946
366.717971421
366.947080976
367.149550935
367.326760741
367.480116282
367.611049065
367.721016255
367.811501525
367.884016878
367.940104597
367.981339623
368.009330123
368.02571632
368.032163936
368.0303511
368.021945638
368.008570861
367.991761745
367.97291345
367.953233886
367.933709468
367.915094067
367.897926294
367.882566232
367.869240686
367.858079609
367.849144261
367.842454069
367.838022244
367.835812337
292.286082729
292.456833379
292.798852522
293.308745624
293.976060842
294.788711118
295.733438049
296.79662132
297.964922038
299.225743128
300.567505348
301.979764448
303.453207335
304.979568166
306.551500569
308.162434253
309.806434893
311.478078407
313.172344261
314.884528651
316.61017604
318.345027003
320.084980412
321.826068641
323.564444731
325.296380282
327.018271622
328.7266527
330.418210428
332.089797712
333.738445721
335.361372739
336.955990413
338.519907563
340.050931854
341.547069157
343.006520983
344.42768009
345.809125042
347.149613837
348.448077311
349.703612154
350.915473984
352.083070119
353.205952459
354.283810173
355.316462696
356.303852768
357.246040006
358.143194669
358.995592038
359.803606985
360.567709081
361.288457815
361.966498213
362.602556461
363.197435796
363.752012291
364.267230804
364.744100748
365.183691953
365.587130355
365.955593756
366.290307498
366.592540256
366.863599939
367.104829826
367.317605104
367.503329854
367.663434821
367.799375947
367.912634117
368.004716026
368.077156591
368.131522731
368.169418422
368.192490704
368.202435044
368.200999184
368.189981223
368.171220016
368.146571323
368.117866766
368.086853954
368.055121217
368.024023524
367.994624991
367.967679127
367.943650482
367.922770483
367.905106327
367.890622411
367.879230712
367.870829695
367.865336945
367.862634274
290.469213851
290.659680129
291.040400879
291.606181737
292.34355574
293.237128041
294.270347664
295.426596076
296.69000696
298.046004133
299.481573411
300.985319115
302.547369651
304.159194932
305.813387331
307.503442437
309.223561393
310.968484555
312.733358223
314.513631294
316.304977061
318.103235297
319.904371414
321.704450841
323.499628084
325.286149328
327.060366461
328.818759106
330.557958139
332.27476524
333.966169155
335.629356518
337.261718929
338.86085735
340.424583844
341.950920652
343.43809651
344.88454099
346.288877403
347.649915164
348.966641877
350.238215585
351.463956905
352.643341249
353.775990754
354.861666406
355.900260098
356.891787246
357.836379666
358.734279216
359.585831777
360.391481957
361.151768011
361.867317335
362.538842014
363.167134755
363.753064739
364.297573687
364.801671721
365.266433324
365.692993032
366.082541167
366.436319324
366.755615953
367.04176178
367.296125499
367.520109513
367.71514622
367.882694692
368.024238336
368.141283434
368.235359239
368.308019638
368.360846953
368.395458102
368.413513
368.416725775
368.406875985
368.385821028
368.355502454
368.317944306
368.275231868
368.229464234
368.18267427
368.136715624
368.093143136
368.053118658
368.017373107
367.986244812
367.959770273
367.937795576
367.920071612
367.90632302
367.896296637
367.889799862
367.8866261
288.454194808
288.669220018
289.097898968
289.732386674
290.555007056
291.545858924
292.684043585
293.949129058
295.322180841
296.78636264
298.327156936
299.932299447
301.591532954
303.296275367
305.039272855
306.814282695
308.615807432
310.438885731
312.278934926
314.131635789
315.992848958
317.858554684
319.724810689
321.587726679
323.443456377
325.288206784
327.118265232
328.930034918
330.720070137
332.485105672
334.222076859
335.928131383
337.600636444
339.23718334
340.835589539
342.39389713
343.910367722
345.383474556
346.811893372
348.194492754
349.530324973
350.818617151
352.058762878
353.25031352
354.39296952
355.486571377
356.531091021
357.526623444
358.473379235
359.371677667
360.221940745
361.02468769
361.780530176
362.49016777
363.154383881
363.77404172
364.350080529
364.883511649
365.375414679
365.826933327
366.239271242
366.613687505
366.951492056
367.254040877
367.522731171
367.758996529
367.964302272
368.140141176
368.288029697
368.409505194
368.506124188
368.579462514
368.631117351
368.662712351
368.675905858
368.672403381
368.653973969
368.622470728
368.579854569
368.528214827
368.469782731
368.406921512
368.342078763
368.277680909
368.215961481
368.158765157
368.10738374
368.062491711
368.024212939
367.99228416
367.966238147
367.945540646
367.929682344
367.918231576
367.910865754
367.907284458
286.215684939
286.461805138
286.950805631
287.670866641
288.598336145
289.707105371
290.970503193
292.363255405
293.862749615
295.449651685
297.107986934
298.824851008
300.589919757
302.394897437
304.232997031
306.098502209
307.986426981
309.892267484
311.81182935
313.741110346
315.676219791
317.613320875
319.548589106
321.478186474
323.398256261
325.304941783
327.194431861
329.063018531
330.90715091
332.723476698
334.508865424
336.260418341
337.975473575
339.651610921
341.286654709
342.878671936
344.425964626
345.927058777
347.380691945
348.785801172
350.141512103
351.447129583
352.702128695
353.906145656
355.058967977
356.160524473
357.210875224
358.210202477
359.158802288
360.057077539
360.905531675
361.704763538
362.455462583
363.158404818
363.81444885
364.42453235
364.989668397
365.510941975
365.989506147
366.426578174
366.823435192
367.181409732
367.501884784
367.786288755
368.036090079
368.252791906
368.437926709
368.593051333
368.719742387
368.819592726
368.894208981
368.945211218
368.974234845
368.982936466
368.97300345
368.946169966
368.904239918
368.849117903
368.782848279
368.707657528
368.62599641
368.540557362
368.454243576
368.370039582
368.290748656
368.21865495
368.155240694
368.1010592
368.055867275
368.018930268
367.989330682
367.966160049
367.948620974
367.936074256
367.928058828
367.924177232
283.721673402
284.007930808
284.574135
285.402376077
286.46037325
287.713381022
289.127040847
290.669966196
292.315229657
294.040887938
295.8297671
297.668787004
299.54809065
301.460178856
303.399166215
305.360204073
307.339069128
309.331891473
311.334985858
313.344750329
315.357601842
317.369928348
319.378048214
321.378180365
323.366438181
325.33885919
327.291479022
329.220425608
331.122002543
332.992746448
334.829449774
336.629161377
338.389185776
340.107088755
341.780703615
343.408129469
344.987719511
346.518064529
347.997975901
349.426469877
350.802755154
352.126223262
353.396440117
354.613136409
355.776196845
356.88564827
357.941648219
358.944474274
359.894515231
360.792263611
361.638309756
362.433336698
363.178115991
363.873503844
364.52043782
365.119933533
365.673081604
366.181044322
366.645052276
367.066400453
367.446444109
367.786594009
368.088311377
368.353102283
368.582511813
368.778117917
368.941525253
369.074359143
369.178259922
369.254878143
369.305870874
369.332900144
369.337634113
369.321751663
369.286952864
369.234977841
369.167634801
369.086841787
368.994684128
368.89348898
368.785911568
368.675014094
368.564289449
368.457536304
368.35844357
368.27000608
368.19400284
368.130739087
368.079321482
368.038256545
368.005986893
367.981122864
367.962534119
367.949361037
367.941001136
367.936964919
280.930960262
281.270223954
281.937243475
282.904552029
284.127203728
285.558346054
287.15339053
288.873329978
290.686356048
292.568079794
294.500754721
296.471958273
298.473143959
300.498344142
302.543151997
304.604002663
306.677714315
308.761226482
310.851470208
312.945312049
315.039526412
317.130766014
319.215519867
321.290067866
323.350462185
325.392565498
327.412172218
329.405164277
331.367644153
333.296012578
335.186980963
337.03754517
338.844971249
340.606806155
342.32089416
343.985377496
345.598676193
347.15946253
348.666637006
350.119307688
351.516776112
352.858529466
354.144234007
355.373725813
356.546998249
357.664187751
358.725559605
359.731495818
360.682485205
361.579116146
362.422070818
363.212120886
363.950123677
364.637019142
365.27382692
365.86164384
366.40164123
366.895062266
367.343218792
367.747487837
368.109307378
368.430171619
368.711625487
368.955258652
369.162698889
369.335605145
369.475660216
369.584563493
369.664023766
369.715752748
369.741459439
369.742846929
369.721610067
369.679438948
369.618028302
369.539095404
369.444410613
369.335847509
369.215459747
369.085591314
368.949032797
368.809206032
368.670342165
368.537451629
368.415667778
368.309115995
368.220111104
368.148546259
368.092317212
368.048658485
368.01510065
367.989665009
367.970880499
367.957689056
367.949374654
367.945377833
277.789340475
278.200534575
279.00227303
280.151681479
281.584961074
283.238232281
285.053384753
286.982121071
288.987456954
291.04325078
293.132426443
295.244614919
297.373852534
299.516716612
301.671004592
303.834906019
306.006554601
308.183840235
310.364374921
312.545527211
314.724460402
316.89813252
319.06324347
321.216147358
323.352792762
325.468755529
327.559443709
329.620364197
331.647342794
333.63662747
335.584866794
337.48901537
339.346293001
341.154214845
342.910636404
344.613760895
346.262099447
347.85442933
349.389760373
350.867306557
352.286471017
353.64684374
354.948200865
356.190496002
357.373845268
358.498508375
359.564870655
360.573428184
361.524777433
362.41960824
363.25869928
364.042914461
364.773200204
365.450582926
366.076167095
366.651133269
367.176736363
367.654303456
368.085231335
368.470983151
368.813084486
369.113118347
369.372719476
369.593567643
369.777380347
369.925904712
370.040908991
370.124173658
370.177482435
370.202613528
370.201332004
370.175381783
370.126481105
370.0563226
369.966576812
369.858906022
369.734991546
369.596585178
369.445595513
369.284232864
369.115244436