/*--------------------------------*- C++ -*----------------------------------*\
| =========                 |                                                 |
| \\      /  F ield         | OpenFOAM: The Open Source CFD Toolbox           |
|  \\    /   O peration     | Version:  v1906                                 |
|   \\  /    A nd           | Web:      www.OpenFOAM.com                      |
|    \\/     M anipulation  |                                                 |
\*---------------------------------------------------------------------------*/
FoamFile
{
    version     2.0;
    format      ascii;
    class       surfaceScalarField;
    location    "320";
    object      phia;
}
// * * * * * * * * * * * * * * * * * * * * * * * * * * * * * * * * * * * * * //

dimensions      [0 3 -1 0 0 0 0];
oriented        oriented;


internalField   nonuniform List<scalar> 
18240
(
0.00048663783853
-0.000486221753768
0.000964608591411
-0.000477535658688
0.00144701139867
-0.000482008573666
0.00192422247163
-0.000476760966113
0.00239196040792
-0.000467351356691
0.00284741572161
-0.000454989914161
0.0032880660437
-0.000440272323616
0.00371203184105
-0.000423483844917
0.00411736197974
-0.000404962026719
0.00450275165399
-0.000384890534564
0.00486670378495
-0.000363596137198
0.00520844991399
-0.000341230083997
0.00552691479551
-0.000318123434511
0.005821834682
-0.000294388322755
0.00609250931767
-0.000270350956476
0.00633912723943
-0.000246073329881
0.00656130016104
-0.000221869983581
0.00675960180557
-0.000197747556812
0.00693388729568
-0.00017400670347
0.00708504548334
-0.000150598931584
0.00721311040637
-0.000127812891314
0.00731921954487
-0.000105549630626
0.00740353124565
-8.40890896824e-05
0.0074673740061
-6.3288151585e-05
0.00751098736583
-4.34216011277e-05
0.0075358410551
-2.43091396288e-05
0.00754222301721
-6.22233184719e-06
0.00753170254999
1.10501267588e-05
0.0075045903934
2.72397917629e-05
0.00746251643349
4.25843592782e-05
0.00740579429355
5.68180811646e-05
0.00733608249044
7.01992897544e-05
0.00725368130866
8.24670712682e-05
0.00716024684522
9.38961229105e-05
0.00705605261711
0.0001042317166
0.00694272593098
0.000113760456082
0.0068205029579
0.000122234801013
0.00669095897161
0.000129948568488
0.00655428510945
0.000136662537275
0.00641198637981
0.000142673600623
0.00626420382819
0.000147751353083
0.00611235745778
0.00015219162573
0.0059565357428
0.000155773463157
0.00579806378256
0.000158788270374
0.00563697711551
0.000161024663626
0.00547449907989
0.000162766472534
0.00531061381313
0.000163812205445
0.00514643998804
0.00016443580759
0.00498191322495
0.000164445608061
0.00481804672648
0.000164103639339
0.00465473156378
0.000163228216963
0.00449287742544
0.000162068207965
0.00433233535961
0.000160451780017
0.0041739145533
0.000158613619713
0.00401743090152
0.000156391842362
0.00386359774678
0.000154006562845
0.00371220064145
0.00015130567899
0.00356386198387
0.000148494474179
0.00341834164481
0.000145430637849
0.00327617685402
0.0001423048041
0.00313710608236
0.000138984198394
0.00300158700631
0.000135645002575
0.00286934066213
0.000132163807923
0.00274075135254
0.000128702809201
0.00261552630169
0.000125147485141
0.00249398253139
0.000121646405022
0.00237581700224
0.000118093413675
0.00226128633354
0.000114623899832
0.00215008096701
0.000111139142784
0.00204240457193
0.000107761526469
0.00193794564258
0.000104398597696
0.00183686407008
0.000101159727555
0.00173885259167
9.79569591057e-05
0.00164403859417
9.48860498814e-05
0.00155212822372
9.18612068436e-05
0.00146323151938
8.89632320153e-05
0.00137708213689
8.61050704526e-05
0.00129379363675
8.33496910597e-05
0.00121314976058
8.06036747267e-05
0.00113529910136
7.79064914579e-05
0.00106011358254
7.51491627032e-05
0.000987829546959
7.23347372288e-05
0.000918480619252
6.93165449047e-05
0.000852506160831
6.60201676066e-05
0.000790306189707
6.21730437398e-05
0.000732930079415
5.74142195122e-05
0.000682364192953
5.05436231971e-05
0.000642491193256
3.99020490674e-05
0.00060027234465
4.22072970979e-05
0.000548229858097
5.20718214748e-05
0.000489718869099
5.85119554654e-05
0.000423994080335
6.57546768796e-05
0.000346550850794
7.74699287218e-05
0.000250292337771
9.62857505415e-05
0.000129447435681
0.000120863757155
0.000129463564877
0.00048336448757
-0.000969175663009
0.00101746305591
-0.00101119402552
0.00153871255032
-0.00100282725485
0.00204957752759
-0.000987179024111
0.00254875468798
-0.000966096690565
0.00303415676038
-0.000939938650184
0.00350351360542
-0.000909196359918
0.0039548220206
-0.000874331885374
0.00438616754562
-0.000835874343462
0.00479603918726
-0.000794294987932
0.00518301260594
-0.000750137108965
0.00554611019562
-0.000703854788566
0.00588439290949
-0.000655976606801
0.00619738884596
-0.000606907746965
0.0064845966427
-0.000557134777859
0.00674599111976
-0.00050699057633
0.00698143963707
-0.000456903524231
0.00719129001582
-0.000407123615854
0.00737570273176
-0.000358016993961
0.0075353228761
-0.00030975173109
0.00767053260719
-0.000262636602586
0.00778220522029
-0.00021676616326
0.00787088361798
-0.000172401346552
0.00793761081667
-0.000129574723215
0.00798304150139
-8.85093225705e-05
0.00800834036466
-4.91867347748e-05
0.00801423526446
-1.17999709949e-05
0.00800197237611
2.37115685207e-05
0.00797232179702
5.71798854581e-05
0.007926578399
8.87008610479e-05
0.00786552856589
0.000118128589667
0.00779048417149
0.000145589398979
0.00770222509465
0.000170957478713
0.00760205371075
0.000194384647337
0.00749072426808
0.000215763531562
0.00736950628851
0.000235266599092
0.00723911238205
0.000252802988708
0.00710075953698
0.000268560861664
0.00695510619189
0.000282463619565
0.006803301246
0.000294710153423
0.0066459398134
0.000305235796198
0.00648409105936
0.000314245474162
0.00631828092812
0.00032168410729
0.00614949110867
0.000327758374081
0.00597817541727
0.000332420647926
0.00580522363405
0.000335875654252
0.00563101705317
0.000338081308733
0.00545635215245
0.000339237296961
0.00528153931452
0.000339305527177
0.00510728261097
0.000338478232354
0.00493382471648
0.000336720086293
0.00476178012527
0.000334214094726
0.0045913280447
0.000330926852761
0.00442299742795
0.000327030964984
0.00425690893173
0.000322494391417
0.00409351093223
0.00031747866346
0.00393287070579
0.000311952827526
0.00377536139164
0.000306067076965
0.00362100210196
0.000299791418461
0.00347009635152
0.000293264730286
0.00332262012494
0.000286457960882
0.00317881288124
0.000279498873976
0.00303861231488
0.000272359314304
0.00290219945614
0.000265156185692
0.00276947834545
0.000257862082231
0.00264057722055
0.000250583226302
0.00251537111678
0.000243292550077
0.00239394148065
0.00023608553783
0.00227613930764
0.000228934649213
0.00216200592518
0.000221924143087
0.00205137415543
0.000215024560411
0.00194425329556
0.000208307758853
0.00184046556615
0.000201740023191
0.0017399985908
0.000195378583221
0.00164267452038
0.000189181811206
0.00154847340671
0.000183188464954
0.00145723263697
0.000177343344208
0.001368944644
0.000171660216959
0.00128348515221
0.000166061194284
0.00120088863491
0.000160523674112
0.00112110493233
0.00015493119017
0.00104425521712
0.000149203296193
0.000970416403881
0.000143153915535
0.000899853891492
0.000136599441105
0.000832811016836
0.000129215304452
0.000769628947038
0.000120609725885
0.000710016804807
0.000110153751395
0.000652533322139
9.7394978627e-05
0.000598641032175
9.61034310872e-05
0.000544822616811
0.00010590245758
0.000484172434384
0.000119174575359
0.000414709184299
0.000135239017948
0.000335814066699
0.00015638222348
0.000239690432827
0.000192433295455
0.000120614689864
0.000239963079943
0.000250080532215
0.000498438973217
-0.00146719812766
0.00103093818783
-0.0015432549085
0.00155722310809
-0.00152867260573
0.00207410829132
-0.00150361977295
0.00257913529413
-0.00147068138047
0.00306992988526
-0.00143028422469
0.00354419503726
-0.00138301596019
0.00399986291046
-0.00132954580884
0.00443505726067
-0.00127061988481
0.00484821000164
-0.00120698928337
0.00523796334543
-0.00113943942618
0.00560328626749
-0.00106871614131
0.00594333527731
-0.000995574193724
0.00625758492342
-0.000920695011374
0.00654565396912
-0.000844754827601
0.00680745701008
-0.000768333530092
0.00704300000987
-0.000692003281655
0.00725255770478
-0.000616227266433
0.00743644225376
-0.000541468021921
0.0075952090352
-0.000468074591628
0.00772940123532
-0.000396408947464
0.0078397844957
-0.000326719832226
0.00792707008761
-0.000259284827644
0.00799217668335
-0.000194270043523
0.00803593384549
-0.000131885638511
0.00805936772123
-7.2231271706e-05
0.00806338712597
-1.54630149012e-05
0.00804908908973
3.83740342267e-05
0.00801742967069
8.9168869993e-05
0.00796954518427
0.000136922551927
0.0079064114585
0.000181563312047
0.00782917646479
0.000223132921714
0.00773881126135
0.000261594382489
0.00763645042336
0.00029702462819
0.0075230388905
0.000329417267342
0.00739967639099
0.000358878945209
0.00726726369345
0.000385429117937
0.00712684762209
0.000409198180446
0.00697927048805
0.000430226497233
0.00682551235297
0.00044866223282
0.00666634645412
0.000464561516728
0.00650267584744
0.000478084390044
0.00633519773655
0.000489298006753
0.00616473182041
0.000498368977066
0.00599189546337
0.00050537106201
0.00581742163645
0.000510472691523
0.00564184691982
0.000513750564344
0.00546581716518
0.00051537105316
0.00528978942898
0.000515410689024
0.00511432402641
0.000514030649449
0.00493980155991
0.000511305043742
0.00476670024942
0.000507387628285
0.00459532846566
0.000502348422031
0.00442608669747
0.000496332217124
0.00425921611296
0.000489404003125
0.00409504468929
0.000481698788391
0.00393375172109
0.000473275996568
0.00377559802832
0.000464260472579
0.00362070647946
0.000454705994565
0.00346927630414
0.000444727280777
0.00332137921944
0.000434372514093
0.0031771581847
0.000423746458288
0.00303663887623
0.000412891889668
0.00289991330049
0.000401903867045
0.00276696598004
0.000390819764279
0.00263784310227
0.000379724970224
0.00251249293122
0.000368651212943
0.0023909212463
0.000357673897558
0.00227304519707
0.000346818238222
0.00215883602469
0.000336148623181
0.00204818573408
0.000325682059695
0.00194103816973
0.000315469874825
0.00183726768609
0.000305517826566
0.0017367998522
0.000295860556418
0.00163950152481
0.000286487695987
0.00154529249484
0.000277411306453
0.0014540463798
0.000268597141591
0.00136569468897
0.00026002514413
0.00128013844425
0.000251624831562
0.00119734608443
0.000243328301576
0.00111727595369
0.000235008205036
0.00103996835993
0.000226522005274
0.000965477389167
0.000217651025672
0.000893950064802
0.000208136162183
0.000825545358929
0.000197625460386
0.000760433411023
0.000185728572396
0.000698474873929
0.000172114258719
0.00063850409055
0.000157370270063
0.000581407522067
0.000153205411773
0.000526417175756
0.00016090109128
0.000462099731863
0.000183499907605
0.00038614376332
0.000211209269197
0.000296590000829
0.000245960123926
0.00019496463414
0.000294068439217
9.78830435617e-05
0.000337048159038
0.00034797136253
0.000509311129978
-0.00197609023634
0.00104847066354
-0.00208197321657
0.00158243246143
-0.00206219153773
0.00210708967598
-0.00202783123474
0.0026195565742
-0.00198270159824
0.00311722743892
-0.00192750530725
0.00359770579444
-0.00186304327766
0.00405884867188
-0.00179023420529
0.00449876648361
-0.00171008231613
0.00491586367236
-0.00162362765528
0.00530881258248
-0.00153192953341
0.00567658270602
-0.001436024518
0.00601839196462
-0.00133692325901
0.00633373222489
-0.00123557300202
0.00662230394437
-0.00113286780152
0.00688404456652
-0.00102961460644
0.0071190515265
-0.000926556626866
0.00732761858558
-0.000824341394245
0.007510150948
-0.00072355593957
0.00766721279307
-0.000624694353497
0.00779943710064
-0.000528202331552
0.00790758571896
-0.000434441532755
0.00799245497549
-0.000343740812309
0.00805494766116
-0.000256355063335
0.00809597451933
-0.000172520771542
0.00811653630116
-9.24082933409e-05
0.00811762075909
-1.61804977868e-05
0.00810029247761
5.60611850439e-05
0.00806558539829
0.000124215561523
0.00801459847778
0.000188240196869
0.00794838458737
0.000248087781537
0.00786805039249
0.000303768327146
0.00777464276462
0.000355282623186
0.00766925178732
0.000402686740291
0.0075528961643
0.000446023506267
0.00742662819871
0.000485388199431
0.00729141961706
0.000520858906838
0.00714826748425
0.000552562637861
0.00699808164967
0.000580605412309
0.00684179049423
0.000605138198143
0.00668023102058
0.000626287609809
0.00651425345817
0.000644221092124
0.00634461479663
0.000659078907694
0.00617208130237
0.000671038082413
0.00599732613112
0.000680246305572
0.00582102900483
0.000686884183428
0.00564377836269
0.000691101488341
0.00546616750849
0.000693077379289
0.00528870161384
0.000692959389541
0.00511188983525
0.000690921314734
0.00493615735039
0.000687105164486
0.00476193300609
0.000681676507008
0.00458956646618
0.000674769565037
0.00441941112658
0.000666539832738
0.00425174638011
0.000657112364901
0.004086855593
0.000646631552114
0.00392495343288
0.000635212631459
0.00376625885013
0.000622988528985
0.00361092738175
0.000610064532572
0.00345911912154
0.000596562168009
0.00331093587763
0.00058257697204
0.003166484233
0.000568219384965
0.00302581742174
0.000553575496879
0.00288899361061
0.000538744977569
0.00275602234146
0.000523804666136
0.00262691826577
0.000508843560585
0.00250165200523
0.000493929059148
0.00238019960771
0.00047913904897
0.00226249768599
0.000464530594543
0.00214848896596
0.000450169148914
0.00203808158944
0.000436099421229
0.00193119117909
0.000422371729547
0.00182770422638
0.000409014754477
0.00172751719656
0.000396059005063
0.00163050396435
0.000383511092186
0.00153655253653
0.000371374197932
0.00144553653055
0.000359623384108
0.00135735019653
0.000348222726639
0.00127188405466
0.000337100877462
0.00118905893313
0.000326164021884
0.00110880606868
0.000315270308942
0.00103110069726
0.000304237049863
0.000955947595778
0.000292812176435
0.000883417055293
0.000280674837382
0.000813642614321
0.000267406403232
0.00074688720246
0.000252489815597
0.000683534510767
0.00023546922642
0.00062561577666
0.000215292117178
0.000562993115032
0.000215831137158
0.000494782373401
0.000229115863179
0.000427229978233
0.000251060056244
0.000344572027979
0.000293878441901
0.000247651874687
0.0003428833838
0.000159114554198
0.000382616651711
7.92416724701e-05
0.000416929702583
0.000427205932687
0.000521497881745
-0.00249716600523
0.00107185968024
-0.0026318930574
0.00161682902561
-0.00260671490094
0.002152111929
-0.00256266626519
0.00267460682004
-0.00250474669324
0.00318151995215
-0.00243396585679
0.00367032997507
-0.00235139868773
0.0041388086291
-0.00225825494364
0.00458502688632
-0.00215584084687
0.00500737162698
-0.00204550952464
0.00540453395455
-0.00192862794425
0.00577551193907
-0.00180653620921
0.00611958209783
-0.00168052730991
0.00643629312416
-0.00155181691212
0.00672542689776
-0.00142153633846
0.00698698940611
-0.00129071268442
0.00722116722757
-0.00116027387181
0.00742832073187
-0.00103103730811
0.00760894068802
-0.000903724352394
0.00776364715368
-0.000778954573623
0.00789314890781
-0.000657266074711
0.00799824939895
-0.000539111658299
0.00807980975673
-0.000424881161667
0.00813876115912
-0.000314896248268
0.00817607033069
-0.000209431940211
0.00819275646707
-0.000108708113631
0.00818985763249
-1.29091370366e-05
0.00816845030284
7.78278925104e-05
0.00812961540586
0.000163394880956
0.00807445938948
0.000243726428061
0.008004079634
0.00031878203437
0.00791958669977
0.00038856102194
0.00782206933109
0.000453083733253
0.00771261795803
0.000512406993006
0.00759228991665
0.000566604461837
0.00746213426073
0.000615782233743
0.00732315757325
0.000660058446152
0.00717635005784
0.000699579087503
0.0070226523506
0.000734497215574
0.00686298266302
0.000764988987775
0.00669820470638
0.000791232771753
0.00652915561279
0.000813425460865
0.00635661518028
0.000831761777708
0.00618133421756
0.000846450765552
0.00600400511819
0.000857695466215
0.00582529032127
0.00086570954278
0.00564579434599
0.00087069755072
0.00546609201843
0.000872871541118
0.005286701914
0.000872432055837
0.00510811406058
0.000869584641253
0.00493076484719
0.000864521716714
0.00475506389771
0.000857438829753
0.00458137035557
0.000848517448353
0.00441001871121
0.000837940859691
0.00424129649175
0.000825877945515
0.00407546883804
0.000812498553455
0.00391275751565
0.000797958237939
0.00375336413152
0.00078241301643
0.00359745049291
0.000766005079001
0.00344516036918
0.000748876794582
0.00329660112826
0.00073115733639
0.00315186402903
0.000712975880918
0.00301100716079
0.000694449113223
0.00287407426383
0.000675693518869
0.00274107891885
0.000656813677088
0.00261202196532
0.000637913600258
0.00248687697963
0.000619085723076
0.00236560638416
0.000600421192744
0.00224814820478
0.000581999395795
0.00213443104548
0.000563897133999
0.00202436221031
0.000546178513251
0.0019178417613
0.000528902879929
0.00181475206212
0.000512114826246
0.00171497122536
0.000495850778454
0.00161836418596
0.000480128836715
0.00152479585288
0.000464953805058
0.00143412372758
0.00045030647267
0.00134621110436
0.000436146721589
0.00126092121001
0.000422401580513
0.00117813072469
0.000408965496998
0.00109772555735
0.000395685724554
0.00101961518554
0.000382357551363
0.000943732507924
0.000368703909764
0.000870054866149
0.000354360780714
0.000798623615278
0.000338844956286
0.000729594684451
0.000321524131452
0.000663562646146
0.000301503694659
0.000598491895327
0.000280363488067
0.000529446034924
0.000284879319891
0.00045561236732
0.000302951256914
0.000378095729033
0.000328577000257
0.000300568573763
0.000371409956314
0.000214665907545
0.000428800979598
0.000134681732024
0.000462596312446
6.65219037341e-05
0.000485077516744
0.000493728195774
0.000536275488492
-0.003033018001
0.00110152716196
-0.00319669957269
0.00166088334386
-0.00316562313785
0.00220986817787
-0.00311120074646
0.0027451851127
-0.0030396108046
0.00326385782356
-0.00295218316699
0.00376322628108
-0.00285030845947
0.00424096591363
-0.0027355331201
0.00469509916699
-0.0026095092699
0.00512399887098
-0.00247394196744
0.00552638089068
-0.0023305399451
0.0059012903456
-0.00218097414561
0.00624807869143
-0.0020268426903
0.00656637926825
-0.00186964445576
0.00685607564288
-0.00171076009443
0.00711727381689
-0.00155144004091
0.00735026828906
-0.00139280025573
0.00755551698458
-0.00123582183997
0.00773360987521
-0.00108135834612
0.00788525070202
-0.000930142694932
0.00801123094746
-0.000782801504833
0.0081124198953
-0.000639864191151
0.00818974413171
-0.000501779346704
0.00824418482175
-0.000368921342615
0.00827676083513
-0.000241604942027
0.00828853050509
-0.000120086973541
0.00828057578815
-4.57798142781e-06
0.00825400584849
0.000104760678883
0.00820994080245
0.000207807049933
0.00814951584731
0.000304483972613
0.00807386411426
0.00039474985493
0.00798412131217
0.000478604876864
0.00788140838689
0.000556080916048
0.00776683688969
0.000627247656185
0.00764149218314
0.000692201736712
0.00750643977249
0.000751072427122
0.00736270961725
0.000804010360515
0.00721130348106
0.000851192837055
0.00705318060496
0.000892812593057
0.00688926592743
0.000929082890496
0.00672043720816
0.000960226724612
0.00654753390741
0.0009864817742
0.00637134572255
0.00100809026686
0.00619262189602
0.00102530381912
0.00601206111016
0.00103837410534
0.00583032103651
0.00104755759022
0.00564800947685
0.00105310706734
0.00546569395845
0.00105527631647
0.00528389398919
0.00105431256571
0.00510309052831
0.00105046109048
0.00492371918074
0.00104395857724
0.0047461793735
0.00103503767058
0.00457082832925
0.00102392118764
0.00439798982771
0.00101082658208
0.00422794880528
0.000995960901631
0.00406095960475
0.000979525131846
0.003897241087
0.000961709792777
0.00373698432382
0.000942699110999
0.00358034812755
0.00092266713523
0.00342746615633
0.000901781693683
0.00327844280128
0.000880200929062
0.00313335970853
0.000858076991508
0.00299227197991
0.000835552883121
0.00285521412169
0.000812765835454
0.00272219654569
0.000789844362872
0.0025932109843
0.000766911252297
0.00246822730282
0.000744080696104
0.00234719843423
0.000721460800209
0.0022300575633
0.000699150654929
0.00211672267671
0.000677242227078
0.00200709421758
0.000655817182883
0.00190105938375
0.00063494799969
0.00179849041029
0.000614694338788
0.00169924878734
0.000595103171229
0.00160318430646
0.000576204478852
0.00151013936431
0.000558010165926
0.00141994877713
0.000540508833292
0.00133244422954
0.000523663140993
0.00124745455704
0.000507403243414
0.00116481007696
0.000491621801026
0.00108434266119
0.000476164825702
0.0010058894514
0.000460821948591
0.000929293213407
0.000445310471771
0.000854409620691
0.000429253732013
0.000781117656986
0.000412144686693
0.000709356103438
0.000393291665626
0.000639140599298
0.000371720700067
0.000572511991035
0.00034699295733
0.000503663467193
0.000353726753355
0.000424538049764
0.000382074527081
0.000339006741989
0.000414111107087
0.000258723712199
0.000451695282998
0.000190526873468
0.000496988554384
0.000120669244003
0.000532453658832
5.93932323325e-05
0.000546350090877
0.00055310657011
0.00055425439941
-0.00358684646648
0.00113804720671
-0.00378004661988
0.00171529449452
-0.00374242038531
0.00228124050765
-0.00367669426847
0.00283234995763
-0.00359026502284
0.00336543907141
-0.00348481351045
0.00387768785159
-0.00336209531384
0.00436666597821
-0.00322404512903
0.00483034186431
-0.00307271596763
0.0052670836663
-0.00291021056518
0.00567564330544
-0.00273862405702
0.00605513753868
-0.00255998981162
0.00640501520606
-0.00237624080982
0.00672502687332
-0.00218917523488
0.00701518458929
-0.00200043780272
0.00727572822802
-0.00181150459566
0.00750708568684
-0.0016236817185
0.0077098423667
-0.00143810610204
0.00788470777984
-0.00125575684069
0.00803249249184
-0.00107746688313
0.00815408446065
-0.00090394086444
0.00825043482229
-0.000735771126197
0.00832254385367
-0.000573455151376
0.0083714536334
-0.00041740962153
0.00839824037224
-0.000267982377326
0.0084040100002
-0.000125461188914
0.00838989280001
9.92080463625e-06
0.00835703855543
0.000137980964537
0.00830661125913
0.000258585372432
0.0082397827681
0.000371646845418
0.00815772673223
0.000477124566071
0.00806161174838
0.000575021395822
0.00795259523961
0.000665383043661
0.00783181695323
0.000748294447594
0.00770039352933
0.000823877952882
0.0075594131426
0.000892288996381
0.00740993106766
0.000953713485102
0.00725296585467
0.0010083633549
0.00708949592783
0.00105647354544
0.006920457335
0.00109829791681
0.00674674118982
0.00113410609478
0.0065691928766
0.00116418003881
0.00638861017287
0.00118881090018
0.00620574374377
0.0012082963239
0.00602129578319
0.00122293737559
0.00583592162916
0.00123303662406
0.00565022882918
0.00123889522895
0.00546477966239
0.00124081180763
0.00528009048563
0.00123907976582
0.00509663492302
0.00123398694106
0.00491484338442
0.00122581324378
0.00473510666892
0.00121483098633
0.00455777552938
0.00120130283427
0.004383164475
0.00118548270438
0.00421155132322
0.0011676140024
0.00404318102291
0.0011479309311
0.00387826513645
0.00112665695896
0.0037169855602
0.00110400640178
0.00355949393447
0.00108018307624
0.00340591516794
0.00105538201596
0.0032563467608
0.0010297882511
0.00311086207728
0.00100357855157
0.00296950960246
0.000976920279989
0.00283231592387
0.000949973046379
0.00269928492839
0.000922887556164
0.00257040048101
0.000895807067373
0.00244562560746
0.000868866135819
0.0023249048826
0.000842191733604
0.00220816365257
0.000815901740172
0.00209531018865
0.000790105563282
0.00198623506206
0.000764902183549
0.00188081317065
0.000740380076646
0.00177890340085
0.00071661456403
0.0016803506985
0.000693666855889
0.0015849861337
0.000671580463187
0.00149262916313
0.000650379199
0.00140308799937
0.000630062462873
0.00131616204132
0.000610602145912
0.00123164183638
0.000591936604519
0.00114931091626
0.000573966240874
0.00106894348867
0.000556545487469
0.000990303237591
0.000539475290753
0.000913136082003
0.000522489699378
0.000837163209292
0.000505237340486
0.000762067916141
0.000487249291441
0.000687481859617
0.000467883481333
0.000612925262057
0.000446279462254
0.000537943362795
0.000421973549268
0.000461015890072
0.000430652247675
0.000386988960048
0.000456099220295
0.000306617282164
0.000494475086342
0.000229817721152
0.000528491172011
0.000169410901592
0.000557402748217
0.000109908978087
0.000591939634098
5.40241848298e-05
0.000602209838164
0.000607125020304
0.000575880264998
-0.00416230104816
0.00118210713229
-0.00438582664021
0.00178099130251
-0.00434085370651
0.00236739203765
-0.00426264125395
0.00293746948124
-0.00415988499587
0.00348778960214
-0.00403467268745
0.00401534789128
-0.00388918787491
0.00451759523942
-0.00372582287056
0.00499244908201
-0.00354709517556
0.00543828359396
-0.00335556690315
0.00585391050451
-0.00315376844139
0.00623854508982
-0.00294413942132
0.00659176898675
-0.0027289769161
0.00691348455518
-0.0025104022959
0.00720387075459
-0.0022903349185
0.00746333618738
-0.00207048246538
0.00769247665437
-0.00185233680149
0.00789203472945
-0.00163718285383
0.00806286538797
-0.00142611137903
0.00820590752794
-0.0012200396301
0.00832216131996
-0.00101973354046
0.00841267336217
-0.00082583136115
0.00847852502105
-0.00063886615973
0.00852082805654
-0.000459283663139
0.00854071901265
-0.000287458011005
0.00853935914889
-0.000123699629248
0.00851792911514
3.173687397e-05
0.00847762810801
0.00017865287514
0.00841966648823
0.000316900816918
0.00834526277697
0.000446388284241
0.00825563386264
0.000567073387606
0.00815199145636
0.000678967191289
0.00803553174932
0.000782128171508
0.00790743219959
0.000876662981024
0.00776884210228
0.000962719458456
0.00762088045936
0.00104048611299
0.00746462817286
0.00111018449173
0.0073011271978
0.00117206796567
0.00713137450256
0.00122641428093
0.0069563223226
0.00127352414674
0.00677687374163
0.00131371450064
0.00659388376435
0.00134731710806
0.00640815630991
0.00137467271617
0.00622044589178
0.00139612969966
0.00603145586921
0.001412039145
0.00584184059641
0.00142275358178
0.00565220475673
0.00142862303063
0.00546310583315
0.00142999392658
0.00527505430546
0.00142720616365
0.00508851627037
0.00142059230229
0.00490391424067
0.00141047556359
0.0047216297456
0.00139716935203
0.00454200449762
0.0013809760779
0.00436534284743
0.00136218695944
0.00419191312529
0.00134108149874
0.00402194987175
0.00131792750049
0.00385565522074
0.00129298102718
0.00369320086992
0.00126648656346
0.00353472941013
0.00123867728972
0.00338035602101
0.00120977532974
0.00323016968527
0.00117999221097
0.00308423460853
0.00114952913419
0.00294259127457
0.0011185775014
0.00280525758705
0.00108731914093
0.00267222974228
0.00105592678949
0.00254348309416
0.00102456418245
0.00241897284335
0.000993386353084
0.00229863462987
0.000962539459425
0.00218238508335
0.000932160732321
0.00207012217148
0.00090237785561
0.00196172570812
0.000873308332994
0.00185705752656
0.000845058190504
0.0017559621405
0.000817720512287
0.00165826685917
0.000791373210621
0.00156378278554
0.00076607650445
0.00147230500267
0.00074186961322
0.00138361392868
0.000718767157291
0.00129747540778
0.000696754873635
0.00121364164304
0.000675785367076
0.00113184990827
0.000655773271127
0.00105182005575
0.000636590932844
0.000973247591148
0.000618063067387
0.000895790604205
0.000599960968159
0.000819049196761
0.000581991769813
0.000742531389048
0.000563777143156
0.000665623747512
0.000544797889003
0.000587595495326
0.000524309116169
0.000508689615369
0.000500876949894
0.000430349630284
0.000508987875201
0.000351839135477
0.000534601092384
0.000278993860982
0.000567317313655
0.000212309390417
0.000595170746617
0.000152042938567
0.000617649035046
0.000101888585473
0.000642084774699
4.96480298714e-05
0.000654435353584
0.000656751134902
0.000601603224029
-0.00476347827729
0.00123453834063
-0.0050183157166
0.00185914938027
-0.00496501440288
0.00246980001627
-0.00487283775052
0.00306226820753
-0.00475189527657
0.00363281944048
-0.00460476083526
0.00417823359373
-0.00443413435574
0.00469583528327
-0.00424295078291
0.00518349551788
-0.00403427700795
0.00563961794381
-0.00381120494522
0.00606310253139
-0.00357676486177
0.00645330462908
-0.0033338485475
0.00680997915044
-0.00308515630311
0.00713322828644
-0.00283315358742
0.00742344066714
-0.0025800495449
0.00768123904927
-0.00232778317715
0.00790742475843
-0.0020780276025
0.00810293357715
-0.00183220009373
0.00826879335885
-0.00159148522454
0.00840609423268
-0.00135686131934
0.0085159642837
-0.00112913291074
0.00859955597267
-0.000908962456872
0.00865803877222
-0.000696899521792
0.00869259696558
-0.000493405507437
0.00870443150721
-0.000298869643195
0.00869476009731
-0.000113620884951
0.00866481936513
6.20696987795e-05
0.00861586046119
0.000227986460485
0.00854914828065
0.00038397118078
0.00846595199168
0.000529924232566
0.00836754117677
0.000665806727549
0.00825517490683
0.000791637072889
0.00813009731322
0.000907492167489
0.00799352704179
0.0010135009823
0.00784665388206
0.00110984354896
0.00769062994987
0.0011967430744
0.00752656785467
0.00127446363152
0.00735553405522
0.00134330208096
0.00717854839977
0.00140358537566
0.00699657950325
0.00145566320626
0.00681054520408
0.00149990539353
0.00662130964394
0.00153669559156
0.00642968430184
0.00156642881598
0.00623642656346
0.00158950618482
0.00604224117365
0.00160633254336
0.0058477801429
0.0016173122331
0.00565364452182
0.00162284691745
0.00546038541872
0.00162333243872
0.00526850593693
0.00161915700358
0.0050784629917
0.00161069914695
0.00489066923417
0.00159832636608
0.00470549534397
0.00158239408301
0.0045232717907
0.00156324470452
0.00434429133662
0.00154120739203
0.00416881055768
0.00151659746786
0.00399705236445
0.00148971677185
0.00382920725085
0.00146085331849
0.00366543570719
0.00143028204497
0.00350586920177
0.00139826463968
0.00335061240113
0.00136505051755
0.003199743892
0.00133087675245
0.00305331814975
0.00129596915047
0.00291136601082
0.00126054222643
0.00277389633994
0.00122480025728
0.00264089625145
0.00118893722839
0.00251233242984
0.00115313774189
0.00238815110853
0.00111757682592
0.0022682790095
0.00108242053937
0.00215262310674
0.00104782547298