/*--------------------------------*- C++ -*----------------------------------*\
| =========                 |                                                 |
| \\      /  F ield         | OpenFOAM: The Open Source CFD Toolbox           |
|  \\    /   O peration     | Version:  v1906                                 |
|   \\  /    A nd           | Web:      www.OpenFOAM.com                      |
|    \\/     M anipulation  |                                                 |
\*---------------------------------------------------------------------------*/
FoamFile
{
    version     2.0;
    format      ascii;
    class       volVectorField;
    location    "329";
    object      U;
}
// * * * * * * * * * * * * * * * * * * * * * * * * * * * * * * * * * * * * * //

dimensions      [0 1 -1 0 0 0 0];


internalField   nonuniform List<vector> 
9216
(
(0.00158081234056 -0.00158173429617 0)
(0.00159483554042 -0.00486267381973 6.54858745744e-28)
(0.00158663048955 -0.00818051586947 1.0864373044e-31)
(0.00156461320739 -0.0114685727503 0)
(0.00153373828873 -0.0147000972043 0)
(0.00149549483579 -0.0178590538072 0)
(0.00145074400661 -0.0209311958724 0)
(0.00140048497211 -0.0239039744882 0)
(0.00134536312282 -0.0267666571133 0)
(0.00128636217837 -0.0295100762591 0)
(0.00122404754587 -0.0321268130646 0)
(0.001159369361 -0.0346109037603 0)
(0.00109275966852 -0.036957958604 0)
(0.00102508058906 -0.0391648127512 0)
(0.000956589960607 -0.0412295972918 0)
(0.000888035262529 -0.0431513659231 0)
(0.000819489063661 -0.0449301502721 0)
(0.000751584362244 -0.0465665949011 0)
(0.000684221539989 -0.0480620178992 0)
(0.000617937438162 -0.0494180733013 0)
(0.000552485264621 -0.0506368290697 0)
(0.000488330438679 -0.0517204684618 0)
(0.000425108852955 -0.0526713850148 0)
(0.000363240366418 -0.0534919243219 0)
(0.000302271585541 -0.0541844935594 0)
(0.000242598778935 -0.0547513451578 0)
(0.000183705550278 -0.0551946929499 0)
(0.000125984024289 -0.0555165356802 0)
(6.88782685089e-05 -0.0557187764246 0)
(1.27933204402e-05 -0.0558030866701 0)
(-4.28447647179e-05 -0.0557710326511 0)
(-9.76062228947e-05 -0.0556239603166 0)
(-0.00015205610128 -0.0553631272997 0)
(-0.000205718101425 -0.0549896564676 0)
(-0.000259126015724 -0.0545046408747 0)
(-0.000311744464178 -0.0539091476893 0)
(-0.000364052548694 -0.0532043174233 0)
(-0.000415442739788 -0.0523914153295 0)
(-0.000466319248317 -0.0514719172596 0)
(-0.00051599450831 -0.0504476008515 0)
(-0.000564785879117 -0.0493206133995 0)
(-0.000611926361899 -0.0480935949109 0)
(-0.000657641584414 -0.0467697189147 0)
(-0.000701091405904 -0.0453528377378 0)
(-0.000742410405955 -0.0438474940229 0)
(-0.000780694229494 -0.042259087971 0)
(-0.000815985814558 -0.0405938559003 0)
(-0.000847325637468 -0.0388590634045 0)
(-0.000874667891338 -0.0370629434889 0)
(-0.000897021701816 -0.0352149122501 0)
(-0.000914281125346 -0.033325425858 0)
(-0.000925495652931 -0.0314061796348 0)
(-0.000930591195924 -0.0294698054297 0)
(-0.00092880616312 -0.0275299834954 0)
(-0.000920257122431 -0.0256009014142 0)
(-0.000904558403457 -0.0236972281458 0)
(-0.000882170708664 -0.0218333596096 0)
(-0.000853203513815 -0.0200232936489 0)
(-0.000818512842447 -0.0182798190066 0)
(-0.000778679163477 -0.0166143934359 0)
(-0.000734871634424 -0.0150364705335 0)
(-0.000687983594906 -0.0135534804132 0)
(-0.000639301467771 -0.0121704362948 0)
(-0.00058977015934 -0.0108901121724 0)
(-0.000540534605022 -0.0097130009144 0)
(-0.000492332166274 -0.00863769540802 0)
(-0.000445979688582 -0.00766110656941 0)
(-0.000401880351861 -0.00677892495425 0)
(-0.000360489659992 -0.00598591080689 0)
(-0.000321906041421 -0.00527629535912 0)
(-0.000286312636335 -0.00464398878748 0)
(-0.000253619253218 -0.00408284883231 0)
(-0.000223858264116 -0.00358676273046 0)
(-0.000196852018179 -0.00314980786024 0)
(-0.000172554003588 -0.002766261849 0)
(-0.000150743264941 -0.00243071746726 0)
(-0.000131323814677 -0.00213806599647 0)
(-0.000114053812104 -0.00188358479921 0)
(-9.88063245507e-05 -0.00166290469305 0)
(-8.53232747227e-05 -0.00147208016704 0)
(-7.34194218657e-05 -0.0013075850771 0)
(-6.26982576964e-05 -0.00116643466874 0)
(-5.23420774652e-05 -0.00104757212109 0)
(-4.01417012433e-05 -0.000937146545972 0)
(-3.65780548595e-05 -0.000870025537237 0)
(-3.70621229638e-05 -0.000796203014698 0)
(-3.27848768299e-05 -0.000720950922758 0)
(-2.80235484256e-05 -0.000661507477353 0)
(-2.87304720369e-05 -0.000611750143117 0)
(-3.20501186496e-05 -0.000551671546136 0)
(-3.27366546552e-05 -0.000490327787783 0)
(-3.38911193196e-05 -0.000423268599319 0)
(-3.93181889086e-05 -0.000348768037772 0)
(-4.51559217465e-05 -0.000265860122157 0)
(-5.09104843793e-05 -0.00016419116447 0)
(-5.4068014499e-05 -5.23140282137e-05 0)
(0.00487635899779 -0.00161220323673 0)
(0.00513282498647 -0.00517083857171 0)
(0.00509751994028 -0.0087055770365 -6.73370465824e-28)
(0.00502257868559 -0.0122157350276 0)
(0.00492169048925 -0.0156593034217 0)
(0.00479794873292 -0.0190233311925 0)
(0.00465372184685 -0.0222933209694 0)
(0.00449177330437 -0.0254561959381 0)
(0.00431442820652 -0.0285005963314 0)
(0.00412451337134 -0.031416887427 0)
(0.00392421225596 -0.0341972413148 0)
(0.00371619281681 -0.0368354769315 0)
(0.00350227083071 -0.0393270362037 0)
(0.00328476437816 -0.0416687494189 0)
(0.00306498373865 -0.0438587597676 0)
(0.00284481174415 -0.0458962615512 0)
(0.00262501908919 -0.0477814127587 0)
(0.00240705900207 -0.0495150803801 0)
(0.00219120455444 -0.0510987667106 0)
(0.00197854183618 -0.0525343821339 0)
(0.00176892725534 -0.0538241973676 0)
(0.00156316460171 -0.0549706518947 0)
(0.00136078645941 -0.0559763338635 0)
(0.00116240038111 -0.0568438247508 0)
(0.000967302644805 -0.0575757034872 0)
(0.000775980331231 -0.0581744246386 0)
(0.000587571720204 -0.0586423412547 0)
(0.000402509104749 -0.0589816137632 0)
(0.000219842704408 -0.0591942472368 0)
(4.0008830139e-05 -0.0592820312428 0)
(-0.000137964338949 -0.0592465812879 0)
(-0.00031358272199 -0.0590893279512 0)
(-0.000487768653633 -0.0588115626355 0)
(-0.000659907102059 -0.0584144421004 0)
(-0.000830801385095 -0.057899062776 0)
(-0.000999659837203 -0.0572664970475 0)
(-0.0011670984355 -0.0565178774733 0)
(-0.00133209838402 -0.0556544649935 0)
(-0.00149503221182 -0.0546777391528 0)
(-0.00165462145081 -0.0535894913807 0)
(-0.00181096318954 -0.0523919135358 0)
(-0.00196251313805 -0.0510877062776 0)
(-0.00210908653036 -0.0496801560974 0)
(-0.00224888844645 -0.0481732497425 0)
(-0.00238146150873 -0.0465717345891 0)
(-0.00250478153982 -0.0448812380133 0)
(-0.00261812425864 -0.0431083126056 0)
(-0.00271925407279 -0.0412605667786 0)
(-0.00280719137898 -0.039346695407 0)
(-0.00287954573165 -0.0373766180493 0)
(-0.00293517652325 -0.0353614633652 0)
(-0.00297174805678 -0.0333136663933 0)
(-0.00298826731967 -0.0312468211899 0)
(-0.00298292110126 -0.0291756375631 0)
(-0.00295541225535 -0.0271155583893 0)
(-0.00290505947953 -0.0250825055943 0)
(-0.00283279311527 -0.0230922692795 0)
(-0.00273945575073 -0.0211601135143 0)
(-0.00262737595485 -0.0193000974116 0)
(-0.00249884883114 -0.0175247028905 0)
(-0.00235731450037 -0.0158442836437 0)
(-0.00220602486018 -0.0142668419523 0)
(-0.00204887464457 -0.0127977455949 0)
(-0.00188922525243 -0.0114397847166 0)
(-0.00173054578205 -0.0101932589814 0)
(-0.00157545849739 -0.00905632690988 0)
(-0.0014263741692 -0.00802535592478 0)
(-0.00128477795254 -0.00709539218062 0)
(-0.00115191380547 -0.00626055462792 0)
(-0.00102824844481 -0.00551443741999 0)
(-0.000914165569495 -0.00485038212754 0)
(-0.000809512786099 -0.00426171644814 0)
(-0.000714222670985 -0.00374186516425 0)
(-0.00062786051278 -0.00328446527698 0)
(-0.00055013323398 -0.00288340245784 0)
(-0.000480456439793 -0.00253289153383 0)
(-0.0004183966293 -0.00222749278993 0)
(-0.000363291395424 -0.00196216670984 0)
(-0.000314635652345 -0.00173226251482 0)
(-0.00027173838152 -0.001533534643 0)
(-0.000234028873428 -0.00136208394581 0)
(-0.000200669257981 -0.00121424806382 0)
(-0.000170626584513 -0.00108647155286 0)
(-0.000141007581087 -0.000972198488916 0)
(-0.000121157159149 -0.000854713659073 0)
(-0.000114777582451 -0.000784396094743 0)
(-9.77034809456e-05 -0.000702354849366 0)
(-8.39648118187e-05 -0.000647403675992 0)
(-8.39179944847e-05 -0.000588005922318 0)
(-9.22671355013e-05 -0.000541037507824 0)
(-9.74603483538e-05 -0.000489866932776 0)
(-0.000104782048162 -0.000419274969539 0)
(-0.000117314564414 -0.00034303393339 0)
(-0.000146699793136 -0.000273964200521 0)
(-0.000179700890198 -0.000175842350481 0)
(-0.000160587752545 -4.77522778156e-05 0)
(0.00826016650202 -0.00163671205219 0)
(0.00870146988798 -0.00524033138417 0)
(0.00862696558795 -0.00880753050046 -6.7242349417e-28)
(0.00849484841899 -0.0123568458958 0)
(0.00832121548132 -0.0158375993718 0)
(0.00810958805714 -0.0192360264023 0)
(0.00786369407238 -0.0225370959073 0)
(0.00758779531843 -0.0257275206198 0)
(0.00728613966618 -0.0287958384964 0)
(0.00696320224471 -0.0317324569274 0)
(0.00662310311472 -0.0345296559207 0)
(0.00626998028547 -0.0371814723727 0)
(0.00590737622199 -0.0396835953229 0)
(0.00553874602457 -0.0420331727796 0)
(0.00516681524433 -0.0442286568651 0)
(0.00479421629615 -0.0462695860331 0)
(0.0044228072142 -0.0481564252293 0)
(0.00405441906947 -0.0498903602529 0)
(0.00369012077849 -0.0514731595747 0)
(0.00333105840461 -0.0529069996448 0)
(0.00297765391796 -0.0541943601058 0)
(0.0026305209392 -0.0553378860416 0)
(0.00228959170717 -0.0563403164115 0)
(0.00195509846506 -0.0572043806241 0)
(0.00162662907663 -0.0579327560446 0)
(0.00130416733898 -0.0585279942925 0)
(0.000987082786624 -0.0589925014579 0)
(0.000675224976229 -0.0593284893046 0)
(0.000367855944461 -0.0595379748624 0)
(6.47937214436e-05 -0.0596227551946 0)
(-0.000234701106741 -0.0595844252095 0)
(-0.000530738737827 -0.0594243722444 0)
(-0.000823952310016 -0.0591438145757 0)
(-0.00111427478725 -0.0587438255918 0)
(-0.00140211880479 -0.0582253889938 0)
(-0.00168713115792 -0.0575894500948 0)
(-0.00196939450946 -0.0568369924146 0)
(-0.00224817326212 -0.055969115124 0)
(-0.00252313178474 -0.0549871253293 0)
(-0.00279308737408 -0.0538926340919 0)
(-0.00305723908443 -0.0526876555506 0)
(-0.00331393943768 -0.0513747100323 0)
(-0.00356192263656 -0.0499569169059 0)
(-0.00379909942912 -0.0484380931527 0)
(-0.00402376674375 -0.0468228337143 0)
(-0.00423342441188 -0.0451166050456 0)
(-0.00442594783415 -0.0433258188342 0)
(-0.00459843651798 -0.0414579341523 0)
(-0.00474835193677 -0.0395215401949 0)
(-0.00487244468344 -0.0375264745559 0)
(-0.00496789775651 -0.03548389821 0)
(-0.0050314215639 -0.0334063791227 0)
(-0.00506044985127 -0.0313078587724 0)
(-0.00505245517392 -0.029203563387 0)
(-0.00500613532272 -0.0271096984341 0)
(-0.0049208391508 -0.0250430732715 0)
(-0.00479753073328 -0.0230205074021 0)
(-0.00463815525745 -0.021058267945 0)
(-0.0044462625378 -0.0191713947132 0)
(-0.00422626327989 -0.0173731688698 0)
(-0.00398377636693 -0.0156745899271 0)
(-0.00372484268385 -0.0140840026528 0)
(-0.00345598431392 -0.0126068405791 0)
(-0.00318336694455 -0.0112456211791 0)
(-0.00291277235353 -0.0100001260345 0)
(-0.00264895411585 -0.00886779816458 0)
(-0.00239579401555 -0.00784421597117 0)
(-0.00215596026199 -0.0069236319193 0)
(-0.00193127379931 -0.00609945969127 0)
(-0.00172259018023 -0.00536470990352 0)
(-0.00153026809537 -0.0047122941896 0)
(-0.00135412161711 -0.00413523697455 0)
(-0.00119381847415 -0.0036267631528 0)
(-0.00104873802518 -0.003180356347 0)
(-0.000918225099519 -0.00278978885454 0)
(-0.000801404867394 -0.00244917704842 0)
(-0.000697406212605 -0.00215301680006 0)
(-0.000605213324768 -0.00189622062159 0)
(-0.000523870456079 -0.00167411925054 0)
(-0.000452352578566 -0.00148245602857 0)
(-0.000389746297741 -0.00131733646174 0)
(-0.000335152298315 -0.00117512245725 0)
(-0.000287920225645 -0.00105251609467 0)
(-0.000248372121801 -0.000943489845133 0)
(-0.000214680376055 -0.00083465428608 0)
(-0.00019299237181 -0.000763427541462 0)
(-0.000171300405657 -0.000700328208241 0)
(-0.000147556654209 -0.000618122079599 0)
(-0.000134654999982 -0.000547042526108 0)
(-0.000142028326366 -0.000506334750967 0)
(-0.000167158907263 -0.000475059576553 0)
(-0.000174283830892 -0.00038053199315 0)
(-0.00020173085084 -0.000316529932442 0)
(-0.000238480061665 -0.000232713289826 0)
(-0.000269748451198 -0.000140990962329 0)
(-0.00026085496763 -4.3303701768e-05 0)
(0.0116998793285 -0.00166427494395 0)
(0.01233597368 -0.00532419328078 0)
(0.0122284011291 -0.00894292082056 6.72334456148e-28)
(0.012037972588 -0.0125434692894 0)
(0.0117881745862 -0.0160721614881 0)
(0.0114842420979 -0.0195143599227 0)
(0.0111316762144 -0.0228543781684 0)
(0.0107365591619 -0.0260785833261 0)
(0.0103051707904 -0.0291753816112 0)
(0.00984387384224 -0.0321352491083 0)
(0.0093587595325 -0.0349506810706 0)
(0.00885563795708 -0.0376160632024 0)
(0.00833974130285 -0.0401275121664 0)
(0.00781582566156 -0.0424826696855 0)
(0.00728792887995 -0.0446804982373 0)
(0.00675956978153 -0.0467210583628 0)
(0.00623353975888 -0.0486053095622 0)
(0.00571217340717 -0.0503349096395 0)
(0.00519714782462 -0.0519120484482 0)
(0.00468979836543 -0.0533392868746 0)
(0.00419090428397 -0.0546194319937 0)
(0.00370103092446 -0.055755417518 0)
(0.00322028959521 -0.0567502174577 0)
(0.00274869568898 -0.0576067624153 0)
(0.00228589888958 -0.0583278842447 0)
(0.00183155394604 -0.0589162603674 0)
(0.00138502357687 -0.0593743821663 0)
(0.000945762104758 -0.0597045215736 0)
(0.00051299642809 -0.0599087186855 0)
(8.61246042638e-05 -0.0599887677691 0)
(-0.000335618360576 -0.059946225746 0)
(-0.000752746090476 -0.0597824118908 0)
(-0.00116586538198 -0.0594984400656 0)
(-0.00157524744723 -0.0590952485416 0)
(-0.00198118066204 -0.0585736496573 0)
(-0.00238353367037 -0.057934387767 0)
(-0.00278211853538 -0.0571782152251 0)
(-0.00317625569102 -0.0563059769578 0)
(-0.00356515249391 -0.0553187082404 0)
(-0.00394748201889 -0.0542177383969 0)
(-0.00432178125817 -0.0530047986238 0)
(-0.00468605038487 -0.0516821295238 0)
(-0.00503816621684 -0.0502525818643 0)
(-0.00537549703371 -0.0487197121557 0)
(-0.00569531365111 -0.0470878654816 0)
(-0.00599440235485 -0.0453622575998 0)
(-0.00626945146178 -0.0435490525781 0)
(-0.00651665632813 -0.0416554582814 0)
(-0.00673209000681 -0.0396898362169 0)
(-0.00691135189296 -0.0376618448627 0)
(-0.00705000601796 -0.0355825924201 0)
(-0.00714340816282 -0.0334647863478 0)
(-0.00718733528354 -0.0313228066811 0)
(-0.00717808746536 -0.0291726526937 0)
(-0.00711325647931 -0.0270316703268 0)
(-0.00699189321956 -0.0249180750778 0)
(-0.00681504999915 -0.0228502804997 0)
(-0.00658568904514 -0.0208461623975 0)
(-0.00630883651455 -0.0189222694063 0)
(-0.00599113538714 -0.0170931737121 0)
(-0.00564078456538 -0.0153708768667 0)
(-0.00526693798035 -0.0137642980363 0)
(-0.00487925740268 -0.0122789391508 0)
(-0.00448706039652 -0.0109168550778 0)
(-0.00409881079484 -0.00967693425996 0)
(-0.00372152408558 -0.00855543249003 0)
(-0.0033606531276 -0.00754662603337 0)
(-0.00301994345804 -0.00664349210389 0)
(-0.00270168995473 -0.00583832721216 0)
(-0.0024069047806 -0.00512325247952 0)
(-0.00213576645738 -0.00449055664181 0)
(-0.00188786271264 -0.00393286497339 0)
(-0.00166253972632 -0.00344315613124 0)
(-0.00145891453254 -0.00301473315293 0)
(-0.00127597301076 -0.00264121681773 0)
(-0.00111249058672 -0.00231659589967 0)
(-0.000967148755051 -0.00203528014192 0)
(-0.000838516870169 -0.00179213657424 0)
(-0.000725175821568 -0.00158249702022 0)
(-0.000625706800213 -0.00140215088566 0)
(-0.000538808698175 -0.0012473179867 0)
(-0.000463322686118 -0.00111459095274 0)
(-0.000398445117791 -0.00100156011428 0)
(-0.000345025047275 -0.000898378025481 0)
(-0.00030205592979 -0.000807511074562 0)
(-0.000269770410796 -0.000737774585573 0)
(-0.000241337936802 -0.000664314676461 0)
(-0.000213913060695 -0.000582689380185 0)
(-0.000203580116636 -0.000529347838256 0)
(-0.000197499790057 -0.000455295978127 0)
(-0.000215420295281 -0.000394219712944 0)
(-0.000259697167678 -0.000354082571518 0)
(-0.000275296563339 -0.000258468339746 0)
(-0.000314601449529 -0.00018216519275 0)
(-0.000354463309789 -0.000112050815611 0)
(-0.000352269946806 -3.67227260598e-05 0)
(0.0152040505795 -0.00169996680481 0)
(0.0160319809357 -0.0054363434103 0)
(0.0158893090574 -0.00912778725719 0)
(0.0156371648818 -0.0127983801534 0)
(0.0153066570658 -0.0163921854165 0)
(0.0149050387076 -0.0198935405482 0)
(0.0144398627822 -0.0232859682433 0)
(0.0139193523073 -0.0265553837963 0)
(0.0133520196171 -0.0296900434628 0)
(0.0127463716302 -0.0326805427735 0)
(0.0121105832907 -0.0355197139336 0)
(0.0114523193675 -0.0382024525832 0)
(0.0107785212578 -0.0407255014942 0)
(0.0100953581844 -0.0430872028961 0)
(0.00940811986597 -0.0452872460525 0)
(0.00872127362749 -0.0473264158806 0)
(0.00803842928246 -0.0492063615355 0)
(0.00736246316361 -0.050929383209 0)
(0.00669551621908 -0.0524982486667 0)
(0.00603914888055 -0.0539160323533 0)
(0.00539434229037 -0.0551859840176 0)
(0.00476165991873 -0.0563114168645 0)
(0.00414123505416 -0.0572956199193 0)
(0.00353292785349 -0.0581417843924 0)
(0.00293629385887 -0.0588529484096 0)
(0.00235073463555 -0.0594319507201 0)
(0.00177544953389 -0.059881397949 0)
(0.00120958345876 -0.0602036378221 0)
(0.000652168015697 -0.0604007437162 0)
(0.00010227201198 -0.0604745042947 0)
(-0.000441061463758 -0.0604264281898 0)
(-0.00097865662893 -0.0602577428924 0)
(-0.00151126665765 -0.0599694245212 0)
(-0.00203940714424 -0.0595622280953 0)
(-0.00256341685063 -0.0590367348206 0)
(-0.00308328710003 -0.0583934137472 0)
(-0.00359872779285 -0.0576327002679 0)
(-0.00410900400871 -0.0567550889011 0)
(-0.00461301907487 -0.0557612395027 0)
(-0.00510917273141 -0.0546520928461 0)
(-0.00559547250661 -0.0534289903211 0)
(-0.00606942201899 -0.0520937921977 0)
(-0.00652816005493 -0.0506489861676 0)
(-0.00696836882734 -0.0490977833886 0)
(-0.00738641666083 -0.0474441971063 0)
(-0.00777825216943 -0.0456931115371 0)
(-0.00813951094521 -0.0438503478358 0)
(-0.00846536598161 -0.0419227501729 0)
(-0.00875059723112 -0.0399183122943 0)
(-0.00898945373111 -0.0378463632536 0)
(-0.00917581433951 -0.0357178210475 0)
(-0.0093032780943 -0.0335454671755 0)
(-0.00936566536617 -0.0313441881758 0)
(-0.00935754839142 -0.0291310258199 0)
(-0.00927508518331 -0.0269249372335 0)
(-0.00911665895147 -0.0247461931172 0)
(-0.00888334477057 -0.0226155251661 0)
(-0.008579113215 -0.0205531750959 0)
(-0.00821073061861 -0.0185778642066 0)
(-0.00778729287749 -0.016706046988 0)
(-0.00732005505601 -0.0149512344269 0)
(-0.00682184001973 -0.0133232345315 0)
(-0.00630617098097 -0.0118276447483 0)
(-0.00578610778667 -0.0104657847399 0)
(-0.00527328182732 -0.0092351340464 0)
(-0.00477717680396 -0.00813012462245 0)
(-0.00430487561299 -0.00714306476216 0)
(-0.00386103593845 -0.00626504871059 0)
(-0.00344819020138 -0.00548675650248 0)
(-0.00306715044734 -0.00479908208262 0)
(-0.00271760816149 -0.00419351232472 0)
(-0.00239866002589 -0.00366223897042 0)
(-0.00210923190501 -0.00319801588325 0)
(-0.00184813583955 -0.0027939660484 0)
(-0.00161400756792 -0.0024435198332 0)
(-0.00140522094841 -0.00214048891855 0)
(-0.00121997302286 -0.00187916281789 0)
(-0.00105635052927 -0.00165435317111 0)
(-0.000912430192581 -0.00146140230674 0)
(-0.00078632571966 -0.00129617133647 0)
(-0.000676270892385 -0.00115502524387 0)
(-0.000580652118409 -0.001034813567 0)
(-0.000498203604286 -0.000933935519429 0)
(-0.000428105382819 -0.000836214895359 0)
(-0.00038458375575 -0.000771783742976 0)
(-0.000349573263801 -0.000704847217363 0)
(-0.00032357680441 -0.00063679565737 0)
(-0.000293443588781 -0.000557784774361 0)
(-0.000263694195309 -0.000465023034287 0)
(-0.000264374093564 -0.000407244340106 0)
(-0.000271042103688 -0.00033153421371 0)
(-0.000318117206379 -0.000288231856802 0)
(-0.000371415473246 -0.000230078628285 0)
(-0.000386018123545 -0.000147082132244 0)
(-0.000410129163006 -8.63579154181e-05 0)
(-0.000408356066027 -2.87032239987e-05 0)
(0.0187921171458 -0.00174532644949 0)
(0.0198138002511 -0.00558014013992 0)
(0.0196326673006 -0.00936606745422 0)
(0.0193137561081 -0.0131269918496 0)
(0.0188961183824 -0.0168043373769 0)
(0.0183893505291 -0.0203811843263 0)
(0.0178034149173 -0.0238400990381 0)
(0.0171490541743 -0.027166465868 0)
(0.01643732798 -0.0303484064063 0)
(0.0156791874247 -0.0333767341071 0)
(0.0148850959149 -0.0362447863523 0)
(0.0140647572848 -0.0389481823973 0)
(0.0132269034557 -0.0414845344317 0)
(0.0123791922079 -0.0438531358635 0)
(0.0115281455667 -0.0460546510516 0)
(0.0106791787032 -0.0480908204517 0)
(0.0098366373099 -0.0499641945425 0)
(0.00900390096642 -0.0516779000058 0)
(0.00818346461446 -0.053235442585 0)
(0.00737706761746 -0.0546405429858 0)
(0.00658577961258 -0.0558970052363 0)
(0.00581012533206 -0.0570086109166 0)
(0.00505015453577 -0.0579790373436 0)
(0.00430555038765 -0.0588117928792 0)
(0.00357567833946 -0.0595101679634 0)
(0.00285967814571 -0.0600771962209 0)
(0.00215649587005 -0.0605156256907 0)
(0.00146496600296 -0.060827896059 0)
(0.00078383501112 -0.0610161234982 0)
(0.000111842520177 -0.0610820902702 0)
(-0.000552254854041 -0.0610272476887 0)
(-0.00120959457187 -0.0608527099489 0)
(-0.00186117720154 -0.0605592828251 0)
(-0.00250776816787 -0.0601474901639 0)
(-0.00314985948978 -0.0596176200381 0)
(-0.00378756631893 -0.0589697879413 0)
(-0.00442059081273 -0.0582040199929 0)
(-0.00504812782357 -0.0573203545456 0)
(-0.00566884900288 -0.0563189615467 0)
(-0.00628083853714 -0.0552002745196 0)
(-0.00688161733051 -0.0539651285534 0)
(-0.00746812389126 -0.0526148955061 0)
(-0.00803678278654 -0.0511516047561 0)
(-0.00858351865996 -0.049578042348 0)
(-0.00910383534979 -0.0478978197857 0)
(-0.00959280639251 -0.0461154200908 0)
(-0.010045092792 -0.0442362317345 0)
(-0.010454838213 -0.0422666069409 0)
(-0.0108155895829 -0.0402139832905 0)
(-0.0111201369985 -0.0380871181692 0)
(-0.0113605139226 -0.0358964698098 0)
(-0.011528114675 -0.0336546871861 0)
(-0.011614243152 -0.0313771235598 0)
(-0.0116109830122 -0.0290821158583 0)
(-0.0115124270859 -0.0267908210425 0)
(-0.0113158478719 -0.0245263717243 0)
(-0.0110221307291 -0.0223127688834 0)
(-0.0106363683458 -0.020173579618 0)
(-0.0101674051194 -0.0181304779021 0)
(-0.00962706500135 -0.0162025246084 0)
(-0.00903024015075 -0.0144054482428 0)
(-0.00839430579155 -0.0127504360989 0)
(-0.00773773922931 -0.01124322708 0)
(-0.00707829819381 -0.00988398421285 0)
(-0.00643145635838 -0.00866801978909 0)
(-0.00580945478674 -0.00758704110084 0)
(-0.0052210078675 -0.00663049840399 0)
(-0.00467143034888 -0.00578681844147 0)
(-0.00416307177754 -0.00504445209786 0)
(-0.00369599985652 -0.00439267956652 0)
(-0.00326889634576 -0.00382207422922 0)
(-0.00287998007795 -0.00332449573899 0)
(-0.00252764770658 -0.00289263810429 0)
(-0.00221045850005 -0.00251951422049 0)
(-0.00192675260721 -0.00219830667096 0)
(-0.0016744503145 -0.00192256552149 0)
(-0.00145118830366 -0.00168641338639 0)
(-0.00125448631078 -0.0014845969697 0)
(-0.00108185472821 -0.00131247505593 0)
(-0.00093087321771 -0.00116599407444 0)
(-0.000799266191411 -0.00104164571728 0)
(-0.000684946514593 -0.000936497425441 0)
(-0.00058663995252 -0.000848120443911 0)
(-0.000499641321453 -0.000756909613017 0)
(-0.000452569822206 -0.000699452249587 0)
(-0.000417596453689 -0.000636945990661 0)
(-0.000380659246921 -0.000559559090804 0)
(-0.000363175189473 -0.000502757754234 0)
(-0.000351882414081 -0.000439740396225 0)
(-0.000352674749868 -0.000376824581206 0)
(-0.000334318929959 -0.000283423102842 0)
(-0.000360053887607 -0.000221600011738 0)
(-0.000427957508188 -0.000185231768613 0)
(-0.000454550034098 -0.000127132833423 0)
(-0.000463039894079 -7.1807207696e-05 0)
(-0.000462549676972 -2.38683427889e-05 0)
(0.0224856654536 -0.00180165636093 0)
(0.0237045229304 -0.00575906888549 0)
(0.0234802893817 -0.0096628291668 6.67589712983e-28)
(0.0230877624548 -0.0135359811673 0)
(0.0225744341934 -0.0173166218722 0)
(0.0219526747252 -0.0209862441189 0)
(0.0212353300496 -0.0245262637196 0)
(0.02043614129 -0.0279214697765 0)
(0.0195691425552 -0.0311599092203 0)
(0.0186480995265 -0.0342327738385 0)
(0.0176860418211 -0.0371341430918 0)
(0.0166949182691 -0.0398606441094 0)
(0.0156853630944 -0.042411065712 0)
(0.0146665785257 -0.0447859600259 0)
(0.0136463014461 -0.0469872589165 0)
(0.0126308507999 -0.0490179236343 0)
(0.011625216972 -0.0508816389186 0)
(0.0106331928921 -0.0525825557125 0)
(0.00965751069589 -0.0541250819918 0)
(0.00869999240313 -0.0555137175073 0)
(0.00776168379124 -0.0567529266337 0)
(0.00684298885721 -0.057847042455 0)
(0.00594377823275 -0.0588001955605 0)
(0.00506349570772 -0.0596162614705 0)
(0.00420123807032 -0.0602988217163 0)
(0.00335583673907 -0.060851134437 0)
(0.00252591647158 -0.061276111518 0)
(0.00170996236949 -0.0615763002829 0)
(0.000906369538184 -0.0617538689485 0)
(0.000113508163125 -0.0618105953873 0)
(-0.000670223856361 -0.0617478669232 0)
(-0.00144632483088 -0.061566666682 0)
(-0.00221612404472 -0.0612675993765 0)
(-0.00298069157146 -0.0608509114493 0)
(-0.00374075830202 -0.0603165338346 0)
(-0.00449661593422 -0.0596641457228 0)
(-0.00524803454302 -0.0588932622111 0)
(-0.00599417148414 -0.0580033473138 0)
(-0.00673351231523 -0.0569939502261 0)
(-0.00746381944434 -0.0558648609751 0)
(-0.00818212846909 -0.0546162752776 0)
(-0.00888476425822 -0.0532489570662 0)
(-0.00956740720543 -0.0517643801713 0)
(-0.0102251675732 -0.0501648350186 0)
(-0.0108526781732 -0.0484534837488 0)
(-0.0114441417508 -0.0466343677386 0)
(-0.0119933261362 -0.0447123782742 0)
(-0.0124934399311 -0.0426932454457 0)
(-0.0129369138549 -0.0405836094387 0)
(-0.0133150887176 -0.0383912858389 0)
(-0.01361797224 -0.0361257968727 0)
(-0.0138342364824 -0.0337991944595 0)
(-0.0139517897124 -0.0314270544634 0)
(-0.0139590742461 -0.0290292075776 0)
(-0.0138470676299 -0.0266297997733 0)
(-0.0136113676627 -0.0242558943734 0)
(-0.0132522698507 -0.0219360433073 0)
(-0.0127763137605 -0.0196984473974 0)
(-0.0121949687698 -0.0175685591909 0)
(-0.0115229228997 -0.0155688808254 0)
(-0.0107793282262 -0.0137184745105 0)
(-0.00998747478532 -0.0120307333712 0)
(-0.00917251212182 -0.0105116373268 0)
(-0.0083583912602 -0.00915950237115 0)
(-0.00756536264955 -0.00796629135898 0)
(-0.00680873358249 -0.00691967696089 0)
(-0.00609874887643 -0.00600504116962 0)
(-0.00544095208973 -0.00520711340824 0)
(-0.00483685507288 -0.00451132669128 0)
(-0.00428492662336 -0.00390490720502 0)
(-0.00378196174236 -0.00337749298399 0)
(-0.00332471390832 -0.00292099068266 0)
(-0.00291098782566 -0.00252849460163 0)
(-0.002539389034 -0.0021930712067 0)
(-0.00220815907769 -0.00190751187237 0)
(-0.0019146733727 -0.00166492481066 0)
(-0.00165585263035 -0.00145919898506 0)
(-0.00142854283089 -0.00128501974478 0)
(-0.00122960245467 -0.00113778934047 0)
(-0.00105600474483 -0.00101358280886 0)
(-0.000904888737432 -0.000909095646355 0)
(-0.00077355743288 -0.000822103017118 0)
(-0.000660427863949 -0.000746352522116 0)
(-0.000575825127553 -0.000681032311857 0)
(-0.000520514467996 -0.000622669125445 0)
(-0.000482572170735 -0.000563847690221 0)
(-0.00044911575975 -0.000502686832944 0)
(-0.000420422480843 -0.000436115039192 0)
(-0.000416826186785 -0.000382389270518 0)
(-0.000408670388803 -0.000311586512428 0)
(-0.000423998951709 -0.000257959110293 0)
(-0.000416918304848 -0.00018254918415 0)
(-0.000451838974431 -0.000138793808913 0)
(-0.000502665184978 -0.000105645837233 0)
(-0.00050702982381 -5.9896947021e-05 0)
(-0.000507323761042 -1.9937173228e-05 0)
(0.0263089685672 -0.00187037424538 0)
(0.0277294289574 -0.00597735867868 0)
(0.0274560648165 -0.0100247013133 -6.674871025e-28)
(0.0269809887155 -0.0140341052551 0)
(0.0263608559566 -0.0179394613046 0)
(0.0256114171921 -0.0217202876711 0)
(0.0247490431741 -0.0253566303225 0)
(0.0237910992568 -0.0288326509502 0)
(0.0227551514578 -0.0321364455599 0)
(0.0216582429398 -0.0352598320747 0)
(0.0205163155709 -0.0381979647297 0)
(0.0193437967159 -0.0409488581739 0)
(0.0181533453053 -0.0435128711939 0)
(0.0169557429468 -0.0458921945347 0)
(0.0157599001244 -0.0480903758335 0)
(0.0145729514477 -0.0501119020404 0)
(0.0134004064124 -0.0519618496428 0)
(0.0122463344331 -0.0536456035696 0)
(0.0111135585694 -0.0551686404701 0)
(0.0100038479309 -0.0565363674069 0)
(0.00891809341376 -0.0577540064282 0)
(0.00785646699549 -0.0588265142592 0)
(0.00681855662233 -0.0597585284218 0)
(0.00580348334673 -0.0605543311211 0)
(0.00480999643322 -0.0612178251665 0)
(0.00383655630229 -0.0617525162132 0)
(0.00288140224225 -0.0621614986151 0)
(0.00194261621828 -0.0624474417094 0)
(0.0010181798689 -0.0626125765569 0)
(0.000106036595903 -0.062658681848 0)
(-0.000795845701644 -0.062587079336 0)
(-0.00168939605074 -0.0623986085934 0)
(-0.00257635838011 -0.0620936478532 0)
(-0.00345819072288 -0.0616721225333 0)
(-0.00433595826818 -0.0611335423319 0)
(-0.00521021410379 -0.060477061929 0)
(-0.00608088232675 -0.0597015731053 0)
(-0.00694714385656 -0.0588058296996 0)
(-0.00780734481817 -0.0577886067158 0)
(-0.00865893201484 -0.0566488877209 0)
(-0.00949843692934 -0.0553860702685 0)
(-0.0103215095869 -0.0540001710143 0)
(-0.0111230128342 -0.0524920047312 0)
(-0.0118971586439 -0.0508633098796 0)
(-0.0126376653157 -0.0491167904433 0)
(-0.0133378780002 -0.0472560644571 0)
(-0.0139907927289 -0.0452855262458 0)
(-0.0145888967201 -0.0432101909208 0)
(-0.0151237886738 -0.0410356282757 0)
(-0.0155855631061 -0.0387681727038 0)
(-0.0159621521285 -0.0364156136955 0)
(-0.016238911187 -0.0339885007542 0)
(-0.0163990482163 -0.0315019573628 0)
(-0.0164255414111 -0.0289773896736 0)
(-0.0163043737255 -0.0264431100995 0)
(-0.0160290694466 -0.02393156944 0)
(-0.0155983083908 -0.0214777104751 0)
(-0.0150210555261 -0.0191162744031 0)
(-0.0143125407368 -0.0168770835932 0)
(-0.0134896462711 -0.0147868813649 0)
(-0.012576302423 -0.0128699981864 0)
(-0.0116038547953 -0.0111436188043 0)
(-0.0106069669876 -0.00961414305179 0)
(-0.00961817421274 -0.00827683478004 0)
(-0.00866370716854 -0.00711836251955 0)
(-0.00776216590095 -0.0061204279406 0)
(-0.00692496828735 -0.00526271759352 0)
(-0.00615723814915 -0.00452492528058 0)
(-0.00545869181422 -0.00388842715312 0)
(-0.00482484142062 -0.00333778659933 0)