/*--------------------------------*- C++ -*----------------------------------*\
| =========                 |                                                 |
| \\      /  F ield         | OpenFOAM: The Open Source CFD Toolbox           |
|  \\    /   O peration     | Version:  v1906                                 |
|   \\  /    A nd           | Web:      www.OpenFOAM.com                      |
|    \\/     M anipulation  |                                                 |
\*---------------------------------------------------------------------------*/
FoamFile
{
    version     2.0;
    format      ascii;
    class       volVectorField;
    location    "400";
    object      Ua;
}
// * * * * * * * * * * * * * * * * * * * * * * * * * * * * * * * * * * * * * //

dimensions      [0 1 -1 0 0 0 0];


internalField   nonuniform List<vector> 
208
(
(0.0767419738285 -0.00737842940487 2.21375349392e-19)
(0.000152676840846 -6.28442929621e-05 9.42804979892e-21)
(0.000173244602441 6.88826385842e-06 0)
(-0.000445546030579 4.7783271218e-05 0)
(0.0809495612313 -0.0198501486641 0)
(-4.85019219775e-06 0.000136398703029 -2.36595353423e-20)
(0.000148868466522 2.09423441314e-05 -4.19127070839e-20)
(0.000147723335688 0.000272205607858 0)
(4.80581160656e-05 -0.000206760801145 -1.73793532296e-22)
(0.000230560905924 6.81309510647e-05 5.19770312942e-21)
(4.31590034783e-05 0.000111106398395 -6.94958643913e-20)
(-4.34857453601e-05 8.46662288202e-06 0)
(0.000181145250605 2.94819182511e-05 -3.69754792395e-20)
(0.0290048874658 -0.0834656595194 0)
(0.0282796543555 -0.0622556774723 -3.40377175305e-19)
(-3.10943546038e-05 0.000389292501684 1.55645926152e-20)
(0.000178628114049 5.03883149672e-05 0)
(-0.000311111729769 -0.000162021610594 0)
(8.46272781932e-05 0.000315520556687 -1.14918047107e-20)
(0.000116774457715 -3.6083582498e-05 5.06503482675e-22)
(-6.08294982682e-06 1.58336852471e-05 0)
(5.95461313027e-05 5.6731984425e-06 0)
(-9.81997085878e-05 0.000250510625322 1.79666265221e-20)
(-0.000181069612861 0.000134457276826 -5.09461048054e-20)
(0.000216297428214 -1.25781802069e-05 3.24305863209e-20)
(0.000427259437528 3.34584403939e-05 -1.70844167888e-19)
(3.5269627363e-05 0.000135081462837 1.06551970819e-19)
(-9.92786266612e-05 -9.38681110039e-06 1.32003786909e-20)
(7.79550755368e-05 3.30786054967e-07 3.83034404932e-20)
(-6.61739220572e-06 0.000106823535382 3.9435941157e-20)
(0.000778980014283 0.00272536243333 0)
(-0.0826930809018 -0.226729981379 -1.9902439024e-18)
(6.50758931355e-05 7.08419284336e-05 0)
(0.00147570454799 0.00126584787012 -2.90848800889e-21)
(0.00114082897208 0.002059612106 0)
(0.000259803001253 3.30892063246e-05 5.58712645693e-20)
(-2.72088142635e-05 0.000241143806252 3.61107492695e-20)
(0.000336292916523 -0.000349861582018 -1.25295304215e-20)
(0.000463194277895 -9.82861417852e-05 -2.27152374412e-20)
(-0.0307746777278 0.220575009557 7.2268040719e-19)
(0.00116198329742 0.00185173945687 0)
(0.0153036723157 -0.0213174231523 0)
(2.3432718581e-05 -8.02100118458e-05 -3.23339643227e-20)
(0.000156237279301 0.000181519381022 5.5384329845e-21)
(0.000106292914889 5.22693641873e-05 -2.50419250052e-20)
(0.00037482818454 0.00035095244012 -1.62329548146e-19)
(-0.00010006624028 8.50256908047e-05 0)
(-0.00834444547556 -0.192326395291 2.19564386292e-18)
(-0.00261421640843 -0.013475685513 0)
(6.83639279388e-05 -1.28984274818e-05 2.64658580475e-20)
(-0.000793333349636 0.00100616569005 -1.96616219907e-20)
(-0.0360476784232 -0.0984044313824 0)
(0.00046355503685 0.000328878655428 3.62969647859e-20)
(-9.59356931805e-06 6.86770482371e-05 0)
(9.48378346022e-05 5.43447741705e-06 4.84832429701e-20)
(0.0383306089515 0.040531027079 -2.05884769623e-18)
(-0.000226625554237 -0.00128450082527 0)
(0.0021825431979 -0.000819685043391 -2.45520718528e-21)
(0.0312974006329 -0.000468208375203 -1.66792791809e-19)
(0.000408217046655 -4.48927451316e-06 -1.82675061834e-20)
(0.0710888539072 0.0169980383605 -2.58426539018e-19)
(0.0211261049735 0.00434431368008 -8.84290885361e-20)
(-0.0367037014288 0.132218539557 0)
(0.000890789924472 0.00129707768796 -9.18590042021e-21)
(-0.125945396125 0.0146674676697 6.54753307249e-19)
(-5.17596410627e-05 0.014854790108 0)
(0.000589314235845 -1.95829856932e-05 -8.80237996929e-20)
(0.000135775314579 -7.81199850836e-06 0)
(0.000100171093161 7.21161728446e-05 0)
(0.00399599509504 -0.00105383203511 4.63430461268e-20)
(0.000132567922522 -0.000109917205239 -1.42350196586e-20)
(0.00175502351437 0.0904521734749 0)
(-9.50076747426e-05 -0.000722818330619 3.74750954899e-21)
(5.67806960604e-06 3.87170156343e-06 0)
(2.26333207605e-06 9.57456740867e-06 0)
(-0.000395844996491 0.000373943504193 3.90823869704e-20)
(-0.000239865214788 0.00017228719285 -7.66632918813e-20)
(0.00275724194015 0.0722343409808 7.70383085437e-19)
(-4.41532525947e-06 0.000371262786524 -2.23346219615e-21)
(-0.15751452506 0.042359585593 6.82797961208e-19)
(0.00567350513458 0.000356762715378 4.61146566568e-20)
(-0.142256064998 -0.00750385585688 -3.54307526122e-19)
(-0.00591551925216 0.000437530761589 4.25686035613e-20)
(0.0429595414788 -0.0149268253515 3.14614819699e-19)
(0.0321335612805 0.00818003784959 0)
(-0.0299762154252 -0.114446281793 7.4539385041e-20)
(-8.4616681199e-06 0.000360183689461 -2.65501045697e-20)
(-0.023446115921 0.00458799993782 0)
(0.0454869842417 0.0299496933868 1.02010395503e-19)
(0.000134080637815 -1.11625989162e-05 8.32090735679e-21)
(0.000260611791419 0.000263587658153 5.44740443965e-20)
(0.000101145678963 -6.92847184175e-05 0)
(1.52296530924e-05 6.02430585861e-05 0)
(4.07204392712e-05 4.19813739974e-05 3.8742769288e-21)
(-0.0543614894853 0.127269120148 0)
(0.000345879549943 -3.66020901807e-05 -6.00357616498e-21)
(-0.0429655008521 0.0168661354465 0)
(0.00291442895798 0.000393010199743 0)
(0.0541665387548 -0.0253866266141 -2.34212696429e-19)
(-0.0503361611822 6.07283798829e-05 0)
(-0.00288416422162 0.000286817318529 0)
(-0.034255529858 -0.0154138051259 0)
(-0.0495868989393 -0.0434721096382 -9.86317426542e-20)
(-8.06593213502e-06 7.86119179753e-05 0)
(8.36848465636e-05 -9.27818523263e-06 -1.55146073646e-21)
(0.0822099052531 -0.0212212654935 0)
(-4.61274484305e-05 -0.000212674883605 2.89166304975e-20)
(-0.00275103608048 6.25086566986e-05 -6.88956923397e-20)
(0.0473822022766 -0.0514449895846 0)
(-5.00408652769e-06 -0.000173769987034 0)
(0.0462276588089 -0.0653782446251 2.14403697188e-19)
(-0.000193273108235 -0.000349946622984 -5.0501804993e-21)
(-0.0013679005894 0.00287211548855 -3.8218610766e-20)
(-0.107622019705 -0.0519774383549 2.03162099503e-19)
(-0.0805996216273 0.0485266158152 0)
(0.00175624161081 0.0023561880702 -5.19873404684e-20)
(-0.0105461841317 0.0257595393778 0)
(-0.00554248899837 0.0311785466978 0)
(3.08556987754e-05 -0.000345926346193 0)
(-0.00106196676484 -0.000106209512545 -2.68243750113e-20)
(9.41344387303e-05 3.5538710922e-06 0)
(7.51063679518e-05 -0.000124264876677 2.41453852846e-20)
(-0.000334326019486 -0.000297378722073 5.49812633947e-21)
(0.00595007212129 0.0159145088129 0)
(0.00188058520181 -0.00218930918591 0)
(-3.29392704163e-05 7.71647407195e-05 0)
(9.13301142789e-05 1.17418669846e-05 -4.16071284354e-20)
(5.86347383678e-06 1.53905010975e-05 0)
(3.43187516906e-05 -1.06347712915e-05 -8.66299013903e-20)
(-0.000503040421812 0.000476293041474 -1.1654431164e-20)
(0.0724188915209 -0.0131262666215 0)
(0.000112886860036 0.00010084776236 0)
(0.00278694946037 0.000357358369238 0)
(-0.0015036993439 -0.00301390646815 0)
(-0.0521157055123 -0.00607517902401 -1.93457218271e-18)
(0.00012800902483 -7.18752928176e-06 0)
(-0.077063631544 0.0350736455824 0)
(0.0001285017949 -1.9129165623e-05 0)
(0.000113425499636 0.000248864359874 0)
(0.000178701411711 0.000275770946866 0)
(0.018885497037 0.0182209927962 -7.63817650469e-19)
(0.000768936536237 0.000328496901781 2.11834965144e-20)
(0.000798346245699 0.0006880022114 2.21959243888e-20)
(8.37253526353e-05 4.758182285e-05 3.19473824509e-20)
(4.12952051074e-05 4.97510267363e-05 -1.17327847611e-20)
(0.000143101045166 4.65859798712e-06 -4.79551145981e-20)
(0.00011326565638 3.80269447967e-05 0)
(0.0150936991561 -0.0139324398093 -2.05087767964e-19)
(0.031513658905 0.0765709922811 0)
(0.000151531733909 -2.39250387598e-05 -1.46936408465e-20)
(0.0488945325179 -0.0376795074101 5.77675677182e-19)
(-2.6245235439e-05 0.000162177771864 5.54947308398e-21)
(0.000317716339652 -0.000253937681724 2.76563605444e-20)
(0.00801180809152 0.0365009104816 0)
(0.00139209695187 -0.00248167903862 -5.36597527917e-19)
(0.104263585108 -0.0382727692288 0)
(0.000134991828594 -0.000179332040275 0)
(0.0670581664328 -0.0143069485993 0)
(-0.000130389928825 -0.000528866014464 0)
(-0.0607756070829 0.00857606830586 7.90260168924e-19)
(0.000141928465869 1.97112054861e-07 0)
(0.0141785242477 -0.0357844016368 -7.27981391891e-20)
(0.000222953773654 -6.17488571443e-05 0)
(-0.000553625924366 -0.000440920408494 0)
(0.00012993393883 4.40146053367e-06 0)
(-0.0517644662263 -0.0289995255652 1.35848581273e-18)
(0.000145325849255 -6.90944289067e-06 1.65393915045e-20)
(-0.000305602349278 -0.000967237845083 -3.13262420641e-21)
(-0.00762873880561 -0.0274862627946 0)
(0.0258082765671 -0.0123973048027 0)
(0.000108999699875 -0.00010812881887 -3.82297004723e-21)
(0.000435397137237 -0.000769698509384 0)
(-0.000971881043414 0.0421428204383 0)
(-0.0131041387765 0.0617812658698 0)
(6.85305918474e-05 5.34863113851e-05 -5.94471751935e-20)
(0.000140883372143 7.3746888343e-06 -6.73595350457e-22)
(0.00825884872173 -0.0648972378265 1.49500177885e-20)
(0.00071856230317 0.00214584807787 2.56317473051e-20)
(0.0613659043953 0.0288612161021 0)
(4.92522776531e-05 4.0151996108e-05 0)
(-0.0110697986214 -0.055888449114 -4.07075123392e-19)
(0.000251779133409 -9.20168136048e-05 -1.09133246561e-20)
(6.71732044394e-05 1.12433746984e-05 6.33756754195e-20)
(2.54087089698e-05 6.51638975699e-05 3.61597655246e-20)
(-0.00528099237217 0.0807464710778 0)
(-0.000999971142908 0.00242928095371 1.25658991845e-20)
(6.70280643466e-05 0.000102982921706 3.0768068516e-20)
(0.0369503376773 0.0500782925347 -9.78802982521e-19)
(7.61526911827e-05 -2.22716881126e-05 0)
(-0.0220718089753 -0.0130250319547 -4.57321075874e-18)
(0.000213692600725 -3.53932096183e-05 -1.36383006716e-20)
(0.000238993231481 -7.8651346526e-05 2.99714229051e-20)
(0.000163834960192 6.30060118415e-05 0)
(2.4989531652e-05 2.85559244466e-06 1.83169269078e-20)
(3.59626905629e-05 8.61098132447e-05 0)
(0.0314440066381 -0.0536471231752 1.26210160132e-19)
(0.000136687016042 -0.000197616047043 0)
(-0.0265497121673 0.0243005207814 3.49150346168e-19)
(8.31430071847e-05 4.69733565871e-05 0)
(0.000104924420771 0.000103123634242 -4.66520681966e-20)
(0.00014081994843 0.000337215134462 0)
(3.36572644944e-05 2.20957517117e-05 0)
(3.73635305753e-05 6.53820288138e-05 -2.50828867902e-20)
(0.000120092896272 0.000162462204848 2.66656471945e-19)
(0.00737102684571 -0.0281118170097 3.97624863093e-19)
(0.000122826048291 -5.70037020556e-05 0)
(2.1437237636e-05 2.81822641953e-05 0)
(5.58076172493e-06 1.51594048489e-05 0)
)
;

boundaryField
{
    frontAndback
    {
        type            empty;
    }
    upperWall
    {
        type            noSlip;
    }
    outlet
    {
        type            adjointOutletVelocity;
        value           nonuniform List<vector> 3((-0.000120381361526 3.43920641776 0) (-0.0036858271923 0.13653411494 1.23321916635e-17) (0.00382078702121 0 0));
    }
    lowerWall
    {
        type            noSlip;
    }
    inlet
    {
        type            fixedValue;
        value           uniform (-1 0 0);
    }
}


// ************************************************************************* //
