/*--------------------------------*- C++ -*----------------------------------*\
| =========                 |                                                 |
| \\      /  F ield         | OpenFOAM: The Open Source CFD Toolbox           |
|  \\    /   O peration     | Version:  v1906                                 |
|   \\  /    A nd           | Web:      www.OpenFOAM.com                      |
|    \\/     M anipulation  |                                                 |
\*---------------------------------------------------------------------------*/
FoamFile
{
    version     2.0;
    format      ascii;
    class       volVectorField;
    location    "217";
    object      U;
}
// * * * * * * * * * * * * * * * * * * * * * * * * * * * * * * * * * * * * * //

dimensions      [0 1 -1 0 0 0 0];


internalField   nonuniform List<vector> 
9216
(
(0.0027134262365 -0.00271612558751 0)
(0.00286095085904 -0.0087653353716 1.17493232112e-27)
(0.00285289072062 -0.0149089181643 1.84364345103e-31)
(0.00281572837999 -0.0210531848708 0)
(0.00276412855182 -0.0270949365499 0)
(0.00269955526359 -0.0330099967997 0)
(0.00262369320187 -0.0387726156166 0)
(0.00253788986036 -0.0443599011889 0)
(0.00244344306522 -0.0497517563403 0)
(0.00234162908912 -0.0549308628713 0)
(0.00223370780646 -0.0598826509606 0)
(0.00212088867004 -0.0645952289398 0)
(0.00200432160887 -0.0690592676729 0)
(0.00188506919137 -0.073267834597 0)
(0.00176410416335 -0.0772162068781 0)
(0.00164229636486 -0.0809016521845 0)
(0.00152041575366 -0.0843232178032 0)
(0.00139913372514 -0.0874815027827 0)
(0.00127902659337 -0.0903784606275 0)
(0.00116058909831 -0.0930171930778 0)
(0.00104423314887 -0.095401787472 0)
(0.00093031137597 -0.097537146653 0)
(0.00081910726968 -0.0994288671032 0)
(0.000710867215508 -0.101083107069 0)
(0.000605779806504 -0.102506501518 0)
(0.000504015409902 -0.103706063486 0)
(0.000405694231671 -0.104689126664 0)
(0.000310932684974 -0.105463272143 0)
(0.000219801373877 -0.10603628879 0)
(0.000132378261129 -0.106416119519 0)
(4.87008498818e-05 -0.106610823602 0)
(-3.11888198894e-05 -0.10662857113 0)
(-0.000107310316666 -0.106477559108 0)
(-0.000179654704557 -0.106165924889 0)
(-0.000248242438402 -0.105701846678 0)
(-0.000313084151826 -0.105093452373 0)
(-0.000374232707812 -0.104348795335 0)
(-0.000431727329189 -0.103475835034 0)
(-0.000485642866899 -0.102482398413 0)
(-0.000536042855213 -0.101376172278 0)
(-0.000583019152064 -0.100164662542 0)
(-0.00062665664055 -0.0988551971176 0)
(-0.000667059038692 -0.0974548834307 0)
(-0.000704329107927 -0.0959706222045 0)
(-0.000738576811911 -0.094409064179 0)
(-0.000769918852269 -0.0927766348056 0)
(-0.000798465684656 -0.0910794908349 0)
(-0.000824343931446 -0.0893235555177 0)
(-0.000847658970156 -0.087514475459 0)
(-0.000868543495643 -0.0856576653198 0)
(-0.000887092904753 -0.083758265043 0)
(-0.000903442770842 -0.08182119269 0)
(-0.000917674500417 -0.0798511018314 0)
(-0.000929924126933 -0.0778524405071 0)
(-0.000940256395298 -0.0758294085382 0)
(-0.000948806546847 -0.073786020474 0)
(-0.000955621337157 -0.071726062357 0)
(-0.000960834981313 -0.0696531559271 0)
(-0.00096447653495 -0.0675707148013 0)
(-0.000966680148686 -0.0654820074287 0)
(-0.000967458745552 -0.0633901125957 0)
(-0.000966948054063 -0.0612979782907 0)
(-0.000965147722987 -0.0592083773475 0)
(-0.000962197309684 -0.0571239600301 0)
(-0.000958086663129 -0.0550472107086 0)
(-0.000952961259735 -0.0529804918939 0)
(-0.000946805088819 -0.0509260039442 0)
(-0.000939771319956 -0.0488858192937 0)
(-0.000931841716348 -0.046861847042 0)
(-0.000923177878186 -0.0448558561146 0)
(-0.000913762608365 -0.0428694475044 0)
(-0.000903765676129 -0.0409040661699 0)
(-0.000893173225891 -0.0389609830092 0)
(-0.000882161543016 -0.0370412952041 0)
(-0.000870721668516 -0.0351459204716 0)
(-0.000859033677554 -0.0332755864038 0)
(-0.000847093989292 -0.031430838427 0)
(-0.000835082582763 -0.0296120184831 0)
(-0.00082300100009 -0.0278192883121 0)
(-0.000811024391001 -0.0260525984547 0)
(-0.000799158065126 -0.0243117276209 0)
(-0.00078756629676 -0.0225962430844 0)
(-0.000776255105068 -0.020905558096 0)
(-0.00076536883236 -0.0192388870664 0)
(-0.000754905151847 -0.0175953258427 0)
(-0.000744967626773 -0.0159738144334 0)
(-0.000735510452962 -0.0143732616208 0)
(-0.000726517557453 -0.0127925691032 0)
(-0.000717725293962 -0.0112309123825 0)
(-0.000708579740491 -0.00968810594773 0)
(-0.000697570955199 -0.00816577395478 0)
(-0.000681012840024 -0.00667032296497 0)
(-0.000644138704104 -0.00523392240789 0)
(-0.000567015044741 -0.00369093193672 0)
(-0.000731655039394 -0.00260580287027 0)
(-0.00120965476824 -0.00120849749504 0)
(0.00878442254183 -0.00289135991229 0)
(0.00971337765795 -0.0097844399231 0)
(0.00969130989595 -0.0166649173238 -1.23381342136e-27)
(0.00956225951322 -0.0235511139085 0)
(0.00938364862025 -0.0303131045323 0)
(0.00916284189647 -0.0369292422155 0)
(0.00890423863498 -0.043372197911 0)
(0.00861205718109 -0.04961682544 0)
(0.00829060065223 -0.0556408151478 0)
(0.00794419527038 -0.0614249209602 0)
(0.00757712227992 -0.0669529909445 0)
(0.00719350830783 -0.0722119057189 0)
(0.00679726377963 -0.0771914423235 0)
(0.00639200780683 -0.0818840822363 0)
(0.00598104131633 -0.0862847860232 0)
(0.00556731735631 -0.090390743173 0)
(0.00515344302588 -0.094201120501 0)
(0.00474168840346 -0.0977168079715 0)
(0.00433400236831 -0.100940184867 0)
(0.00393204903088 -0.103874895542 0)
(0.00353722230996 -0.106525656714 0)
(0.00315070004023 -0.108898077839 0)
(0.00277344593296 -0.110998515633 0)
(0.00240627464052 -0.112833939539 0)
(0.00204983460679 -0.114411828356 0)
(0.00170468052491 -0.115740073207 0)
(0.00137123525896 -0.116826905735 0)
(0.00104986823527 -0.117680828125 0)
(0.000740838300867 -0.118310561187 0)
(0.000444377966294 -0.118724990545 0)
(0.000160623090208 -0.118933128505 0)
(-0.000110309149806 -0.118944041647 0)
(-0.000368412552405 -0.118766862644 0)
(-0.000613672670008 -0.118410805395 0)
(-0.000846154046882 -0.117885010597 0)
(-0.00106592762813 -0.11719857026 0)
(-0.00127315046989 -0.116360487151 0)
(-0.0014679812247 -0.115379652393 0)
(-0.00165065365533 -0.114264811299 0)
(-0.00182140377117 -0.113024545119 0)
(-0.00198052858193 -0.111667237663 0)
(-0.00212832999937 -0.110201064193 0)
(-0.0022651527725 -0.108633960313 0)
(-0.00239135105295 -0.106973618842 0)
(-0.00250730004357 -0.105227461932 0)
(-0.00261339102181 -0.103402646338 0)
(-0.00271001165088 -0.101506039215 0)
(-0.00279757492757 -0.0995442315716 0)
(-0.00287646357514 -0.097523517903 0)
(-0.00294709787971 -0.095449917154 0)
(-0.00300984014465 -0.0933291558235 0)
(-0.0030651057052 -0.0911666952418 0)
(-0.00311322400018 -0.0889677174705 0)
(-0.00315459635269 -0.0867371573452 0)
(-0.00318951093576 -0.0844796901612 0)
(-0.00321834995605 -0.0821997665104 0)
(-0.00324135649324 -0.079901600651 0)
(-0.00325889271152 -0.0775892060403 0)
(-0.00327115758762 -0.0752663832914 0)
(-0.003278496425 -0.0729367541953 0)
(-0.00328106939643 -0.0706037484262 0)
(-0.00327921133315 -0.0682706340946 0)
(-0.00327305244111 -0.0659405027482 0)
(-0.00326292562019 -0.0636162948483 0)
(-0.00324894195488 -0.0613007831604 0)
(-0.00323144137231 -0.0589965920913 0)
(-0.00321052729659 -0.0567061802079 0)
(-0.0031865546438 -0.0544318529108 0)
(-0.00315962949452 -0.0521757453931 0)
(-0.00313012710358 -0.0499398286331 0)
(-0.00309816431133 -0.0477258945449 0)
(-0.00306413867701 -0.0455355558499 0)
(-0.00302818264583 -0.0433702351508 0)
(-0.00299071402728 -0.0412311595052 0)
(-0.00295188240317 -0.0391193552756 0)
(-0.00291212003084 -0.0370356383856 0)
(-0.00287159172787 -0.0349806163936 0)
(-0.00283073492991 -0.0329546753357 0)
(-0.00278972487164 -0.0309579902898 0)
(-0.002748991931 -0.028990509791 0)
(-0.00270871375466 -0.0270519757027 0)
(-0.00266929761082 -0.0251419061096 0)
(-0.00263091042405 -0.0232596257781 0)
(-0.00259391197158 -0.0214042493434 0)
(-0.00255842988328 -0.0195747244015 0)
(-0.00252472277945 -0.0177698195795 0)
(-0.00249278999017 -0.0159881838263 0)
(-0.00246260986514 -0.014228342798 0)
(-0.00243368763405 -0.0124887596375 0)
(-0.00240492402352 -0.010767769394 0)
(-0.00237353634693 -0.00906339000323 0)
(-0.00233312617425 -0.00737222425439 0)
(-0.00226808775027 -0.00568934136395 0)
(-0.00213402445573 -0.00392408756281 0)
(-0.00217912530095 -0.00217310475154 0)
(-0.00260239079505 -0.000727796532694 0)
(0.0150380426005 -0.00293718986987 0)
(0.0166512189151 -0.00994508484773 0)
(0.0165910653455 -0.0169156845133 -1.23177013853e-27)
(0.0163607419542 -0.0239024092528 0)
(0.0160499172958 -0.0307612637721 0)
(0.0156683740344 -0.0374690905512 0)
(0.0152226190482 -0.0439975226492 0)
(0.0147195931767 -0.0503208635002 0)
(0.014166621278 -0.0564164808843 0)
(0.0135711623621 -0.0622649944802 0)
(0.0129406062287 -0.0678502835214 0)
(0.0122820800171 -0.073159401735 0)
(0.0116023151028 -0.0781824125694 0)
(0.0109075313832 -0.0829121684502 0)
(0.0102033804125 -0.0873440549669 0)
(0.00949490459717 -0.0914757165002 0)
(0.00878654184075 -0.0953067802527 0)
(0.00808214047865 -0.0988385874076 0)
(0.00738500060842 -0.102073943517 0)
(0.00669792123519 -0.105016889336 0)
(0.00602325418751 -0.107672499954 0)
(0.00536296366266 -0.110046707666 0)
(0.00471867499443 -0.112146153552 0)
(0.0040917336683 -0.113978059799 0)
(0.00348323896331 -0.115550126123 0)
(0.0028940961965 -0.116870441167 0)
(0.00232503204032 -0.117947411386 0)
(0.00177663868045 -0.118789698975 0)
(0.00124937230987 -0.1194061708 0)
(0.000743590349097 -0.119805851871 0)
(0.000259535851241 -0.119997885597 0)
(-0.0002026241963 -0.119991496755 0)
(-0.000642818542292 -0.119795951291 0)
(-0.00106104723905 -0.119420530318 0)
(-0.00145740827462 -0.118874488582 0)
(-0.00183206030779 -0.118167026938 0)
(-0.00218524647513 -0.117307257045 0)
(-0.00251726848468 -0.116304173797 0)
(-0.00282850286304 -0.115166624038 0)
(-0.00311937901719 -0.113903282911 0)
(-0.00339038721861 -0.112522625536 0)
(-0.00364206353863 -0.11103290878 0)
(-0.00387498740389 -0.109442147192 0)
(-0.00408977621848 -0.107758101203 0)
(-0.00428707058388 -0.105988258235 0)
(-0.00446754139416 -0.104139827825 0)
(-0.00463186102346 -0.102219728301 0)
(-0.00478072562765 -0.100234588882 0)
(-0.00491481085052 -0.0981907417659 0)
(-0.00503481176345 -0.0960942306815 0)
(-0.00514138184805 -0.093950807923 0)
(-0.00523519270825 -0.0917659483182 0)
(-0.00531685530791 -0.0895448501848 0)
(-0.00538700117874 -0.087292453364 0)
(-0.00544618508923 -0.085013442801 0)
(-0.00549498897298 -0.0827122688956 0)
(-0.00553390542017 -0.0803931522063 0)
(-0.0055634649229 -0.078060104156 0)
(-0.00558409982864 -0.0757169313726 0)
(-0.00559629476634 -0.0733672549237 0)
(-0.00560043096589 -0.0710145128514 0)
(-0.00559695895339 -0.0686619762217 0)
(-0.00558622353149 -0.0663127489877 0)
(-0.00556865697825 -0.0639697797172 0)
(-0.0055445854729 -0.0616358582688 0)
(-0.00551444030739 -0.0593136225195 0)
(-0.00547854721756 -0.057005552201 0)
(-0.00543735238187 -0.0547139707403 0)
(-0.00539119686149 -0.0524410369789 0)
(-0.00534055368902 -0.050188742651 0)
(-0.00528579048434 -0.0479589034168 0)
(-0.00522741347465 -0.0457531531501 0)
(-0.00516582213274 -0.0435729356495 0)
(-0.00510155573555 -0.0414194968711 0)
(-0.00503504462505 -0.0392938791646 0)
(-0.00496685465847 -0.0371969127238 0)
(-0.00489744011498 -0.0351292134709 0)
(-0.00482738131673 -0.0330911749238 0)
(-0.0047571444643 -0.0310829708628 0)
(-0.00468730741575 -0.0291045484323 0)
(-0.0046183315137 -0.0271556362052 0)
(-0.00455077003268 -0.0252357388936 0)
(-0.00448505615356 -0.023344151033 0)
(-0.00442168692148 -0.0214799533711 0)
(-0.00436102830889 -0.0196420306124 0)
(-0.00430346230381 -0.0178290661541 0)
(-0.00424919926285 -0.0160395536765 0)
(-0.00419835908182 -0.0142717623616 0)
(-0.00415075057219 -0.012523673403 0)
(-0.00410582037215 -0.0107927484855 0)
(-0.00406233758709 -0.00907538398005 0)
(-0.00401825343957 -0.00736536759278 0)
(-0.00397097160427 -0.00565140193108 0)
(-0.00391710749609 -0.00389284729428 0)
(-0.00392638706541 -0.00211572579186 0)
(-0.0036824127332 -0.000561175512085 0)
(0.0214393826105 -0.00298242415728 0)
(0.0237574934842 -0.0100951401485 0)
(0.0236685614889 -0.0171610109549 1.2311975005e-27)
(0.0233349184939 -0.0242437184037 0)
(0.0228855233231 -0.0311932022383 0)
(0.0223348433208 -0.037984810655 0)
(0.0216923287942 -0.0445889990286 0)
(0.0209680756452 -0.0509793668402 0)
(0.0201727464554 -0.0571329308814 0)
(0.0193171981412 -0.0630302596012 0)
(0.0184121567157 -0.0686554331754 0)
(0.0174679375087 -0.0739959102024 0)
(0.0164942392578 -0.0790423129397 0)
(0.015499988614 -0.0837881576982 0)
(0.0144932550769 -0.0882295532116 0)
(0.0134812064662 -0.0923648872509 0)
(0.0124701182978 -0.0961945177589 0)
(0.0114654064738 -0.0997204802516 0)
(0.0104716929024 -0.102946220377 0)
(0.00949287794639 -0.105876355571 0)
(0.00853222702136 -0.108516468805 0)
(0.00759245271551 -0.11087293287 0)
(0.00667579737704 -0.112952764612 0)
(0.00578410605558 -0.114763504549 0)
(0.00491889155869 -0.116313119742 0)
(0.00408138981971 -0.117609924356 0)
(0.00327260339619 -0.118662515583 0)
(0.0024933385356 -0.119479719974 0)
(0.00174422939209 -0.120070548224 0)
(0.00102576033929 -0.120444155103 0)
(0.000338275891384 -0.120609801431 0)
(-0.000318003285944 -0.120576829495 0)
(-0.000942977410009 -0.120354609259 0)
(-0.00153666168096 -0.119952515496 0)
(-0.00209918794029 -0.119379900828 0)
(-0.00263079412757 -0.118646058155 0)
(-0.00313182300907 -0.117760188572 0)
(-0.00360271617357 -0.116731371198 0)
(-0.00404400865063 -0.115568532669 0)
(-0.00445632311458 -0.11428042062 0)
(-0.00484035970398 -0.112875576899 0)
(-0.00519689149136 -0.11136231603 0)
(-0.00552674909729 -0.109748703546 0)
(-0.00583081882985 -0.108042540531 0)
(-0.00611002199288 -0.106251348035 0)
(-0.00636531724704 -0.104382358432 0)
(-0.00659767467457 -0.102442506121 0)
(-0.00680808389888 -0.100438425756 0)
(-0.00699752307994 -0.0983764492324 0)
(-0.00716697417886 -0.0962626102056 0)
(-0.00731738710401 -0.0941026467182 0)
(-0.00744970335889 -0.0919020110567 0)
(-0.00756481552961 -0.0896658768934 0)
(-0.00766360029587 -0.0873991531386 0)
(-0.00774687344956 -0.0851064940524 0)
(-0.00781543289479 -0.0827923153636 0)
(-0.00787000923223 -0.0804608056483 0)
(-0.00791131895809 -0.0781159427526 0)
(-0.00794001051473 -0.0757615046438 0)
(-0.00795672737419 -0.0734010842373 0)
(-0.00796204922925 -0.0710380980347 0)
(-0.00795656412908 -0.0686757977775 0)
(-0.00794080441478 -0.0663172756152 0)
(-0.00791532651739 -0.0639654714257 0)
(-0.00788064118011 -0.0616231738807 0)
(-0.00783729924861 -0.0592930230212 0)
(-0.00778581596124 -0.056977507252 0)
(-0.00772676071367 -0.0546789614121 0)
(-0.00766067550999 -0.0523995605086 0)
(-0.00758816682793 -0.0501413141477 0)
(-0.00750981884016 -0.0479060582828 0)
(-0.00742628546918 -0.0456954473595 0)
(-0.00733819954356 -0.0435109456287 0)
(-0.00724626344065 -0.0413538185377 0)
(-0.00715115583553 -0.0392251252106 0)
(-0.00705361943474 -0.0371257105061 0)
(-0.00695436732416 -0.0350562000979 0)
(-0.00685416646247 -0.0330169943161 0)
(-0.00675374583333 -0.0310082668177 0)
(-0.0066538741878 -0.0290299609729 0)
(-0.00655527199851 -0.0270817924849 0)
(-0.00645868169801 -0.0251632483865 0)
(-0.00636478478089 -0.0232735931049 0)
(-0.00627426171166 -0.0214118687936 0)
(-0.00618771410011 -0.019576901674 0)
(-0.00610570975436 -0.0177672975934 0)
(-0.00602870775035 -0.0159814357471 0)
(-0.0059570855005 -0.0142174324096 0)
(-0.00589107675288 -0.0124730709984 0)
(-0.0058308260661 -0.0107456426145 0)
(-0.00577649973602 -0.00903167443982 0)
(-0.0057288241287 -0.00732642141 0)
(-0.00569067631816 -0.00562373953284 0)
(-0.00566918747871 -0.00391220325814 0)
(-0.00567521315599 -0.00222925814673 0)
(-0.00520624884176 -0.000632143104059 0)
(0.0279472638095 -0.00304181748401 0)
(0.0309721473353 -0.0102924179253 0)
(0.0308518239669 -0.0174904666146 0)
(0.0304095204671 -0.0247021804244 0)
(0.0298142683848 -0.0317726482441 0)
(0.029085669736 -0.0386755062277 0)
(0.0282366105366 -0.0453797775768 0)
(0.0272807764136 -0.0518581482074 0)
(0.0262325503016 -0.0580871942599 0)
(0.0251065141631 -0.0640474637934 0)
(0.0239170006325 -0.0697233718981 0)
(0.0226777213349 -0.0751029950908 0)
(0.0214014900347 -0.0801777821556 0)
(0.0201000293581 -0.0849422124257 0)
(0.018783865076 -0.0893934289421 0)
(0.017462286174 -0.0935308695067 0)
(0.016143367908 -0.0973559134223 0)
(0.0148340331774 -0.100871556257 0)
(0.0135401486797 -0.104082120433 0)
(0.0122666338448 -0.106993004945 0)
(0.0110175814825 -0.109610474788 0)
(0.00979637327353 -0.111941487725 0)
(0.00860579211424 -0.113993555039 0)
(0.0074481197965 -0.1157746313 0)
(0.00632522438635 -0.117293028335 0)
(0.00523863026717 -0.118557348141 0)
(0.00418957656468 -0.119576430038 0)
(0.00317906008175 -0.120359307913 0)
(0.00220786885777 -0.120915173802 0)
(0.00127660426429 -0.121253345624 0)
(0.000385697322948 -0.121383232936 0)
(-0.000464581070021 -0.121314323099 0)
(-0.00127411086416 -0.12105611617 0)
(-0.00204292220704 -0.120618119619 0)
(-0.00277119010888 -0.120009813083 0)
(-0.00345923110102 -0.11924061149 0)
(-0.0041074966861 -0.118319833288 0)
(-0.00471656960463 -0.117256668745 0)
(-0.00528715398001 -0.116060148854 0)
(-0.00582006958012 -0.114739116843 0)
(-0.00631623808621 -0.113302201179 0)
(-0.00677667583381 -0.111757792022 0)
(-0.00720247656462 -0.110114019943 0)
(-0.00759480376342 -0.108378738717 0)
(-0.00795487062196 -0.106559510695 0)
(-0.00828393330201 -0.1046635967 0)
(-0.0085832690017 -0.102697948395 0)
(-0.00885417141946 -0.100669205371 0)
(-0.00909792784823 -0.0985836943302 0)
(-0.00931581808783 -0.0964474328665 0)
(-0.00950909140075 -0.0942661347765 0)
(-0.00967896999078 -0.0920452194785 0)
(-0.00982662657678 -0.0897898222636 0)
(-0.00995319332993 -0.0875048078979 0)
(-0.0100597406522 -0.0851947841693 0)
(-0.0101472921439 -0.0828641178215 0)
(-0.0102168049294 -0.0805169494627 0)
(-0.0102691907872 -0.0781572097689 0)
(-0.0103052979084 -0.0757886336442 0)
(-0.0103259378455 -0.0734147746824 0)
(-0.0103318682176 -0.0710390166718 0)
(-0.0103238245081 -0.0686645844807 0)
(-0.0103025028245 -0.0662945514933 0)
(-0.0102685951474 -0.063931845725 0)
(-0.0102227710094 -0.0615792523929 0)
(-0.0101657145717 -0.0592394147973 0)
(-0.0100981040018 -0.0569148320157 0)
(-0.0100206486005 -0.0546078550822 0)
(-0.00993406509976 -0.0523206806255 0)
(-0.0098391133826 -0.0500553432519 0)
(-0.00973656914074 -0.0478137066773 0)
(-0.00962725707116 -0.0455974539906 0)
(-0.00951202009262 -0.0434080779178 0)
(-0.00939174938606 -0.0412468707207 0)
(-0.00926735072884 -0.0391149153817 0)
(-0.0091397711759 -0.0370130768139 0)
(-0.0090099635945 -0.0349419953936 0)
(-0.00887891002033 -0.0329020806848 0)
(-0.00874758556862 -0.0308935083003 0)
(-0.00861697853958 -0.0289162168989 0)
(-0.00848805489551 -0.0269699085722 0)
(-0.00836177504254 -0.0250540489411 0)
(-0.00823905973722 -0.0231678703297 0)
(-0.00812080321996 -0.0213103733016 0)
(-0.00800784144991 -0.0194803295322 0)
(-0.00790096212939 -0.0176762794884 0)
(-0.00780087903678 -0.0158965260419 0)
(-0.00770824830449 -0.0141391125417 0)
(-0.00762367504649 -0.0124017869112 0)
(-0.00754779600552 -0.0106819432077 0)
(-0.00748144942564 -0.00897656301471 0)
(-0.0074260795155 -0.00728223376483 0)
(-0.00738444821257 -0.00559565083118 0)
(-0.00735967868819 -0.00391285142519 0)
(-0.00732520625523 -0.00226681388576 0)
(-0.00660913808095 -0.000660809950133 0)
(0.0345995120387 -0.00311707606791 0)
(0.0383420824624 -0.0105449716144 0)
(0.0381857503242 -0.0179146183926 0)
(0.0376267588006 -0.0252925966187 0)
(0.0368752697559 -0.0325183018243 0)
(0.03595651778 -0.0395632740655 0)
(0.0348873881947 -0.0463947975454 0)
(0.0336857147961 -0.0529844582973 0)
(0.0323701171946 -0.0593083470426 0)
(0.0309593509078 -0.0653470804901 0)
(0.02947172314 -0.0710856087575 0)
(0.0279246208636 -0.0765129090694 0)
(0.0263341651779 -0.0816215925168 0)
(0.0247149850184 -0.0864074632768 0)
(0.02308010291 -0.0908690636741 0)
(0.0214409113737 -0.0950072319863 0)
(0.0198072247155 -0.0988246922754 0)
(0.0181873816947 -0.102325688682 0)
(0.016588384917 -0.10551567043 0)
(0.0150160562896 -0.10840102896 0)
(0.0134751997556 -0.110988885144 0)
(0.0119697567891 -0.113286921847 0)
(0.0105029516891 -0.115303255981 0)
(0.00907741783637 -0.117046343098 0)
(0.00769530654313 -0.118524907835 0)
(0.00635837393587 -0.119747893489 0)
(0.00506805053231 -0.120724425055 0)
(0.00382549160915 -0.121463780358 0)
(0.00263161460164 -0.121975365725 0)
(0.00148712276723 -0.122268692976 0)
(0.0003925213933 -0.122353351021 0)
(-0.000651875208962 -0.122239004766 0)
(-0.00164593057055 -0.121935312668 0)
(-0.00258969295419 -0.121451949509 0)
(-0.00348338653317 -0.12079855368 0)
(-0.00432741017332 -0.119984694712 0)
(-0.00512233115007 -0.119019840095 0)
(-0.00586887964138 -0.117913321722 0)
(-0.00656793850887 -0.116674303475 0)
(-0.00722053399722 -0.115311750669 0)
(-0.00782782126486 -0.113834401918 0)
(-0.00839107190268 -0.112250743945 0)
(-0.00891165606513 -0.110568989583 0)
(-0.00939102813389 -0.10879705955 0)
(-0.00983070670859 -0.106942567729 0)
(-0.0102322598907 -0.105012810598 0)
(-0.0105972845088 -0.10301476026 0)
(-0.0109273925062 -0.100955061587 0)
(-0.0112241907107 -0.0988400326971 0)
(-0.0114892696906 -0.096675669348 0)
(-0.0117241853284 -0.0944676520697 0)
(-0.011930451402 -0.0922213567295 0)
(-0.012109524056 -0.0899418670637 0)
(-0.0122627991364 -0.087633989758 0)
(-0.0123916004334 -0.0853022706233 0)
(-0.0124971824562 -0.082951012168 0)
(-0.0125807229368 -0.080584291233 0)
(-0.0126433312516 -0.0782059768173 0)
(-0.0126860451005 -0.0758197467429 0)
(-0.0127098441355 -0.0734291034059 0)
(-0.0127156501386 -0.0710373873237 0)
(-0.012704344728 -0.0686477887784 0)
(-0.012676771744 -0.0662633564749 0)
(-0.0126337574945 -0.0638870038651 0)
(-0.0125761134579 -0.0615215117147 0)
(-0.0125046571626 -0.0591695287749 0)
(-0.0124202135541 -0.0568335686435 0)
(-0.0123236344213 -0.0545160048251 0)
(-0.0122157969452 -0.0522190628918 0)
(-0.0120976202184 -0.0499448114635 0)
(-0.0119700598341 -0.0476951513603 0)
(-0.0118341205528 -0.0454718042864 0)
(-0.0116908466986 -0.0432763009659 0)
(-0.0115413307099 -0.0411099697378 0)
(-0.0113866996367 -0.0389739256558 0)
(-0.0112281198742 -0.03686906067 0)
(-0.0110667806504 -0.0347960354273 0)
(-0.0109038957214 -0.032755272512 0)
(-0.0107406849733 -0.0307469518788 0)
(-0.0105783737902 -0.0287710077411 0)
(-0.0104181739899 -0.0268271278717 0)
(-0.0102612818085 -0.0249147541248 0)
(-0.0101088593135 -0.023033084743 0)
(-0.00996203194549 -0.0211810770378 0)
(-0.00982187242058 -0.0193574507213 0)
(-0.00968940062774 -0.01756068938 0)
(-0.00956557582305 -0.0157890406271 0)
(-0.00945131022209 -0.0140405121415 0)
(-0.00934749188812 -0.0123128674654 0)
(-0.00925505180353 -0.0106036318355 0)
(-0.00917507855379 -0.00891014538015 0)
(-0.00910900652666 -0.00722971027241 0)
(-0.00905872717078 -0.00556002369837 0)
(-0.00902417873054 -0.00389825775068 0)
(-0.00896165769298 -0.00227277860296 0)
(-0.0080512640446 -0.000667185249682 0)
(0.041433107779 -0.00321030559467 0)
(0.0459091977704 -0.0108585182516 0)
(0.0457104077346 -0.0184417918436 1.22161042216e-27)
(0.0450238597198 -0.026026097154 0)
(0.0441023223215 -0.0334436904756 0)
(0.0429773346974 -0.0406634788212 0)
(0.0416704995895 -0.0476506381442 0)
(0.0402045215938 -0.0543754814327 0)
(0.0386029290798 -0.0608136268883 0)
(0.0368892326436 -0.0669459329264 0)
(0.0350861832247 -0.0727581830745 0)
(0.0332151899954 -0.0782406399465 0)
(0.0312959092182 -0.0833875103416 0)
(0.0293459949119 -0.0881963721583 0)
(0.027380993313 -0.0926676048473 0)
(0.0254143540317 -0.096803854414 0)
(0.023457530919 -0.100609553917 0)
(0.021520143806 -0.104090510623 0)
(0.0196101777112 -0.1072535638 0)
(0.017734197604 -0.110106311111 0)
(0.0158975636933 -0.112656897991 0)
(0.0141046340538 -0.114913861863 0)
(0.0123589476723 -0.116886022121 0)
(0.0106633818481 -0.118582406328 0)
(0.00902028307458 -0.120012203562 0)
(0.0074315702842 -0.121184736631 0)
(0.00589881343675 -0.122109445739 0)
(0.00442328927097 -0.122795877849 0)
(0.00300601927238 -0.123253677029 0)
(0.00164779250156 -0.123492573055 0)
(0.000349178865923 -0.123522359993 0)
(-0.000889470695981 -0.12335291085 0)
(-0.00206800546066 -0.122994068486 0)
(-0.00318649513512 -0.122455709625 0)
(-0.00424521697814 -0.121747663681 0)
(-0.00524465728168 -0.120879688652 0)
(-0.00618550586735 -0.119861434298 0)
(-0.00706864926086 -0.11870240648 0)
(-0.00789515971694 -0.117411932262 0)
(-0.00866628286343 -0.115999127183 0)
(-0.00938342135893 -0.114472865052 0)
(-0.0100481180637 -0.112841751073 0)
(-0.0106620357585 -0.111114098601 0)
(-0.0112269375198 -0.109297909861 0)
(-0.0117446642934 -0.107400860936 0)
(-0.0122171143263 -0.105430290885 0)
(-0.0126462203352 -0.103393195233 0)
(-0.0130339297424 -0.101296223541 0)
(-0.0133821831091 -0.0991456811764 0)
(-0.0136928968141 -0.0969475347895 0)
(-0.0139679442736 -0.0947074213905 0)
(-0.01420914257 -0.0924306606778 0)
(-0.0144182378584 -0.0901222699882 0)
(-0.0145968972323 -0.0877869817528 0)
(-0.0147466994307 -0.0854292624323 0)
(-0.0148691328263 -0.0830533327159 0)
(-0.0149655920944 -0.0806631880922 0)
(-0.0150373826537 -0.0782626191841 0)
(-0.0150857232146 -0.075855231207 0)
(-0.0151117561638 -0.0734444618135 0)
(-0.0151165551793 -0.0710335967772 0)
(-0.0151011402643 -0.0686257831492 0)
(-0.0150664885683 -0.0662240387884 0)
(-0.0150135521043 -0.063831259458 0)
(-0.0149432696779 -0.0614502215437 0)
(-0.0148565846372 -0.0590835817899 0)
(-0.0147544556659 -0.0567338736483 0)
(-0.0146378721898 -0.0544035003551 0)
(-0.0145078618203 -0.0520947257988 0)
(-0.014365501758 -0.049809663035 0)
(-0.0142119213981 -0.0475502614631 0)
(-0.0140483085974 -0.0453182929043 0)
(-0.0138759071155 -0.0431153377253 0)
(-0.0136960175414 -0.0409427709206 0)
(-0.0135099898944 -0.0388017494076 0)
(-0.0133192199595 -0.036693200366 0)
(-0.0131251379913 -0.0346178114827 0)
(-0.0129292015918 -0.0325760229648 0)
(-0.0127328820104 -0.0305680220344 0)
(-0.0125376548909 -0.0285937393498 0)
(-0.0123449855776 -0.0266528478031 0)
(-0.0121563191903 -0.0247447632904 0)
(-0.0119730665638 -0.0228686473348 0)
(-0.0117965953191 -0.0210234111262 0)
(-0.0116282187834 -0.019207720795 0)
(-0.0114691914336 -0.0174200033628 0)
(-0.0113207059197 -0.0156584540373 0)
(-0.0111839011634 -0.0139210449383 0)
(-0.0110598806073 -0.0122055423756 0)
(-0.0109497495114 -0.010509541609 0)
(-0.0108546670643 -0.00883053745386 0)
(-0.0107758926295 -0.0071660696984 0)
(-0.0107146209221 -0.00551398299123 0)
(-0.0106689324783 -0.00387103430874 0)
(-0.0105843909266 -0.00226266566067 0)
(-0.00949602355449 -0.000665933339057 0)
(0.0484890957948 -0.00332362103219 0)
(0.0537186073431 -0.0112396983751 0)
(0.053468987498 -0.0190825062905 -1.22095957665e-27)
(0.0526407877003 -0.0269167357936 0)
(0.0515313720716 -0.0345657439097 0)
(0.0501795297551 -0.0419951544316 0)
(0.0486125408956 -0.0491676193008 0)
(0.0468589286499 -0.0560520344267 0)
(0.0449479980186 -0.0626236412091 0)
(0.0429087525291 -0.0688638313713 0)
(0.0407689667634 -0.0747596563451 0)
(0.0385544849049 -0.0803031880199 0)
(0.0362887515609 -0.0854907926256 0)
(0.0339925571027 -0.0903223843612 0)
(0.0316839663185 -0.0948007099343 0)
(0.0293783912866 -0.0989306999876 0)
(0.027088768997 -0.102718908349 0)
(0.0248258059212 -0.106173047968 0)
(0.0225982582711 -0.109301622922 0)
(0.0204132216485 -0.112113649463 0)
(0.0182764116305 -0.114618455352 0)
(0.0161924211189 -0.116825544678 0)
(0.014164946736 -0.118744515148 0)
(0.0121969789788 -0.12038501475 0)
(0.0102909557703 -0.121756726535 0)
(0.00844887975861 -0.122869370332 0)
(0.00667240358282 -0.123732713326 0)
(0.00496288681252 -0.124356581826 0)
(0.00332143093822 -0.124750869815 0)
(0.00174889696742 -0.124925540227 0)
(0.00024591465058 -0.124890613085 0)
(-0.0011871326828 -0.124656197392 0)
(-0.00255008102199 -0.12423234484 0)
(-0.00384302148276 -0.123629168681 0)
(-0.0050662870455 -0.122856723405 0)
(-0.00622045626981 -0.121924991102 0)
(-0.00730634895418 -0.120843839477 0)
(-0.0083250182941 -0.119622982873 0)
(-0.0092777388803 -0.118271944234 0)
(-0.0101659912581 -0.116800019337 0)
(-0.0109914430882 -0.115216244008 0)
(-0.0117559278712 -0.113529365091 0)
(-0.0124614213643 -0.111747815638 0)
(-0.0131100167979 -0.109879694537 0)
(-0.0137038988599 -0.107932750839 0)
(-0.0142453177068 -0.10591437279 0)
(-0.0147365626433 -0.103831581675 0)
(-0.0151799369915 -0.10169103021 0)
(-0.0155777334261 -0.0994990054668 0)
(-0.0159322116395 -0.097261436063 0)
(-0.0162455771576 -0.0949839032283 0)
(-0.016519963562 -0.0926716555879 0)
(-0.0167574165358 -0.090329626861 0)
(-0.0169598821744 -0.0879624563391 0)
(-0.0171291977172 -0.0855745110781 0)
(-0.0172670871067 -0.0831699095765 0)
(-0.0173751592529 -0.0807525456782 0)
(-0.0174549113222 -0.0783261124322 0)
(-0.0175077345122 -0.0758941246484 0)
(-0.0175349246028 -0.0734599397483 0)
(-0.0175376942272 -0.0710267757694 0)
(-0.0175171888985 -0.0685977264575 0)
(-0.0174745036973 -0.0661757725509 0)
(-0.0174107023619 -0.0637637890681 0)
(-0.0173268354651 -0.0613645482551 0)
(-0.0172239595211 -0.0589807186876 0)
(-0.0171031535622 -0.0566148600032 0)
(-0.0169655353356 -0.054269414719 0)
(-0.0168122735504 -0.0519466961004 0)
(-0.0166445989043 -0.0496488745804 0)
(-0.0164638103059 -0.0473779616777 0)
(-0.0162712793751 -0.045135793374 0)
(-0.0160684501236 -0.0429240132028 0)
(-0.0158568369609 -0.0407440557454 0)
(-0.0156380181585 -0.0385971311973 0)
(-0.015413628481 -0.0364842117698 0)
(-0.0151853477875 -0.0344060199578 0)
(-0.0149548897727 -0.0323630193129 0)
(-0.01472398759 -0.0303554078419 0)
(-0.0144943805221 -0.0283831138364 0)
(-0.0142677984034 -0.0264457945515 0)
(-0.0140459481989 -0.0245428373269 0)
(-0.0138304991273 -0.0226733629256 0)
(-0.0136230710269 -0.0208362311705 0)
(-0.0134252226473 -0.0190300485924 0)
(-0.0132384445736 -0.0172531780871 0)
(-0.0130641543909 -0.0155037517719 0)
(-0.0129036985633 -0.0137796879961 0)
(-0.0127583595527 -0.0120787165618 0)
(-0.0126293692578 -0.0103984185128 0)
(-0.0125179193808 -0.00873629988059 0)
(-0.0124251407253 -0.00708987718285 0)