/*--------------------------------*- C++ -*----------------------------------*\
| =========                 |                                                 |
| \\      /  F ield         | OpenFOAM: The Open Source CFD Toolbox           |
|  \\    /   O peration     | Version:  v1906                                 |
|   \\  /    A nd           | Web:      www.OpenFOAM.com                      |
|    \\/     M anipulation  |                                                 |
\*---------------------------------------------------------------------------*/
FoamFile
{
    version     2.0;
    format      ascii;
    class       surfaceScalarField;
    location    "334";
    object      phia;
}
// * * * * * * * * * * * * * * * * * * * * * * * * * * * * * * * * * * * * * //

dimensions      [0 3 -1 0 0 0 0];
oriented        oriented;


internalField   nonuniform List<scalar> 
18240
(
0.000859971402304
-0.000859602263045
0.00175809825562
-0.000897652690203
0.00265522084498
-0.00089676275771
0.00354554593577
-0.000889826454258
0.00442574181124
-0.000879860950656
0.00529345053427
-0.000867186132456
0.00614591861862
-0.000852159869977
0.00698126880923
-0.000834804187625
0.0077969825323
-0.000815433373814
0.00859157229331
-0.000794021466441
0.00936274297705
-0.000770920017641
0.0101094049245
-0.000746072893762
0.010829492263
-0.00071986753766
0.0115223091878
-0.000692209176493
0.0121860055325
-0.00066350940768
0.0128202527778
-0.000633623371753
0.0134233811791
-0.000602975499931
0.0139953801444
-0.000571362145929
0.0145347081157
-0.000539211116339
0.0150416089044
-0.000506254659435
0.0155146077267
-0.00047291890075
0.0159541313641
-0.000438872342702
0.0163587107333
-0.000404538025166
0.0167288883051
-0.000369525533637
0.0170631489726
-0.000334258122163
0.0173620934981
-0.000298296501954
0.0176241261646
-0.000262069810589
0.0178498680373
-0.00022510270657
0.0180376307943
-0.000187838856791
0.0181880395791
-0.00014978350582
0.0182993285265
-0.000111403906442
0.018372135552
-7.22006257266e-05
0.0184046594595
-3.26759119131e-05
0.0183975916504
7.65029946521e-06
0.01834917309
4.82307505152e-05
0.0182602176662
8.95092657829e-05
0.0181291135582
0.000130883535677
0.0179568915591
0.000172742769964
0.0177422171581
0.000214423716367
0.0174864538017
0.000256247438691
0.0171886895449
0.000297488017069
0.0168507449738
0.000338389331643
0.0164722807323
0.000378166742365
0.0160557013869
0.00041698358611
0.0156013846491
0.000454003860993
0.0151124370468
0.000489311557866
0.0145900816436
0.000522032273826
0.0140382254989
0.000552181557151
0.013459027204
0.000578870662907
0.0128572397074
0.000602077123483
0.0122359643938
0.00062094738892
0.0116007360085
0.000635485224658
0.0109554556958
0.000644955728166
0.0103061953221
0.000649486174284
0.00965730863796
0.000648566659427
0.00901495152097
0.000642551769729
0.00838338972447
0.000631247242186
0.00776825251376
0.000615299462232
0.00717308422421
0.000594859423203
0.00660236969357
0.000570843801181
0.00605839914539
0.000543668700686
0.00554412061197
0.00051437621081
0.00506037260525
0.000483455148897
0.00460857601231
0.000451866377591
0.00418830508734
0.000419990290942
0.00379977255279
0.000388579729219
0.00344166875661
0.000357837995821
0.00311340346297
0.00032829559052
0.00281315857885
0.000299995823166
0.00253988736219
0.000273289372388
0.00229154821724
0.000248107078248
0.00206688395358
0.000224673275691
0.001863818313
0.000202849805685
0.00168104514574
0.000182774150757
0.00151657708338
0.000164266473739
0.00136916775314
0.000147402363305
0.00123700039408
0.000131978296216
0.00111896035806
0.000118025542082
0.00101345679662
0.000105326068998
0.000919573368271
9.38634534217e-05
0.000836049982631
8.33579615311e-05
0.000762440505967
7.35844445782e-05
0.000698630365003
6.36550048045e-05
0.000647966600381
5.06354566438e-05
0.000602009711903
4.58144489974e-05
0.000554149319246
4.78190194554e-05
0.00051103182247
4.29773152563e-05
0.000473547631979
3.74187986921e-05
0.000434472082425
3.89242062673e-05
0.000389409534825
4.49570390727e-05
0.000341484275105
4.77430220533e-05
0.000290809381645
5.05119978186e-05
0.000231501195163
5.91051125227e-05
0.000159681736896
7.15812612968e-05
7.70623184948e-05
8.23302102715e-05
7.69201573121e-05
0.000903461355707
-0.00176265503103
0.00186600132765
-0.00185974111242
0.0028222214215
-0.00185255643001
0.00376961330578
-0.00183675756646
0.00470574950772
-0.00181557804463
0.00562825467572
-0.00178922526458
0.00653452406921
-0.00175801796753
0.00742234348489
-0.00172215338265
0.00828932235084
-0.00168200993579
0.00913357702491
-0.00163780304623
0.00995300575712
-0.00158995670072
0.010746092637
-0.00153868540277
0.0115110409219
-0.00148443591792
0.0122467022299
-0.00142739682354
0.0129515706163
-0.0013680118106
0.0136248366291
-0.00130641875425
0.0142652453499
-0.00124303454745
0.0148722741763
-0.00117792608651
0.0154448600782
-0.00111146582088
0.0159826989981
-0.00104363738804
0.0164848498344
-0.000974759663206
0.0169511523093
-0.000904730512572
0.0173807170262
-0.000833816015008
0.017773456699
-0.000761836017838
0.0181284730143
-0.000689013566251
0.0184456940838
-0.000615106781122
0.018724170001
-0.000540312620244
0.0189638068342
-0.00046435029139
0.0191635837198
-0.000387412429407
0.0193233713511
-0.000309206489929
0.0194420871576
-0.000229947552459
0.0195195861368
-0.000149362383979
0.0195547642202
-6.77143490649e-05
0.0195475059097
1.52157939577e-05
0.0194967580736
9.90851258009e-05
0.0194025167327
0.000184025579254
0.0192638856904
0.000269587641184
0.0190810832212
0.000355786337168
0.0188535023721
0.000442044800703
0.018581716238
0.000528239988396
0.018265555743
0.000613657185619
0.0179060918968
0.000698025068786
0.017503747093
0.000780491140664
0.0170602338038
0.000860635546186
0.0165767145828
0.000937476723216
0.0160556790429
0.00101045487502
0.0154991652191
0.00107847778656
0.0149105568706
0.00114086998937
0.0142928702509
0.00119647114562
0.0136504501697
0.00124455329805
0.0129873133304
0.0012839843898
0.0123087165479
0.00131411758564
0.0116195381458
0.00133402356121
0.0109256963792
0.00134334498646
0.0102325596826
0.00134158336563
0.00954621419379
0.00132889601526
0.0088719186263
0.00130541329778
0.00821524449301
0.00127195342703
0.00758061801839
0.00122934675976
0.00697238297235
0.00117903950229
0.00639350585973
0.00112239783035
0.0058466417672
0.00106118338659
0.00533307476571
0.000996867984593
0.0048538055679
0.000931065031031
0.00440868604855
0.000864953569468
0.00399745752756
0.00079972904864
0.0036189959456
0.000736145481835
0.00327224561924
0.000674962688396
0.00295552994524
0.000616562719577
0.00266737020405
0.000561365321046
0.0024058448469
0.000509490736968
0.00216930436107
0.00046113112534
0.00195577800792
0.000416241516238
0.00176360543439
0.00037486510334
0.00159089447733
0.000336848623738
0.00143608229871
0.000302132954475
0.00129744026059
0.000270496071684
0.00117356936756
0.000241814489682
0.00106294472607
0.00021583071562
0.000964341408395
0.000192385010019
0.000876385211784
0.000171198804966
0.000797816335255
0.000152070928477
0.000726682413448
0.000134678022524
0.000658313928495
0.00011892313159
0.000597653833653
0.000106374764265
0.000544668313108
0.000100720029774
0.000499824085605
8.77142908698e-05
0.000461680266739
7.54654699953e-05
0.000425009216527
7.54760549297e-05
0.000385954197006
8.38807394017e-05
0.000340267219922
9.32701882275e-05
0.000289482860369
0.000101127946253
0.00023336775972
0.000115017367894
0.000165834556843
0.000138875067977
8.13870264808e-05
0.000166515454017
0.000158175499097
0.000912911716715
-0.00267515188047
0.00188012398929
-0.00282650615697
0.0028429530087
-0.00281494676816
0.00379716745927
-0.00279052351874
0.00474002008536
-0.00275799344317
0.00566894861382
-0.00271770548803
0.00658139213715
-0.0026700271265
0.0074750117419
-0.00261532531116
0.00834750574755
-0.00255407348429
0.00919685543282
-0.00248670688513
0.0100210814375
-0.00241375774997
0.0108185234778
-0.00233568501952
0.0115875424681
-0.00225303706789
0.0123268369307
-0.00216625425973
0.0130350929962
-0.00207585937879
0.013711338145
-0.00198223453661
0.0143545408379
-0.00188584026585
0.0149640022312
-0.00178696838038
0.0155389090729
-0.00168598997498
0.0160787641674
-0.00158308641104
0.0165828966026
-0.00147852621069
0.0170509318146
-0.00137237562741
0.0174822648398
-0.00126480289696
0.0178765699858
-0.00115576992509
0.0182332420687
-0.00104536170465
0.0185519446453
-0.000933459869896
0.0188320249526
-0.000820093920214
0.0190730980918
-0.000705098347649
0.0192744403724
-0.000588482720424
0.0194356062424
-0.000470074233246
0.0195558061285
-0.000349904764244
0.0196345515035
-0.000227838816178
0.0196710230445
-0.000103974063722
0.0196647399154
2.17366736123e-05
0.0196149244324
0.000149079988332
0.0195211893252
0.000277965777996
0.0193829040247
0.000408019266749
0.019199892329
0.000538969517219
0.018971804953
0.000670245140256
0.0186988181201
0.000801364694525
0.0183810150042
0.000931540912787
0.0180190756934
0.00106006947181
0.0176136713536
0.0011859452478
0.017166137073
0.00130824398909
0.0166778827779
0.00142575266868
0.0161510430794
0.00153734036796
0.0155879097598
0.00164160764478
0.0149915518199
0.00173724865647
0.0143652672124
0.00182273100708
0.0137131586548
0.00189666112534
0.0130395888959
0.00195751174013
0.0123496846904
0.00200400319216
0.0116487664709
0.00203488472019
0.0109427526192
0.0020493244766
0.0102375454008
0.00204671985692
0.00953933390486
0.00202705793743
0.00885394985078
0.00199071314149
0.00818709424787
0.00193874369614
0.00754370076694
0.00187264214106
0.00692813884025
0.00179451994624
0.00634367426625
0.00170675089442
0.00579277426764
0.00161198779671
0.00527678326477
0.00151273730148
0.00479636098411
0.0014113822395
0.00435130124398
0.00130988676812
0.00394098302701
0.00120993774649
0.00356421718029
0.00111278456231
0.00321963684791
0.00101943337717
0.00290553667626
0.000930539408395
0.00262019539469
0.000846599978355
0.00236170213161
0.000767865761434
0.00212822054876
0.000694510203979
0.00191781302564
0.000626536090504
0.00172866845737
0.000563910357417
0.00155893925407
0.000506468596493
0.00140694084632
0.000454033763577
0.00127099814685
0.000406331963907
0.00114961497363
0.000363101105443
0.00104132335063
0.000324017612805
0.000944814029134
0.000288798717615
0.000858763318964
0.000257147121731
0.000781865086498
0.000228874432359
0.000712513824491
0.000203927874306
0.000647962291187
0.000183385223531
0.000589378762884
0.000164863077092
0.000539759129582
0.000150244401065
0.000490029658969
0.00013733692774
0.000440764664493
0.000124624380971
0.000400901972627
0.000115219830513
0.00036860160359
0.000116044672977
0.000323192083395
0.000138519131753
0.000266244088453
0.000157902374798
0.000205927834944
0.000175142403752
0.000138344370626
0.000206239165997
7.06200597796e-05
0.000234006418026
0.000228679343732
0.000921734307211
-0.00359647011515
0.00189673838122
-0.0038010719963
0.00286763735426
-0.00378540306523
0.00382984216575
-0.00375228525412
0.00478046901213
-0.00370817926015
0.00571682702195
-0.00365362080084
0.00663632347515
-0.00358908446192
0.00753653907871
-0.00351509966947
0.00841517946558
-0.00343227754599
0.00927016207089
-0.00334125097667
0.0100995442875
-0.00324270774001
0.0109016155396
-0.00313732210347
0.0116748022006
-0.00302579748558
0.0124177653415
-0.00290878955526
0.0131292832709
-0.00278695907283
0.0138083557022
-0.00266088772731
0.0144540655439
-0.00253114241239
0.0150656908744
-0.00239818565943
0.0156425483971
-0.0022624528857
0.0161841152783
-0.00212425917405
0.0166898579555
-0.00198389025206
0.0171593664717
-0.00184150681807
0.0175921725769
-0.00169724903222
0.0179878987351
-0.0015511383577
0.0183460692811
-0.00140319379192
0.0186662752962
-0.00125333049722
0.0189479814749
-0.00110148562329
0.0191907067181
-0.000947513075954
0.0193938289904
-0.00079131699343
0.0195567810827
-0.00063274304587
0.0196788557616
-0.000471719986042
0.0197594156874
-0.000308144795536
0.0197977019437
-0.000142031385507
0.0197930582801
2.66031598352e-05
0.0197447451242
0.000197590177724
0.0196521762312
0.000370725094465
0.0195147399599
0.000545619676079
0.0193320449399
0.000721821921141
0.0191037480228
0.000898673254234
0.0188298034007
0.0010754338735
0.018510295241
0.00125114793649
0.0181456841575
0.00142477325363
0.0177366429586
0.00159505449145
0.0172842961907
0.0017606532759
0.01679006053
0.00192002752041
0.0162558772242
0.00207155821223
0.0156840614959
0.00221343634118
0.0150775281862
0.00234379124893
0.0144396497065
0.00246059922909
0.0137744641349
0.00256183409369
0.0130865217155
0.00264542444034
0.0123810413018
0.0027094525816
0.0116637030486
0.00275217665289
0.0109407094912
0.0027722706983
0.0102184936864
0.00276887416933
0.00950367983162
0.00274180926592
0.0088027255482
0.00269159119691
0.0081218060032
0.00261958546176
0.00746641543941
0.00252794120383
0.0068412183377
0.00241962284312
0.00624971388408
0.00229814892917
0.00569426941451
0.00216732420012
0.00517607916981
0.0020308107477
0.00469543224792
0.00189191339521
0.00425182061573
0.00175337740383
0.00384422319424
0.00161741717559
0.00347118012787
0.00148570705755
0.00313100292621
0.00135949440022
0.00282180084415
0.00123962475872
0.00254162951873
0.00112666000554
0.00228847461454
0.00102090970098
0.00206035000648
0.000922529182362
0.00185525988729
0.000831520456979
0.00167128219541
0.000747786364432
0.00150653720446
0.000671110914669
0.0013592619429
0.000601209232598
0.00122777566432
0.000537717139649
0.00111053784672
0.000480240198892
0.00100610714506
0.000428348574697
0.000913180066572
0.000381628203023
0.000830539831651
0.000339689559276
0.000757078061713
0.000302239754966
0.000691743495963
0.000269167497784
0.000633494177594
0.000241540639727
0.000577240511038
0.000221023150318
0.000523581636522
0.000203800090674
0.000471724628416
0.000189083215844
0.000424929760265
0.00017130438842
0.000376220052374
0.000163804752094
0.000324978897626
0.000167148733303
0.0002869791128
0.000176367483047
0.000232594434864
0.000212115514578
0.000167027750812
0.000240521729385
0.000110872661688
0.000262203893507
5.75458313134e-05
0.000287129695052
0.000286115497613
0.000932829084662
-0.00452888603136
0.001918975455
-0.00478677638448
0.00290089528689
-0.00476688356394
0.00387387492554
-0.00472482323885
0.00483492413812
-0.00466878879126
0.0057812447564
-0.00459950114178
0.00671017419089
-0.00451757530218
0.00761922061358
-0.00442370740836
0.00850605703693
-0.00431867752176
0.00936855753709
-0.00420331550488
0.0102047801713
-0.00407849758288
0.0110129987815
-0.00394510908782
0.0117916724842
-0.00380404381963
0.0125394727338
-0.00365616452864
0.0132552397369
-0.0035023063585
0.0139380053615
-0.00334323676742
0.0145869375992
-0.00317966498957
0.0152013608216
-0.00301220358692
0.0157806908195
-0.0028413860362
0.0163244551413
-0.00266763225677
0.0168322222475
-0.00249127604803
0.0173036255514
-0.00231253575924
0.0177382909671
-0.0021315515488
0.0181358680102
-0.00194836069029
0.0184959589686
-0.00176294289285
0.0188181590244
-0.00157519814971
0.0191019890109
-0.00138499742946
0.0193469449337
-0.00119216138047
0.0195524350102
-0.000996514840893
0.0197178385612
-0.000797866039653
0.0198424488148
-0.000596066206594
0.0199255414802
-0.000390986018915
0.0199663252509
-0.000182581089683
0.019964021978
2.91270740537e-05
0.0199178268238
0.000243987936128
0.0198269999579
0.000461740656582
0.0196908369454
0.000681953123411
0.0195087698759
0.000904045288747
0.0192803458367
0.00112723543568
0.0190053324376
0.00135057147175
0.0186836994857
0.00157288742717
0.0183157227455
0.00179284294388
0.0179019647103
0.00200888844147
0.0174433732711
0.00221930761712
0.0169412624714
0.00242218501127
0.0163974101385
0.00261544481514
0.015814047256
0.00279681825012
0.0151939630263
0.00296388296731
0.0145405089155
0.00311404731871
0.0138577057599
0.00324462126191
0.0131502409188
0.00335286150707
0.0124235333991
0.00343612405773
0.0116836586816
0.00349200463258
0.0109373007502
0.00351857507146
0.0101915501846
0.00351456144038
0.00945373634433
0.00347955428986
0.00873113893838
0.00341411062154
0.00803072210804
0.00331991815345
0.00735875813761
0.0031998112161
0.00672045630513
0.00305782312418
0.00611958142598
0.00289891330429
0.00555838418406
0.00272840654966
0.00503771041196
0.00255136406958
0.00455732269752
0.00237218082717
0.00411618475659
0.00219439265021
0.00371275265649
0.00202072879971
0.00334513202542
0.00185320703636
0.00301124266757
0.00169326665047
0.00270889983574
0.00154185219533
0.00243591210803
0.00139953703568
0.00219009888769
0.00126661473859
0.00196932515798
0.00114319907115
0.00177148814852
0.00102925516104
0.00159455442295
0.0009246202154
0.00143656931551
0.000828996480362
0.00129569672205
0.00074198358641
0.00117022021441
0.000663095189368
0.00105857004777
0.00059179305642
0.000959317178179
0.000527504027124
0.000871191676699
0.0004696575063
0.000793077864013
0.000417707736144
0.000724065264256
0.000371159321704
0.000663435424542
0.000329702103261
0.000612525234913
0.000292359170177
0.000562328249608
0.000271120756874
0.00051180493913
0.000254216255903
0.000459393313071
0.000241379823734
0.000397429713805
0.000233146628433
0.000339423607943
0.000221683050657
0.000285464250452
0.000220968584844
0.000240772131713
0.000220911095327
0.000201126282928
0.000251598930466
0.000143636279373
0.000297842190265
8.90394992557e-05
0.000316622205676
4.50924942635e-05
0.000330892107538
0.00033111823079
0.000946641640161
-0.00547511551499
0.00194711056409
-0.00578681366701
0.00294311440538
-0.00576244804065
0.00392980019862
-0.00571107155972
0.00490406789982
-0.00564261827291
0.0058630047531
-0.00555800058747
0.00680385749891
-0.00545799100548
0.00772405344281
-0.00534346710938
0.00862121245425
-0.00521540135324
0.00949316584964
-0.00507483507418
0.010337958439
-0.00492285820805
0.0111538596897
-0.00476058059038
0.0119393548266
-0.00458911210382
0.0126931474855
-0.00440953357023
0.0134141398047
-0.0042228791262
0.0141014268893
-0.00403010874665
0.014754266848
-0.00383209526403
0.0153720686125
-0.00362960139595
0.0159543542756
-0.00342327455891
0.0165007435205
-0.0032136314657
0.0170109124889
-0.00300106326409
0.0174845794843
-0.00278582944172
0.0179214652198
-0.00256807364927
0.0183212841967
-0.00234782579967
0.0186837100844
-0.00212502597194
0.0190083751256
-0.00189953136093
0.0192948418298
-0.00167114461183
0.0195426104369
-0.0014396226021
0.0197510967275
-0.00120470724706
0.0199196471888
-0.000966135775178
0.0200475236477
-0.000723676505402
0.0201339269966
-0.000477137283682
0.02017799093
-0.000226408417448
0.0201788176711
2.85222198408e-05
0.0201354831579
0.000287528251774
0.0200470861259
0.000550328418565
0.019912765716
0.000816447866469
0.0197317624316
0.00108520786362
0.019503444789
0.00135569600899
0.0192273763511
0.00162676803842
0.0189033442562
0.00189703144308
0.0185314240527
0.00216486057132
0.0181120029423
0.00242839094545
0.0176458378117
0.00268553983397
0.0171340742852
0.00293399965548
0.0165783059126
0.0031712501722
0.0159806048543
0.00339454061042
0.0153436028355
0.00360089308764
0.0146705527962
0.00378709131401
0.0139654377964
0.0039497179339
0.0132330467719
0.00408522277182
0.0124790507725
0.00419007816278
0.0117099953704
0.00426100958752
0.010933218752
0.00429529046061
0.0101566605656
0.00429105225754
0.00938861832455
0.00424752116445
0.00863748107592
0.00416516541475
0.00791135816101
0.00404595151509
0.00721767657113
0.00389339312087
0.00656252348058
0.00371286723825
0.00595001473557
0.00351130532248
0.00538216798115
0.00329613070148
0.00485920013068
0.00307420757125
0.00438005407809
0.00285120133503
0.00394290259938
0.00263142025679
0.00354549852655
0.00241800928261
0.00318536627283
0.00221321891754
0.00285993379579
0.00201858051848
0.00256664024508
0.00183503166496
0.00230301135746
0.00166305595728
0.00206667657486
0.00150284399736
0.00185534906544
0.00135442480973
0.00166679591088
0.00121770893414
0.00149885358508
0.00109246488493
0.00134946366003
0.000978289517238
0.00121670561683
0.000874644963671
0.00109880968022
0.000780895071487
0.000994172913563
0.00069633394773
0.000901367041555
0.000620214680737
0.000819144148265
0.000551785601784
0.000746427214542
0.000490331699902
0.000682260782702
0.000435233195183
0.000625037919204
0.000386833141112
0.000572748538447
0.000344554442452
0.00052276115348
0.000321008280545
0.000470223447324
0.000306647469789
0.000421115911674
0.000290372099815
0.00037515220258
0.000278986135564
0.000320252919734
0.000276444649563
0.000261169145834
0.000279908445793
0.000199738476563
0.00028220116097
0.000158826020774
0.000292363136738
0.000123358290495
0.000333144546369
7.62114835781e-05
0.000363610544887
3.8051392553e-05
0.000368894027781
0.000369082798852
0.000963419346026
-0.00643812798952
0.0019814375132
-0.00680439532609
0.00299467553373
-0.00677525304928
0.00399811265942
-0.00671407297647
0.00498850342782
-0.00663257478217
0.00596280493188
-0.00653186735562
0.00691814978354
-0.00641290183162
0.00785187152067
-0.0062767550379
0.00876152024571
-0.00612461734608
0.00964487973229
-0.00595776274531
0.0104999735443
-0.00577752208132
0.0113250721269
-0.0055852510427
0.0121186880283
-0.00538230275791
0.0128795725731
-0.00516999578774
0.0136066999099
-0.00494958821855
0.0142992532379
-0.00472224800818
0.0149565981937
-0.0044890315359
0.0155782599126
-0.00425085998529
0.0161638882633
-0.00400850655641
0.0167132295138
-0.00376258331161
0.017226088438
-0.00351354093637
0.0177023005508
-0.00326166864733
0.0181416974242
-0.00300710712952
0.0185440852758
-0.00274985992014
0.0189092179739
-0.00248981571277
0.0192367845611
-0.00222676591471
0.019526390622
-0.00196043061233
0.019777553708
-0.00169047770542
0.0199896913519
-0.00141654994397
0.0201621229366
-0.00113828557273
0.0202940645794
-0.000855350394336
0.0203846385768
-0.000567457596939
0.0204328782995
-0.000274409202837
0.0204377503277
2.3874379971e-05
0.020398173385
0.00032731420339
0.0203130561009
0.000635639620536
0.020181332029
0.000948350606289
0.0200020119682
0.00126469139686
0.0197742311878
0.0015836251146
0.0194973088571
0.00190382348102
0.019170797165
0.00222366113079
0.0187945356565
0.00254122463917
0.0183686903555
0.00285432336597
0.0178937948157
0.00316050654673
0.0173707786714
0.00345707090148
0.0168010070813
0.00374106038232
0.0161863249223
0.00400924560414
0.0155291329638
0.00425809239028
0.0148324908261
0.0044837252389
0.0141002643189
0.0046819238585
0.0133372781279
0.0048481713869
0.0125494694484
0.00497784157347
0.0117439312889
0.00506648599248
0.0109288493027
0.00511030756116
0.0101132394567
0.00510658557149
0.00930664963597
0.00505403121927
0.00851893679011
0.00495279117575
0.00775978416191
0.0048050088455
0.00703840290044
0.00461466917637
0.0063623144049
0.00438883926159
0.00573611270359
0.00413738224697
0.00516131691019
0.00387079851673
0.00463702271008
0.00359837100439
0.00416087883688
0.00332721806263
0.00372991578241
0.00306225554184
0.00334098843615
0.00280681330922
0.00299089562444
0.00256318884169
0.00267647236207
0.00233288569561
0.00239470131874
0.00211668859532
0.00214280652361
0.00191484214008
0.00191824006506
0.00172730696126
0.00171858693529
0.00155397816014
0.00154147350796
0.00139472533
0.00138457449467
0.00124926782793
0.00124569694736
0.001117071738
0.00112282096894
0.00099742600086
0.00101410694297
0.000889514075577
0.000917912259892
0.000792434473264
0.000832806268353
0.000705226846556
0.000757585706024
0.000626912793856
0.000691313808
0.000556511552198
0.000633421259183
0.000493035262636
0.00058418316528
0.000435979440592
0.000534135254086
0.000394506410954
0.000483659068112
0.000371384054758
0.000436135497242
0.000354062060764
0.000384298644944
0.00034209259629
0.000333400733048
0.000329757268418
0.000279815921649
0.00032989312239
0.00023157625741
0.000328007809053
0.000177344076756
0.00033628724603
0.000126157123318
0.000343408393283
9.94705016527e-05
0.000359694985647
6.42947595202e-05
0.000398633681796
3.19361312104e-05
0.000401100571647
0.00040094657262
0.000983372249121
-0.00742109547253
0.00202229322426
-0.00784289408443
0.00305606574247
-0.00780859367066
0.00407943564137
-0.00773701327545
0.00508898591325
-0.00764169383941
0.00608151244516
-0.00752396337061
0.00705401208832
-0.00738497060945
0.00800370528769
-0.00722601791217
0.00892805838787
-0.00704854043819
0.00982479857004
-0.00685407403988
0.0106919240343
-0.00664421979619
0.0115277078442
-0.00642060915818
0.0123306963142
-0.00618486773375
0.0130997011275
-0.00593858030036
0.0138337854305
-0.00568325565242
0.0145322436173
-0.00542029381676
0.0151945749828
-0.00515095531945
0.0158204519833
-0.00487633526087
0.0164096837796
-0.00459734282268
0.0169621772908
-0.00431468854457
0.0174778969457
-0.00402887991002
0.0179568264042
-0.00374022601697
0.0183989329899
-0.00344885055448
0.0188041379607
-0.0031547116029
0.0191722915443
-0.00285762620778
0.019503154698
-0.00255729702981
0.0197963843624
-0.00225333961568
0.0200515237654
-0.00194530859199
0.0202679937962
-0.00163272392195
0.0204450884669
-0.00131509730188
0.0205819714907
-0.00099196391713
0.0206776784037
-0.000662908895578
0.0207311231665
-0.000327612511953
0.0207411146403
1.41100246854e-05
0.0207063795303
0.000362261854927
0.0206255987981
0.000716618415109
0.0204974508643
0.00107668183053
0.0203206679332
0.00144164316925
0.0200940950078
0.00181035191938
0.0198167566977
0.00218130104998
0.0194879176038
0.00255262396562
0.0191071410871
0.00292210956513
0.0186743313744
0.00328722485474
0.0181897680231
0.00364514494773
0.0176541243807
0.00399277167178
0.017068490655
0.00432673405397
0.0164344067583
0.00464335208046
0.0157539381601
0.00493856542392
0.0150298123532
0.00520784184095
0.0142656200544
0.00544608457785
0.0134661024811
0.00564765173448
0.0126373976829
0.00580648335201
0.011787251706
0.00591657179818
0.0109249031867
0.00597257602013
0.0100607554068
0.00597065693176
0.00920584568367
0.00590885611475
0.0083719393388
0.00578660674002
0.00757072594249
0.00560612411229
0.00681432472173
0.00537095810135
0.0061127539941
0.00509028672834
0.00547125043954
0.00477875516534
0.00489025149751
0.0044516628649
0.00436684004937
0.00412165105573
0.00389657148443
0.00379735563248
0.00347490373625
0.00348379811758
0.00309762536985
0.00318396529093
0.00276072197186
0.00289997146694
0.00246031565648
0.002633173187
0.00219285235001
0.00238403880471
0.00195525737038
0.00215233056317
0.00174488599597
0.00193757575272
0.00155927579208
0.00173949086967
0.00139591140315
0.00155799328125
0.00125224131924
0.00139284358988
0.00112589378273
0.00124332516379
0.00101473615739
0.00110848853329
0.000916844743913
0.000987311467964
0.000830518062308
0.00087866727038
0.000754303173319
0.000781348568218
0.000686985275771
0.000694137743752
0.00062759303302
0.000615812217555
0.000575362082546
0.000545175845847
0.00052943968848
0.000481809706247
0.00048300264366
0.000440847184072
0.000437956618704
0.000416326765768
0.000394943246167
0.00039696539839
0.000349179748046
0.000387737064463
0.000296359609098
0.000382449165521
0.00024542415211
0.000380693562051
0.000192651731595
0.000380640956559
0.000153660125008
0.000375141569915
0.000111036445035
0.000385895379918
7.77845114175e-05
0.000392805891745
5.4920159962e-05
0.000421364682131
2.65020017526e-05
0.000429387029639
0.000427375577352
0.00100670784535
-0.00842740643561
0.00207009503333
-0.00890585368535
0.00312787919315
-0.00886595512768
0.00417454074818
-0.00878324836414
0.00520644258537
-0.00867317050074
0.00622019176173
-0.00853728620407
0.00721261993203
-0.00837697261607
0.00818081496605
-0.00819378635773
0.009122142535
-0.00798944189638
0.0100342645797
-0.00776577028932
0.0109151485939
-0.00752467932083
0.0117630732356
-0.00726811062087
0.0125766250934
-0.00699799881088
0.0133546913656
-0.00671622832536
0.0140964430759
-0.00642459278668
0.0148013132508
-0.00612475330913
0.015468965208
-0.00581820162894
0.0160992559637
-0.00550622568309
0.0166921914894
-0.00518988445058
0.0172478802105
-0.00486999008002
0.0177664831846
-0.00454710349287
0.0182481683608
-0.00422153985539
0.0186930676031
-0.0038933875454
0.0191012429475
-0.0035625340028
0.019472658724
-0.00322869932102
0.0198071632971
-0.00289146942279
0.0201044743845
-0.00255032991529
0.0203641699342
-0.00220469491441
0.0205856784134
-0.00185393553812
0.0207682720162
-0.00149740655476
0.02091105908
-0.00113447984284
0.0210129816202
-0.000764573542555
0.0210728178382
-0.000387204552442
0.0210891950293
-2.03667633876e-06
0.021060612437
0.000391061004193
0.0209854790701
0.000791954420483
0.020862163911
0.00120018563215
0.0206890602397
0.00161492125637
0.0204646591178
0.00203491314368
0.0201876285285
0.00245847671537
0.0198568903673
0.00288349184584
0.0194716869088
0.0033074261225
0.01903162871
0.00372737866092
0.0185367182637
0.00414013250007
0.0179873499227
0.00454219851045
0.0173842986632
0.00492982540236
0.0167287204108
0.00529895022966
0.0160222123631
0.00564507856785
0.0152669537014
0.00596307964245
0.0144660217451
0.00624699015553
0.0136237870519
0.00648982633912
0.012746483845
0.00668373301943
0.0118425407417
0.00682043231409
0.0109226361021
0.00689240879446
0.00999893078994
0.00689427791323
0.00908406554456
0.00682363716597
0.0081922480936
0.00667833373289
0.00733719317778
0.0064610753076
0.00653618910809
0.00617184253223
0.00580395804172
0.00582238606487
0.00514650697619
0.00543606568724
0.0045619300265
0.0050361023534
0.00404359336671
0.00463984990495
0.00358363601823
0.00425718362278
0.00317545094707
0.00389185281903
0.00281383430768
0.00354545776599
0.00249397302002
0.00321970854837
0.00221113046342
0.00291589626948
0.00196107226272
0.00263398402083
0.0017404647225
0.00237282894121
0.00154678445037
0.00213115426388
0.00137771929102
0.00190845547327
0.00123062097453
0.00170499517555
0.00110254084444
0.0015208273151
0.00099085852314
0.00135491186265
0.000893342499458
0.00120590918635
0.000807971989654
0.0010725858386
0.000732967983763
0.00095357681461
0.000666859860902
0.000847362520998
0.00060842843696
0.000752475224111
0.000556711793397
0.000667435714676
0.000510930907618
0.000590865198299
0.000470331858211
0.000522315637233
0.000425202708544
0.000485877373064
0.000382804373202
0.000458620409382