/*--------------------------------*- C++ -*----------------------------------*\
| =========                 |                                                 |
| \\      /  F ield         | OpenFOAM: The Open Source CFD Toolbox           |
|  \\    /   O peration     | Version:  v1906                                 |
|   \\  /    A nd           | Web:      www.OpenFOAM.com                      |
|    \\/     M anipulation  |                                                 |
\*---------------------------------------------------------------------------*/
FoamFile
{
    version     2.0;
    format      ascii;
    class       volVectorField;
    location    "362";
    object      U;
}
// * * * * * * * * * * * * * * * * * * * * * * * * * * * * * * * * * * * * * //

dimensions      [0 1 -1 0 0 0 0];


internalField   nonuniform List<vector> 
9216
(
(0.00155887122651 -0.00156052171062 0)
(0.00159750837153 -0.00486042301083 6.56434158504e-28)
(0.00158625920992 -0.00816939920418 1.08250279291e-31)
(0.00156306877971 -0.011457634075 0)
(0.00153185366334 -0.0146870909285 0)
(0.00149341218242 -0.0178436218633 0)
(0.00144863892604 -0.0209131024477 0)
(0.00139828939823 -0.0238831542445 0)
(0.00134320423288 -0.0267430101 0)
(0.00128412241996 -0.029483591388 0)
(0.00122186670711 -0.0320974147123 0)
(0.00115710309044 -0.0345785937804 0)
(0.00109056962003 -0.0369226708315 0)
(0.00102280016848 -0.0391265572579 0)
(0.000954404527122 -0.041188317651 0)
(0.000885756880277 -0.0431070837637 0)
(0.000817327201542 -0.0448828253956 0)
(0.000749331234584 -0.0465162666754 0)
(0.000682110668027 -0.0480086695457 0)
(0.000615741839915 -0.0493617702482 0)
(0.000550462155067 -0.050577589128 0)
(0.000486235671017 -0.0516583932433 0)
(0.000423222671777 -0.0526065382953 0)
(0.000361302797342 -0.0534244563392 0)
(0.00030058489833 -0.0541145299795 0)
(0.000240890091645 -0.0546790994207 0)
(0.000182297677399 -0.0551203688693 0)
(0.000124593358506 -0.0554404270695 0)
(6.78461078767e-05 -0.0556411861685 0)
(1.18289807056e-05 -0.0557244077373 0)
(-4.33844105572e-05 -0.0556916871714 0)
(-9.80161536722e-05 -0.0555444603919 0)
(-0.000151967865644 -0.055284036858 0)
(-0.000205427689406 -0.0549116255198 0)
(-0.000258259394379 -0.0544283913895 0)
(-0.000310597357013 -0.0538354790161 0)
(-0.000362253598651 -0.053134117735 0)
(-0.000413287109052 -0.0523256304817 0)
(-0.000463449941268 -0.0514115871429 0)
(-0.000512710119298 -0.0503937887447 0)
(-0.000560759505515 -0.0492744633342 0)
(-0.00060746740146 -0.0480562152543 0)
(-0.000652472949878 -0.0467422550933 0)
(-0.000695545359165 -0.045336310621 0)
(-0.000736280456029 -0.0438428813728 0)
(-0.000774346675948 -0.0422671214664 0)
(-0.000809299560604 -0.0406151109312 0)
(-0.000840702346318 -0.0388937324745 0)
(-0.000868067151953 -0.0371109465915 0)
(-0.000890856370767 -0.03527567801 0)
(-0.000908554650703 -0.0333980532498 0)
(-0.000920576659976 -0.0314892666452 0)
(-0.000926465655011 -0.0295616899357 0)
(-0.000925735658591 -0.0276286273257 0)
(-0.000918168998723 -0.0257041907066 0)
(-0.000903593583168 -0.0238028659546 0)
(-0.000882224332505 -0.0219391433228 0)
(-0.000854356596229 -0.0201269587308 0)
(-0.000820701074346 -0.0183792091731 0)
(-0.000782004768413 -0.0167072640967 0)
(-0.000739337726377 -0.0151205481414 0)
(-0.000693681989922 -0.0136263653899 0)
(-0.000646150478091 -0.0122297347374 0)
(-0.00059765786517 -0.0109336274498 0)
(-0.000549103801365 -0.0097390073168 0)
(-0.000501205116488 -0.0086452592594 0)
(-0.000454606846497 -0.00765023472439 0)
(-0.000409851192092 -0.00675065612249 0)
(-0.000367366246317 -0.00594213683327 0)
(-0.000327531501809 -0.00521952972431 0)
(-0.000290557624151 -0.00457700928914 0)
(-0.000256627318991 -0.00400839282389 0)
(-0.000225724308633 -0.00350729894579 0)
(-0.000197842015312 -0.00306740377957 0)
(-0.000172799110472 -0.00268257815158 0)
(-0.000150479505703 -0.00234701685577 0)
(-0.000130632216222 -0.00205530533236 0)
(-0.000113103453047 -0.00180244698198 0)
(-9.76276005697e-05 -0.00158389296694 0)
(-8.40354171693e-05 -0.00139552786269 0)
(-7.20323234146e-05 -0.00123372032605 0)
(-6.1332780497e-05 -0.00109534847283 0)
(-5.11561604691e-05 -0.000978940306565 0)
(-3.96587933567e-05 -0.000873773309889 0)
(-3.49026735284e-05 -0.000803056432611 0)
(-3.47436089946e-05 -0.000735335126383 0)
(-3.09820233177e-05 -0.000664349041582 0)
(-2.65198492233e-05 -0.000607730277361 0)
(-2.69267370632e-05 -0.000560217358609 0)
(-2.97025360199e-05 -0.000503809420376 0)
(-3.0124277945e-05 -0.000446599512935 0)
(-3.09973301085e-05 -0.000384644799457 0)
(-3.57196260846e-05 -0.000316394168397 0)
(-4.08504612816e-05 -0.000240881952804 0)
(-4.60978987103e-05 -0.000148806755523 0)
(-4.92844239889e-05 -4.75931096561e-05 0)
(0.00487183767299 -0.001615722945 0)
(0.00513244144145 -0.00517290234933 0)
(0.0050931401049 -0.00869905375649 -6.74989747798e-28)
(0.00501691308991 -0.0122056933052 0)
(0.00491550402405 -0.0156461687285 0)
(0.00479142531675 -0.0190072828545 0)
(0.00464712008619 -0.0222743483805 0)
(0.00448500359422 -0.025434283627 0)
(0.00430768228854 -0.0284756907706 0)
(0.00411762593516 -0.0313889647485 0)
(0.00391739005021 -0.0341662491004 0)
(0.00370923078279 -0.0368013950062 0)
(0.00349540751803 -0.0392898172675 0)
(0.00327776377767 -0.0416283799748 0)
(0.00305812063305 -0.0438152017525 0)
(0.00283782212238 -0.0458495132057 0)
(0.00261821557317 -0.0477314515921 0)
(0.00240015224481 -0.0494619233808 0)
(0.00218454574733 -0.0510424153424 0)
(0.00197181844616 -0.0524748812445 0)
(0.00176252934386 -0.0537615828468 0)
(0.00155675984607 -0.0549050074615 0)
(0.00135480373813 -0.055907742485 0)
(0.00115649089367 -0.0567724225364 0)
(0.000961933610094 -0.0575016357965 0)
(0.00077079128459 -0.0580978958794 0)
(0.000583067093201 -0.0585635770505 0)
(0.000398321308882 -0.0589009056126 0)
(0.000216511214035 -0.059111921784 0)
(3.71644308386e-05 -0.0591984878234 0)
(-0.000139750889502 -0.0591622695548 0)
(-0.000314677722219 -0.0590047778613 0)
(-0.000487576571795 -0.0587273709629 0)
(-0.000658788710307 -0.0583312904445 0)
(-0.000828147834342 -0.0578177139017 0)
(-0.000995828358605 -0.057187799288 0)
(-0.00116148494326 -0.0564427695193 0)
(-0.0013250650115 -0.0555839626075 0)
(-0.00148600787292 -0.0546129461329 0)
(-0.00164399345334 -0.0535315645166 0)
(-0.00179823481023 -0.0523420751857 0)
(-0.00194813052159 -0.0510471819762 0)
(-0.00209268229634 -0.0496501828842 0)
(-0.00223101439897 -0.0481549826893 0)
(-0.0023619408946 -0.0465662455397 0)
(-0.00248431782672 -0.0448893915716 0)
(-0.00259677618735 -0.0431307561071 0)
(-0.00269788986331 -0.0412975886517 0)
(-0.00278608975416 -0.0393982230401 0)
(-0.00285966818364 -0.037442090988 0)
(-0.00291689993977 -0.0354398795568 0)
(-0.00295594525038 -0.033403518931 0)
(-0.00297520322642 -0.0313462334902 0)
(-0.00297316724335 -0.0292823830664 0)
(-0.00294896934742 -0.0272272656765 0)
(-0.00290215093258 -0.0251967006291 0)
(-0.00283323884846 -0.0232065511399 0)
(-0.00274333751723 -0.021272121747 0)
(-0.00263459639556 -0.0194075700797 0)
(-0.00250962687096 -0.0176253349192 0)
(-0.00237178654157 -0.0159356607911 0)
(-0.00222444331037 -0.0143463386883 0)
(-0.0020711110996 -0.0128626178244 0)
(-0.00191485254245 -0.0114874209202 0)
(-0.00175848999364 -0.0102215564151 0)
(-0.00160435753562 -0.0090640992469 0)
(-0.00145449787174 -0.00801258182841 0)
(-0.00131063261078 -0.00706329596575 0)
(-0.00117416950235 -0.00621141414948 0)
(-0.00104627871384 -0.00545124541128 0)
(-0.000927703724031 -0.00477640138594 0)
(-0.000818950137112 -0.00418008382691 0)
(-0.000720032299328 -0.00365532462886 0)
(-0.000630816169692 -0.00319524290103 0)
(-0.000550790421141 -0.00279322407512 0)
(-0.000479466282795 -0.00244303927644 0)
(-0.000416123780009 -0.00213890853537 0)
(-0.000360167910706 -0.00187551886795 0)
(-0.000310847107678 -0.00164803157539 0)
(-0.000267557905706 -0.00145205188027 0)
(-0.000229541144365 -0.00128359649237 0)
(-0.000196082741241 -0.00113896659791 0)
(-0.000166065380343 -0.00101460605154 0)
(-0.000136933329017 -0.000905402464198 0)
(-0.000116558112215 -0.000795242830788 0)
(-0.000108893152509 -0.000724041787636 0)
(-9.27139891578e-05 -0.000647293600143 0)
(-7.96129798779e-05 -0.000594334032388 0)
(-7.88632474453e-05 -0.00053814934487 0)
(-8.57661120365e-05 -0.000493455577216 0)
(-8.98610949509e-05 -0.000445242716272 0)
(-9.59715616019e-05 -0.000380192535043 0)
(-0.000106762929284 -0.000310372066189 0)
(-0.000132781316696 -0.000247123585043 0)
(-0.000162437795113 -0.000158354681523 0)
(-0.000145942239042 -4.32285019965e-05 0)
(0.0082452479544 -0.00163718513832 0)
(0.00869085109464 -0.00523838514388 0)
(0.00861647157947 -0.00880116243323 -6.74043632666e-28)
(0.00848415920494 -0.0123471062161 0)
(0.00831031756515 -0.0158247186685 0)
(0.00809848170763 -0.0192201369875 0)
(0.00785247967716 -0.0225182250274 0)
(0.00757644240757 -0.0257056665069 0)
(0.00727473687426 -0.0287709718371 0)
(0.00695168823888 -0.0317045506916 0)
(0.00661157146285 -0.0344986703066 0)
(0.00625835374312 -0.0371473771241 0)
(0.00589576371557 -0.0396463517809 0)
(0.00552706145132 -0.0419927549021 0)
(0.00515518760411 -0.0441850332991 0)
(0.00478255432747 -0.0462227413218 0)
(0.00441126271818 -0.0481063424551 0)
(0.00404289851192 -0.0498370419676 0)
(0.00367880085261 -0.0514166114206 0)
(0.00331984610869 -0.0528472514301 0)
(0.0029667528598 -0.0541314505909 0)
(0.00261984193603 -0.0552718833755 0)
(0.00227936733892 -0.0562713046047 0)
(0.00194524704494 -0.057132479786 0)
(0.00161741429847 -0.0578581107885 0)
(0.00129551928164 -0.0584507928026 0)
(0.000979298162363 -0.0589129664597 0)
(0.000668249874436 -0.059246896326 0)
(0.000362021283834 -0.0594546459553 0)
(6.0065402284e-05 -0.059538074751 0)
(-0.000237958368633 -0.059498837017 0)
(-0.00053253687031 -0.0593383938254 0)
(-0.000823896735713 -0.0590580373619 0)
(-0.00111235792914 -0.0586589245511 0)
(-0.0013979270031 -0.0581421249947 0)
(-0.00168064735512 -0.0575086747148 0)
(-0.00196020701592 -0.056759651162 0)
(-0.00223627824048 -0.0558962434441 0)
(-0.00250815701541 -0.054919849955 0)
(-0.00277508448094 -0.0538321567359 0)
(-0.00303593538727 -0.0526352472241 0)
(-0.00328950895464 -0.0513316757084 0)
(-0.00353427769523 -0.0499245761647 0)
(-0.00376862728686 -0.0484177199189 0)
(-0.003990666479 -0.0468156159959 0)
(-0.00419839074965 -0.0451235551999 0)
(-0.00438954809934 -0.0433477111638 0)
(-0.00456171383565 -0.0414951934042 0)
(-0.00471222385786 -0.0395741733622 0)
(-0.00483819382098 -0.0375939732385 0)
(-0.00493657844452 -0.0355652149647 0)
(-0.00500423178878 -0.0334999123268 0)
(-0.00503818091695 -0.031411538726 0)
(-0.00503580991895 -0.0293149592101 0)
(-0.00499533194805 -0.0272262127671 0)
(-0.0049159794133 -0.0251620836176 0)
(-0.00479841891959 -0.0231395298414 0)
(-0.00464469294558 -0.0211749806058 0)
(-0.00445837131115 -0.0192836463728 0)
(-0.00424422885685 -0.0174788148812 0)
(-0.00400806440796 -0.0157712559815 0)
(-0.0037560028918 -0.0141688835868 0)
(-0.00349407130049 -0.0126767221976 0)
(-0.0032276572764 -0.0112972318277 0)
(-0.00296145293983 -0.0100307044344 0)
(-0.00269941490095 -0.00887570186979 0)
(-0.00244491727926 -0.00782932667885 0)
(-0.00220084434065 -0.00688745816369 0)
(-0.00196960367317 -0.0060448830954 0)
(-0.00175314929928 -0.00529546623236 0)
(-0.00155282434748 -0.00463235292406 0)
(-0.00136939063605 -0.00404824396769 0)
(-0.00120290905494 -0.00353572018465 0)
(-0.00105297482952 -0.00308753772952 0)
(-0.000918736716867 -0.00269683189034 0)
(-0.000799201961932 -0.00235722841116 0)
(-0.000693207250904 -0.00206287102568 0)
(-0.00059962690068 -0.00180842196036 0)
(-0.000517282933642 -0.00158904214786 0)
(-0.00044510346187 -0.00140035312405 0)
(-0.000382019391304 -0.00123838584419 0)
(-0.000327116931999 -0.00109946186291 0)
(-0.0002795969538 -0.000980084828647 0)
(-0.000239476141749 -0.000876541899619 0)
(-0.000204757036114 -0.00076987036828 0)
(-0.000183750165302 -0.000703331601584 0)
(-0.000162386728669 -0.000643238352532 0)
(-0.000139452087876 -0.000566336054198 0)
(-0.000126564130418 -0.000499938380341 0)
(-0.000132313284632 -0.000461062624408 0)
(-0.00015397960765 -0.000430666436651 0)
(-0.000159479370224 -0.000344478638635 0)
(-0.000183455083081 -0.000285670671956 0)
(-0.000215802795808 -0.000209380125251 0)
(-0.000243526084829 -0.000126574685333 0)
(-0.000236393576929 -3.90765042423e-05 0)
(0.0116835757845 -0.00166361789028 0)
(0.0123201804165 -0.00532103701107 0)
(0.0122128564837 -0.00893643185829 6.73954515374e-28)
(0.0120224330772 -0.0125338156766 0)
(0.0117725427738 -0.0160594260382 0)
(0.0114684777132 -0.01949860693 0)
(0.0111157998591 -0.022835627466 0)
(0.0107205585392 -0.0260568310288 0)
(0.010289078331 -0.0291506049661 0)
(0.00982767374946 -0.0321074192125 0)
(0.0093424900908 -0.0349197613746 0)
(0.00883928247191 -0.0375820180791 0)
(0.00832334863966 -0.0400903031535 0)
(0.00779938299935 -0.0424422631216 0)
(0.00727149978932 -0.0446368612179 0)
(0.00674314899214 -0.0466741662466 0)
(0.00621720891007 -0.0485551421596 0)
(0.00569593821068 -0.0502814589891 0)
(0.00518111107036 -0.0518553155474 0)
(0.00467398008301 -0.0532792896376 0)
(0.00417543174057 -0.0545562026114 0)
(0.00368594244373 -0.0556890107766 0)
(0.00320574056703 -0.056680709019 0)
(0.00273474703957 -0.0575342573961 0)
(0.0022727382555 -0.0582525165248 0)
(0.00181926987562 -0.0588382015669 0)
(0.00137384011673 -0.0592938423053 0)
(0.000935800213709 -0.0596217583174 0)
(0.000504520252873 -0.0598240394307 0)
(7.92916149829e-05 -0.0599025385994 0)
(-0.000340501963352 -0.0598588752607 0)
(-0.000755484510862 -0.0596944407948 0)
(-0.00116611262932 -0.0594104265245 0)
(-0.00157277426186 -0.0590078561583 0)
(-0.00197561224664 -0.0584876328686 0)
(-0.00237462250846 -0.0578505982356 0)
(-0.00276948574695 -0.0570976062854 0)
(-0.00315966846685 -0.0562296054729 0)
(-0.00354427548197 -0.0552477351442 0)
(-0.00392215807864 -0.0541534218718 0)
(-0.00429179900137 -0.0529484852708 0)
(-0.0046514265398 -0.0516352318359 0)
(-0.00499893418696 -0.0502165519671 0)
(-0.00533198574399 -0.048695993683 0)
(-0.00564795503569 -0.0470778392949 0)
(-0.00594399268268 -0.0453671578558 0)
(-0.00621696058994 -0.0435698758435 0)
(-0.00646343947631 -0.0416928435487 0)
(-0.00667965904297 -0.0397439500061 0)
(-0.00686148993378 -0.0377322624374 0)
(-0.0070044613369 -0.0356682252245 0)
(-0.00710389016143 -0.0335638618081 0)
(-0.0071551726067 -0.0314329497324 0)
(-0.00715420380196 -0.0292910597737 0)
(-0.00709798745235 -0.0271553646969 0)
(-0.0069851606082 -0.0250441643532 0)
(-0.00681646077179 -0.0229761592257 0)
(-0.00659485908712 -0.0209695831786 0)
(-0.00632555946773 -0.0190413504765 0)
(-0.00601582558563 -0.0172061502319 0)
(-0.00567447168196 -0.0154755948178 0)
(-0.00531089720238 -0.0138577170182 0)
(-0.00493409338527 -0.0123570381552 0)
(-0.00455192393193 -0.0109751514642 0)
(-0.00417097446105 -0.00971143607122 0)
(-0.00379672511657 -0.00856364755433 0)
(-0.00343381632631 -0.00752824186873 0)
(-0.00308626280129 -0.00660053797009 0)
(-0.00275750427601 -0.0057747698092 0)
(-0.00245036060705 -0.00504417216994 0)
(-0.00216682624959 -0.00440115350953 0)
(-0.00190793841109 -0.00383762167776 0)
(-0.00167369456078 -0.00334543002377 0)
(-0.00146328811999 -0.00291677368177 0)
(-0.00127535354733 -0.00254443868695 0)
(-0.00110829685762 -0.00222187327515 0)
(-0.000960413104426 -0.00194315448942 0)
(-0.000830015980121 -0.00170294538227 0)
(-0.000715444680235 -0.0014964525942 0)
(-0.000615147344281 -0.0013193825505 0)
(-0.000527675365475 -0.00116790321644 0)
(-0.000451796449182 -0.00103857913204 0)
(-0.000386584625019 -0.000928763547935 0)
(-0.000332783454177 -0.000831794957303 0)
(-0.000287245448754 -0.000740614314488 0)
(-0.000255964554837 -0.000677105472675 0)
(-0.000228097055912 -0.000607828347104 0)
(-0.000201407051323 -0.000531961430321 0)
(-0.000190620726578 -0.000481770808023 0)
(-0.000183795677083 -0.000413437679112 0)
(-0.000198665035094 -0.000356927715416 0)
(-0.000237285913284 -0.000319201604031 0)
(-0.000250288385873 -0.000232566792428 0)
(-0.000284715585604 -0.000163436918564 0)
(-0.000319678856757 -0.000100213158249 0)
(-0.00031837791748 -3.29154468631e-05 0)
(0.0151841783116 -0.00169894921891 0)
(0.0160114742449 -0.00543265543234 0)
(0.0158689760811 -0.00912113801122 0)
(0.0156168766452 -0.0127887271158 0)
(0.0152863207771 -0.016379529839 0)
(0.014884603667 -0.0198778959972 0)
(0.0144193149286 -0.0232673339749 0)
(0.0138986783888 -0.0265337461801 0)
(0.01333122649 -0.0296653766924 0)
(0.0127254559822 -0.0326528139285 0)
(0.0120895622127 -0.0354888841187 0)
(0.0114311973626 -0.0381684809218 0)
(0.0107573272643 -0.0406883454631 0)
(0.0100741075935 -0.0430468217071 0)
(0.00938685702495 -0.0452436008125 0)
(0.00870002856206 -0.0472794730234 0)
(0.00801726548452 -0.0491560931735 0)
(0.00734142908741 -0.0508757707049 0)
(0.0066746983477 -0.0524412833579 0)
(0.0060186182402 -0.0538557195361 0)
(0.00537421267356 -0.0551223441728 0)
(0.00474202963956 -0.0562444899885 0)
(0.00412225016657 -0.0572254674362 0)
(0.00351471947449 -0.0580684941418 0)
(0.00291904602002 -0.0587766374003 0)
(0.00233461742537 -0.0593527707112 0)
(0.00176069106944 -0.0597995392752 0)
(0.0011963991666 -0.060119335906 0)
(0.000640835917152 -0.0603142841222 0)
(9.30582682721e-05 -0.0603862293488 0)
(-0.000447824788761 -0.0603367436357 0)
(-0.000982649564099 -0.0601671264836 0)
(-0.00151210372598 -0.0598784342518 0)
(-0.00203671953972 -0.0594715101623 0)
(-0.00255677638107 -0.0589470318604 0)
(-0.00307229335392 -0.0583055732984 0)
(-0.00358293738776 -0.0575476825702 0)
(-0.00408802461132 -0.0566739729783 0)
(-0.00458644848479 -0.0556852277787 0)
(-0.0050767023697 -0.0545825110516 0)
(-0.00555684164175 -0.0533672833541 0)
(-0.00602453350336 -0.0520415098769 0)
(-0.0064770537799 -0.0506077602788 0)
(-0.00691134950103 -0.049069286434 0)
(-0.00732404373321 -0.0474300844324 0)
(-0.00771146742787 -0.0456949334554 0)
(-0.00806962161257 -0.0438694375738 0)
(-0.00839413069424 -0.0419600744972 0)
(-0.00868014174607 -0.0399743060448 0)
(-0.00892223775144 -0.0379207544185 0)
(-0.00911439780592 -0.0358094883952 0)
(-0.00925010875702 -0.0336523894056 0)
(-0.00932271161363 -0.0314635097722 0)
(-0.00932605142844 -0.0292593227809 0)
(-0.00925538817907 -0.0270586101272 0)
(-0.00910833905543 -0.0248818906224 0)
(-0.00888554608815 -0.0227504572548 0)
(-0.00859092479028 -0.0206852063825 0)
(-0.00823151723278 -0.0187056417346 0)
(-0.00781759758919 -0.0168286620387 0)
(-0.00736190585489 -0.0150671734843 0)
(-0.00687805016387 -0.0134292673923 0)
(-0.0063786501369 -0.011918432794 0)
(-0.00587421067783 -0.0105347242224 0)
(-0.0053730882637 -0.00927605011632 0)
(-0.00488203579238 -0.00813902708657 0)
(-0.00440677924 -0.00711929211913 0)
(-0.00395239377472 -0.0062115236291 0)
(-0.00352340343962 -0.00540931327916 0)
(-0.00312364856479 -0.00470508024731 0)
(-0.00275592210549 -0.00409018689568 0)
(-0.00242157086086 -0.00355533668292 0)
(-0.00212036111106 -0.0030912662875 0)
(-0.00185082575393 -0.00268936850541 0)
(-0.00161080457648 -0.00234199088223 0)
(-0.00139794471866 -0.00204241943765 0)
(-0.00120989301415 -0.00178470528333 0)
(-0.00104435859884 -0.00156355451038 0)
(-0.000899140912812 -0.00137426224499 0)
(-0.000772176650323 -0.00121266198441 0)
(-0.000661546474207 -0.00107510384836 0)
(-0.000565526991705 -0.00095842563405 0)
(-0.000482650510087 -0.000860909187176 0)
(-0.000412604136238 -0.000770342015163 0)
(-0.000365394752702 -0.000704214294113 0)
(-0.000330668547907 -0.000643031654596 0)
(-0.000304491220209 -0.000579000185565 0)
(-0.000274815737975 -0.000506097975893 0)
(-0.000245928152813 -0.000421316865404 0)
(-0.00024517671865 -0.000367844247802 0)
(-0.000249811824325 -0.000298758545074 0)
(-0.000290621274915 -0.000258663193351 0)
(-0.000336879243439 -0.000205614776904 0)
(-0.000348926712079 -0.000131198556253 0)
(-0.000369707055955 -7.68749831015e-05 0)
(-0.000368606915923 -2.55757635763e-05 0)
(0.0187683092091 -0.00174416921141 0)
(0.019788771279 -0.00557623031392 0)
(0.019607703146 -0.00935932672767 0)
(0.0192888091102 -0.0131173413048 0)
(0.0188711209826 -0.0167917494693 0)
(0.0183642557354 -0.0203656437942 0)
(0.0177781965685 -0.0238215882447 0)
(0.0171236947744 -0.0271449599936 0)
(0.0164118223818 -0.0303238727538 0)
(0.015653533225 -0.0333491335182 0)
(0.01485930179 -0.0362140744558 0)
(0.0140388338511 -0.0389143116952 0)
(0.0132008742072 -0.0414474555667 0)
(0.0123530834184 -0.0438127997411 0)
(0.0115019989759 -0.0460110101261 0)
(0.010653040061 -0.0480438309134 0)
(0.00981057067107 -0.0499138177676 0)
(0.00897797585713 -0.0516241050191 0)
(0.0081577718831 -0.0531782078073 0)
(0.00735170534274 -0.0545798590015 0)
(0.00656087060561 -0.0558328769449 0)
(0.00578580190934 -0.0569410608248 0)
(0.00502657760166 -0.0579081083079 0)
(0.00428289319221 -0.0587375520236 0)
(0.00355414711932 -0.0594327101951 0)
(0.00283949488495 -0.0599966490625 0)
(0.00213792019193 -0.0604321538246 0)
(0.00144827688667 -0.0607417072375 0)
(0.000769353581609 -0.0609274743866 0)
(9.99124193485e-05 -0.0609912928754 0)
(-0.000561244273061 -0.0609346770677 0)
(-0.00121522961568 -0.0607588134009 0)
(-0.00186299842256 -0.0604645896834 0)
(-0.00250529485153 -0.0600526213193 0)
(-0.003142570955 -0.0595232983207 0)
(-0.00377493143198 -0.0588768498247 0)
(-0.00440205548974 -0.0581134268827 0)
(-0.00502315287027 -0.0572332044842 0)
(-0.00563690866074 -0.0562364992083 0)
(-0.00624147160638 -0.0551238995476 0)
(-0.00683444313773 -0.053896398958 0)
(-0.00741291297959 -0.0525555243888 0)
(-0.00797349752927 -0.0511034460679 0)
(-0.00851240832165 -0.0495430592611 0)
(-0.00902550271062 -0.0478780302044 0)
(-0.0095083191355 -0.0461128059216 0)
(-0.0099560516717 -0.0442526063568 0)
(-0.0103634568701 -0.042303427865 0)
(-0.0107246789345 -0.0402721180811 0)
(-0.01103303657 -0.0381665762807 0)
(-0.0112808314975 -0.0359961507434 0)
(-0.0114593655512 -0.0337722268572 0)
(-0.0115592918762 -0.0315089403923 0)
(-0.0115715282595 -0.0292237810985 0)
(-0.0114886820335 -0.0269376938779 0)
(-0.0113067122793 -0.0246743606336 0)
(-0.0110258975375 -0.0224587801803 0)
(-0.0106511757132 -0.0203155864488 0)
(-0.0101915015011 -0.0182680523794 0)
(-0.00966090417278 -0.0163365650882 0)
(-0.0090776039626 -0.0145360709754 0)
(-0.00846108878721 -0.012874482472 0)
(-0.00782864565749 -0.0113532176514 0)
(-0.00719352556846 -0.0099696065732 0)
(-0.00656538839006 -0.00871927634185 0)
(-0.0059517448397 -0.00759735202931 0)
(-0.00535905737611 -0.00659861185812 0)
(-0.00479335483147 -0.00571717284652 0)
(-0.00426035426899 -0.00494603409691 0)
(-0.00376524164258 -0.00427669928378 0)
(-0.0033119562646 -0.00369908330613 0)
(-0.00290227138769 -0.00320206731878 0)
(-0.00253544662826 -0.00277469076167 0)
(-0.00220884765595 -0.0024072222784 0)
(-0.00191905952204 -0.00209156214798 0)
(-0.00166274502431 -0.00182096565035 0)
(-0.00143681959543 -0.0015895718184 0)
(-0.00123834823324 -0.00139219630483 0)
(-0.00106455297288 -0.00122427330128 0)
(-0.000912836340691 -0.00108179043104 0)
(-0.000780776876974 -0.000961254966549 0)
(-0.000666151109643 -0.000859663609091 0)
(-0.000567243241205 -0.000775138933254 0)
(-0.000480523086637 -0.000691062865276 0)
(-0.000430086822175 -0.000634304970627 0)
(-0.000394254643475 -0.000576697750394 0)
(-0.000357378108927 -0.000505295665928 0)
(-0.000338777360686 -0.000452680345293 0)
(-0.000326447964757 -0.00039479438777 0)
(-0.000325381709996 -0.000337256874365 0)
(-0.000307167857948 -0.000253339870498 0)
(-0.000328796865287 -0.000197497009444 0)
(-0.000387780384286 -0.000164339538181 0)
(-0.000410049644143 -0.000112540429441 0)
(-0.000416885101034 -6.34766916916e-05 0)
(-0.000416868285629 -2.11210948838e-05 0)
(0.0224577569472 -0.00180045113738 0)
(0.0236750119819 -0.00575507523925 0)
(0.0234507628094 -0.00965605789257 6.69214999159e-28)
(0.0230582134114 -0.0135263610274 0)
(0.0225448121288 -0.0173041148967 0)
(0.021922937451 -0.0209708214941 0)
(0.0212054471792 -0.0245078951772 0)
(0.0204060913316 -0.0279001206593 0)
(0.019538913669 -0.0311355386188 0)
(0.0186176867203 -0.0342053349925 0)
(0.0176554493884 -0.0371035840738 0)
(0.0166641576617 -0.0398269092065 0)
(0.0156544565039 -0.0423740967301 0)
(0.0146355568146 -0.0447456979123 0)
(0.0136152084158 -0.0469436452887 0)
(0.0125997408902 -0.0489709025928 0)
(0.0115941600443 -0.0508311587872 0)
(0.0106022716665 -0.0525285710437 0)
(0.00962682611073 -0.0540675555599 0)
(0.00866966089635 -0.0554526226306 0)
(0.00773184330718 -0.0566882495465 0)
(0.00681379608636 -0.0577787850477 0)
(0.00591541536233 -0.0587283783163 0)
(0.00503616771048 -0.0595409268862 0)
(0.00417518016446 -0.0602200380614 0)
(0.0033313117021 -0.060769000076 0)
(0.00250322269283 -0.0611907597874 0)
(0.00168943105394 -0.0614879050982 0)
(0.000888373009287 -0.0616626512131 0)
(9.84565594389e-05 -0.0617168291525 0)
(-0.00068187429179 -0.0616518881755 0)
(-0.00145407610293 -0.061468883074 0)
(-0.00221943037921 -0.06116850188 0)
(-0.00297896638367 -0.0607510850297 0)
(-0.00373337112421 -0.0602166707096 0)
(-0.00448290439038 -0.0595650600274 0)
(-0.00522730805151 -0.0587959061198 0)
(-0.00596573233405 -0.0579088281698 0)
(-0.00669667171028 -0.0569035484362 0)
(-0.0074179343262 -0.0557800473423 0)
(-0.00812663853393 -0.0545387264226 0)
(-0.00881925469561 -0.0531805658331 0)
(-0.00949167878062 -0.0517072570384 0)
(-0.0101393376386 -0.0501212928652 0)
(-0.0107572943984 -0.0484259963031 0)
(-0.0113403231885 -0.0466254832523 0)
(-0.0118829050303 -0.0447245758946 0)
(-0.012379095527 -0.0427287020753 0)
(-0.0128222380686 -0.0406438857814 0)
(-0.0132045406835 -0.038476906759 0)
(-0.0135166013876 -0.0362358169435 0)
(-0.0137471485611 -0.0339308492171 0)
(-0.0138832476927 -0.0315756718619 0)
(-0.0139115156905 -0.029188712327 0)
(-0.0138203734371 -0.0267937935409 0)
(-0.0136031285468 -0.0244191054933 0)
(-0.0132593540342 -0.0220949199654 0)
(-0.0127954234411 -0.0198508094738 0)
(-0.0122215444265 -0.0177153690654 0)
(-0.0115565259078 -0.0157147631428 0)
(-0.0108267458665 -0.0138673566526 0)
(-0.0100606716976 -0.0121803076983 0)
(-0.00928197755932 -0.0106508683065 0)
(-0.00850629737873 -0.00927146582028 0)
(-0.00774344982527 -0.00803426838202 0)
(-0.00700061872232 -0.00693269520146 0)
(-0.00628447060991 -0.00596090138318 0)
(-0.00560179539178 -0.0051128199595 0)
(-0.00495973894918 -0.00438119971703 0)
(-0.00436544614354 -0.003756682064 0)
(-0.00382481548203 -0.00322721661952 0)
(-0.00334037266491 -0.00277882711925 0)
(-0.00291035133191 -0.00239784266445 0)
(-0.0025299729194 -0.00207298151025 0)
(-0.00219374247927 -0.00179588835318 0)
(-0.00189708524308 -0.00156017960268 0)
(-0.00163623804875 -0.0013603085711 0)
(-0.00140761859393 -0.00119128795427 0)
(-0.00120784934414 -0.00104875040649 0)
(-0.00103380259741 -0.000928885882531 0)
(-0.000882521123699 -0.000828417160639 0)
(-0.000751247953619 -0.000744851108594 0)
(-0.000638023115758 -0.000674218715438 0)
(-0.000547687636909 -0.000609231995117 0)
(-0.000493144866813 -0.000558443662037 0)
(-0.00045406643832 -0.000504362718071 0)
(-0.000419983473902 -0.000448610346239 0)
(-0.000391004921062 -0.00038832116213 0)
(-0.000385268420681 -0.000339393298866 0)
(-0.000375639063602 -0.000275997881994 0)
(-0.00038757979443 -0.000227854556113 0)
(-0.000379667772669 -0.000160917542448 0)
(-0.000409239579116 -0.000122024642393 0)
(-0.000452776282837 -9.26438730272e-05 0)
(-0.000455847178028 -5.24814217301e-05 0)
(-0.000456470746573 -1.74960461814e-05 0)
(0.0262769001724 -0.00186915479611 0)
(0.0276954489968 -0.00597335024295 0)
(0.0274220132507 -0.0100179516243 -6.69112253244e-28)
(0.0269468761531 -0.0140245497325 0)
(0.0263266393738 -0.0179270624918 0)
(0.0255770562628 -0.0217050089934 0)
(0.0247145047916 -0.0253384334119 0)
(0.0237563580053 -0.028811492428 0)
(0.0227201903784 -0.0321122762165 0)
(0.0216230533403 -0.0352325966032 0)
(0.0204808981281 -0.0381676022994 0)
(0.0193081616474 -0.0409153033709 0)
(0.0181175140042 -0.0434760552341 0)
(0.016919748338 -0.0458520466963 0)
(0.0157237886022 -0.0480468249777 0)
(0.014536783248 -0.0500648782806 0)
(0.0133642577858 -0.0519112860612 0)
(0.0122102980569 -0.0535914380987 0)
(0.011077746015 -0.0551108178005 0)
(0.00996839025731 -0.0564748411038 0)
(0.00888314408754 -0.0576887411282 0)
(0.0078222028312 -0.0587574882151 0)
(0.00678518126688 -0.0596857361995 0)
(0.00577122866871 -0.0604777868049 0)
(0.004779126636 -0.0611375658527 0)
(0.00380736975173 -0.0616686062469 0)
(0.00285423610326 -0.0620740342475 0)
(0.00191784857574 -0.0623565567551 0)
(0.000996234655393 -0.0625184487498 0)
(8.73856311205e-05 -0.062561539213 0)
(-0.000810677713732 -0.0624872094033 0)
(-0.00169983009235 -0.0622963691074 0)
(-0.00258175818946 -0.0619894795505 0)
(-0.00345786352932 -0.061566561614 0)
(-0.0043291544884 -0.0610272358367 0)
(-0.00519613285719 -0.0603707862176 0)
(-0.00605867771219 -0.0595962542455 0)
(-0.00691593980556 -0.0587025675135 0)
(-0.00776625414588 -0.0576887005202 0)
(-0.00860708874141 -0.0565538656377 0)
(-0.00943503906734 -0.0552977185366 0)
(-0.0102458830913 -0.0539205637804 0)
(-0.0110346969664 -0.052423528079 0)
(-0.0117960240492 -0.0508086738505 0)
(-0.0125240669719 -0.0490790146012 0)
(-0.0132128497572 -0.0472384152388 0)
(-0.0138562752295 -0.0452913771779 0)
(-0.0144479789351 -0.0432427591458 0)
(-0.0149809103307 -0.0410975612201 0)
(-0.0154465913578 -0.0388609373407 0)
(-0.0158341457696 -0.0365387561881 0)
(-0.0161294244416 -0.0341388706886 0)
(-0.0163147089115 -0.0316733051597 0)
(-0.0163701463672 -0.0291609047068 0)
(-0.0162771835808 -0.0266293047937 0)
(-0.016024944233 -0.0241133394551 0)
(-0.0156121427883 -0.021651073313 0)
(-0.0150480486842 -0.0192777750397 0)
(-0.0143412766245 -0.0170291526646 0)
(-0.0135163392626 -0.0149417640106 0)
(-0.0126127573757 -0.0130402142231 0)
(-0.0116742123908 -0.0113297118135 0)
(-0.0107333975437 -0.00979884121052 0)
(-0.00980686334045 -0.00843107689775 0)
(-0.00890165314657 -0.00721359591494 0)
(-0.00802281563714 -0.00613837121376 0)
(-0.00717635283931 -0.00519978711551 0)
(-0.00636971780154 -0.00439243999406 0)
(-0.00561170602512 -0.00370968395052 0)
(-0.00491264091136 -0.00314177525901 0)