/*--------------------------------*- C++ -*----------------------------------*\
| =========                 |                                                 |
| \\      /  F ield         | OpenFOAM: The Open Source CFD Toolbox           |
|  \\    /   O peration     | Version:  v1906                                 |
|   \\  /    A nd           | Web:      www.OpenFOAM.com                      |
|    \\/     M anipulation  |                                                 |
\*---------------------------------------------------------------------------*/
FoamFile
{
    version     2.0;
    format      ascii;
    class       surfaceScalarField;
    location    "160";
    object      phi;
}
// * * * * * * * * * * * * * * * * * * * * * * * * * * * * * * * * * * * * * //

dimensions      [0 3 -1 0 0 0 0];
oriented        oriented;


internalField   nonuniform List<scalar> 
18240
(
-0.000217055578726
0.000217230473353
-0.000423307394092
0.000206440820618
-0.000633250089236
0.000210098064764
-0.00084124704252
0.000208190533699
-0.00104518329133
0.000204082632239
-0.00124357739601
0.000198589015075
-0.00143546084785
0.000192019108545
-0.00161987211564
0.000184604788315
-0.00179621288728
0.000176464899009
-0.00196379445257
0.000167771512172
-0.00212229089898
0.000158608779028
-0.0022712394035
0.000149133353519
-0.00241054360684
0.000139405093987
-0.00253992808818
0.000129563268829
-0.00265947897492
0.000119640838456
-0.00276906336397
0.000109756608577
-0.00286890001857
9.99164391302e-05
-0.00295895369676
9.02191140966e-05
-0.00303952977569
8.0646323454e-05
-0.0031106511083
7.12799503085e-05
-0.00317267174101
6.20820273951e-05
-0.00322564165948
5.31217115366e-05
-0.00326993505301
4.4346347236e-05
-0.00330560687536
3.58167374363e-05
-0.00333303192736
2.74699746115e-05
-0.00335225618847
1.93620826288e-05
-0.00336364304574
1.14238723928e-05
-0.00336722249326
3.70977309696e-06
-0.00336334082204
-3.85239923479e-06
-0.00335201083078
-1.12078237976e-05
-0.00333356091792
-1.84284203354e-05
-0.00330799159721
-2.54561954395e-05
-0.00327561805342
-3.23597232783e-05
-0.0032364388041
-3.90762793385e-05
-0.00319076470426
-4.56678939835e-05
-0.00313860742295
-5.20657002944e-05
-0.00308028659518
-5.83219033105e-05
-0.00301584735505
-6.43603458883e-05
-0.00294563469584
-7.02205588477e-05
-0.00286975076657
-7.58189206176e-05
-0.00278858436091
-8.11803030476e-05
-0.00270231936738
-8.62148696321e-05
-0.00261140589236
-9.0932308607e-05
-0.00251613171791
-9.52395568142e-05
-0.00241702145707
-9.91326161472e-05
-0.00231448182538
-0.000102520621928
-0.00220911571996
-0.000105390308083
-0.00210145073262
-0.000107661024608
-0.00199215715168
-0.000109317758502
-0.00188186621527
-0.000110300737481
-0.00177128490995
-0.000110603452353
-0.00166110797654
-0.000110198502369
-0.00155202816684
-0.00010909795974
-0.00144474394833
-0.000107314992393
-0.00133987073212
-0.000104885505361
-0.00123804416575
-0.000101863696809
-0.00113974315303
-9.83060025991e-05
-0.00104548539455
-9.42983447652e-05
-0.000955575730352
-8.99062976167e-05
-0.00087038513016
-8.52319261774e-05
-0.000790036730977
-8.03362272107e-05
-0.000714753547516
-7.53228776877e-05
-0.000644493565021
-7.02389584272e-05
-0.000579349051877
-6.51807022247e-05
-0.000519142476064
-6.01772235193e-05
-0.000463861474807
-5.53123571935e-05
-0.000413228480391
-5.05961181695e-05
-0.000367156947963
-4.60972910711e-05
-0.00032530623669
-4.1807468191e-05
-0.000287546078804
-3.77799941246e-05
-0.00025350670431
-3.39909370622e-05
-0.000223040320818
-3.04803011594e-05
-0.000195774849879
-2.72131214613e-05
-0.000171563768229
-2.42192925855e-05
-0.000150051210965
-2.14574315462e-05
-0.000131103652624
-1.89504199016e-05
-0.00011439271835
-1.66541408073e-05
-9.98041483795e-05
-1.45866133003e-05
-8.70440232716e-05
-1.27025205689e-05
-7.60252497132e-05
-1.10123174817e-05
-6.65106033455e-05
-9.45712917114e-06
-5.85100504917e-05
-7.99129242942e-06
-5.20642359636e-05
-6.38839119139e-06
-4.65571026721e-05
-5.49208759124e-06
-4.12068964783e-05
-5.29096372941e-06
-3.63698019525e-05
-4.815071932e-06
-3.22733970458e-05
-4.03633226788e-06
-2.89187041987e-05
-3.32084610763e-06
-2.57038708348e-05
-3.14598031443e-06
-2.23260587218e-05
-3.32372100909e-06
-1.89655902976e-05
-3.27350298786e-06
-1.57129780829e-05
-3.17075009348e-06
-1.21872193452e-05
-3.42600849328e-06
-8.16973355691e-06
-3.90104377062e-06
-3.78985401488e-06
-4.24118697111e-06
-3.7216196361e-06
-0.000208696442591
0.000426097475893
-0.000444381028428
0.00044231055482
-0.000672669538129
0.000438564238243
-0.000895818371175
0.000431525177306
-0.00111357319987
0.000422009765735
-0.0013250443355
0.000410242556508
-0.00152934617304
0.000396485968748
-0.00172559578238
0.000381031174563
-0.00191311091963
0.000364136402586
-0.0020912529486
0.000346083143089
-0.00225960381615
0.000327106598749
-0.00241777040856
0.000307461466381
-0.0025655715932
0.000287343532239
-0.00270282087602
0.000266965596448
-0.00282952562529
0.000246473290041
-0.00294565545974
0.000226030990354
-0.00305135310968
0.000205732559308
-0.0031466938553
0.000185696094831
-0.00323190708062
0.000165969243147
-0.00330713018139
0.000146631247088
-0.00337263950652
0.00012769265508
-0.00342860085409
0.00010920345473
-0.00347530807514
9.11468140263e-05
-0.00351293142152
7.35528177243e-05
-0.00354176240771
5.63862919739e-05
-0.00356196072577
3.96654414035e-05
-0.0035738036871
2.33442709969e-05
-0.00357743255011
7.43576967221e-06
-0.00357310509735
-8.11049399107e-06
-0.00356094297659
-2.32811390966e-05
-0.00354118511504
-3.81252930757e-05
-0.003513937375
-5.26240422519e-05
-0.00347942523711
-6.68196501914e-05
-0.00343774840714
-8.06828432214e-05
-0.00338912970634
-9.42435711779e-05
-0.0033336777974
-0.00010745772154
-0.00327162866886
-0.00012033755223
-0.0032031199411
-0.000132820268898
-0.00312842058482
-0.000144896172898
-0.00304772082104
-0.000156481497688
-0.00296134485219
-0.000167542206555
-0.00286956045636
-0.000177973976895
-0.00277276883846
-0.000187719180691
-0.00267133782388
-0.000196657094523
-0.00256576271504
-0.000204711535783
-0.0024565268024
-0.00021175431095
-0.00234422697405
-0.000217701347171
-0.00222946392192
-0.000222432016089
-0.00211292715885
-0.000225871528068
-0.00199531639719
-0.000227927969046
-0.00187738217819
-0.000228558529658
-0.00175987943469
-0.000227724105548
-0.00164356370449
-0.000225436130166
-0.00152917895899
-0.000221726498037
-0.00141741394416
-0.000216672259443
-0.00130892745469
-0.000210378293373
-0.00120427290763
-0.000202979441771
-0.00110396339497
-0.000194634910035
-0.00100837305452
-0.000185510918839
-0.000917840396427
-0.000175788511992
-0.000832551488482
-0.000165633448475
-0.000752673962357
-0.000155219564217
-0.000678223742601
-0.000144690696148
-0.000609220555721
-0.000134197166771
-0.0005455410304
-0.000123851125203
-0.00048708836643
-0.0001137718569
-0.000433636210668
-0.000104035679714
-0.000385006644145
-9.47271944723e-05
-0.000340908728084
-8.58863343313e-05
-0.000301118922077
-7.75639372452e-05
-0.000265316977313
-6.97681343146e-05
-0.000233263634209
-6.25221092312e-05
-0.0002046365852
-5.58105760442e-05
-0.000179202121962
-4.96372022324e-05
-0.000156654092355
-4.39719136485e-05
-0.000136777263045
-3.88063610784e-05
-0.000119291865651
-3.41029028878e-05
-0.000104006603239
-2.98473518545e-05
-9.06697261195e-05
-2.60002244003e-05
-7.910790054e-05
-2.25461831991e-05
-6.90769805233e-05
-1.94469258914e-05
-6.03466894357e-05
-1.66913782909e-05
-5.24609395254e-05
-1.42326967546e-05
-4.57084530169e-05
-1.22110721681e-05
-4.00932874422e-05
-1.08628991192e-05
-3.51572921844e-05
-9.71303609933e-06
-3.10363347868e-05
-8.1093741691e-06
-2.77144484185e-05
-6.59714226736e-06
-2.47641985129e-05
-6.04026823942e-06
-2.18704330274e-05
-6.15357573895e-06
-1.87305113283e-05
-6.33507598111e-06
-1.55436467805e-05
-6.27432723039e-06
-1.22572683387e-05
-6.6126255098e-06
-8.53324617727e-06
-7.50684411069e-06
-4.07156354409e-06
-8.57438724106e-06
-7.72955872432e-06
-0.000217246098723
0.00064351736721
-0.000450698495557
0.000675948841187
-0.000681011846232
0.00066905972331
-0.000906849845621
0.000657546627835
-0.00112718546506
0.000642523351031
-0.00134099693401
0.000624232253135
-0.00154734343915
0.000603003904827
-0.00174536688841
0.000579225929514
-0.00193436202112
0.00055329491723
-0.00211373239132
0.000525616639185
-0.00228304296977
0.000496571575178
-0.00244195460778
0.000466527374318
-0.00259027332588
0.000435807342272
-0.00272787384493
0.000404711333948
-0.00285475080534
0.000373486070768
-0.0029709369047
0.000342353410027
-0.00307655892506
0.000311481465537
-0.00317175351907
0.000281018432104
-0.003256728917
0.000251062972825
-0.003331680316
0.000221702193311
-0.00339685730363
0.000192979841741
-0.00345247938349
0.000164937196592
-0.00349880859948
0.000137578358554
-0.00353606514875
0.000110913339324
-0.00356450445727
8.49202218104e-05
-0.00358433286618
5.95901370103e-05
-0.00359578814203
3.48863818282e-05
-0.00359905528229
1.07913349096e-05
-0.00359434986556
-1.27370779132e-05
-0.0035818341479
-3.57166837762e-05
-0.00356170236644
-5.81866838301e-05
-0.0035340978309
-8.01571892192e-05
-0.00349919957869
-0.000101656464084
-0.00345714123084
-0.000122679242787
-0.00340809806439
-0.000143234861646
-0.0033522088064
-0.000163295128168
-0.00328966176242
-0.000182842803584
-0.00322062079091
-0.000201820075705
-0.00314530870676
-0.000220176955891
-0.00306393852995
-0.000237821574156
-0.00297679211103
-0.000254667955997
-0.00288415753721
-0.000270589632805
-0.0027864002597
-0.000285466271464
-0.00268390741293
-0.000299141943064
-0.00257714872366
-0.000311469950309
-0.00246662787809
-0.000322277369792
-0.00235293013633
-0.000331407693969
-0.00223668033075
-0.000338693033624
-0.00211857380153
-0.000343994040532
-0.00199933977964
-0.000347180469341
-0.00187975292238
-0.000348166756195
-0.00176060146472
-0.000346899060729
-0.00164267915872
-0.000343382820799
-0.00152676015237
-0.000337671479925
-0.00141357618466
-0.000329881113539
-0.00130380336
-0.000320177075901
-0.00119803221472
-0.000308773666705
-0.00109677265651
-0.000295918150794
-0.00100042441585
-0.000281878422864
-0.000909302681125
-0.000266929753597
-0.000823610185076
-0.000251339826735
-0.000743477958039
-0.000235365669288
-0.000668935007101
-0.000219241035953
-0.000599957361727
-0.000203182160899
-0.000536433733387
-0.000187375157832
-0.000478219808333
-0.000171986247803
-0.000425101362174
-0.000157147561392
-0.000376852009584
-0.000142970288248
-0.000333194670395
-0.00012953059133
-0.000293859751334
-0.000116886354302
-0.000258544287176
-0.000105064647585
-0.000226967596789
-9.40807268249e-05
-0.000198828216885
-8.39259408288e-05
-0.000173855968003
-7.45865678164e-05
-0.000151768149308
-6.60314707375e-05
-0.000132317710105
-5.82298875897e-05
-0.000115249822607
-5.11390422811e-05
-0.000100345634205
-4.47212224723e-05
-8.73788848864e-05
-3.89323150202e-05
-7.61519930218e-05
-3.37393125113e-05
-6.64482953517e-05
-2.91134618832e-05
-5.80237444961e-05
-2.50802299628e-05
-5.05869546306e-05
-2.16306524412e-05
-4.4038165103e-05
-1.87221598745e-05
-3.85480369947e-05
-1.63108825491e-05
-3.38938857091e-05
-1.43241467643e-05
-2.94887583257e-05
-1.24657778845e-05
-2.54787887011e-05
-1.05576972195e-05
-2.23531670011e-05
-9.10970701392e-06
-1.99815994819e-05
-8.45902511605e-06
-1.70772513193e-05
-9.16103234562e-06
-1.36591098653e-05
-9.60681188122e-06
-1.03281895443e-05
-9.84815969391e-06
-6.82716475228e-06
-1.08994841261e-05
-3.40624455738e-06
-1.18803201785e-05
-1.10775819226e-05
-0.000222743441948
0.00086643632487
-0.00045891328636
0.000912302387662
-0.000692595407517
0.000902926326067
-0.000921883137584
0.0008870169391
-0.00114547293712
0.000866292743692
-0.00136222188215
0.000841158302913
-0.00157112469591
0.000812079470625
-0.00177131095349
0.000779581893713
-0.00196206582452
0.000744214314128
-0.00214281630161
0.000706528214494
-0.00231314097709
0.000667051733684
-0.00247274293703
0.000626281242017
-0.00262145314291
0.000584663691694
-0.00275919671815
0.000542597546257
-0.00288599549215
0.000500421792973
-0.00300193279387
0.000458424336198
-0.00310715845135
0.000416835230991
-0.00320185478931
0.000375839800961
-0.00328624580719
0.000335573729196
-0.00336056538153
0.00029613865515
-0.00342507080095
0.000257597038223
-0.0034800131287
0.000219988635724
-0.00352565468259
0.000183324044709
-0.00356224109756
0.00014760131187
-0.00359002188155
0.000112797606187
-0.00360922361627
7.88858983886e-05
-0.00362007312409
4.58248925199e-05
-0.00362277141779
1.35759396734e-05
-0.00361751879723
-1.79085977862e-05
-0.00360448940768
-4.86678788075e-05
-0.00358385832254
-7.87450419601e-05
-0.00355577678836
-0.000108169208698
-0.00352040089901
-0.000136968627761
-0.00347786807974
-0.000165151903715
-0.00342832718907
-0.000192721699431
-0.00337191668311
-0.000219655514146
-0.00330879580972
-0.000245919929104
-0.00323912469223
-0.0002714516937
-0.00316309609132
-0.000296172575801
-0.00308091748734
-0.000319971674444
-0.00299284197289
-0.000342721475082
-0.00289915229434
-0.000364261912783
-0.00280018988579
-0.000384417574712
-0.00269634022266
-0.000402985052975
-0.00258805796306
-0.000419751477056
-0.00247585300409
-0.000434485912439
-0.0023603095837
-0.000446959776473
-0.00224207164188
-0.000456943496392
-0.00212185286717
-0.000464229371549
-0.00200041857215
-0.000468634451714
-0.0018785830148
-0.000470024690635
-0.00175718546016
-0.000468321091385
-0.00163707421226
-0.000463519678666
-0.00151907871014
-0.000455693565565
-0.00140398528718
-0.000445000759371
-0.00129251276151
-0.000431675777534
-0.00118528922505
-0.000416021651835
-0.00108284062976
-0.00039839026524
-0.000985578583985
-0.000379161110216
-0.000893807672361
-0.000358719617729
-0.00080772379212
-0.000337438878127
-0.000727432177233
-0.000315670191559
-0.000652947118947
-0.000293734669473
-0.000584212327859
-0.000271922960808
-0.000521098767451
-0.000250490178446
-0.000463426370983
-0.000229657535468
-0.000410961802696
-0.000209606560458
-0.000363442399809
-0.000190481741487
-0.00032057428776
-0.000172386561485
-0.000282055954495
-0.000155390463461
-0.000247573750947
-0.000139528821437
-0.000216821944623
-0.000124812765784
-0.000189494947122
-0.000111229795885
-0.000165304105334
-9.87528873317e-05
-0.000143967977426
-8.73401512458e-05
-0.000125226680742
-7.6942667133e-05
-0.000108831323117
-6.75033792774e-05
-9.45562257969e-05
-5.89644464247e-05
-8.21878546592e-05
-5.12664453741e-05
-7.15355679796e-05
-4.43567115165e-05
-6.24221485655e-05
-3.81899396601e-05
-5.46996197477e-05
-3.27656851632e-05
-4.80423247745e-05
-2.82499001237e-05
-4.18614426076e-05
-2.4862065525e-05
-3.63709897314e-05
-2.17587252597e-05
-3.14282386762e-05
-1.92193740785e-05
-2.69929757045e-05
-1.68494246099e-05
-2.32185328751e-05
-1.4278120779e-05
-1.96687806777e-05
-1.26000703668e-05
-1.6240124074e-05
-1.18219859768e-05
-1.39757718331e-05
-1.1351358033e-05
-1.10020769812e-05
-1.2495347949e-05
-7.61422107152e-06
-1.31431064861e-05
-4.94446801956e-06
-1.34735320592e-05
-2.53238390109e-06
-1.41891238113e-05
-1.35544418271e-05
-0.000228582232714
0.00109519409074
-0.000469850074167
0.00115375692423
-0.000708508079206
0.0011417685545
-0.00094254255005
0.00112123448898
-0.00117052198782
0.00109445191293
-0.00139120395439
0.00106201699825
-0.00160352057616
0.0010245688349
-0.00180657676852
0.000982806911342
-0.00199965403703
0.000937455840348
-0.0021822015023
0.000889235539521
-0.00235382902973
0.000838834225185
-0.00251428794591
0.000786890597247
-0.00266345750664
0.000733978739646
-0.00280132108597
0.000680602195308
-0.00292795203696
0.000627188978674
-0.00304349026905
0.000574094643047
-0.00314813119222
0.000521603615311
-0.00324210546046
0.000469937664831
-0.00332567246858
0.00041925995115
-0.00339910374556
0.000369685564159
-0.00346268097895
0.000321285728337
-0.0035166827091
0.000274098442901
-0.00356138590155
0.000228131261911
-0.00359705491071
0.000183371077729
-0.00362394585004
0.000139785284615
-0.00364229712726
9.73306268791e-05
-0.00365233571212
5.59528281427e-05
-0.00365426862897
1.55947851538e-05
-0.00364829076711
-2.3804818094e-05
-0.00363457719496
-6.230349598e-05
-0.00361329223783
-9.99566146558e-05
-0.00358458285686
-0.000136809236788
-0.00354858903223
-0.000172898004785
-0.00350543852216
-0.000208242405476
-0.00345525888052
-0.000242846584701
-0.0033981738124
-0.000276690656526
-0.00333431680597
-0.00030973254352
-0.00326382929676
-0.000341899977247
-0.00318687533278
-0.000373093024203
-0.00310364169248
-0.000403177187632
-0.00301435320658
-0.000431987594034
-0.00291927376373
-0.000459324458045
-0.00281872091243
-0.000484959178509
-0.00271306725042
-0.000508632807944
-0.00260275325884
-0.000530064894103
-0.00248828791731
-0.000548955665404
-0.00237025833904
-0.00056499855211
-0.00224932741303
-0.000577887997955
-0.00212623684895
-0.000587337439886
-0.00200179783451
-0.000593094386564
-0.00187688210857
-0.000594963996237
-0.00175240068442
-0.000592828123576
-0.00162928029067
-0.000586666925057
-0.00150843178617
-0.000576569509177
-0.00139071890507
-0.000562741017205
-0.00127692592819
-0.000545495411667
-0.00116773067293
-0.000525242414427
-0.00106368516901
-0.000502459479655
-0.000965209002989
-0.00047765882168
-0.000872594350794
-0.000451353064398
-0.000786017281585
-0.000424031735951
-0.00070555250944
-0.000396147376278
-0.00063118489747
-0.000368111128716
-0.000562821908935
-0.000340291206825
-0.000500301298213
-0.000313012318963
-0.000443402933854
-0.000286553920271
-0.000391857261189
-0.000261146659256
-0.000345360595555
-0.000236969542744
-0.000303585739085
-0.000214149267803
-0.000266196833066
-0.000192764274787
-0.000232856271976
-0.00017285136342
-0.000203234287274
-0.000154414167278
-0.000177011044667
-0.000137429927743
-0.000153882551245
-0.000121856079048
-0.000133560577554
-0.000107634681664
-0.000115776844702
-9.46971128166e-05
-0.000100281935742
-8.29671893757e-05
-8.68484588476e-05
-7.23652136278e-05
-7.52695597433e-05
-6.28112144121e-05
-6.53604084803e-05
-5.42303360746e-05
-5.69531510031e-05
-4.65603071401e-05
-4.98448816699e-05
-3.98369604562e-05
-4.36043108508e-05
-3.44507835611e-05
-3.83111584441e-05
-3.01138162267e-05
-3.33995149892e-05
-2.66241120382e-05
-2.88196604838e-05
-2.37484947398e-05
-2.45917456837e-05
-2.10226786126e-05
-2.00734210539e-05
-1.87384822475e-05
-1.61088710408e-05
-1.65033616302e-05
-1.26433320323e-05
-1.52196833925e-05
-1.01478269805e-05
-1.37744182496e-05
-8.29802520639e-06
-1.42638047671e-05
-5.6534268948e-06
-1.57005816713e-05
-3.31929447434e-06
-1.57168250888e-05
-1.65681157341e-06
-1.57573483734e-05
-1.51640820958e-05
-0.000235575244791
0.00133094595408
-0.000483765109962
0.00140213077233
-0.000729019857247
0.00138720888566
-0.000969224928028
0.00136162215008
-0.00120283688518
0.00132824381678
-0.00142852033262
0.00128787674279
-0.00164514552446
0.0012413663218
-0.00185179152882
0.00118962094534
-0.0020477435679
0.00113357123399
-0.00223248125914
0.00107413192394
-0.00240566294875
0.00101216968725
-0.00256710340825
0.00094848006403
-0.00271675162396
0.000883771099355
-0.00285466566722
0.000818655749888
-0.0029809909771
0.000753649190858
-0.00309593795478
0.000689172146894
-0.0031997647582
0.000625556665421
-0.00329276017294
0.000563055250535
-0.00337523200052
0.000501850003108
-0.00344749529875
0.000442063278001
-0.00350986565597
0.00038376681858
-0.00356265156838
0.000326991477329
-0.00360615135266
0.000271734654117
-0.00364064831484
0.000217968126415
-0.00366641002959
0.000165643608248
-0.00368368524806
0.000114698907583
-0.00369270465638
6.50617274387e-05
-0.00369367866646
1.665458459e-05
-0.00368679921748
-3.06022872279e-05
-0.00367223837823
-7.67863243455e-05
-0.00365015111256
-0.000121970023873
-0.00362067477326
-0.000166216041434
-0.00358393339006
-0.000209574430417
-0.00354003830676
-0.00025207723982
-0.0034890942282
-0.000293735422782
-0.00343120163701
-0.000334533073343
-0.00336646485794
-0.000374424534574
-0.00329499651057
-0.000413328872674
-0.00321692769355
-0.000451128054406
-0.00313241384061
-0.000487662762005
-0.00304164633217
-0.000522732642165
-0.00294485932009
-0.00055609456502
-0.00284234145923
-0.000587465926143
-0.00273444287263
-0.000616525691706
-0.00262158645821
-0.000642921161984
-0.00250427385438
-0.000666273213907
-0.00238309480171
-0.000686187613384
-0.00225873074538
-0.000702266618627
-0.00213195869628
-0.000714128214461
-0.00200364672072
-0.000721428569114
-0.00187474358493
-0.000723892040133
-0.00174625672893
-0.000721341915839
-0.00161922125467
-0.000713730425671
-0.00149466156819
-0.000701157738214
-0.00137354918861
-0.00068388161716
-0.00125676155868
-0.000662310621945
-0.00114504323684
-0.000636986805152
-0.00103898066549
-0.00060854650187
-0.000938995483995
-0.000577665758263
-0.000845358602333
-0.000545009115825
-0.000758210947758
-0.000511195017786
-0.000677586173267
-0.000476784438071
-0.000603426591956
-0.000442279063208
-0.000535595788606
-0.000408126829791
-0.000473886225152
-0.000374722813924
-0.000418029061056
-0.000342408610195
-0.000367703837701
-0.00031146570782
-0.00032255502643
-0.000282109015708
-0.000282207875403
-0.000254483724486
-0.000246284895172
-0.00022867176043
-0.000214415254633
-0.000204702545028
-0.000186242458117
-0.000182566074048
-0.000161426764625
-0.00016222213422
-0.000139648610005
-0.000143608641638
-0.000120609066281
-0.000126646390459
-0.000104032252926
-0.00011124429441
-8.96653721587e-05
-9.73025579057e-05
-7.72809252496e-05
-8.4716605487e-05
-6.66776318532e-05
-7.33800492742e-05
-5.76835534792e-05
-6.3188671834e-05
-5.01583267671e-05
-5.40487502499e-05
-4.39911621524e-05
-4.59657864116e-05
-3.79874360708e-05
-4.04142570052e-05
-3.2725604035e-05
-3.53321317095e-05
-2.80762873162e-05
-3.12260542065e-05
-2.37499795421e-05
-2.80236765523e-05
-2.00408956045e-05
-2.46761255018e-05
-1.67698008888e-05
-2.19491251517e-05
-1.31248547274e-05
-2.00805784089e-05
-9.81328539811e-06
-1.84601165797e-05
-6.68849453068e-06
-1.68287337653e-05
-4.9798009048e-06
-1.58970799619e-05
-3.81680867996e-06
-1.67784811229e-05
-2.155656046e-06
-1.72947157543e-05
-1.04374480887e-06
-1.67854563567e-05
-1.61616775203e-05
-0.000244112521796
0.00157523449223
-0.000501019686409
0.00165922566069
-0.000754565675217
0.00164093946661
-0.0010024669188
0.00160970655936
-0.00124304527498
0.00156900160053
-0.00147485951274
0.00151986679467
-0.00169671506475
0.00146339339523
-0.00190766804511
0.00140074086
-0.00210701830788
0.00133308365635
-0.00229429206253
0.00126156284953
-0.00246921734031
0.00118724718384
-0.00263169492283
0.00111110488491
-0.00278176777365
0.0010339863451
-0.00291959085399
0.000956616511087
-0.00304540335797
0.000879594811362
-0.00315950386366
0.000803401448099
-0.00326222990988
0.000728407292091
-0.00335394053525
0.000654886540993
-0.00343500347652
0.000583029725003
-0.00350578438163
0.000512957399169
-0.00356664009307
0.000444732124748
-0.00361791253238
0.000378370189346
-0.00365992590349
0.000313850829192
-0.00369298353461
0.000251125352101
-0.00371736735798
0.000190123584357
-0.00373333613747
0.000130760590336
-0.00374112598981
7.29409277763e-05
-0.00374094938068
1.65638837996e-05
-0.00373299614844
-3.84734181784e-05
-0.00371743305289
-9.22710915011e-05
-0.00369440559655
-0.000144923318091
-0.00366403823227
-0.000196513442662
-0.00362643727019
-0.000247110013713
-0.0035816925871
-0.000296761209958
-0.00352988236613
-0.000345489926971
-0.00347107700445
-0.000393287817024
-0.00340534600776
-0.000440110242133
-0.00333276472444
-0.000485870332628
-0.00325342359478
-0.000530434929015
-0.00316743704724
-0.000573620800914
-0.00307495421801
-0.000615192669807
-0.00297616954317
-0.000654862318877
-0.0028713341764
-0.000692290055426
-0.00276076674153
-0.000727087708736
-0.00264486446477
-0.000758823515182
-0.00252411413201
-0.000787029176666
-0.00239910312867
-0.000811209412156
-0.00227052942521
-0.000830856032243
-0.00213920934845
-0.000845468247791
-0.00200607915681
-0.000854582394592
-0.00187218607353
-0.00085781145256
-0.0017386646992
-0.000854891620447
-0.00160669654094
-0.000845727838813
-0.00147746090549
-0.000830423072676
-0.0013520780688
-0.000809293765586
-0.00123155520754
-0.000782861842601
-0.0011167286244
-0.000751840475717
-0.0010082243876
-0.000717075480107
-0.00090645580809
-0.000679456848857
-0.000811650963306
-0.000639832973997
-0.000723895751954
-0.000598965968661
-0.000643165822635
-0.000557525996454
-0.000569349185924
-0.00051610370238
-0.000502255967303
-0.000475224099752
-0.000441624549245
-0.000435354704878
-0.000387125762348
-0.000396904117922
-0.000338373853974
-0.000360211055346
-0.000294944838121
-0.000325527950742
-0.000256401635477
-0.000293013919095
-0.000222314118336
-0.000262743212136
-0.000192271692132
-0.000234726357748
-0.000165887221365
-0.000208929198645
-0.00014279877323
-0.00018528697961
-0.000122669513144
-0.000163711878684
-0.000105188555255
-0.000144099341627
-9.00711005812e-05
-0.000126331659754
-7.70597014071e-05
-0.000110282161934
-6.59249724317e-05
-9.58177984741e-05
-5.64673923121e-05
-8.28028582819e-05
-4.85182513124e-05
-7.11018941186e-05
-4.19275538369e-05
-6.06019527122e-05
-3.64809294848e-05
-5.1373406797e-05
-3.13841837694e-05
-4.54690403243e-05
-2.66627815381e-05
-4.00080573878e-05
-2.23502389122e-05
-3.54901426317e-05
-1.87810090445e-05
-3.15395514358e-05
-1.51587795918e-05
-2.82409283251e-05
-1.19047448409e-05
-2.51400713445e-05
-8.87541943337e-06
-2.3041328522e-05
-6.53887102008e-06
-2.07253805598e-05
-4.14691071505e-06
-1.91457429547e-05
-2.22681512417e-06
-1.77434939522e-05
-1.78084866985e-06
-1.7151645789e-05
-1.0100814898e-06
-1.79835668841e-05
-4.63004741125e-07
-1.72506913966e-05
-1.65841577472e-05
-0.00025448131248
0.00182989291848
-0.00052206024936
0.00192698857424
-0.000785736546992
0.00190480167843
-0.00104299384874
0.00186714612306
-0.0012919753544
0.00181816235133
-0.00153111449359
0.00175918089391
-0.00175914586595
0.0016915952121
-0.00197510930919
0.00161686989675
-0.002178336335
0.00153647116597
-0.00236842349847
0.00145180537208
-0.00254519730374
0.00136417116357
-0.00270867452798
0.00127472723247
-0.00285902221743
0.00118447423573
-0.00299651961247
0.00109424937087
-0.00312152437272
0.00100473055495
-0.00323444400205
0.000916447741675
-0.00333571250381
0.00082979845856
-0.00342577256654
0.000745065367395
-0.00350506206961
0.000662434427624
-0.00357400489597
0.000582011869771
-0.00363300440751
0.000503840043523
-0.00368243973781
0.000427910606174
-0.00372266330398
0.000354176433154
-0.00375400012436
0.000282560983675
-0.00377674719673
0.000212966443467
-0.00379117379454
0.000145279692965
-0.00379752149521
7.93779658998e-05
-0.00379600466509
1.51328975157e-05
-0.00378681054666
-4.75851741733e-05
-0.00377009995138
-0.000108903162238
-0.0037460075197
-0.000168941140483
-0.00371464280599
-0.000227807808951
-0.00367609165202
-0.000285595236155
-0.00363041867155
-0.000342372960684
-0.00357767079671
-0.000398181479621
-0.00351788190101
-0.00045302548038
-0.00345107977578
-0.000506866479754
-0.00337729364373
-0.000559615987292
-0.00329656409535
-0.000611129719683
-0.00320895352359
-0.000661202297908
-0.00311455880226
-0.000709564295401
-0.00301352316628
-0.000755880685278
-0.0029060497693
-0.000799752243258
-0.00279241387433
-0.000840718153957
-0.00267297685353
-0.000878261089788
-0.0025481993629
-0.000911812833583
-0.00241865714445
-0.000940763390979
-0.0022850570809
-0.000964472937054
-0.00214825402388
-0.000982292633591
-0.00200926198795
-0.000993599555114
-0.00186925090121
-0.000997850430789
-0.00172952121449
-0.000994651055338
-0.00159145037951
-0.000983829500191
-0.00145642746233
-0.000965476938918
-0.00132577669009
-0.000939975207531
-0.00120068919064
-0.000907979037197
-0.00108212864773
-0.000870428803223
-0.000970765354048
-0.000828464853257
-0.000866976242312
-0.000783268543145
-0.000770911301658
-0.000735917464569
-0.000682567811617
-0.000687324672043
-0.000601843178843
-0.000638262089048
-0.000528558044094
-0.000589396047757
-0.000462463270045
-0.000541322391974
-0.000403236537993
-0.000494581047805
-0.000350478740776
-0.000449658232564
-0.000303719531466
-0.000406962912949
-0.000262444542823
-0.000366792424478
-0.000226133329331
-0.000329311427349
-0.000194291649921
-0.000294568605186
-0.000166463170212
-0.000262535703017
-0.000142229221972
-0.00023314167569
-0.000121204512864
-0.000206287635495
-0.000103035255904
-0.00018185493037
-8.73973589257e-05
-0.000159708730456
-7.39968622354e-05
-0.000139701787232
-6.25700198578e-05
-0.000121676665581
-5.2884745846e-05
-0.000105469145446
-4.47415282831e-05
-9.0910739336e-05
-3.79733409214e-05
-7.78336495093e-05
-3.24221495634e-05
-6.61149035364e-05
-2.74336647474e-05
-5.63217519449e-05
-2.3050460031e-05
-4.98086291421e-05
-1.91409557546e-05
-4.38712020524e-05
-1.57087510457e-05
-3.88715408917e-05
-1.28154147387e-05
-3.43781754672e-05
-1.00341633215e-05
-3.09619533067e-05
-7.15089647119e-06
-2.79577976785e-05
-4.86794949682e-06
-2.5254418602e-05
-2.64577585691e-06
-2.28746906342e-05
-1.42734051683e-06
-2.02910918194e-05
-2.74302775848e-07
-1.88228003605e-05
2.28745515953e-07
-1.75784870195e-05
7.38975506835e-08
-1.77540875683e-05
9.94892183767e-08
-1.7201691974e-05
-1.64431246257e-05
-0.000266984228497
0.00209705310165
-0.000547435718248
0.00220762838089
-0.000823301527587
0.00218085176868
-0.00109174849389
0.00213577567085
-0.00135069572453
0.00207728772927
-0.00159842449659
0.00200708357431
-0.00183359455008
0.00192693424048
-0.00205524202975
0.00183868112946
-0.00226275577717
0.00174414337437
-0.00245583724738
0.00164503984214
-0.00263445015196
0.00154293179792
-0.00279876702238
0.00143918660881
-0.00294911646668
0.00133496124564
-0.00308593565469
0.00123120139866
-0.00320972944388
0.00112865272445
-0.00332103731099
0.0010278798457
-0.00342040803569
0.000929289464065
-0.00350838114165
0.000833155153565
-0.00358547453708
0.00073964098427
-0.00365217640721
0.000648823733943
-0.00370894108535
0.000560711517771
-0.00375618677486
0.000475260206249
-0.00379429575839
0.000392386300283
-0.00382361463596
0.000311977968831
-0.00384445589476
0.000233902788036
-0.00385709863595
0.000158014665453
-0.00386179001039