/*--------------------------------*- C++ -*----------------------------------*\
| =========                 |                                                 |
| \\      /  F ield         | OpenFOAM: The Open Source CFD Toolbox           |
|  \\    /   O peration     | Version:  v1906                                 |
|   \\  /    A nd           | Web:      www.OpenFOAM.com                      |
|    \\/     M anipulation  |                                                 |
\*---------------------------------------------------------------------------*/
FoamFile
{
    version     2.0;
    format      ascii;
    class       volVectorField;
    location    "235";
    object      Ua;
}
// * * * * * * * * * * * * * * * * * * * * * * * * * * * * * * * * * * * * * //

dimensions      [0 1 -1 0 0 0 0];


internalField   nonuniform List<vector> 
9216
(
(-0.0105151281007 0.0105330456863 0)
(-0.0110976414808 0.0339950063908 4.00078587523e-27)
(-0.0110974761303 0.0578250013979 -7.19249765757e-31)
(-0.0109986416199 0.0816724935381 0)
(-0.0108578556212 0.105137683582 0)
(-0.0106779409079 0.128129074878 0)
(-0.010464821102 0.150546044662 0)
(-0.010219881053 0.172298534218 0)
(-0.00994784309396 0.193303721536 0)
(-0.00964924834381 0.21348962009 0)
(-0.00932941833917 0.232791511018 0)
(-0.00898831815603 0.251156045643 0)
(-0.0086319353907 0.268536986704 0)
(-0.00825946828976 0.284899476496 0)
(-0.00787748843199 0.300215062388 0)
(-0.00748421809167 0.314466134238 0)
(-0.00708676035387 0.327640375297 0)
(-0.00668222933578 0.339735342011 0)
(-0.00627822952092 0.35075257609 0)
(-0.00587069342753 0.36070231808 0)
(-0.00546774077515 0.369597483838 0)
(-0.00506413470519 0.377458403948 0)
(-0.00466851818937 0.384306916688 0)
(-0.00427453143403 0.390171044406 0)
(-0.00389135632376 0.395079367326 0)
(-0.00351160800225 0.3990654523 0)
(-0.00314497611063 0.402162710156 0)
(-0.00278314595726 0.404408453291 0)
(-0.00243627171548 0.405839331955 0)
(-0.00209523871462 0.406494847176 0)
(-0.00177058911299 0.406413485372 0)
(-0.00145249222517 0.405635733914 0)
(-0.00115167208217 0.404200834425 0)
(-0.000857758495212 0.402148683198 0)
(-0.000581745239847 0.399518109728 0)
(-0.000312842548139 0.396348072849 0)
(-6.2081001577e-05 0.392676228941 0)
(0.000181622965732 0.38853965952 0)
(0.000407281120714 0.383974190943 0)
(0.000626139775136 0.379014488727 0)
(0.000827324535866 0.373694067138 0)
(0.00102211278152 0.368044774859 0)
(0.0011998249538 0.362097452425 0)
(0.0013716700902 0.355880925344 0)
(0.00152721103145 0.349423173754 0)
(0.0016774851708 0.342749883558 0)
(0.00181235080503 0.335886078331 0)
(0.00194260128586 0.32885434298 0)
(0.0020584127614 0.321676792153 0)
(0.00217025872051 0.314373007638 0)
(0.00226866329532 0.306962307251 0)
(0.00236373214495 0.299461486983 0)
(0.00244634391674 0.291887289192 0)
(0.00252618537616 0.284253968862 0)
(0.00259450862089 0.276575944232 0)
(0.002660555639 0.268865249854 0)
(0.00271595518767 0.261134292855 0)
(0.0027694762023 0.253393192679 0)
(0.00281314297513 0.245652641037 0)
(0.00285524515911 0.237921169794 0)
(0.00288821065002 0.230208056945 0)
(0.00291984071074 0.222520513103 0)
(0.00294298976547 0.214866640849 0)
(0.00296497873035 0.20725257074 0)
(0.00297910139972 0.199685430708 0)
(0.00299220128056 0.192170422406 0)
(0.00299803475459 0.184713813036 0)
(0.0030029818317 0.177319980134 0)
(0.00300127284036 0.169994393279 0)
(0.00299883042066 0.162740623595 0)
(0.0029903750627 0.155563329533 0)
(0.00298138354456 0.148465258628 0)
(0.00296706951096 0.141450212849 0)
(0.0029524663362 0.134520043646 0)
(0.00293328491474 0.127677610907 0)
(0.00291411948659 0.120923795248 0)
(0.00289117018829 0.114260432995 0)
(0.00286858810799 0.107687347048 0)
(0.00284305456652 0.101205271962 0)
(0.00281827314788 0.0948129191376 0)
(0.00279138893974 0.0885098829735 0)
(0.00276564550634 0.0822937386487 0)
(0.00273863139548 0.0761629475972 0)
(0.00271310869546 0.0701140007857 0)
(0.00268706796347 0.0641443327986 0)
(0.00266273044675 0.0582495488052 0)
(0.00263836733823 0.0524264209257 0)
(0.00261542001321 0.0466703858845 0)
(0.00259187769987 0.040978941118 0)
(0.002567084109 0.0353503896549 0)
(0.00253535466564 0.0297898878988 0)
(0.00248551320155 0.0243164176306 0)
(0.00236985283895 0.019031863679 0)
(0.00211237514429 0.0134569556365 0)
(0.0026083942435 0.00920487364426 0)
(0.00436413788087 0.00436634073203 0)
(-0.0340401796578 0.0112014608925 0)
(-0.0376342763973 0.0379526354789 0)
(-0.0375581313945 0.0646378797653 -4.19986695838e-27)
(-0.0370661423488 0.0913672202254 0)
(-0.0363820663665 0.117633459028 0)
(-0.0355306057946 0.143354780396 0)
(-0.0345282777977 0.168424959588 0)
(-0.0333863115809 0.192744407659 0)
(-0.0321218037633 0.216221533739 0)
(-0.0307462249424 0.238775377805 0)
(-0.0292784157762 0.260334429916 0)
(-0.0277293545861 0.280838606529 0)
(-0.0261187711909 0.300237366492 0)
(-0.0244560216278 0.318491464982 0)
(-0.0227608745786 0.335570524129 0)
(-0.0210401442659 0.351454668644 0)
(-0.0193130649286 0.366131710978 0)
(-0.0175833412608 0.379598749255 0)
(-0.0158693889989 0.391859136597 0)
(-0.0141715658088 0.402924092138 0)
(-0.0125074445863 0.412809616173 0)
(-0.0108740897723 0.4215381345 0)
(-0.00928835643441 0.429135502289 0)
(-0.00774424367074 0.435632657952 0)
(-0.00625808477391 0.441062817337 0)
(-0.00482114543627 0.445463079725 0)
(-0.00344939537715 0.448871889066 0)
(-0.00213170658215 0.451330515427 0)
(-0.000883793584796 0.452880823733 0)
(0.000307514197052 0.453566552107 0)
(0.00142671476144 0.453431439958 0)
(0.00248869720739 0.452520153945 0)
(0.00347825565656 0.450876924193 0)
(0.00441170698372 0.448546556965 0)
(0.00527402664833 0.445572826265 0)
(0.00608254789078 0.441999133429 0)
(0.00682254457237 0.437867763775 0)
(0.00751208203583 0.433220076325 0)
(0.00813674517804 0.428096148762 0)
(0.00871502579187 0.422534702565 0)
(0.00923283061283 0.416573077717 0)
(0.00970879340597 0.410246925403 0)
(0.0101291661853 0.403590483716 0)
(0.0105124908272 0.396636076006 0)
(0.0108453682512 0.389414633404 0)
(0.0111460359633 0.3819550299 0)
(0.0114014545821 0.374284818443 0)
(0.0116293920645 0.366429440273 0)
(0.0118171600525 0.358413124998 0)
(0.0119819095985 0.350257999368 0)
(0.0121113042635 0.341985125756 0)
(0.0122217727945 0.333613537896 0)
(0.0123013205664 0.325161377982 0)
(0.0123655651994 0.316644872371 0)
(0.0124028620678 0.308079550131 0)
(0.0124279685853 0.299479173545 0)
(0.0124295985048 0.290857006974 0)
(0.0124216168191 0.282224704182 0)
(0.0123931286335 0.273593616936 0)
(0.0123571100309 0.264973645544 0)
(0.012303095003 0.256374563403 0)
(0.0122431866533 0.247804828078 0)
(0.0121674065671 0.239272917027 0)
(0.0120870260288 0.230786104002 0)
(0.0119926116059 0.222351789339 0)
(0.0118946455951 0.213976240576 0)
(0.0117843059519 0.20566591817 0)
(0.0116713390102 0.197426188226 0)
(0.0115475878026 0.189262633774 0)
(0.0114221050658 0.181179742828 0)
(0.0112874479648 0.173182210576 0)
(0.0111520149832 0.165273614374 0)
(0.0110091049373 0.157457701804 0)
(0.010866483231 0.149737058817 0)
(0.0107182055845 0.14211439114 0)
(0.0105714160666 0.134591197738 0)
(0.0104209200417 0.127169043215 0)
(0.0102732334162 0.119848241813 0)
(0.0101238916957 0.112629128843 0)
(0.00997876528087 0.105510764275 0)
(0.00983408144932 0.098492202697 0)
(0.0096950283563 0.0915712181235 0)
(0.00955846975403 0.0847455817571 0)
(0.00942884699732 0.0780118156857 0)
(0.00930355356987 0.0713664822616 0)
(0.00918612666131 0.0648049798384 0)
(0.00907419738753 0.0583228607632 0)
(0.00896986137273 0.0519146908862 0)
(0.00886983854353 0.0455753097734 0)
(0.00877236423879 0.039298515345 0)
(0.00866766473755 0.0330773617069 0)
(0.00853706815982 0.0268987906956 0)
(0.00833149931176 0.0207384785083 0)
(0.00790314564657 0.0143636580469 0)
(0.00782495228676 0.00781139156914 0)
(0.0091859224846 0.00260142930571 0)
(-0.0582710776813 0.0113473140148 0)
(-0.064520693053 0.0385662606192 0)
(-0.0643203343487 0.0655801437299 -4.20365201581e-27)
(-0.0634678622923 0.0926905896255 0)
(-0.0623104727945 0.119327475863 0)
(-0.0608808701022 0.145403507542 0)
(-0.0591997878648 0.170808922279 0)
(-0.0572875031212 0.195441667252 0)
(-0.0551684578671 0.219208748395 0)
(-0.0528656281394 0.242027746274 0)
(-0.0504057608239 0.263826698831 0)
(-0.0478122969951 0.284544903896 0)
(-0.0451122776605 0.304132231508 0)
(-0.0423276921368 0.322549532966 0)
(-0.0394842766257 0.339767521784 0)
(-0.0366011498172 0.355766935357 0)
(-0.0337016784935 0.370537131445 0)
(-0.0308012635744 0.384076116184 0)
(-0.0279203805591 0.396389009891 0)
(-0.0250704041706 0.407488048856 0)
(-0.0222688613324 0.417391039984 0)
(-0.0195232183628 0.426121397951 0)
(-0.0168483084618 0.433706695134 0)
(-0.0142480653561 0.440178769478 0)
(-0.0117350244126 0.445572410655 0)
(-0.0093100546448 0.44992551628 0)
(-0.00698377820796 0.453277944441 0)
(-0.00475444061454 0.455671689257 0)
(-0.002631057607 0.457149882033 0)
(-0.000609630547685 0.457756937318 0)
(0.00130221722799 0.457537714643 0)
(0.00311039796552 0.456537626646 0)
(0.00480844736934 0.454801937142 0)
(0.00640382645192 0.452375843876 0)
(0.0078911423331 0.449303924672 0)
(0.00927914988149 0.445630117159 0)
(0.010563297809 0.441397352925 0)
(0.0117532822971 0.436647487407 0)
(0.0128452437186 0.431421089905 0)
(0.013849525214 0.425757329745 0)
(0.0147628019301 0.419693894955 0)
(0.0155957904795 0.413266831389 0)
(0.0163455615607 0.406510592181 0)
(0.0170229665745 0.399457846081 0)
(0.0176253429317 0.392139623323 0)
(0.0181634662889 0.384585091145 0)
(0.0186348286821 0.376821797447 0)
(0.019049951599 0.368875429448 0)
(0.0194063777881 0.360770123871 0)
(0.0197142207512 0.352528206493 0)
(0.0199709878082 0.344170571551 0)
(0.0201862624109 0.335716414297 0)
(0.0203574453903 0.32718365122 0)
(0.020493497142 0.318588639604 0)
(0.0205916692391 0.309946640705 0)
(0.020660244501 0.30127153228 0)
(0.0206963093204 0.292576288146 0)
(0.0207074497302 0.283872673621 0)
(0.0206906070394 0.275171743144 0)
(0.0206526911312 0.266483520594 0)
(0.0205905468345 0.257817491667 0)
(0.020510458777 0.249182258867 0)
(0.020409252743 0.240586032194 0)
(0.020292665851 0.232036261285 0)
(0.0201575964126 0.223540107094 0)
(0.0200093232041 0.215104045145 0)
(0.0198449166852 0.206734325725 0)
(0.0196692902012 0.198436554482 0)
(0.0194797773797 0.190216130974 0)
(0.0192810073316 0.182077806379 0)
(0.0190706534492 0.174026111687 0)
(0.0188531247204 0.166064902353 0)
(0.0186264846854 0.158197771609 0)
(0.0183949597343 0.150427585736 0)
(0.0181570276691 0.142756895034 0)
(0.017916744208 0.13518746994 0)
(0.0176729952972 0.127720707682 0)
(0.0174296499484 0.120357173311 0)
(0.0171859713271 0.113097012869 0)
(0.0169456026863 0.105939506564 0)
(0.0167081280261 0.0988834865872 0)
(0.016476900004 0.0919269036465 0)
(0.0162517408689 0.0850672559647 0)
(0.0160356130492 0.0783011709088 0)
(0.0158284407579 0.0716248376032 0)
(0.0156326102534 0.0650335944461 0)
(0.0154478616846 0.0585223440286 0)
(0.015275557104 0.0520850680612 0)
(0.0151144999472 0.0457150200999 0)
(0.0149638391137 0.0394036920216 0)
(0.0148196294286 0.0331395466853 0)
(0.0146768130587 0.0269032885098 0)
(0.0145293791697 0.0206605826934 0)
(0.0143747396561 0.0143061114021 0)
(0.0143571345169 0.00784551209736 0)
(0.0134144251863 0.00209870993228 0)
(-0.0830585898906 0.0114732482507 0)
(-0.0920388921773 0.0391356357768 0)
(-0.0917443587428 0.066487919155 4.20169733675e-27)
(-0.090513683192 0.0939585710764 0)
(-0.0888451413653 0.120940494891 0)
(-0.0867877078746 0.147341465244 0)
(-0.0843701042971 0.173047606385 0)
(-0.081622685914 0.197953876508 0)
(-0.0785793637199 0.221965358868 0)
(-0.0752749661871 0.244998284788 0)
(-0.0717463856255 0.266980237904 0)
(-0.0680295206729 0.287850463887 0)
(-0.0641611242791 0.307559557249 0)
(-0.0601753591311 0.326069326188 0)
(-0.0561064442422 0.343352069579 0)
(-0.0519847959079 0.359390147866 0)
(-0.0478405391124 0.374175009138 0)
(-0.0436991832569 0.387706613794 0)
(-0.0395860175524 0.399992355122 0)
(-0.0355212635524 0.411046459663 0)
(-0.0315253332192 0.420888928588 0)
(-0.027613386995 0.429545010264 0)
(-0.0238013875178 0.437044246039 0)
(-0.0201000093493 0.443420054545 0)
(-0.0165214035232 0.448708915592 0)
(-0.0130724289805 0.452950063086 0)
(-0.00976203849942 0.456184796064 0)
(-0.00659386426667 0.458456239314 0)
(-0.00357415525327 0.459808754764 0)
(-0.000703786662697 0.460287737297 0)
(0.00201332449423 0.459939096551 0)
(0.00457866610598 0.458809106419 0)
(0.00699028293481 0.456943916154 0)
(0.00925163998646 0.454389411711 0)
(0.0113624932603 0.451190894679 0)
(0.013327941818 0.44739287318 0)
(0.0151490829179 0.443038828328 0)
(0.0168322555899 0.438171067258 0)
(0.018379590507 0.432830556805 0)
(0.0197983171369 0.427056795289 0)
(0.0210913034051 0.420887722586 0)
(0.0222663473575 0.414359609997 0)
(0.0233267940344 0.407507038507 0)
(0.024280728636 0.400362803301 0)
(0.0251317375956 0.392957948125 0)
(0.0258879440211 0.385321686132 0)
(0.0265529733405 0.377481484015 0)
(0.0271347720973 0.369462997489 0)
(0.0276368215065 0.361290195899 0)
(0.0280667043258 0.352985313953 0)
(0.0284276065417 0.344569012286 0)
(0.028726595997 0.336060342375 0)
(0.0289664394765 0.327476933761 0)
(0.0291535755635 0.318834970169 0)
(0.0292902734599 0.310149397373 0)
(0.029382277572 0.301433903546 0)
(0.0294313238491 0.292701136612 0)
(0.0294424467871 0.283962682836 0)
(0.0294168688861 0.275229286356 0)
(0.029358953092 0.266510817288 0)
(0.0292694722438 0.257816482581 0)
(0.0291521997157 0.249154777581 0)
(0.0290075663251 0.240533683049 0)
(0.0288388741522 0.231960594262 0)
(0.0286463417559 0.223442497438 0)
(0.0284329348063 0.214985874491 0)
(0.0281988020955 0.206596858915 0)
(0.0279467105527 0.198281116142 0)
(0.0276768701101 0.190043978115 0)
(0.0273919693777 0.181890302857 0)
(0.0270923898823 0.173824593187 0)
(0.0267808347888 0.165850840791 0)
(0.0264579303108 0.157972632699 0)
(0.0261264482297 0.150192986763 0)
(0.0257872948056 0.142514453794 0)
(0.0254433251899 0.134938951455 0)
(0.0250957182186 0.127467866532 0)
(0.0247473874669 0.120101893389 0)
(0.0243997420559 0.112841143058 0)
(0.0240556959345 0.105684991218 0)
(0.0237168127236 0.0986321956339 0)
(0.0233859179246 0.091680755294 0)
(0.0230646255786 0.0848280372514 0)
(0.0227555520356 0.0780706444783 0)
(0.0224602172414 0.0714045422183 0)
(0.0221808563515 0.0648249171386 0)
(0.0219186830967 0.0583262716839 0)
(0.0216752988423 0.0519022049449 0)
(0.0214513376827 0.0455453206749 0)
(0.0212476363715 0.0392466516506 0)
(0.0210647236503 0.0329950662109 0)
(0.0209050648046 0.0267756368294 0)
(0.020777121261 0.0205689792281 0)
(0.0207009354049 0.0143425484763 0)
(0.0206703623665 0.00820202439148 0)
(0.0189175841436 0.00233938482522 0)
(-0.108237910107 0.011634606138 0)
(-0.119955248795 0.0398808547155 0)
(-0.119560835553 0.0677012695253 0)
(-0.117937497641 0.0956544291766 0)
(-0.115737333685 0.123095856912 0)
(-0.113026407778 0.149928045873 0)
(-0.10984307603 0.176032076232 0)
(-0.106228387339 0.201299050652 0)
(-0.102227189775 0.225631371242 0)
(-0.0978864112034 0.248943596053 0)
(-0.0932545432887 0.271162660762 0)
(-0.088379850139 0.292227972383 0)
(-0.0833102451342 0.312091112325 0)
(-0.0780915836208 0.330715444013 0)
(-0.0727680072748 0.348075412 0)
(-0.0673803345087 0.364155835422 0)
(-0.0619668953872 0.378950972942 0)
(-0.0565620000133 0.392463663051 0)
(-0.051197249604 0.404704315875 0)
(-0.0459000320728 0.415690048634 0)
(-0.0406952510666 0.425443737168 0)
(-0.0356037686811 0.433993254205 0)
(-0.0306444600498 0.441370669661 0)
(-0.0258325095245 0.447611645127 0)
(-0.02118168621 0.452754799816 0)
(-0.0167024224322 0.456841243675 0)
(-0.0124042367161 0.459914076631 0)
(-0.00829357820008 0.462018011874 0)
(-0.00437636791995 0.463198953192 0)
(-0.00065564282963 0.463503662241 0)
(0.0028657856325 0.462979365714 0)
(0.00618782997693 0.461673522746 0)
(0.00931031727155 0.459633382318 0)
(0.0122356532764 0.456905824329 0)
(0.0149659341395 0.453537065425 0)
(0.017505612628 0.449572399169 0)
(0.0198585665087 0.445056010201 0)
(0.0220308235349 0.440030802326 0)
(0.0240276035259 0.434538247692 0)
(0.025856070321 0.428618267251 0)
(0.027522379329 0.422309129177 0)
(0.029034434898 0.41564737005 0)
(0.0303989678872 0.408667740759 0)
(0.0316242746552 0.401403164171 0)
(0.0327173448128 0.393884717978 0)
(0.0336865620237 0.386141620139 0)
(0.0345388973628 0.378201250465 0)
(0.0352825536832 0.370089162611 0)
(0.0359242388003 0.361829136916 0)
(0.0364717419768 0.353443213505 0)
(0.0369312991799 0.344951778073 0)
(0.037310092483 0.336373615187 0)
(0.0376137192586 0.327726017522 0)
(0.0378486103993 0.319024852294 0)
(0.0380196130566 0.310284691179 0)
(0.0381323230508 0.301518885284 0)
(0.038190788941 0.292739702379 0)
(0.0381997558584 0.283958400141 0)
(0.0381624952751 0.275185364696 0)
(0.0380829546509 0.26643017536 0)
(0.0379637146847 0.257701730986 0)
(0.0378080395377 0.249008296528 0)
(0.0376179603367 0.240357613003 0)
(0.0373962178617 0.231756921715 0)
(0.037144469323 0.223213049172 0)
(0.0368651165278 0.214732404556 0)
(0.0365596316349 0.20632104105 0)
(0.0362302624386 0.197984628414 0)
(0.0358784728974 0.189728489248 0)
(0.0355065199176 0.181557548828 0)
(0.0351160050053 0.173476353785 0)
(0.0347093173453 0.165489006287 0)
(0.0342882943543 0.157599168957 0)
(0.0338555295232 0.149809989684 0)
(0.033413141189 0.142124102559 0)
(0.03296394458 0.134543551649 0)
(0.0325103294618 0.127069792685 0)
(0.032055298828 0.119703621529 0)
(0.0316014571457 0.112445184275 0)
(0.0311519179529 0.10529391564 0)
(0.0307094044919 0.0982485586171 0)
(0.0302770296748 0.0913071138151 0)
(0.0298575108626 0.0844668691894 0)
(0.0294538240808 0.0777243569662 0)
(0.0290685345369 0.0710753835973 0)
(0.028704330932 0.0645149798074 0)
(0.0283634824449 0.0580374127146 0)
(0.0280482840131 0.0516360827381 0)
(0.0277607175371 0.045303477406 0)
(0.0275029924726 0.0390309833837 0)
(0.0272777944217 0.0328087107831 0)
(0.0270896768806 0.026625634568 0)
(0.0269468621368 0.0204709495588 0)
(0.0268572973966 0.0143308925712 0)
(0.0267127191082 0.00831180382638 0)
(0.024082245174 0.00243276575311 0)
(-0.133946284033 0.0118356200965 0)
(-0.148442046648 0.0408293063088 0)
(-0.147936039862 0.0692543980195 0)
(-0.14589771945 0.0978267320884 0)
(-0.143136386781 0.125855898454 0)
(-0.139736146742 0.153238141581 0)
(-0.135746396672 0.179848430641 0)
(-0.131219999107 0.20557311652 0)
(-0.126214179849 0.230311271216 0)
(-0.120788906057 0.253975463894 0)
(-0.115005580449 0.276491929491 0)
(-0.108925481851 0.297800479175 0)
(-0.102608804541 0.317854104881 0)
(-0.0961133986497 0.336618376224 0)
(-0.089494233347 0.354070621496 0)
(-0.0828024639325 0.370199007043 0)
(-0.0760853306037 0.385001486495 0)
(-0.0693855333699 0.398484747907 0)
(-0.0627415359645 0.410663107878 0)
(-0.056187191006 0.421557492482 0)
(-0.0497523724575 0.431194432075 0)
(-0.0434627438079 0.439605207034 0)
(-0.0373405928193 0.446825040552 0)
(-0.0314046068539 0.452892461091 0)
(-0.0256707749615 0.457848704346 0)
(-0.0201520564117 0.461737258211 0)
(-0.014859264286 0.464603408108 0)
(-0.00980059210298 0.46649387907 0)
(-0.00498247305151 0.467456447508 0)
(-0.000408997226793 0.46753961884 0)
(0.00391721915479 0.466792234747 0)
(0.0079956751652 0.465263276148 0)
(0.0118270108147 0.463001338054 0)
(0.0154137803496 0.460054582404 0)
(0.018759435703 0.456470353334 0)
(0.0218690158033 0.452294940842 0)
(0.0247481663351 0.44757340087 0)
(0.0274038414925 0.44234938317 0)
(0.0298433231379 0.436664990471 0)
(0.0320749386353 0.430560657269 0)
(0.0341070952066 0.424075063758 0)
(0.035949009083 0.417245057361 0)
(0.0376097658616 0.410105610903 0)
(0.0390990498957 0.402689779097 0)
(0.040426234156 0.395028692888 0)
(0.0416011031703 0.387151547688 0)
(0.0426329751609 0.379085629341 0)
(0.0435314109876 0.370856331158 0)
(0.0443053694634 0.362487208886 0)
(0.0449639022565 0.354000026285 0)
(0.0455153466592 0.345414836821 0)
(0.0459680059978 0.336750054295 0)
(0.0463293838396 0.328022557145 0)
(0.0466068545445 0.319247779786 0)
(0.0468069448585 0.310439833047 0)
(0.046935995575 0.3016116074 0)
(0.0469994937109 0.292774900217 0)
(0.0470027275874 0.283940521556 0)
(0.0469501718179 0.275118418037 0)
(0.0468461323263 0.266317769823 0)
(0.0466941821569 0.257547100717 0)
(0.046497793007 0.248814357255 0)
(0.0462598183853 0.24012699694 0)
(0.0459831032957 0.231492041871 0)
(0.0456700080051 0.222916139309 0)
(0.0453229887555 0.214405586726 0)
(0.0449441557248 0.205966363655 0)
(0.0445358150122 0.197604127856 0)
(0.044100053644 0.189324220353 0)
(0.0436392366166 0.181131637122 0)
(0.0431556139504 0.173031013219 0)
(0.0426517665589 0.165026576539 0)
(0.0421302318525 0.157122118304 0)
(0.0415938968243 0.149320937494 0)
(0.0410456417577 0.141625806542 0)
(0.0404886798125 0.13403891466 0)
(0.0399262200211 0.12656183622 0)
(0.0393617564814 0.119195480345 0)
(0.0387987538893 0.111940068437 0)
(0.0382408892366 0.104795094949 0)
(0.0376917635583 0.0977593168013 0)
(0.0371551011879 0.0908307270715 0)
(0.0366344922295 0.0840065557145 0)
(0.0361335541214 0.0772832534486 0)
(0.0356557115026 0.0706564980096 0)
(0.0352043314896 0.0641211798932 0)
(0.0347825596679 0.0576714075896 0)
(0.0343934646014 0.0513004928495 0)
(0.0340399952725 0.0450009536099 0)
(0.0337252593494 0.038764528081 0)
(0.0334527883609 0.0325824531388 0)
(0.0332271083024 0.0264457849588 0)
(0.0330539449286 0.0203463944709 0)
(0.032931591018 0.0142734973949 0)
(0.0326982465645 0.00832259951521 0)
(0.0293671136215 0.00245541399424 0)
(-0.160314350498 0.0120813094275 0)
(-0.177648531743 0.0419982375831 0)
(-0.1770144573 0.0711707640384 4.2255063415e-27)
(-0.174531191684 0.100507164301 0)
(-0.171169858681 0.129259926526 0)
(-0.167033929564 0.157317573707 0)
(-0.162185396374 0.184547647783 0)
(-0.156690455549 0.210830804595 0)
(-0.150620359652 0.236062178698 0)
(-0.144049511535 0.260152129239 0)
(-0.137053672556 0.283026264982 0)
(-0.129708212209 0.30462518606 0)
(-0.122086733063 0.324903888404 0)
(-0.114259762998 0.343830948267 0)
(-0.106293874068 0.361387495631 0)
(-0.09825084063 0.377566072052 0)
(-0.0901872492242 0.392369388027 0)
(-0.0821541023198 0.405809057541 0)
(-0.0741968796779 0.417904339392 0)
(-0.0663555229184 0.428680943303 0)
(-0.0586648491658 0.438169938093 0)
(-0.0511547823959 0.446406786983 0)
(-0.0438509495419 0.453430540514 0)
(-0.0367749692415 0.459283163283 0)
(-0.0299450395547 0.464009006584 0)
(-0.0233761248925 0.46765435987 0)
(-0.0170804245272 0.470267091863 0)
(-0.0110674124501 0.471896298161 0)
(-0.00534419854034 0.472591987856 0)
(8.45194389378e-05 0.472404739377 0)
(0.00521612774688 0.471385341158 0)
(0.0100501729064 0.46958460777 0)
(0.0145879078147 0.46705275754 0)
(0.0188325148431 0.46383950145 0)
(0.0227886095858 0.459993539087 0)
(0.0264623014139 0.45556235714 0)
(0.0298608035905 0.45059205472 0)
(0.0329924772709 0.445127171258 0)
(0.0358664493581 0.439210551253 0)
(0.0384926780781 0.432883240509 0)
(0.0408815883903 0.426184395318 0)
(0.0430441610928 0.419151230257 0)
(0.0449915871026 0.41181896371 0)
(0.0467353753452 0.404220805649 0)
(0.0482870240001 0.396387933459 0)
(0.0496581404913 0.388349510221 0)
(0.0508601268721 0.380132691735 0)
(0.05190430667 0.37176267222 0)
(0.0528016247528 0.363262722624 0)
(0.0535627799941 0.354654261657 0)
(0.0541979428594 0.345956926577 0)
(0.0547168963888 0.337188668446 0)
(0.0551287778443 0.32836585097 0)
(0.055442232918 0.319503364858 0)
(0.0556651877031 0.310614748328 0)
(0.0558050203965 0.301712313131 0)
(0.0558683685323 0.292807274744 0)
(0.0558613203987 0.283909878843 0)
(0.0557892586531 0.275029529393 0)
(0.0556570698355 0.266174904555 0)
(0.0554690220146 0.257354069194 0)
(0.0552289875051 0.248574569211 0)
(0.0549403481462 0.239843519027 0)
(0.0546062230684 0.231167667136 0)
(0.054229393154 0.222553451437 0)
(0.0538125241257 0.214007031319 0)
(0.0533581003745 0.205534310013 0)
(0.052868633221 0.197140934344 0)
(0.0523465948764 0.188832285854 0)
(0.0517946035007 0.180613452989 0)
(0.0512153498665 0.172489198308 0)
(0.0506117529695 0.164463911454 0)
(0.0499868752631 0.156541561055 0)
(0.0493440462318 0.148725637895 0)
(0.0486867651984 0.141019102123 0)
(0.048018793341 0.13342432657 0)
(0.0473440461456 0.12594304775 0)
(0.0466666572635 0.118576317113 0)
(0.0459908649257 0.111324463498 0)
(0.0453210524326 0.10418705791 0)
(0.0446616340184 0.097162890513 0)
(0.0440170781439 0.0902499509056 0)
(0.0433917994171 0.083445420011 0)
(0.0427901718435 0.0767456644867 0)
(0.0422164357977 0.0701462403476 0)
(0.0416747137061 0.06364189919 0)
(0.041168949684 0.0572266094845 0)
(0.0407029536549 0.0508935749647 0)
(0.0402804153848 0.0446353220587 0)
(0.0399050246 0.0384438217812 0)
(0.0395805948012 0.0323106342843 0)
(0.0393112158118 0.0262274747885 0)
(0.0391006072657 0.0201869176647 0)
(0.0389412295564 0.0141765344861 0)
(0.0386343878926 0.0082823441187 0)
(0.034656581266 0.00245390231603 0)
(-0.18748450111 0.0123756721098 0)
(-0.207732379762 0.0434065880112 0)
(-0.206949365697 0.0734791063428 -4.22325470834e-27)
(-0.203983092174 0.103734650516 0)
(-0.199972573703 0.13335583378 0)
(-0.195042599691 0.162221679404 0)
(-0.189269704466 0.190190803292 0)
(-0.182735425118 0.217137157426 0)
(-0.175527032499 0.242951410628 0)
(-0.167735205242 0.267541595243 0)
(-0.159451749064 0.290832959316 0)
(-0.150767559015 0.312767452646 0)
(-0.14177088671 0.3333028901 0)
(-0.132545894676 0.352411855902 0)
(-0.123171526198 0.370080419656 0)
(-0.113720650894 0.386306724984 0)
(-0.104259519517 0.401099493078 0)
(-0.09484747224 0.414476517802 0)
(-0.0855369386484 0.426463178383 0)
(-0.076373639716 0.437091067235 0)
(-0.067397021734 0.446396737284 0)
(-0.0586407812788 0.454420664576 0)
(-0.050133507953 0.46120638324 0)
(-0.0418992673984 0.466799855883 0)
(-0.0339581854213 0.471248977298 0)
(-0.0263268595328 0.474603238426 0)
(-0.0190187349006 0.476913418721 0)
(-0.0120442949307 0.478231335591 0)
(-0.00541127469728 0.478609543877 0)
(0.0008752613546 0.478101044347 0)
(0.00681273166587 0.476758882441 0)
(0.0124009943165 0.474636051254 0)
(0.017641964254 0.471784651867 0)
(0.0225397404473 0.468256233859 0)
(0.0271001576853 0.464101072292 0)
(0.0313306962978 0.459368054386 0)
(0.0352401853083 0.454104487049 0)
(0.0388386817607 0.448355932899 0)
(0.0421371898835 0.44216609085 0)
(0.0451475651455 0.435576692742 0)
(0.047882264356 0.428627440549 0)
(0.0503542729294 0.421355947029 0)
(0.0525768883274 0.413797712497 0)
(0.0545636618203 0.405986098457 0)
(0.0563282093155 0.397952333867 0)
(0.0578841601483 0.389725517693 0)
(0.0592449880348 0.381332651552 0)
(0.0604239628614 0.372798671401 0)
(0.0614339968919 0.36414650815 0)
(0.0622876025275 0.35539715113 0)
(0.0629967549182 0.346569737933 0)
(0.0635728624547 0.337681649272 0)
(0.0640266509265 0.328748626312 0)
(0.0643681563427 0.319784892534 0)
(0.0646066378916 0.310803291454 0)
(0.064750600389 0.301815425328 0)
(0.0648077411338 0.292831801881 0)
(0.0647850062258 0.283861976676 0)
(0.064688572938 0.274914694928 0)
(0.0645239382926 0.265998022643 0)
(0.0642959334677 0.257119469695 0)
(0.064008838717 0.248286096777 0)
(0.063666422342 0.239504608547 0)
(0.0632720715615 0.23078142645 0)
(0.0628288450621 0.222122744697 0)
(0.0623396077883 0.213534564527 0)
(0.0618070851048 0.20502271126 0)
(0.061233988556 0.196592830728 0)
(0.0606230600263 0.188250370881 0)
(0.0599771778635 0.180000546389 0)
(0.0592993822894 0.171848293216 0)
(0.0585929540016 0.163798210925 0)
(0.0578614157017 0.155854501241 0)
(0.0571085802513 0.148020899973 0)
(0.056338527532 0.140300611131 0)
(0.0555556230464 0.132696240014 0)
(0.0547644730419 0.125209733361 0)
(0.0539699181494 0.117842322903 0)
(0.0531769725589 0.110594479552 0)
(0.0523907990359 0.103465873616 0)
(0.0516166392122 0.0964553470314 0)
(0.0508597779473 0.0895608931098 0)
(0.0501254728847 0.0827796472188 0)
(0.049418916702 0.0761078857284 0)
(0.0487451755798 0.0695410346488 0)
(0.0481091607267 0.0630736881 0)
(0.0475155892523 0.056699641997 0)
(0.0469689806704 0.050411953588 0)
(0.04647365515 0.0442030205865 0)
(0.0460337673767 0.0380647066701 0)
(0.0456533205453 0.031988686329 0)
(0.0453360711223 0.0259665679023 0)
(0.0450846705517 0.0199899399103 0)
(0.0448883536079 0.0140449388634 0)
(0.0445168843786 0.00821102183423 0)
(0.0399157068024 0.00244050461209 0)
(-0.21561241017 0.0127229834699 0)
(-0.23886397244 0.0450772629721 0)
(-0.237905956145 0.0762153202456 0)
(-0.234409234865 0.107557852609 0)
(-0.229688391656 0.138203285568 0)
(-0.223892154314 0.168019066277 0)
(-0.217114157396 0.196853225177 0)
(-0.209453834643 0.224572004283 0)
(-0.201016968861 0.251061163675 0)
(-0.191912777933 0.276226491917 0)
(-0.182251157746 0.299993354467 0)
(-0.172140245227 0.322305878938 0)
(-0.161684405576 0.34312576927 0)
(-0.150982553232 0.362430889372 0)
(-0.140126879425 0.380213646432 0)
(-0.129201883725 0.396479264166 0)
(-0.118283795744 0.411243977237 0)
(-0.107440288207 0.424533219905 0)
(-0.0967305630814 0.436379872728 0)
(-0.0862056919476 0.446822633676 0)
(-0.0759092482177 0.455904602328 0)
(-0.0658780709818 0.463672105559 0)
(-0.0561431426708 0.470173831751 0)
(-0.0467304056128 0.475460215803 0)
(-0.03766149524 0.479583082986 0)
(-0.0289542771794 0.482595408475 0)
(-0.0206232265144 0.484551179376 0)
(-0.0126796385864 0.485505204896 0)
(-0.00513175752594 0.485512915668 0)
(0.00201514264122 0.484630042504 0)
(0.00875861632985 0.482912242615 0)
(0.0150990366932 0.480415016537 0)
(0.0210391700231 0.477192659301 0)
(0.0265842280153 0.473298821906 0)
(0.0317414696986 0.468785598332 0)
(0.0365199721914 0.463703469541 0)
(0.0409303763627 0.458101110542 0)
(0.0449846436601 0.452025235078 0)
(0.0486958243885 0.445520485157 0)
(0.0520778547728 0.43862935832 0)
(0.0551453594416 0.431392139953 0)
(0.0579134902884 0.42384688456 0)
(0.0603977582913 0.416029375692 0)
(0.0626139037114 0.407973141214 0)
(0.0645777469221 0.399709436044 0)
(0.0663050769046 0.39126728067 0)
(0.0678115119039 0.382673471086 0)
(0.0691123976106 0.373952639841 0)
(0.0702226748651 0.365127300191 0)
(0.0711567870251 0.356217933662 0)
(0.0719285594508 0.347243073489 0)