/*--------------------------------*- C++ -*----------------------------------*\
| =========                 |                                                 |
| \\      /  F ield         | OpenFOAM: The Open Source CFD Toolbox           |
|  \\    /   O peration     | Version:  v1906                                 |
|   \\  /    A nd           | Web:      www.OpenFOAM.com                      |
|    \\/     M anipulation  |                                                 |
\*---------------------------------------------------------------------------*/
FoamFile
{
    version     2.0;
    format      ascii;
    class       surfaceScalarField;
    location    "972";
    object      phia;
}
// * * * * * * * * * * * * * * * * * * * * * * * * * * * * * * * * * * * * * //

dimensions      [0 3 -1 0 0 0 0];
oriented        oriented;


internalField   nonuniform List<scalar> 
18240
(
0.000851044054239
-0.000851122765893
0.001744231943
-0.000893284707545
0.00263538406515
-0.000891228662217
0.00351932998066
-0.000884046170646
0.0043932712071
-0.000874011908862
0.0052546077835
-0.000861439100195
0.00610104212341
-0.0008464990843
0.00693030151069
-0.000829363168454
0.00774040331001
-0.00081016039117
0.0085293657102
-0.000789066402225
0.00929552813159
-0.000766214633087
0.0100372148497
-0.000741789979515
0.0107530929127
-0.000715923903648
0.0114417902898
-0.000688799012845
0.0121022839055
-0.000660533121037
0.0127334787497
-0.000631294060384
0.0133346206508
-0.000601175312926
0.0139048441686
-0.00057031960214
0.0144436051692
-0.000538788541412
0.0149502060437
-0.000506693216175
0.0154242439826
-0.000474060005085
0.0158651222534
-0.000440966349421
0.0162725100947
-0.000407404781408
0.0166458485024
-0.0003734218099
0.0169848179847
-0.000338981791246
0.0172888465318
-0.000304106952345
0.0175575810849
-0.000268742663756
0.0177904045212
-0.000232896630408
0.0179869070188
-0.000196506966073
0.0181464182612
-0.000159579100446
0.0182684746973
-0.000122057748023
0.0183523703314
-8.39581242269e-05
0.0183976164843
-4.52448878118e-05
0.0184035199856
-5.96065501777e-06
0.0183696307347
3.38926013095e-05
0.0182953455459
7.42332923858e-05
0.0181803396715
0.000115010773193
0.0180241985056
0.000156094465761
0.0178268260218
0.000197378511303
0.0175881027074
0.000238681824693
0.0173082628241
0.000279846628586
0.016987576157
0.000320650556491
0.0166266856581
0.000360897642546
0.0162263128358
0.000400342404686
0.0157875502615
0.000438769730163
0.0153115967267
0.000475929183899
0.0148000055724
0.000511597830974
0.0142544654288
0.000545522081645
0.0136770142552
0.000577456661792
0.0130698894614
0.000607112757431
0.0124357227168
0.000634170060132
0.0117774790344
0.000658236495315
0.0110986366131
0.000678842317739
0.0104032006478
0.000695431004035
0.00969583044886
0.000707365326652
0.00898184186412
0.000713982469361
0.00826718377906
0.000714647411246
0.00755830068434
0.000708873498828
0.00686190265252
0.000696381751275
0.00618471606988
0.00067717340711
0.00553322514714
0.000651471027492
0.00491344107622
0.000619768787741
0.00433069626131
0.000582723272856
0.00378937856639
0.000541299649717
0.00329297909477
0.000496375850973
0.0028440493152
0.000448906268908
0.00244341318276
0.000400610213092
0.00208997530844
0.000353410670104
0.00178109200326
0.000308857977117
0.00151318498212
0.000267879443691
0.00128231625288
0.00023084596825
0.00108448540126
0.000197803925278
0.000915803082425
0.000168661946968
0.000772546252663
0.000143231301568
0.00065131060563
0.000121217599249
0.000549045301149
0.000102242659169
0.000463106718938
8.59231470452e-05
0.000391149505242
7.19373973332e-05
0.000331078075578
6.00575166887e-05
0.000280986721042
5.00718800576e-05
0.000239269073063
4.17035335864e-05
0.000204586793407
3.46625605406e-05
0.000175890649044
2.86820229197e-05
0.000152436460594
2.34350076318e-05
0.000134200781506
1.82219902576e-05
0.000118988613136
1.5193033685e-05
0.000105111568482
1.38613325161e-05
9.31688284414e-05
1.19203378382e-05
8.19946053371e-05
1.11528427829e-05
7.07327214641e-05
1.123327344e-05
5.98488571234e-05
1.0853533459e-05
4.9401522543e-05
1.04102425247e-05
3.84242710521e-05
1.09362550861e-05
2.61378831701e-05
1.22394883678e-05
1.25671590535e-05
1.35157986322e-05
1.25386642474e-05
0.000898536494331
-0.00174974523908
0.00185262020132
-0.00184746345874
0.00280149602383
-0.0018401927969
0.00374180519131
-0.00182444970279
0.00467108014747
-0.00180337277378
0.00558678815138
-0.00177724044267
0.00648650133247
-0.00174629513557
0.00736786475446
-0.00171081826609
0.00822872411004
-0.00167109891865
0.00906702854426
-0.00162746010022
0.0098809578085
-0.00158021886369
0.0106687978351
-0.00152971619688
0.01142907516
-0.00147627157807
0.0121604104571
-0.0014202168675
0.0128616591927
-0.00136184732946
0.0135317465309
-0.00130145986873
0.0141698130666
-0.0012393022522
0.0147750351148
-0.00117561566924
0.0153467749693
-0.00111058366167
0.0158843912618
-0.00104437881024
0.0163873937884
-0.000977112643719
0.0168552489226
-0.000908885886173
0.017287539235
-0.000839740140861
0.01768376877
-0.000769710756468
0.0180435275163
-0.000698780651055
0.0183663007093
-0.000626934551419
0.018651637724
-0.00055411507745
0.0188989688329
-0.000480277206535
0.0191077777657
-0.000405346838528
0.0192774285152
-0.000329274513083
0.019407341355
-0.000251997391087
0.0194968341883
-0.00017349101582
0.0195452994253
-9.3733135221e-05
0.0195520579497
-1.27548740799e-05
0.0195165381854
6.93927726624e-05
0.0194381466741
0.000152593209983
0.0193164445903
0.000236696328075
0.0191510321501
0.000321479177762
0.018941718054
0.000406678834738
0.018688413888
0.000491961971252
0.0183912894849
0.000576959801703
0.0180506720343
0.000661247666178
0.0176671798606
0.000744381016054
0.0172416225965
0.000825883084331
0.0167751091844
0.000905276693722
0.016268951765
0.000982073873526
0.0157247517519
0.00105579361172
0.0151443208602
0.00112594404897
0.0145297605488
0.00119201454161
0.0138834247178
0.00125344305062
0.0132080159321
0.00130957731486
0.0125066152779
0.00135963372145
0.0117828096819
0.00140264562483
0.0110407837414
0.00143745332934
0.0102854403632
0.00146270348961
0.00952246264778
0.00147695347373
0.00875829076622
0.00147880948144
0.00799997529559
0.00146717721675
0.00725489026328
0.00144145200802
0.00653040975939
0.0014016379076
0.00583365853514
0.00134820382944
0.00517120748405
0.00128220198
0.00454894997092
0.00120496007387
0.00397153490783
0.00111869448709
0.00344280942849
0.00102507729296
0.00296608277698
0.000925607316656
0.00254241275941
0.000824252811939
0.00217031595482
0.000725479063675
0.00184640600585
0.000632740651828
0.00156635709882
0.000547900730272
0.00132565222724
0.000471525541892
0.00111989239063
0.000403537473178
0.000944839826567
0.000343691122838
0.000796448129177
0.000291598429678
0.000671025603928
0.000246619244974
0.00056533613953
0.000207910725712
0.000476627726648
0.000174613637922
0.000402497483835
0.000146049260639
0.000340736786829
0.000121801651679
0.000289283671819
0.000101506621302
0.000246411930162
8.45581711674e-05
0.000210708597263
7.03471949282e-05
0.000180972920044
5.84006956429e-05
0.000156066609407
4.83235161323e-05
0.000134413236597
3.98592845276e-05
0.000116225321417
3.33639517261e-05
0.000101521258638
2.85477385657e-05
8.93915549617e-05
2.4029548125e-05
7.86755792367e-05
2.18464479096e-05
6.84217936689e-05
2.14600779636e-05
5.79415770758e-05
2.13022952572e-05
4.76167266364e-05
2.0699909917e-05
3.72403835493e-05
2.12728901535e-05
2.58541389025e-05
2.35794561457e-05
1.25607332457e-05
2.67587062005e-05
2.50751240275e-05
0.000906755029757
-0.00265658821812
0.001866506758
-0.00280730757904
0.00282209227542
-0.00279587047212
0.00376918548493
-0.00277163541598
0.00470506574787
-0.00273934317426
0.00562712990429
-0.00269939553157
0.00653289304931
-0.00265214590846
0.00741999052418
-0.00259800429544
0.00828622670592
-0.00253741961466
0.00912955719066
-0.00247087604655
0.00994813045765
-0.00239887292163
0.0107402555318
-0.0023219230502
0.0115044390406
-0.00224053169118
0.0122393408841
-0.00215519632774
0.0129438072124
-0.00206638568372
0.0136168159665
-0.00197454171147
0.0142575064896
-0.0018800599731
0.0148651172998
-0.00178329476437
0.0154390136396
-0.00168454217538
0.0159786205633
-0.00158404904176
0.0164834504392
-0.00148199960407
0.0169530348254
-0.00137852850832
0.0173869540492
-0.00127371133638
0.0177847712146
-0.00116758108356
0.0181460656829
-0.00106012207185
0.0184703718403
-0.000951288861659
0.0187572175157
-0.000841002813049
0.0190060694111
-0.000729172392931
0.0192163770752
-0.000615691899962
0.0193875265545
-0.000500462624605
0.019518890478
-0.000383394299285
0.0196097910684
-0.000264425845505
0.0196595568983
-0.000143527865287
0.0196674970849
-2.07252033174e-05
0.0196329644986
0.000103900221565
0.0195553407965
0.000230190548008
0.0194341047067
0.000357910700415
0.0192688256969
0.000486735320229
0.0190592329138
0.000616253055468
0.018805212303
0.000745963000728
0.0185068690666
0.000875287446756
0.0181645207503
0.00100357960626
0.0177787448072
0.00113014429152
0.0173503609131
0.00125425382816
0.0168804582766
0.00137516960273
0.0163703666385
0.00149215566319
0.0158216671985
0.00160448626973
0.0152361644058
0.00171144024318
0.0146158992911
0.00181227564824
0.0139631499714
0.00190618844442
0.0132804816107
0.00199224369585
0.0125708136947
0.00206929901188
0.0118375416142
0.00213591601738
0.0110846883011
0.00219030308309
0.010317076378
0.00223031128077
0.00954047061013
0.00225355238845
0.00876160575537
0.00225766505262
0.00798802654514
0.00224074473523
0.00722768669844
0.00220177712612
0.00648847045415
0.00214083780388
0.00577804128801
0.00205861513592
0.00510335800944
0.00195686642323
0.00447095768876
0.00183734065938
0.00388521001315
0.00170442062811
0.00335009091587
0.001560172414
0.00287076611912
0.00140490541136
0.00244878832397
0.00124620242569
0.00208181191257
0.00109242712306
0.00176499872827
0.000949525768459
0.00149278997731
0.000820082818873
0.0012599922523
0.000704296969862
0.00106197350518
0.000601531146277
0.000894319799079
0.000511319979558
0.000752747771578
0.000433147350652
0.000633372202816
0.000365972579019
0.000532938272297
0.00030832492585
0.000448843169205
0.000258690084038
0.000378900704167
0.000215974728723
0.000320944047848
0.000179740931311
0.000272746568546
0.000149686235657
0.000232556337305
0.000124730049549
0.000199071118912
0.000103813950163
0.000171180241791
8.62736119117e-05
0.000147890910964
7.15955885043e-05
0.000128223457794
5.95103038249e-05
0.000111312560185
5.02578318517e-05
9.60256978106e-05
4.38162507368e-05
8.23421814645e-05
3.76928830971e-05
7.12555491984e-05
3.29103393187e-05
6.22713623723e-05
3.04172951885e-05
5.22755961016e-05
3.12672643929e-05
4.1338671835e-05
3.16019429022e-05
3.07491445825e-05
3.18234654397e-05
2.00032407129e-05
3.42851614038e-05
1.00745840354e-05
3.66454707563e-05
3.51275274982e-05
0.000915180406476
-0.00357185766135
0.00188291683255
-0.0037751391697
0.00284657688792
-0.00375962378587
0.00380161148266
-0.00372676344844
0.00474517112587
-0.00368299462983
0.00567457092803
-0.00362888668359
0.00658726181582
-0.00356492632051
0.00748084077403
-0.00349167196859
0.00835307510599
-0.00340974041879
0.00920190670008
-0.00331979305372
0.0100254686076
-0.00322251761953
0.0108220790798
-0.00311861505454
0.0115902502362
-0.00300878143338
0.0123286725784
-0.00289369585323
0.0130362164149
-0.00277400351507
0.0137119080822
-0.00265030585788
0.0143549252787
-0.00252314627264
0.0149645669105
-0.00239300391387
0.0155402443188
-0.00226028361239
0.0160814475501
-0.0021253146723
0.0165877352435
-0.00198834614359
0.0170587006789
-0.00184955115465
0.0174939633469
-0.0017090276645
0.017893137957
-0.00156680773533
0.0182558301303
-0.00142286278019
0.0185816106208
-0.00127711631906
0.0188700165474
-0.00112945230086
0.0191205321185
-0.000979730027129
0.0193325961549
-0.000827794729432
0.019505590319
-0.000673494180357
0.01963885385
-0.00051669213027
0.0197316803191
-0.000357285322864
0.0197833408533
-0.00019521851653
0.019793091507
-3.05048050477e-05
0.0197602057179
0.000136759730855
0.0196839923158
0.000306378723704
0.0195638365574
0.000478043684055
0.0193992266732
0.000651323390523
0.0191897992692
0.000825660905284
0.018935368358
0.00100037528116
0.0186359668887
0.0011746724093
0.0182918684631
0.00134766248243
0.0179036140082
0.00151838524326
0.0174720156233
0.00168583976692
0.0169981595488
0.00184901525054
0.0164833875925
0.00200691838788
0.0159292780526
0.0021585885548
0.0153376154929
0.00230309690839
0.0147103706041
0.00243951611455
0.0140496930452
0.00256686341567
0.0133579353947
0.00268399850054
0.0126377314075
0.0027895026635
0.0118921295938
0.00288151468744
0.0111248220484
0.00295760987084
0.0103404137439
0.00301471427413
0.00954472622735
0.00304923483475
0.00874494607585
0.00305743589601
0.00794947043297
0.00303620872791
0.00716725692022
0.00298397607709
0.00640690756041
0.00290117051144
0.00567698235583
0.00278852217684
0.00498483777226
0.00264899241229
0.00433870374062
0.00248345421603
0.00374140055936
0.0023017022217
0.00319626766423
0.0021052806537
0.00271369081074
0.00188745488107
0.00229624807588
0.00166361704129
0.00193956155529
0.00144908505833
0.00163575897522
0.00125330128416
0.00137700588224
0.00107880930712
0.00115719222918
0.000924085627191
0.000971688722237
0.000787009161118
0.000815985484961
0.000666999910493
0.000685342679981
0.000563766450719
0.000575491055203
0.000475804011479
0.000483141500907
0.000400654837813
0.000406062849149
0.000335752152735
0.000342605649378
0.000279415097672
0.0002907088815
0.000231621413582
0.000247616973778
0.000192759451691
0.000211524613866
0.000160804020708
0.000181441786751
0.000133877445549
0.000156435136046
0.000111262197176
0.000135618338963
9.23952552985e-05
0.000118412842474
7.66993551049e-05
0.000101818503716
6.6835017585e-05
8.69930478173e-05
5.86229585277e-05
7.41890195447e-05
5.04760911459e-05
6.22307214791e-05
4.48457670403e-05
5.0795849346e-05
4.18265334347e-05
4.24774455794e-05
3.955616584e-05
3.2592526526e-05
4.14531423415e-05
2.22091263376e-05
4.21723577232e-05
1.41136366081e-05
4.234529363e-05
7.18492169653e-06
4.35368556426e-05
4.22936566588e-05
0.00092607520188
-0.00449802367842
0.00190493803498
-0.00475409625718
0.00287956942097
-0.00473435081678
0.00384529985057
-0.00469258823844
0.00479917159473
-0.00463696002378
0.00573840708018
-0.00456821465459
0.00666037909174
-0.00448698950123
0.00756262645024
-0.00439400908766
0.00844287127356
-0.00429007328884
0.00929902951219
-0.00417603760722
0.0101292203093
-0.00405279269836
0.0109317671923
-0.00392124421179
0.0117051983393
-0.00378229257612
0.0124482385129
-0.00363681379002
0.0131598006573
-0.0034856409502
0.0138389694748
-0.003329547572
0.0144849855848
-0.00316923267287
0.0150972225145
-0.00300530862388
0.0156751656891
-0.00283829187022
0.0162183857632
-0.00266859726212
0.0167265158302
-0.00249653599284
0.017199224849
-0.00232231737005
0.0176361968084
-0.00214605408862
0.0180371077826
-0.00196777062236
0.0184016099707
-0.00178741419893
0.018729314574
-0.00160486766713
0.0190197820603
-0.00141996393178
0.019272511658
-0.0012325013932
0.0194869382946
-0.00104226065675
0.0196624292547
-0.000849022187424
0.0197982887467
-0.000652586336187
0.0198937629546
-0.000452792163848
0.0199480541564
-0.000249540191274
0.0199603369264
-4.28161379307e-05
0.0199297836556
0.00016728641805
0.0198555930614
0.000380544466897
0.0197370274188
0.000596586275339
0.0195734517779
0.000814877563687
0.0193643788749
0.0010347139964
0.0191095123104
0.00125522351518
0.0188087893264
0.00147537863473
0.0184624152659
0.00169402123603
0.0180708892392
0.00190989753405
0.0176350139964
0.00212170274912
0.017155889853
0.00232812880753
0.0166348892755
0.00252790987716
0.0160736161031
0.00271985459365
0.0154738520298
0.00290285489906
0.0148375043259
0.00307586060875
0.0141665609494
0.00323780247378
0.013463091385
0.00338746868628
0.0127292920679
0.00352329797812
0.0119676609031
0.00364314803818
0.0111812750381
0.00374399118762
0.0103742685418
0.00382171999896
0.00955237921246
0.00387111739945
0.00872343557049
0.0038863719191
0.0078972808762
0.00386235125046
0.00708462312682
0.00379661902334
0.00629477354672
0.00369100297907
0.00553784594144
0.00354543164857
0.00482082179547
0.00336599685156
0.0041573432683
0.00314691191974
0.00354432004855
0.00291470324277
0.00298083214813
0.00266874320709
0.00249253024656
0.00237572937761
0.00208348385808
0.00207263519942
0.00174438108807
0.0017881601255
0.00146112952427
0.00153652631426
0.0012219661496
0.00131794741665
0.00101995372578
0.00112607368259
0.000851542748934
0.000955396105849
0.000712449022594
0.000806070611178
0.000596940203557
0.000679253783639
0.000499900913952
0.000572823495531
0.000417963272381
0.000482575998724
0.000349704681655
0.000403994497367
0.000294811650386
0.000334293953924
0.000251486442406
0.000274929240555
0.000215345407015
0.000228882645498
0.000184447502062
0.000191681800656
0.000158705183907
0.000159600240201
0.000137427690862
0.000132520944773
0.000119583779158
0.000110222253119
0.00010498306396
9.128364663e-05
9.04847933671e-05
8.1315676095e-05
7.6820185972e-05
7.22683211086e-05
6.26320477991e-05
6.4643232369e-05
4.9992135634e-05
5.74627060525e-05
3.8735325096e-05
5.30575886272e-05
3.0179964191e-05
4.80840618093e-05
2.35425624848e-05
4.80596533097e-05
1.55106094996e-05
5.01712190594e-05
9.00168911413e-06
4.88234979254e-05
4.4615136018e-06
4.80458837728e-05
4.6738512467e-05
0.000939750884084
-0.00543786673265
0.00193285909972
-0.00574730315323
0.0029214844048
-0.00572307280482
0.00390081290849
-0.00567201335117
0.00486776769497
-0.00560401003502
0.00581946051121
-0.00552000175033
0.00675317001631
-0.00542079182266
0.0076663598493
-0.00530729032343
0.00855669638099
-0.00518049941242
0.00942206047597
-0.005041489534
0.0102605559482
-0.00489137385797
0.0110705114621
-0.00473128337894
0.0118504791046
-0.00456234145062
0.0125992263187
-0.00438563999337
0.0133157249225
-0.00420221591374
0.0139991337488
-0.00401303035814
0.014648779175
-0.00381894927765
0.0152641301719
-0.00362072829666
0.0158447727616
-0.00341900026508
0.0163903807697
-0.00321426851502
0.0169006882158
-0.00300690377428
0.01737546034
-0.00279714726044
0.0178144685723
-0.00258511719392
0.0182174661415
-0.00237082052686
0.0185841690381
-0.00215416659675
0.0189142384856
-0.00193498415201
0.0192072689324
-0.00171303868664
0.0194627774994
-0.00148805191127
0.0196801986617
-0.00125972117924
0.0198588805796
-0.00102774124681
0.0199980872441
-0.000791827719906
0.0200970031756
-0.000551740755682
0.0201547457487
-0.000307313191206
0.0201703822893
-5.84812231976e-05
0.0201429559693
0.00019468622424
0.0200715180848
0.000451957543073
0.0199551693443
0.000712912044837
0.0197931068384
0.000976918648977
0.0195846772426
0.00124312385056
0.0193294312762
0.00151045119219
0.0190271772261
0.00177761597972
0.0186780267326
0.0020431564613
0.0182824282148
0.00230548233643
0.0178411808592
0.00256293793362
0.0173554244102
0.00281387463323
0.016826601744
0.00305672378028
0.0162563929597
0.00329005579105
0.0156466293274
0.00351261386116
0.0149991881896
0.00372329609071
0.0143159043086
0.00392108679632
0.0135984876642
0.00410487990092
0.012848551203
0.00427323865563
0.0120677205422
0.00442397335345
0.0112580369188
0.00455367832157
0.010422613994
0.00465713763006
0.00956672508657
0.00472700350659
0.0086989677253
0.00475412014474
0.00783173210853
0.00472957436323
0.00697910133831
0.00464923479603
0.00615009525934
0.00451999047579
0.00535817523633
0.0043373318163
0.0046055110107
0.004118639879
0.00392512415236
0.00382727642775
0.00329396111371
0.00354584224975
0.00269308608736
0.0032695910217
0.00219452541211
0.00287426190626
0.00180179688725
0.00246533484832
0.0014931603761
0.00209676938322
0.00124175915324
0.00178790062973
0.00102930793594
0.00153037516362
0.000849162048787
0.00130619410496
0.000702225199134
0.00110231101196
0.000585209439803
0.000923063191786
0.00048977530113
0.000774667198053
0.000408897850611
0.000653682960929
0.000338974154582
0.000552482524219
0.000280263138112
0.000462691500637
0.000235810889843
0.000378729305443
0.000204684875087
0.00030603887698
0.000177571671214
0.000255974593022
0.000152279050259
0.000216953689402
0.000131522903271
0.000180334923373
0.000114829195376
0.000149195407883
0.000100140710699
0.000124893725412
8.65634742132e-05
0.000104844262326
7.31684423438e-05
9.4693106149e-05
6.10592814436e-05
8.43581956536e-05
5.00210811663e-05
7.56595772667e-05
3.82929542901e-05
6.91663684712e-05
2.7979131708e-05
6.33459066911e-05
1.85272945502e-05
5.75095978331e-05
1.30380602488e-05
5.35213778591e-05
9.36898823129e-06
5.3812105083e-05
5.10493776031e-06
5.3059580538e-05
2.45495030862e-06
5.06675063977e-05
4.9179141957e-05
0.000956417003866
-0.00639437847062
0.00196697154496
-0.00675795570064
0.00297272154477
-0.00672892262753
0.00396866916895
-0.00666805922471
0.00495158727688
-0.00658702576526
0.00591845418199
-0.00648696488399
0.00686643348095
-0.00636886605471
0.00779289688659
-0.00623384699602
0.00869544251546
-0.00608313659862
0.00957190845845
-0.00591804500559
0.0104203804487
-0.00573993334602
0.0112391945209
-0.00555018260504
0.0120269337382
-0.00535016354351
0.0127824201006
-0.00514120663731
0.013504700521
-0.00492457414874
0.0141930283589
-0.00470143323392
0.0148468394234
-0.00447283278297
0.0154657245962
-0.00423968301189
0.0160493983754
-0.00400274090959
0.0165976662871
-0.00376260033426
0.0171103908907
-0.00351968958093
0.0175874597232
-0.00327427433291
0.0180287548048
-0.00302646782901
0.0184341266243
-0.00277624498554
0.0188033713935
-0.00252346138272
0.0191362134611
-0.00226787341546
0.0194322907751
-0.00200916067612
0.0196911446453
-0.00174694777212
0.0199122117116
-0.00148082785394
0.0200948197893
-0.00121038641447
0.0202381866342
-0.000935229433519
0.020341423615
-0.00065501027929
0.0204035451385
-0.000369465220943
0.0204234860699
-7.84505409887e-05
0.0204001273959
0.000218018354667
0.0203323325348
0.000519727773122
0.0202189933936
0.000826228211733
0.0200590870173
0.00113680378529
0.019851739834
0.0014504513074
0.0195962975733
0.00176587534026
0.0192923945264
0.00208150235759
0.0189400165932
0.00239551928991
0.0185395483576
0.00270593696581
0.0180917960581
0.00301067816281
0.0175979768009
0.00330768359937
0.0170596672799
0.00359502423641
0.0164787116234
0.0038710051713
0.0158570842583
0.00413423434624
0.0151967329293
0.00438364658788
0.0144993832493
0.0046184297616
0.0137663927985
0.00483787491504
0.0129986038211
0.00504102136026
0.0121964231516
0.0052261600699
0.0113601279697
0.00538996952717
0.0104908390547
0.00552642763918
0.00959231012002
0.00562552696295
0.00867372765225
0.00567269418904
0.00775216794919
0.00565112068957
0.00684948542854
0.00555189829724
0.00596949265447
0.00539996275717
0.00513567303738
0.00517112836606
0.00432558338778
0.00492870567676
0.00364348199552
0.0045093528985
0.00300179629359
0.00418749801187
0.002312424323
0.00395893688754
0.00179584552007
0.00339081047363
0.00143756347843
0.00282358853383
0.00118387367076
0.00235043244477
0.00098220212488
0.00198954502922
0.000804146417736
0.0017084079339
0.000646743974087
0.00146357044386
0.000524787252689
0.00122424810854
0.000437272197778
0.00101055089344
0.000368334533368
0.000843589871838
0.000306921162335
0.000715070913443
0.000248867711988
0.000610524914662
0.00019755780975
0.000513979587196
0.000164664430065
0.000411609943802
0.000152621708501
0.000318059603982
0.000137336438392
0.000271238225989
0.000115999706492
0.000238267079479
0.000100473803398
0.000195836865442
8.9918861534e-05
0.000159729626206
7.86564528413e-05
0.000136137979729
6.70588640526e-05
0.000116424393055
5.56231561757e-05
0.000106110432707
4.3921804345e-05
9.60393635071e-05
3.30039821878e-05
8.65544273662e-05
2.32587236442e-05
7.88873844173e-05
1.60190014237e-05
7.05607811746e-05
9.15048414286e-06
6.43531973766e-05
4.02136884922e-06
5.8625625931e-05
2.89949860208e-06
5.4908535496e-05
1.30944699621e-06
5.46245939795e-05
5.45618550944e-07
5.14063152548e-05
4.97112059836e-05
0.000976269605434
-0.00737074466801
0.00200762445518
-0.00778941430456
0.00303378655179
-0.00775518609472
0.00404952003284
-0.0076838940592
0.00505141517979
-0.00758902073408
0.0060362866937
-0.0074719351775
0.00700116005727
-0.00733383661124
0.00794329593142
-0.00717607849434
0.00886021122228
-0.0070001455568
0.00974969291236
-0.00680761841214
0.0106098065938
-0.00660013642582
0.0114388981541
-0.00637936131656
0.0122355904496
-0.00614694037748
0.0129987731188
-0.00590447137246
0.0137275874481
-0.00565346770968
0.0144214042042
-0.00539532658496
0.0150797968236
-0.00513129900875
0.0157025082571
-0.00486246530936
0.0162894148578
-0.00458971529869
0.0168404864684
-0.00431373693987
0.0173557470753
-0.00403501208063
0.0178352357045
-0.0037538220643
0.018278971964
-0.00347026012129
0.0186869252487
-0.0031842515637
0.0190589907038
-0.00289557714564
0.0193949693791
-0.00260389975665
0.0196945540519
-0.00230879015991
0.0199573172543
-0.002009753279
0.0201827028178
-0.0017062530355
0.0203700184698
-0.00139773934394
0.0205184323944
-0.00108367814398
0.0206269724341
-0.000763582952885
0.020694533158
-0.000437056303018
0.0207198903151
-0.000103836107512
0.0207017271024
0.000236155209792
0.0206386723625
0.000582757904354
0.0205293536184
0.000935524191928
0.0203724635441
0.00129367267768
0.0201668400529
0.00165605530166
0.0199115552565
0.00202114212637
0.0196060086215
0.00238703257498
0.0192500143957
0.00275149860662
0.0188438723426
0.00311206564337
0.0183884077323
0.00346613110314
0.0178849658485
0.00381111513777
0.0173353515137
0.00414463062121
0.016741701458
0.00446464744458
0.0161063017338
0.00476963095497
0.0154313323958
0.0050586090815
0.014718593422
0.00533117149817
0.0139691515316
0.00558731061856
0.0131830517584
0.00582712717135
0.0123590422192
0.00605016650729
0.0114947025035
0.00625431328367
0.0105873326332
0.00643379524996
0.00963669312216
0.00657616254658
0.00865090396202
0.00665847221019
0.00765583434646
0.00664617294209
0.00669494469746
0.0065127666003
0.00574807141322
0.00634681199695
0.00487573487518
0.00604344078581
0.00394249767357
0.0058619155978
0.00331935549471
0.00513246865227
0.00271868620911
0.0047881437965
0.00180011713315
0.00487747844933
0.00126819619587
0.00392270276566
0.000994480815518
0.00309727866201
0.000853154502435
0.00249172745488
0.000737317407918
0.00210536087635
0.000601323475544
0.00184436621345
0.000449754501807
0.00161512072431
0.00034465886369
0.00132930296213
0.000293644057749
0.00106155252114
0.000257175794612
0.000880022679178
0.000215984953295
0.000756252298347
0.000164112651832
0.000662370812243
0.000108835847252
0.000569246111213
8.33092777343e-05
0.000437115852973
0.000103195971385
0.000298152197232
0.000102421564908
0.000271992399599
7.58035480646e-05
0.000264856634133
6.49717359193e-05
0.000206647674485
6.45333338875e-05
0.000160145903946
5.46373926591e-05
0.000146015317231
4.63780874213e-05
0.000124664720588
3.56831756471e-05
0.000116785895755
2.57972851758e-05
0.000105902930537
1.57306667105e-05
9.65973060366e-05
8.61453073887e-06
8.59788529891e-05
2.49456537753e-06
7.66567722218e-05
-5.8527746604e-07
6.74091908188e-05
-3.05606860403e-06
6.10729432178e-05
-3.59636621707e-06
5.54263243071e-05
-2.40999573342e-06
5.3414757761e-05
-1.35339285844e-06
5.03258127874e-05
4.83459123716e-05
0.000999523616849
-0.0083703683566
0.00205524556358
-0.00884523955386
0.00310530100289
-0.00880534700674
0.00414416979884
-0.00872286652259
0.00516821691231
-0.00861317086012
0.00617406155696
-0.00847788127346
0.00715856347518
-0.00831843856126
0.00811885210469
-0.00813646529929
0.0090523484381
-0.00793373818776
0.00995678048251
-0.00771214449849
0.010830191108
-0.00747363886741
0.0116709401727
-0.00722019959433
0.0124776995189
-0.00695378644419
0.0132494424931
-0.00667629819253
0.013985425782
-0.0063895321536
0.0146851653237
-0.0060951442116
0.0153484039787
-0.00579461292317
0.0159750737423
-0.00548920713934
0.0165652511851
-0.00517996190697
0.0171191106145
-0.00486766228896
0.0176368749925
-0.00455283946029
0.0181187702251
-0.00423577706502
0.0185649829961
-0.00391652977957
0.0189756268474
-0.00359494914117
0.0193507147081
-0.00327071594036
0.0196901398453
-0.00294337279183
0.0199936609025
-0.00261235645572
0.0202608912119
-0.00227702596117
0.020491288047
-0.00193668975385
0.0206841434012
-0.00159063191843
0.0208385749598
-0.00123814462583
0.0209535207158
-0.000878561195962
0.0210277395936
-0.000511305583774
0.021059822468
-0.00013594718613
0.0210482155117
0.000247735830892
0.0209912607263
0.000639688327142
0.0208872543111
0.00103950792104
0.0207345258476
0.00144638024601
0.0205315362658
0.00185902553201
0.0202769931738
0.00227566755229
0.0199699755067
0.00269403408719
0.0196100579711
0.0031114016359
0.0191974181441
0.00352469254774
0.0187329072592
0.00393063061773
0.0182180623949
0.00432595058223
0.0176550393952
0.00470764520303
0.017046458813
0.00507322282007
0.0163951521697
0.00542093116724
0.0157038369966
0.00574992430631
0.0149746788243
0.00606032423675
0.0142087943151
0.00635319927788
0.0134055771932
0.00663034224833
0.0125619733563
0.00689377461487
0.0116717499098
0.0071445369548
0.0107255272623
0.00738001593615
0.00971340454255
0.00758827797798
0.00863532114332
0.00773654158975
0.00753325562661
0.00774821792473
0.00651786767695
0.00752813436463
0.00546997123991
0.0073946813327
0.00462407509924
0.00688931240077
0.00336637257482
0.00711959919125
0.00310685912673
0.00539196122327
0.00312685174059
0.00476812714582
0.00144189713717
0.00656235926307
0.00103614348196
0.00432838066972
0.00103027823773
0.00310306087729
0.001141798768
0.00238013183934
0.00134746255081
0.00189960763519
0.00157721936311
0.00161453455381
0.00167059800959
0.0015216431145
0.00152867994168
0.00147115036404
0.00125763218792
0.00133251372127
0.000997300112764
0.00114029685575
0.00077340923962
0.000980076629503
0.000556117025187
0.000879615695195
0.000326606221766
0.000798708511819
0.000148136612009
0.000615533475763
0.000121060650731
0.000325204991702
0.00010391761602
0.000289108771716
3.41222093533e-05
0.000334635833267
2.47708028414e-05
0.000215977405173
4.58446160393e-05
0.000139051650523