/*--------------------------------*- C++ -*----------------------------------*\
| =========                 |                                                 |
| \\      /  F ield         | OpenFOAM: The Open Source CFD Toolbox           |
|  \\    /   O peration     | Version:  v1906                                 |
|   \\  /    A nd           | Web:      www.OpenFOAM.com                      |
|    \\/     M anipulation  |                                                 |
\*---------------------------------------------------------------------------*/
FoamFile
{
    version     2.0;
    format      ascii;
    class       volScalarField;
    location    "663";
    object      p;
}
// * * * * * * * * * * * * * * * * * * * * * * * * * * * * * * * * * * * * * //

dimensions      [0 2 -2 0 0 0 0];


internalField   nonuniform List<scalar> 
9216
(
273.651486392
273.731244622
273.89628235
274.148003845
274.484989835
274.905652568
275.408025368
275.989797088
276.64835726
277.380829148
278.18411498
279.054926902
279.989831607
280.98527676
282.037632399
283.143210769
284.29830307
285.499191957
286.742183439
288.023612376
289.339870157
290.687404145
292.062742118
293.462486824
294.883338228
296.322084226
297.775621558
299.240943557
300.715160306
302.195484064
303.679249094
305.163894667
306.64698468
308.126190049
309.599307648
311.064240485
312.519016766
313.961768996
315.390752692
316.804324384
318.200960018
319.579232064
320.937827599
322.275524748
323.591210472
324.883856562
326.15253714
327.39640446
328.614706145
329.806761011
330.971976056
332.109822526
333.219852663
334.301676194
335.354976815
336.379489262
337.375015504
338.341402507
339.278558061
340.18642934
341.065018272
341.91436094
342.734542394
343.525676925
344.287922208
345.021460461
345.726511803
346.403316306
347.052146479
347.673290227
348.26706236
348.833788503
349.373815579
349.887496686
350.375200537
350.83729736
351.274167275
351.686187291
352.073738626
352.437194861
352.776928244
353.093299071
353.386660994
353.657351718
353.905697366
354.132004568
354.33656398
354.519643947
354.681493464
354.822338051
354.942383691
355.041818254
355.120825572
355.17962884
355.219008586
355.235454498
273.571778131
273.651898811
273.817280351
274.070003937
274.40842554
274.830883143
275.335364746
275.919522658
276.580709588
277.316014362
278.122303264
278.996256047
279.934406259
280.933173419
281.988899065
283.097872826
284.256362753
285.460634591
286.706976302
287.991710953
289.311216186
290.661931733
292.040374944
293.44314411
294.866931161
296.308521873
297.764806629
299.232778345
300.709541925
302.192310447
303.678413627
305.165292916
306.650509272
308.131736395
309.606768129
311.07351113
312.529991401
313.974345892
315.404828502
316.819800859
318.217737793
319.597217404
320.956926071
322.295647963
323.612269659
324.905769271
326.175220762
327.419782851
328.638703126
329.831306888
330.997001138
332.135263525
333.245646264
334.32776531
335.381304262
336.406003855
337.401665871
338.368143011
339.305342801
340.213217884
341.091769875
341.941040074
342.76111322
343.552108605
344.314183646
345.04752538
345.752353776
346.428913576
347.077477291
347.698337363
348.291808786
348.858221598
349.397923089
349.911270635
350.398633495
350.860386009
351.296908999
351.708583378
352.095791184
352.458909651
352.798311922
353.114361637
353.407413369
353.677807796
353.925871909
354.151914838
354.356227884
354.53908107
354.700723056
354.841378358
354.961246742
355.060499345
355.139271773
355.197635443
355.235482498
355.251902748
273.405994167
273.487263212
273.654177459
273.909205957
274.250672547
274.676870609
275.18572661
275.774825344
276.441447668
277.182610098
277.995106379
278.875547097
279.820399327
280.826022053
281.888700503
283.00467511
284.170169186
285.381410893
286.634654397
287.926195494
289.252387215
290.60965031
291.994484599
293.403475605
294.833302879
296.280743902
297.742680337
299.216100022
300.698101791
302.185896074
303.676808647
305.168280189
306.657869195
308.143250409
309.62221698
311.092678141
312.552660557
314.000305149
315.43386776
316.851715233
318.252325449
319.634282768
320.996277524
322.33710096
323.655644291
324.950893265
326.221926928
327.467911952
328.688101224
329.881828085
331.048504854
332.187617105
333.298722223
334.381443827
335.43547042
336.460550041
337.456489054
338.423147062
339.360435851
340.268314572
341.146788825
341.995906088
342.815754887
343.606460443
344.368183867
345.101117968
345.805486406
346.481539624
347.129553902
347.749827361
348.342678889
348.908444203
349.447474619
349.960133176
350.446793261
350.907834811
351.343642821
351.754603662
352.141103504
352.503524809
352.842244717
353.157631761
353.450044267
353.719827354
353.967311396
354.192809343
354.396615287
354.579002117
354.740220122
354.880494778
355.000024816
355.098978754
355.177489536
355.235640174
355.273381165
355.291230624
273.151106899
273.233662944
273.402974605
273.661607529
274.007824286
274.439842627
274.955495065
275.552261573
276.227311608
276.977548221
277.799652522
278.690126709
279.645335305
280.661542867
281.734948588
282.861716506
284.038002373
285.259976166
286.523841734
287.825852628
289.162325861
290.52965258
291.924307486
293.342855842
294.781959936
296.238383624
297.708996847
299.190778542
300.680819835
302.176325795
303.674617652
305.173133531
306.669429894
308.161181553
309.64618216
311.122343332
312.587694424
314.040380864
315.478663179
316.900914608
318.305619452
319.691370055
321.056864585
322.400903507
323.722386922
325.020310667
326.293763348
327.541922216
328.764050034
329.959490858
331.127666876
332.268074218
333.380279867
334.463917606
335.518685083
336.544339968
337.540697216
338.507625473
339.445044555
340.3529221
341.231271245
342.080147492
342.899646543
343.689901322
344.451079902
345.183382627
345.887040058
346.562310136
347.209476098
347.828843621
348.42073867
348.985504612
349.523499969
350.035095502
350.520671883
350.980616767
351.41532242
351.825182809
352.210591232
352.571937487
352.909605544
353.223970855
353.515398125
353.784238804
354.03082901
354.255487251
354.458512511
354.640182193
354.800750327
354.94044556
355.059469135
355.157992469
355.236154234
355.294055414
355.331684231
355.349815096
272.806035363
272.890240265
273.062841345
273.326428036
273.679169471
274.119172634
274.644137953
275.251398832
275.937969734
276.700596039
277.535803224
278.43994405
279.4092427
280.439834809
281.527803149
282.669208561
283.860116492
285.096619154
286.37485399
287.69101863
289.041383151
290.422299786
291.830210878
293.261655121
294.713272773
296.181809741
297.664121127
299.15717398
300.65804977
302.163946222
303.672178979
305.180182508
306.685511111
308.185839369
309.678962073
311.162793706
312.635367747
314.094835357
315.53946391
316.96763493
318.377841927
319.768687685
321.138881502
322.487235959
323.812663709
325.11417387
326.390868506
327.641938798
328.866661373
330.06439439
331.234573861
332.376709783
333.490382562
334.575239299
335.630990411
336.657406143
337.65431343
338.621592681
339.559174897
340.467038712
341.345207753
342.193747898
343.012764818
343.802401396
344.562835372
345.294276846
345.996965956
346.671170389
347.317183029
347.935319417
348.525915333
349.089324175
349.625914454
350.136067101
350.620172879
351.078629647
351.511839728
351.920207167
352.30413511
352.664023108
353.000264567
353.313244159
353.603335394
353.870898199
354.116276655
354.339796784
354.541764488
354.722463539
354.882153704
355.021068899
355.139415408
355.237370229
355.315079802
355.372658417
355.410111017
355.428263724
272.368996942
272.45529344
272.632130208
272.9021037
273.263253985
273.713537145
274.250476993
274.871212556
275.572554067
276.351040253
277.202993905
278.124574314
279.111825285
280.160717838
281.267187292
282.427164679
283.636602844
284.891497672
286.187905099
287.521954507
288.889859201
290.287924504
291.712554077
293.160254821
294.627640821
296.111436517
297.608479379
299.115722147
300.630234778
302.149206056
303.669944959
305.189881473
306.706567465
308.217677255
309.721007274
311.214475612
312.696121174
314.164102363
315.616695436
317.052292414
318.469398697
319.8666303
321.242710853
322.596468293
323.926831406
325.232826127
326.513571781
327.768277169
328.996236665
330.196826237
331.369499551
332.513784073
333.62927731
334.715643094
335.772608057
336.799958188
337.797535591
338.765235345
339.703002567
340.61082956
341.488753153
342.336852088
343.155244566
343.944085804
344.703565691
345.433906425
346.135360192
346.808206794
347.452751282
348.069321503
348.658265642
349.219949659
349.754754718
350.263074523
350.745312646
351.201879789
351.633191059
352.039663208
352.421711904
352.779749016
353.114179953
353.425401044
353.713797016
353.979738529
354.22357984
354.445656547
354.646283471
354.825752641
354.984331419
355.122260748
355.239753569
355.33699364
355.414134714
355.471299439
355.508500146
355.526566978
271.837714516
271.926601781
272.10870279
272.386614284
272.758207381
273.221240917
273.773009896
274.410403362
275.129970761
275.92798884
276.80052542
277.743498394
278.752728477
279.823984926
280.953024073
282.135620896
283.367594253
284.644826536
285.963278636
287.319001081
288.708142198
290.126954008
291.571796509
293.039140836
294.525571704
296.027789404
297.542611544
299.066974626
300.5979355
302.132672689
303.668487497
305.202804757
306.73317366
308.25726833
309.772887338
311.277953261
312.770511738
314.248730094
315.71089555
317.155413027
318.580802571
319.985696442
321.368835898
322.729067707
324.065340459
325.376700684
326.662288863
327.921335331
329.153156162
330.357149039
331.532789165
332.679625244
333.797275573
334.885424255
335.943817568
336.972260493
337.970613432
338.938789085
339.876749519
340.784503392
341.662103324
342.509643403
343.327256788
344.11511339
344.873417602
345.60240605
346.302345336
346.973529754
347.61627896
348.23093558
348.817862748
349.377441569
349.910068511
350.416152725
350.896113316
351.35037656
351.779373097
352.183535107
352.563293498
352.91907511
353.251299966
353.56037858
353.846709341
354.110675989
354.352645195
354.572964256
354.771958921
354.949931352
355.107158242
355.243889122
355.360344872
355.456716597
355.53316496
355.589818809
355.626694501
355.644615657
271.209365596
271.301401286
271.489902249
271.777458021
272.161723428
272.640204618
273.209905417
273.867399054
274.608908157
275.430384002
276.327580637
277.296121871
278.331559554
279.429422534
280.585256395
281.794654629
283.053282238
284.356892953
285.701341296
287.08259063
288.496718277
289.939918576
291.408504637
292.898909344
294.407686031
295.931509099
297.467174733
299.011601764
300.561832661
302.115034585
303.668500207
305.219648666
306.766026308
308.305307122
309.835292376
311.353910088
312.859214029
314.349382241
315.822715123
317.277633064
318.712673684
320.126488698
321.517840475
322.885598307
324.228734462
325.546320056
326.837520805
328.101592697
329.337877632
330.545799082
331.724857804
332.874627642
333.994751472
335.084937288
336.144954481
337.174630313
338.173846598
339.142536593
340.080682099
340.988310747
341.865493461
342.712342064
343.529007003
344.315675153
345.072567671
345.799937863
346.498069038
347.167272309
347.807884334
348.420264974
349.004794851
349.561872816
350.091913315
350.595343675
351.072601312
351.524130873
351.950381351
352.351803165
352.728845249
353.081952159
353.411561219
353.718099736
354.001982285
354.263608099
354.503358563
354.72159484
354.918655638
355.094855128
355.250481041
355.385792955
355.501020812
355.596363851
355.671989685
355.72803254
355.764512722
355.78224555
270.480520004
270.576332133
270.772505723
271.071611177
271.471028616
271.967943347
272.558991958
273.240352608
274.007842872
274.85701479
275.783241858
276.781795541
277.847909762
278.976833012
280.163868694
281.404404915
282.693935316
284.028072652
285.402556786
286.813258616
288.256181249
289.727459487
291.223358475
292.740272133
294.274721785
295.823355239
297.382946426
298.950395556
300.522729715
302.097103745
303.670800885
305.241233986
306.805946314
308.362611899
309.90903527
311.443150915
312.963022218
314.46683988
315.952919843
317.419700733
318.865740871
320.289714883
321.690409969
323.066721892
324.417650717
325.742296391
327.039854189
328.3096101
329.550936187
330.763285993
331.946190012
333.099251289
334.222141176
335.31459528
336.376409632
337.407437087
338.407583981
339.376807033
340.315110489
341.222543498
342.099197685
342.945204892
343.760735053
344.545994159
345.301222268
346.026691523
346.722704133
347.389590294
348.027706011
348.637430816
349.219165352
349.773328841
350.300356423
350.800696387
351.274807303
351.723155081
352.146209972
352.54444354
352.918325634
353.268321369
353.594888159
353.898472805
354.17950868
354.438413001
354.675584239
354.891399653
355.086212983
355.260352311
355.414118101
355.547781463
355.661582627
355.755729717
355.830397825
355.885727
355.921741935
355.939249388
269.647064213
269.747369066
269.952662541
270.265476767
270.682843414
271.201541337
271.817745526
272.527142217
273.325050078
274.206535366
275.166514701
276.199842689
277.301382993
278.466063077
279.688913975
280.965097179
282.289921012
283.658848922
285.067501903
286.511656994
287.98724343
289.49033771
291.017158521
292.564062154
294.127538843
295.704210202
297.290827793
298.884272674
300.481555748
302.079818635
303.676334307
305.268508661
306.853881635
308.430127415
309.995054376
311.546604559
313.082852554
314.602003807
316.102392367
317.582478092
319.040843393
320.47618953
321.887332556
323.273198943
324.632820982
325.96533199
327.269961413
328.546029865
329.792944169
331.010192451
332.197339341
333.354021316
334.479942255
335.574869205
336.638628428
337.671101719
338.672223035
339.641975409
340.580388169
341.487534411
342.363528726
343.208525107
344.022715022
344.806325573
345.559617709
346.28288443
346.976448933
347.640662674
348.275903294
348.882572401
349.461093194
350.011907922
350.535475181
351.032267084
351.502766292
351.947462965
352.366851633
352.761428033
353.131685934
353.478113976
353.801192562
354.101390807
354.379163589
354.634948706
354.869164167
355.082205629
355.274444
355.446223221
355.597858247
355.729633232
355.841799929
355.934576475
356.008146181
356.062655358
356.098134314
356.115380877
268.704106164
268.80973256
269.025816034
269.354821035
269.79333586
270.337623561
270.983278698
271.725375716
272.558620647
273.477491702
274.476361158
275.549595525
276.691633087
277.897039991
279.160547462
280.477073444
281.841732159
283.249834899
284.69688496
286.178569105
287.690747446
289.229443144
290.790832937
292.37123914
293.967123481
295.575082873
297.191847021
298.814277582
300.43936851
302.064247192
303.686175322
305.302551006
306.910910474
308.508928088
310.094416636
311.665326843
313.219746213
314.755897205
316.272134759
317.76694324
319.238932838
320.686835509
322.109500516
323.505889648
324.875072196
326.216219743
327.528600854
328.81157572
330.064590819
331.287173656
332.478927634
333.639527115
334.768712717
335.866286885
336.932109783
337.966095525
338.968208764
339.938461646
340.8769111
341.783656463
342.658837382
343.502631949
344.315255008
345.096956575
345.848020294
346.56876188
347.259527468
347.920691845
348.552656505
349.155847513
349.730713161
350.277721415
350.797357161
351.290119286
351.756517594
352.197069609
352.612297297
353.002723734
353.36886976
353.711250648
354.030372827
354.326730673
354.600803405
354.853052104
355.083916871
355.293814154
355.48313424
355.652238953
355.801459538
355.931094797
356.041409413
356.132632552
356.204956723
356.25853555
356.293405634
356.310355229
267.645853875
267.757775256
267.986604765
268.334694806
268.798066194
269.372324414
270.052331996
270.832401664
271.706487903
272.668359549
273.711744405
274.830442979
276.01841144
277.269816627
278.57906752
279.940828213
281.350017396
282.801798759
284.291566037
285.814925553
287.367678398
288.945803756
290.54544437
292.162894749
293.794592397
295.437112008
297.087162382
298.741585548
300.397357525
302.051590085
303.701532275
305.34457326
306.978244924
308.600221669
310.2083212
311.800504102
313.374872638
314.929668747
316.463271331
317.974192848
319.461075331
320.922685882
322.357911748
323.765755052
325.145327282
326.495843589
327.816617007
329.10705263
330.366641842
331.594956641
332.791644137
333.95642127
335.089069816
336.189431722
337.257404818
338.292938945
339.296032509
340.26672947
341.205116751
342.111322035
342.985511905
343.827890251
344.638696895
345.418206316
346.166726433
346.884597323
347.572189843
348.229904055
348.858167448
349.457432884
350.028176296
350.570894109
351.086100422
351.574323963
352.036104864
352.471991287
352.882535955
353.26829262
353.629812513
353.967640813
354.282313174
354.57435233
354.844264817
355.09253783
355.319636236
355.525999766
355.712040393
355.878139919
356.024647787
356.151879098
356.260112868
356.349590654
356.420515163
356.473047965
356.50723323
356.523848726
266.465459521
266.584836891
266.828737819
267.199336595
267.691921685
268.301254718
269.021270557
269.845330984
270.766468322
271.777597929
272.871689221
274.041893012
275.281627309
276.584627025
277.944964797
279.357050422
280.815615839
282.315691485
283.852578547
285.421820425
287.019175685
288.640593968
290.28219579
291.940256678
293.611195799
295.291568863
296.978064791
298.667505399
300.356847182
302.043184185
303.72375075
305.39592559
307.057235134
308.705353456
310.3381036
311.953457235
313.549533374
315.124596175
316.677051886
318.205445051
319.708454035
321.184886005
322.633671444
324.053858322
325.444606002
326.805178985
328.134940575
329.433346536
330.699938815
331.9343394
333.136244372
334.305418239
335.441688587
336.544941142
337.615115272
338.652199989
339.656230463
340.627285069
341.565482934
342.470981965
343.34397728
344.184699975
344.993416126
345.770425925
346.516062845
347.230692733
347.914712736
348.568549992
349.192660021
349.787524794
350.353650452
350.891564695
351.401813864
351.884959746
352.341576159
352.772245365
353.177554364
353.558091121
353.914440781
354.247181896
354.556882728
354.84409764
355.109363622
355.353196963
355.576090099
355.778508655
355.9608887
356.123634213
356.26711479
356.391663596
356.497575547
356.585105754
356.654468261
356.705833771
356.739254603
356.755496982
265.15481756
265.28305759
265.544836947
265.942053508
266.469041053
267.119469362
267.886090549
268.761074879
269.736322273
270.803723953
271.955362967
273.183653346
274.481423582
275.841954166
277.258980427
278.726671609
280.239595576
281.792676558
283.381151265
285.000526946
286.646543564
288.315141372
290.002434529
291.704691047
293.418319006
295.139858655
296.865979595
298.593481888
300.319299816
302.0405061
303.754317614
305.45810062
307.149374089
308.825811173
310.485240589
312.125646379
313.745166512
315.342090402
316.91485545
318.462042736
319.982371975
321.474695864
322.93799395
324.371366122
325.774025863
327.145293346
328.484588479
329.791423957
331.065398425
332.306189784
333.513548753
334.687292729
335.827300044
336.933504687
338.005891561
339.044492326
340.049381881
341.020675468
341.958526412
342.863124422
343.734694412
344.573495698
345.379821501
346.15399858
346.896386894
347.607379142
348.287400088
348.936905552
349.55638103
350.146339868
350.707321023
351.239886379
351.7446177
352.222113232
352.672984053
353.097850216
353.497336757
353.872069635
354.222671662
354.549758455
354.853934482
355.135789206
355.395893388
355.634795553
355.853018659
356.051056971
356.229373172
356.388395712
356.528516414
356.650088315
356.75342377
356.838792953
356.906422343
356.956492418
356.989064938
357.004893354
263.70430074
263.843135906
264.126235731
264.555075101
265.122728513
265.821439691
266.642442251
267.576407368
268.613843353
269.745416691
270.962183499
272.255735321
273.618271088
275.042611614
276.522173795
278.050920013
279.623295175
281.234160447
282.878729582
284.552511265
286.251259204
287.970930642
289.707653508
291.457702218
293.21748189
294.983520426
296.752467314
298.521097477
300.286318266
302.045176169
303.794866185
305.532738769
307.256303173
308.963230625
310.651355735
312.318676314
313.963351764
315.583700204
317.178194484
318.745457249
320.284255199
321.793492687
323.272204801
324.719550091
326.134803045
327.517346459
328.866663767
330.182331434
331.464011466
332.711444115
333.924440852
335.102877693
336.246688979
337.355861693
338.430430415
339.470472983
340.476106909
341.447486586
342.384801236
343.288273594
344.158159176
344.994746064
345.798355007
346.569339705
347.308087078
348.015017386
348.69058402
349.335272883
349.949601255
350.534116111
351.089391881
351.616027681
352.114644065
352.585879381
353.030385805
353.448825154
353.841864544
354.210171992
354.554412002
354.875241212
355.173304132
355.44922902
355.703623931
355.937072956
356.150132685
356.343328909
356.517153574
356.672062003
356.808470379
356.926753528
357.02724295
357.11022513
357.175940203
357.224579676
357.256215282
357.271586387
262.102410798
262.254011807
262.562722516
263.029374424
263.645358894
264.401037738
265.285680544
266.288064699
267.396988243
268.60166048
269.891962062
271.258586432
272.693084679
274.187840354
275.735999822
277.331379614
278.96836671
280.641822198
282.346994209
284.079442704
285.834976649
287.609603196
289.39948838
291.200928993
293.010335418
294.824224819
296.639223191
298.452073848
300.259649446
302.058963055
303.847181338
305.621634294
307.379818638
309.119402285
310.838225912
312.534302687
314.205816309
315.851117564
317.46871967
319.05729256
320.615656301
322.142773788
323.63774292
325.099788398
326.528253344
327.922590821
329.282355391
330.607194762
331.896841587
333.151105472
334.369865295
335.553061893
336.700691277
337.812798453
338.889472009
339.930839531
340.937063959
341.908340878
342.844896771
343.746988132
344.614901352
345.448953199
346.249491717
347.0168973
347.751583759
348.453999131
349.124626084
349.763981739
350.372616847
350.951114242
351.500086586
352.020173448
352.512037804
352.976362041
353.413843604
353.82519039
354.211115985
354.572334854
354.909557541
355.223485951
355.51480875
355.784196939
356.032299613
356.25973996
356.467111496
356.654974576
356.823853186
356.974232026
357.106553897
357.221217365
357.318574726
357.398930398
357.462539322
357.509604678
357.540209513
357.555077637
260.33530979
260.502446707
260.842209086
261.354449915
262.028277961
262.851544315
263.810959318
264.892899471
266.084063697
267.371941317
268.745091127
270.193257763
271.707364077
273.279421337
274.902394591
276.570052026
278.27681782
280.017639566
281.787874968
283.583198264
285.399524697
287.232950818
289.079709043
290.936135936
292.798654353
294.663769251
296.52807532
298.388272958
300.241187892
302.083788919
303.913205961
305.726742574
307.521879273
309.296279042
311.047788868
312.774439214
314.474441473
316.146183745
317.788225295
319.399289912
320.978258296
322.524159695
324.036162976
325.513567375
326.95579309
328.362371894
329.732937817
331.067218002
332.365023713
333.62624159
334.850825186
336.038786936
337.190190657
338.305144784
339.383796467
340.426326693
341.432946523
342.403894517
343.339435318
344.239859338
345.105483398
345.936652116
346.733739787
347.497152502
348.227330177
348.924748268
349.589918902
350.223391266
350.825751121
351.397619404
351.939649907
352.452526138
352.93695745
353.393674599
353.823424883
354.226967012
354.605065836
354.958487052
355.287991949
355.594332283
355.878245299
356.140448964
356.381637417
356.602476691
356.803600713
356.985607605
357.149056306
357.294463516
357.422300963
357.532993014
357.626914577
357.704389315
357.76568825
357.811027541
357.840502071
357.854818544
258.386181168
258.572459533
258.950300788
259.518061929
260.261707325
261.165701032
262.213395231
263.388115468
264.673993637
266.05651418
267.522789116
269.061612786
270.663361496
272.319802643
274.023866423
275.769417514
277.551048962
279.363908201
281.203556568
283.065858721
284.946896353
286.842901109
288.750203622
290.66519827
292.584325067
294.504069946
296.42098136
298.331698107
300.232979863
302.121735954
303.995049269
305.850189057
307.684615619
309.495985346
311.282152047
313.04116597
314.771270371
316.470896165
318.138655296
319.773332976
321.373878883
322.939397494
324.469137875
325.962483164
327.418940027
328.838128233
330.219770443
331.563682198
332.86976212
334.137982305
335.368379002
336.561043685
337.716114725
338.833769847
339.914219626
340.957702192
341.964479319
342.934833962
343.869069278
344.767509005
345.630499066
346.4584101
347.25164062
348.010620425
348.735813888
349.427722784
350.086888346
350.713892314
351.309356867
351.87394333
352.408349752
352.913307408
353.389576436
353.837940786
354.259202707
354.654176964
355.023684948
355.368548815
355.689585722
355.987602235
356.263388942
356.517715309
356.751324791
356.964930262
357.159209747
357.33480251
357.492305495
357.63227013
357.755199498
357.861545845
357.951708433
358.026031865
358.084804432
358.128255895
358.156494382
358.170207768
256.234342589
256.444558701
256.869735568
257.505920123
258.334672862
259.33583941
260.488339754
261.771620847
263.166697817
264.656763998
266.227415668
267.866583241
269.564275881
271.312237372
273.103586667
274.932489054
276.793880317
278.683249182
280.596472608
282.529693231
284.479227114
286.441492231
288.412952583
290.390078414
292.369327183
294.347150386
296.320024064
298.284495326
300.237229545
302.175055958
304.094997328
305.994280265
307.870341031
309.720828031
311.543602872
313.336738939
315.098516585
316.827416154
318.522110004
320.181453556
321.804475066
323.390364418
324.938461335
326.448243383
327.919314095
329.351391465
330.744296786
332.097943811
333.412328098
334.687516503
335.923636848
337.120867944
338.279430192
339.39957708
340.481587863
341.525761716
342.532413575
343.501871811
344.434477736
345.330586888
346.190571824
347.014826137
347.803769229
348.557851397
349.277558714
349.963417273
350.615996382
351.235910438
351.823819294
352.380427085
352.906479558
353.40276008
353.87008457
354.309295641
354.721256235
355.106843027
355.466939794
355.802430894
356.114194929
356.403098654
356.669991138
356.915698214
357.141017229
357.346712145
357.533508996
357.702091741
357.853098524
357.987118337
358.104688089
358.206290077
358.292349811
358.363234171
358.419250013
358.460642043
358.487532136
358.500587525
253.853987784
254.094679667
254.579649621
255.301325131
256.234993013
257.354141505
258.631818777
260.0425538
261.56362457
263.175688499
264.862871781
266.612475252
268.414469276
270.260923665
272.14547032
274.062850098
276.008560563
277.978599057
279.96928355
281.977129198
283.99875926
286.030834053
288.06999002
290.112791584
292.155707425
294.195125857
296.227406717
298.248957616
300.256309695
302.246183624
304.21552669
306.16151732
308.081564952
309.973309082
311.834620692
313.66360092
315.458573995
317.218077646
318.940853652
320.625837821
322.272148133
323.879071585
325.4460505
326.972668694
328.458638093
329.903786073
331.308043439
332.671432813
333.994057196
335.276088491
336.517756027
337.719335275
338.881137113
340.003498044
341.086771804
342.13132274
343.137521286
344.105741728
345.036362323
345.929767672
346.786353068
347.606530378
348.39073493
349.139432735
349.853127419
350.532366258
351.177744807
351.789909751
352.369559791
352.917444497
353.434361251
353.921150512
354.378689777
354.807886617
355.209671216
355.584988756
355.9347919
356.260033521
356.561659757
356.840603377
357.097777476
357.334069487
357.550335545
357.747395231
357.926026727
358.086962427
358.230885004
358.358423947
358.470152557
358.566585345
358.648175847
358.715314946
358.768329239
358.807478956
358.83290117
358.845240451
251.212358167
251.492691216
252.054617915
252.884786225
253.949394519
255.213120287
256.641229242
258.202057703
259.868494139
261.618536294
263.435097459
265.305322852
267.219693217
269.171130845
271.154230464
273.164662429
275.198747325
277.253175515
279.324834428
281.41070462
283.507789516
285.613052387
287.723348165
289.835356783
291.945543367
294.050183944
296.145450482
298.227536143
300.292777992
302.337753477
304.359321545
306.354612219
308.32100859
310.256140646
312.157890591
314.02439389
315.854027769
317.645396886
319.397322672
321.108833114
322.779148927
324.40766783
325.993948462
327.53769423
329.038738122
330.497028979
331.912618774
333.285650485
334.616346023
335.904993775
337.15193578
338.357554819
339.52226193
340.646484941
341.730658616
342.775216963
343.780588135
344.747192242
345.67544218
346.565747372
347.418520077
348.234183718
349.013182461
349.75599124
350.463125316
351.135148607
351.772680099
352.376397905
352.947040689
353.48540646
353.99234888
354.468771461
354.915620138
355.333874823
355.724540499
356.088638331
356.42719711
356.741245176
357.031802822
357.299875136
357.546445214
357.772467718
357.978862818
358.16651054
358.336245602
358.488852757
358.625062674
358.745548359
358.850922075
358.941732771
359.018463911
359.081531677
359.131283669
359.167996959
359.191824291
359.203385419
248.267008456
248.600260646
249.263415778
250.233678253
251.463878114
252.906460991
254.516426072
256.254413753
258.088325664
259.993636911
261.952672949
263.95327438
265.987300174
268.049284321
270.13538202
272.242625078
274.368446486
276.510411538
278.666089195
280.833001701
283.008598471
285.190212663
287.37497937
289.559727354
291.740893402
293.914560696
296.076596171
298.222858138
300.34940368
302.452627333
304.529295923
306.576506865
308.591623168
310.572262695
312.516319299
314.421972769
316.287666508
318.112083223
319.894134899
321.632955315
323.327883368
324.978443471
326.58432655
328.145370693
329.661543768
331.132928895
332.559711458
333.942166954
335.28064866
336.57557421
337.827411155
339.036661938
340.203849093
341.329501501
342.41414256
343.458280963
344.462404755
345.426979071
346.352447788
347.239238968
348.087773695
348.898477542
349.671793709
350.408196661
351.108205127
351.77239335
352.401399766
352.995932479
353.556771295
354.084766267
354.580833034
355.045945446
355.481126198
355.88743634
356.265964463
356.617816233
356.944104643
357.245941092
357.524427196
357.780647151
358.015660482