/*--------------------------------*- C++ -*----------------------------------*\
| =========                 |                                                 |
| \\      /  F ield         | OpenFOAM: The Open Source CFD Toolbox           |
|  \\    /   O peration     | Version:  v1906                                 |
|   \\  /    A nd           | Web:      www.OpenFOAM.com                      |
|    \\/     M anipulation  |                                                 |
\*---------------------------------------------------------------------------*/
FoamFile
{
    version     2.0;
    format      ascii;
    class       surfaceScalarField;
    location    "679";
    object      phi;
}
// * * * * * * * * * * * * * * * * * * * * * * * * * * * * * * * * * * * * * //

dimensions      [0 3 -1 0 0 0 0];
oriented        oriented;


internalField   nonuniform List<scalar> 
18240
(
-0.000199254986559
0.000199193417874
-0.000407953958076
0.000208625360826
-0.000615249267155
0.000207233850376
-0.00081953323363
0.000204207507358
-0.00101972289239
0.000200131026824
-0.00121492130802
0.000195119268049
-0.00140426612387
0.000189289023653
-0.00158707871555
0.000182730779797
-0.00176269312207
0.000175561517205
-0.00193064675726
0.000167869220735
-0.00209046709574
0.000159770514337
-0.00224189639059
0.000151342353553
-0.00238463494302
0.000142691893285
-0.00251860154576
0.000133877235443
-0.00264363517352
0.000124990335459
-0.00275979366131
0.00011606682541
-0.00286701545131
0.000107181995036
-0.00296545843345
9.83491928375e-05
-0.00305512304604
8.96285664531e-05
-0.00313623238581
8.10136166554e-05
-0.00320881707181
7.2552541885e-05
-0.00327313700278
6.42224836802e-05
-0.00332922824154
5.60632688278e-05
-0.00337736636212
4.80391487139e-05
-0.00341757506299
4.01850365871e-05
-0.00345013086733
3.24554840394e-05
-0.00347503343626
2.48834543171e-05
-0.00349255145142
1.74164763993e-05
-0.00350265425072
1.00883045771e-05
-0.00350559895653
2.84203463506e-06
-0.00350132325297
-4.28537756615e-06
-0.00349007369384
-1.13533242155e-05
-0.00347175975121
-1.83187768325e-05
-0.00344662422268
-2.52403862204e-05
-0.00341455771269
-3.2066318761e-05
-0.00337581139602
-3.8852318e-05
-0.00333027134587
-4.55348399041e-05
-0.00327821438015
-5.21642136799e-05
-0.00321954119832
-5.86627753355e-05
-0.00315457589996
-6.50739577685e-05
-0.00308325575289
-7.13045833429e-05
-0.00300597475808
-7.73911748965e-05
-0.00292272803625
-8.32257711515e-05
-0.00283399913292
-8.88404118324e-05
-0.0027398569629
-9.41156132919e-05
-0.0026408851698
-9.90836833841e-05
-0.00253723262868
-0.00010361961093
-0.00242958083286
-0.000107762119172
-0.00231815362478
-0.000111387137625
-0.00220371594877
-0.00011454338092
-0.0020865574876
-0.000117110285766
-0.00196751269469
-0.000119142136545
-0.00184694048509
-0.000120515550499
-0.00172574915044
-0.000121276731541
-0.00160439399852
-0.000121290208084
-0.00148387769799
-0.00012058732811
-0.00136477446588
-0.000119031386793
-0.00124816785269
-0.00011666259632
-0.00113470783092
-0.000113383458773
-0.00102546778857
-0.000109282353732
-0.000921051805249
-0.000104337605535
-0.00082236914415
-9.87132784353e-05
-0.000729809838975
-9.24817146284e-05
-0.000643953131857
-8.58778058134e-05
-0.000564861900901
-7.90164747112e-05
-0.000492770975896
-7.21045177776e-05
-0.0004274890781
-6.52113980071e-05
-0.0003690010158
-5.84958909511e-05
-0.000316922990774
-5.20127537651e-05
-0.000271029001524
-4.58977591371e-05
-0.000230787096006
-4.01822014865e-05
-0.000195838376247
-3.49500009061e-05
-0.000165602817101
-3.018127974e-05
-0.000139700912796
-2.59018869697e-05
-0.0001175928111
-2.20587667425e-05
-9.89312128608e-05
-1.8660982715e-05
-8.32218424713e-05
-1.56642233279e-05
-7.01417882486e-05
-1.30786619921e-05
-5.92485783718e-05
-1.08511753925e-05
-5.02768555205e-05
-8.9692057114e-06
-4.28693144368e-05
-7.36793181787e-06
-3.6836670357e-05
-6.02858599651e-06
-3.19130069105e-05
-4.88618051424e-06
-2.8004216213e-05
-3.90389388602e-06
-2.50339322884e-05
-2.93507220442e-06
-2.26033597205e-05
-2.42143617776e-06
-2.0397029307e-05
-2.17045957844e-06
-1.85478017332e-05
-1.83263783693e-06
-1.67581845413e-05
-1.74948637179e-06
-1.48719225571e-05
-1.85759976582e-06
-1.29462160562e-05
-1.87622742745e-06
-1.09798697478e-05
-1.92073808345e-06
-8.73139103044e-06
-2.18960049807e-06
-6.03283077764e-06
-2.6304166788e-06
-2.90615203332e-06
-3.04767099648e-06
-2.86662693022e-06
-0.000210814420943
0.000409941171838
-0.000434191629425
0.000431929949687
-0.00065534686999
0.000428319749114
-0.000873037485137
0.000421824826315
-0.00108624797137
0.0004132728569
-0.00129404099764
0.000402838425991
-0.0014955350802
0.000390715177615
-0.00168998213162
0.000377103399846
-0.00187670943917
0.000362221730148
-0.00205519371544
0.000346278583407
-0.00222497844425
0.000329489072913
-0.00238575513837
0.00031204375119
-0.00253726069544
0.000294132349401
-0.00267936945743
0.000275910443087
-0.00281197340701
0.000257530378782
-0.00293508781255
0.000239105568729
-0.00304871646555
0.000220748133872
-0.00315297289223
0.000202530033075
-0.00324793198651
0.000184526712076
-0.00333376784245
0.000166774163368
-0.00341059236081
0.000149317915081
-0.00347861004413
0.000132165348971
-0.00353794360923
0.000115339675147
-0.00358880564065
9.8827051918e-05
-0.00363131097702
8.26354222828e-05
-0.0036656649928
6.67362369541e-05
-0.00369196245982
5.11283094026e-05
-0.00371039226125
3.57740111159e-05
-0.00372102246939
2.06683968168e-05
-0.0037240214049
5.76979494834e-06
-0.00371942901348
-8.92532864676e-06
-0.00370739479853
-2.34575657746e-05
-0.0036879347374
-3.78237354752e-05
-0.00366118591814
-5.20580504541e-05
-0.00362714962639
-6.61448351463e-05
-0.0035859633901
-8.01062227184e-05
-0.00353762948734
-9.39082339387e-05
-0.00348230455794
-0.000107555678663
-0.00342001285803
-0.000120991294031
-0.00335095344435
-0.00013419886619
-0.0032751969065
-0.000147095260035
-0.00319300973387
-0.000159642841681
-0.00310453280015
-0.000171734119168
-0.00301012192573
-0.000183314533368
-0.00291000634701
-0.000194259372379
-0.00280464379963
-0.000204507323067
-0.0026943583024
-0.000213929015918
-0.00257970744122
-0.00022247020683
-0.0024611017188
-0.000230010781879
-0.00233918225248
-0.000236513722074
-0.00221442964961
-0.000241872756908
-0.002087552022
-0.000246061465705
-0.00195909719169
-0.000248970253489
-0.00182984949942
-0.000250554473117
-0.0017004559549
-0.000250672532474
-0.00157181582108
-0.000249244571519
-0.00144471157567
-0.000246113608624
-0.00132015857532
-0.000241220369173
-0.00119902873178
-0.000234482564571
-0.0010823543819
-0.0002259513192
-0.000970958416091
-0.000215696713423
-0.000865715885039
-0.000203943025706
-0.000767197079226
-0.000190960142148
-0.000675900221736
-0.000177156756515
-0.000591983586591
-0.000162891487216
-0.000515564492532
-0.000148502546531
-0.000446525171402
-0.000134209582566
-0.000384746447429
-0.000120252014372
-0.000329898086609
-0.000106821509408
-0.000281638502699
-9.41345554107e-05
-0.00023945442796
-8.23290016419e-05
-0.000202864909302
-7.15174339631e-05
-0.000171299342421
-6.1712279569e-05
-0.00014427863886
-5.29017958147e-05
-0.000121289148794
-4.50165807354e-05
-0.000101909403649
-3.80215750763e-05
-8.56676524404e-05
-3.18768373376e-05
-7.21612245561e-05
-2.65668844234e-05
-6.09602674049e-05
-2.20245333341e-05
-5.17323577034e-05
-1.81792266217e-05
-4.41414168356e-05
-1.49321795046e-05
-3.79397930018e-05
-1.22118916314e-05
-3.28670053108e-05
-9.93301232911e-06
-2.87155279926e-05
-8.03698959433e-06
-2.51521026018e-05
-6.47380904637e-06
-2.21855441877e-05
-5.36762087809e-06
-1.98659626553e-05
-4.46296555119e-06
-1.80006684194e-05
-3.67287138009e-06
-1.63293250134e-05
-3.38911111357e-06
-1.46712040509e-05
-3.48043096737e-06
-1.28463924495e-05
-3.65736659075e-06
-1.0886802958e-05
-3.83299924155e-06
-8.74903148991e-06
-4.27024939236e-06
-6.19603527073e-06
-5.11553811972e-06
-3.02584500505e-06
-6.14501327559e-06
-5.85731750975e-06
-0.000213677051716
0.000623550663001
-0.00043934042838
0.000657521901986
-0.000662967304005
0.000651875443043
-0.000883048346212
0.000641833860126
-0.00109849646912
0.000628650038299
-0.00130832817991
0.000612598018305
-0.00151165270876
0.000593969017676
-0.00170770030952
0.000573078832025
-0.00189580890184
0.000550259930033
-0.00207544544667
0.000525842998415
-0.00224617906737
0.000500152709109
-0.00240769904643
0.000473491744598
-0.00255977815516
0.000446141983502
-0.00270229095482
0.00041835153102
-0.00283517069926
0.000390341319502
-0.00295843097178
0.00036229455724
-0.00307211860197
0.000334367781966
-0.0031763406457
0.000306681404957
-0.00327121475002
0.000279333870787
-0.00335690243346
0.00025239198558
-0.00343355734142
0.000225907095412
-0.0035013650244
0.000199904188501
-0.00356048902402
0.000174399389782
-0.00361111693301
0.000149387322979
-0.00365340391251
0.000124859710587
-0.00368752472341
0.000100790779835
-0.00371361435159
7.71570131698e-05
-0.00373182578004
5.39206622625e-05
-0.00374226740877
3.10509459054e-05
-0.00374506655179
8.50574474584e-06
-0.00374030359133
-1.37454095076e-05
-0.00372808131832
-3.57413843835e-05
-0.00370845580713
-5.75043809427e-05
-0.00368151195323
-7.90617530804e-05
-0.00364729111359
-0.000100418746765
-0.00360587312518
-0.000121582351192
-0.0035573005668
-0.000142531837922
-0.00350166741164
-0.000163245293461
-0.00343903952495
-0.000183668210582
-0.00336954972522
-0.000203743529538
-0.00329331348415
-0.000223378621202
-0.00321052967366
-0.000242479933119
-0.00312139004484
-0.000260918819259
-0.00302618429141
-0.000278571695631
-0.0029252012824
-0.000295284862439
-0.0028188365791
-0.000310920625009
-0.0027074835952
-0.000325320536944
-0.00259164167158
-0.000338356219725
-0.00247179665319
-0.000349888403972
-0.00234852965958
-0.000359817829409
-0.00222239197499
-0.000368034588131
-0.00209401986114
-0.000374460918701
-0.00196401707149
-0.00037898633841
-0.00183308502006
-0.000381501658506
-0.00170192430353
-0.000381833993627
-0.00157137167644
-0.000379799357908
-0.00144229735506
-0.000375176585542
-0.00131570517745
-0.000367803251115
-0.00119259117755
-0.000357575357011
-0.00107401665742
-0.000344507784482
-0.000960949785768
-0.000328735761227
-0.000854316290063
-0.000310552394743
-0.000754808741324
-0.000290435962523
-0.000662884942229
-0.000269052664565
-0.000578685902663
-0.00024705665153
-0.000502226742048
-0.000224932382039
-0.000433399494173
-0.000203002582533
-0.000372039298183
-0.000181582515162
-0.000317830433749
-0.000160997056802
-0.000270358959422
-0.000141576921131
-0.000229081968766
-0.000123574294238
-0.000193426327736
-0.000107145249177
-0.000162793843773
-9.23150787734e-05
-0.000136652479706
-7.90174219146e-05
-0.000114513509184
-6.71283138305e-05
-9.59489852022e-05
-5.65627458575e-05
-8.05064650879e-05
-4.72944024184e-05
-6.77395998993e-05
-3.93117186768e-05
-5.72130824837e-05
-3.25272070624e-05
-4.8568460675e-05
-2.68024523065e-05
-4.14906914511e-05
-2.19866546721e-05
-3.57220037713e-05
-1.79589538016e-05
-3.10269563793e-05
-1.46047719114e-05
-2.72086666288e-05
-1.18342267501e-05
-2.40505754885e-05
-9.60893902413e-06
-2.13932443028e-05
-8.00181377227e-06
-1.90236984349e-05
-6.80596732636e-06
-1.68803431493e-05
-5.7889536053e-06
-1.51781602312e-05
-5.06000893566e-06
-1.38062060623e-05
-4.81594379761e-06
-1.20389858908e-05
-5.38146910525e-06
-9.89484370044e-06
-5.92919326342e-06
-7.62063718248e-06
-6.48921644867e-06
-5.08768571682e-06
-7.58728690295e-06
-2.56879947195e-06
-8.60132918752e-06
-8.39450761578e-06
-0.000217105035161
0.000840587863359
-0.000446129984758
0.000886475061052
-0.000673042577085
0.000878716453791
-0.000896232780108
0.000864952156651
-0.00111455063493
0.000846896336573
-0.00132696446407
0.000824940011975
-0.0015325580453
0.000799491135475
-0.00173054387734
0.000770992899773
-0.00192026206657
0.000739906830867
-0.00210118433589
0.000706693652351
-0.00227290229015
0.000671799637935
-0.00243512460802
0.000635642699854
-0.00258765850011
0.000598605241524
-0.00273040424743
0.000561026297715
-0.00286333373859
0.00052320069831
-0.00298648578622
0.0004853761597
-0.00309994450596
0.000447757091997
-0.00320383749237
0.000410504662228
-0.00329831539593
0.000373743242656
-0.00338355375715
0.000337561526101
-0.00345973408706
0.000302019982169
-0.00352704932841
0.00026715171231
-0.00358568611184
0.000232969990665
-0.00363583342085
0.000199468191293
-0.00367766552318
0.000166627069553
-0.0037113533883
0.000134413627622
-0.0037370478168
0.000102788250391
-0.00375489329699
7.17026573562e-05
-0.00376501107088
4.1107196902e-05
-0.00376751537252
1.09481801372e-05
-0.00376249634287
-1.88242294648e-05
-0.0037500387923
-4.82591110924e-05
-0.00373020513922
-7.73960011239e-05
-0.00370305707893
-0.000106268238164
-0.00366863869555
-0.000134893242444
-0.00362700135541
-0.000163276335952
-0.00357818714038
-0.000191400281586
-0.00352225713985
-0.000219230180987
-0.00345927496956
-0.000246702803222
-0.00338933816779
-0.000273733531304
-0.0033125610828
-0.000300206357135
-0.00322910846013
-0.000325984056669
-0.00313917625473
-0.000350899779132
-0.0030430257246
-0.000374771656609
-0.00294096001349
-0.000397396746614
-0.00283335621886
-0.000418570726731
-0.00272063492173
-0.000438084024118
-0.00260328716638
-0.00045574534804
-0.00248183449007
-0.000471377017966
-0.00235685011226
-0.000484836114752
-0.00222891231979
-0.000495999363317
-0.00209862869978
-0.000504768044036
-0.00196660073835
-0.00051102941975
-0.00183347387264
-0.000514638915701
-0.00169993690669
-0.000515372727635
-0.0015667977988
-0.000512935355931
-0.00143498092622
-0.000506983024931
-0.0013055485954
-0.000497221022662
-0.00117961478506
-0.000483489422263
-0.00105835879358
-0.000465741462521
-0.000942909596733
-0.000444158609316
-0.000834367503456
-0.0004190675585
-0.00073358894499
-0.000391184306573
-0.00064101973935
-0.000361591607514
-0.000556659527521
-0.00033138476292
-0.000480382417225
-0.000301177975032
-0.000412061407089
-0.000271291245659
-0.000351531174502
-0.000242081534533
-0.000298472949754
-0.000214023372452
-0.000252398635383
-0.000187621047238
-0.000212671670026
-0.000163270446178
-0.000178596617056
-0.000141191505329
-0.000149487453859
-0.000121395435576
-0.00012475895087
-0.000103719038171
-0.000103950814375
-8.79104020694e-05
-8.66812913566e-05
-7.38082446303e-05
-7.25111888168e-05
-6.14408450459e-05
-6.09325774785e-05
-5.08675909571e-05
-5.14639613081e-05
-4.19730355987e-05
-4.3731883968e-05
-3.45124684688e-05
-3.74442442885e-05
-2.82518375825e-05
-3.23526415776e-05
-2.30282739914e-05
-2.82454679519e-05
-1.86895022372e-05
-2.49455947237e-05
-1.51120936693e-05
-2.23045366476e-05
-1.22276978085e-05
-1.98191223773e-05
-1.04624512123e-05
-1.76200638139e-05
-8.97765395321e-06
-1.57335643991e-05
-7.64649901475e-06
-1.38758064245e-05
-6.8855206421e-06
-1.19743175095e-05
-6.68148510245e-06
-1.05180824904e-05
-6.7967581523e-06
-8.50284754365e-06
-7.89703109504e-06
-6.10007450102e-06
-8.84039843734e-06
-4.01411004847e-06
-9.61985444488e-06
-2.05555628704e-06
-1.05044836902e-05
-1.04218774026e-05
-0.000221680915216
0.00106220069631
-0.000455385212074
0.00112010794412
-0.000686802102404
0.00111006132496
-0.000914225738272
0.00109230384779
-0.00113643211438
0.00106903079617
-0.00135233153367
0.0010407675051
-0.00156097133876
0.00100805912002
-0.00176154508459
0.000971494796088
-0.00195339349377
0.000931683551927
-0.00213600186589
0.000889230333446
-0.00230898990093
0.000844716212689
-0.00247210083294
0.00079868220524
-0.00262518508665
0.000751618371573
-0.00276818627889
0.000703956454929
-0.00290112347853
0.000656067257909
-0.00302407808266
0.000608260274547
-0.00313717774778
0.000560786758178
-0.00324058627039
0.000513843415707
-0.00333449045662
0.000467578260978
-0.00341909355032
0.000422095757157
-0.00349460501459
0.000377463285491
-0.00356123711974
0.000333716040611
-0.00361919702571
0.000290862922707
-0.00366868581903
0.000248890452799
-0.00370989215037
0.000207767747364
-0.00374299306196
0.000167449379278
-0.00376814861981
0.000127879597781
-0.00378550411503
8.89944637868e-05
-0.00379518537691
5.0725768174e-05
-0.00379730223538
1.30029033176e-05
-0.00379194453133
-2.42430074797e-05
-0.0037791870353
-6.10771017725e-05
-0.00375908640712
-9.75560160319e-05
-0.00373168799316
-0.000133725426556
-0.00369702417284
-0.000169614679126
-0.00365512348363
-0.000205234024706
-0.00360601069186
-0.000240568910193
-0.00354971851198
-0.000275577587762
-0.00348628945725
-0.00031018593438
-0.00341578991446
-0.000344286557909
-0.00333831319674
-0.000377735419807
-0.00325399496839
-0.000410353938992
-0.00316301616242
-0.000441928955095
-0.00306561777499
-0.000472219380056
-0.00296210120242
-0.000500960927966
-0.00285283915883
-0.000527878644499
-0.00273826936883
-0.000552697029724
-0.00261889686033
-0.00057515829324
-0.00249527540573
-0.000595035043183
-0.00236799723174
-0.000612146949027
-0.00223766159304
-0.000626362107388
-0.0021048621305
-0.000637589131311
-0.00197016794421
-0.000645738191732
-0.00183415165177
-0.000650663160824
-0.00169743679798
-0.000652087949854
-0.00156079205452
-0.000649574684466
-0.00142519007962
-0.000642572891842
-0.0012918133034
-0.000630582082489
-0.00116190489978
-0.00061337690661
-0.00103684907935
-0.000590773647852
-0.000917957026368
-0.000563024386971
-0.000806682955714
-0.000530314095057
-0.00070419837401
-0.00049363954396
-0.000610943070345
-0.000454816247739
-0.000526525895369
-0.000415769675709
-0.000450563020066
-0.000377109553229
-0.000382933937899
-0.000338888148744
-0.000323560028634
-0.000301423997629
-0.000272141079213
-0.000265411333526
-0.000228087629084
-0.000231643496336
-0.000190596301844
-0.000200732093243
-0.00015877435461
-0.000172983705041
-0.000131773506378
-0.000148367962366
-0.000108929627845
-0.00012653597009
-8.98547768902e-05
-0.000106959617192
-7.4318652243e-05
-8.93203865978e-05
-6.19137191252e-05
-7.38226450979e-05
-5.19932672115e-05
-6.07652156211e-05
-4.39606613067e-05
-4.99830679095e-05
-3.74393497961e-05
-4.10116151535e-05
-3.21923081286e-05
-3.34765213534e-05
-2.79903440143e-05
-2.72079625408e-05
-2.46470625145e-05
-2.20100149836e-05
-2.20064850207e-05
-1.77307489574e-05
-1.99393009672e-05
-1.42718318036e-05
-1.80277630257e-05
-1.23482649887e-05
-1.61646475756e-05
-1.08126331374e-05
-1.40561133381e-05
-9.72482387145e-06
-1.20877392056e-05
-8.82140446212e-06
-1.02288435932e-05
-8.50397560215e-06
-8.65020104348e-06
-8.33603285818e-06
-7.19794156483e-06
-9.30497895957e-06
-5.14340910103e-06
-1.08467629134e-05
-3.19212395881e-06
-1.1522606811e-05
-1.60131501091e-06
-1.20472460532e-05
-1.19992645917e-05
-0.000227548307975
0.00128968075517
-0.00046731615003
0.00135980360823
-0.00070454662306
0.00134721969376
-0.000937411926717
0.0013250968992
-0.00116459308906
0.00129613981419
-0.00138492872186
0.00126103097617
-0.00159742055207
0.00122047884191
-0.00180124173954
0.00117524389781
-0.00199573651566
0.00112610632501
-0.00218041315045
0.00107383502826
-0.00235493066299
0.00101916191703
-0.00251908230294
0.000962762152626
-0.00267277620912
0.000905240783704
-0.00281601619607
0.000847125123256
-0.00294888231836
0.000788862334783
-0.00307151373505
0.000730820896654
-0.00318409260483
0.000673295197423
-0.00328683115446
0.000616511864191
-0.00337995989404
0.000560637353761
-0.0034637190117
0.000505785641197
-0.00353835041296
0.000452026000891
-0.00360409256726
0.000399389992652
-0.00366117529755
0.000347878074721
-0.00370981698768
0.000297465109189
-0.00375022109724
0.000248105515654
-0.00378257484585
0.000199737369557
-0.00380704671042
0.000152286446012
-0.00382378606128
0.000105669414269
-0.00383292129734
5.97973995623e-05
-0.00383456031154
1.45789549169e-05
-0.00382878929869
-3.00761292218e-05
-0.00381567433157
-7.42534985605e-05
-0.00379526123125
-0.000118029619486
-0.00376757883896
-0.000161467615111
-0.00373264058148
-0.00020461174536
-0.0036904501229
-0.000247482565398
-0.00364100523699
-0.000290070840841
-0.00358430635552
-0.000332332796632
-0.00352036300884
-0.000374184542372
-0.00344920522846
-0.000415498869661
-0.00337089215213
-0.000456101875323
-0.00328552536249
-0.000495773255418
-0.00319325827234
-0.000534247166689
-0.00309430933785
-0.000571218175072
-0.00298896958951
-0.000606348566532
-0.00287761175926
-0.00063928220415
-0.00276069095971
-0.000669660716738
-0.00263874222147
-0.000697146917261
-0.00251236414253
-0.00072144903286
-0.00238219458402
-0.000742348432475
-0.00224886857412
-0.000759714375719
-0.0021129778876
-0.000773500786489
-0.00197503462671
-0.000783695045434
-0.0018354893732
-0.000790214909763
-0.00169481920603
-0.000792757889237
-0.00155369718064
-0.000790689477242
-0.00141315100211
-0.000783107266502
-0.00127458124984
-0.000769133515609
-0.00113934523065
-0.000748592018458
-0.00100916263621
-0.00072093197661
-0.000885436462721
-0.000686724739004
-0.000770331493576
-0.000645394050961
-0.000665714347883
-0.000598229767114
-0.000572048293483
-0.000548452351693
-0.000487902735098
-0.000499885684811
-0.000412396901015
-0.000452582668326
-0.000345581794234
-0.000405672347699
-0.000287681040085
-0.000359292470221
-0.000238481147039
-0.000314580021919
-0.000197231511758
-0.000272861823703
-0.000162842048569
-0.000235090796391
-0.000134098546285
-0.000201696737497
-0.000109860083731
-0.000172577862431
-8.93150098783e-05
-0.00014705229925
-7.22527999926e-05
-0.000123995771687
-5.88581332907e-05
-0.000102690637874
-4.88197271987e-05
-8.38375285527e-05
-4.11292615627e-05
-6.84322103448e-05
-3.49224828043e-05
-5.6166798857e-05
-2.98679112007e-05
-4.60434568076e-05
-2.58876220707e-05
-3.74342873401e-05
-2.27611217545e-05
-3.03116453764e-05
-2.03261313074e-05
-2.44221143443e-05
-1.84717669226e-05
-1.95625356919e-05
-1.6770690726e-05
-1.59493691488e-05
-1.52030331741e-05
-1.38901041061e-05
-1.38038837793e-05
-1.2183562203e-05
-1.24861885688e-05
-1.10115565061e-05
-1.08327238838e-05
-1.04402156387e-05
-9.00575917123e-06
-1.02939099668e-05
-7.01939353569e-06
-1.02846144581e-05
-5.62684078979e-06
-1.06569607332e-05
-4.36874487491e-06
-1.20606191025e-05
-2.72168094251e-06
-1.31263474659e-05
-1.35258733013e-06
-1.337381284e-05
-1.33299824604e-05
-0.000234853849025
0.00152446604825
-0.000482183057011
0.00160706098492
-0.000726646508988
0.00159161059217
-0.000966255166031
0.00156463313544
-0.00119956891191
0.00152938108719
-0.00142533731688
0.0014867269499
-0.00164250796787
0.0014375770751
-0.00185023363361
0.00138289717601
-0.00204786889623
0.00132366925421
-0.00223495785604
0.00126085172101
-0.00241121514113
0.00119534703975
-0.00257650297027
0.00112797793785
-0.00273080629902
0.00105947223138
-0.00287420827812
0.000990455406458
-0.00300686712513
0.000921449720696
-0.00312899566627
0.000852878238163
-0.00324084366394
0.000785072307717
-0.00334268338948
0.000718281048257
-0.00343479791339
0.000652681730932
-0.00351747215831
0.000588390165845
-0.00359098592823
0.000525470517546
-0.00365560887515
0.000463944185394
-0.00371159661466
0.000403797588735
-0.00375918803208
0.000344988854894
-0.00379860308875
0.000287453470625
-0.00383004130821
0.000231109084134
-0.00385368036873
0.000175859606198
-0.00386967512303
0.000121598899528
-0.00387815657145
6.8214214055e-05
-0.00387923127196
1.55896982895e-05
-0.00387298080129
-3.63898699401e-05
-0.00385946193286
-8.78349030317e-05
-0.00383870713068
-0.000138846214433
-0.00381072626805
-0.000189509468239
-0.00377550909671
-0.000239889099661
-0.00373302948751
-0.000290021492302
-0.00368325081726
-0.00033990797296
-0.00362613356396
-0.000389507573778
-0.00356164424633
-0.000438730474751
-0.00348976657014
-0.000487432100986
-0.00341051376037
-0.000535409208161
-0.00332394245083
-0.000582397761023
-0.00323016713273
-0.000628074318053
-0.00312937478734
-0.000672060425817
-0.00302183882484
-0.000713932355569
-0.00290793057952
-0.000753235518599
-0.00278812674301
-0.000789506987801
-0.00266300740475
-0.000822304939987
-0.00253324206833
-0.000851250073755
-0.00239955170542
-0.000876069822584
-0.00226264794909
-0.000896644843563
-0.00212314678418
-0.000913022643848
-0.00198148583139
-0.000925370130791
-0.00183790538895
-0.000933802129067
-0.00169258147224
-0.000938081288224
-0.0015459580103
-0.000937305703864
-0.00139911994567
-0.000929931773918
-0.00125396193063
-0.000914276069874
-0.00111175809043
-0.00089077502545
-0.000974931184298
-0.000857736407036
-0.000844349924021
-0.000817285971514
-0.000723724448999
-0.000765998853981
-0.000616573186875
-0.000705357996337
-0.000523604212175
-0.000641396517431
-0.000440496186549
-0.000582959938952
-0.000365493688766
-0.000527556320449
-0.000299369913853
-0.000471758363511
-0.000243189712106
-0.000415442456336
-0.000196933331645
-0.000360799799599
-0.000159539428026
-0.000310225028364
-0.00012942411749
-0.000265170798996
-0.000104854228355
-0.000226236304312
-8.41556196546e-05
-0.000193242693429
-6.61774962276e-05
-0.000165002418677
-5.10736606062e-05
-0.000139071683318
-4.01371237242e-05
-0.000113602336112
-3.33474373156e-05
-9.06032529762e-05
-2.8695925165e-05
-7.30590573218e-05
-2.46922102176e-05
-6.01470011781e-05
-2.1237989245e-05
-4.94749198312e-05
-1.872106663e-05
-3.99280909153e-05
-1.68308858237e-05
-3.21789450565e-05
-1.54119869166e-05
-2.58175735913e-05
-1.44371968791e-05
-2.05136801965e-05
-1.33803216537e-05
-1.69818368957e-05
-1.2500413472e-05
-1.47431330883e-05
-1.14536192156e-05
-1.32011846081e-05
-1.03396623744e-05
-1.20935521521e-05
-9.02353046743e-06
-1.17214283821e-05
-7.7375694083e-06
-1.1543368137e-05
-6.11773074785e-06
-1.18660239747e-05
-4.48855068276e-06
-1.22480562029e-05
-3.56732017054e-06
-1.29433774606e-05
-2.33092440503e-06
-1.43219286442e-05
-1.15685697685e-06
-1.45086045248e-05
-1.44673070012e-05
-0.000243771671142
0.00176816898148
-0.000500325134248
0.00186354170415
-0.000753586533328
0.00184479934467
-0.00100136040701
0.00181233419107
-0.00124205288628
0.00177000083262
-0.00147430498025
0.00171890628477
-0.00169700220508
0.00166020155577
-0.00190927999553
0.00159510223771
-0.00211051513095
0.00152483169563
-0.00230030604945
0.00145057000362
-0.00247844551657
0.00137341395086
-0.00264488918222
0.00129434915892
-0.0027997231125
0.00121423385741
-0.00294313272557
0.00113379288957
-0.00307537478623
0.00105361986208
-0.00319675342328
0.000974185203658
-0.00330760046373
0.00089584796665
-0.00340825999601
0.000818869521994
-0.0034990766678
0.00074342771125
-0.00358038719954
0.000669630400437
-0.00365251437909
0.000597527836715
-0.00371576302706
0.000527123423039
-0.00377041726062
0.000458382900415
-0.00381673875051
0.00039124191259
-0.00385496544176
0.000325612256395
-0.00388531066133
0.000261386910989
-0.00390796219402
0.000198444301811
-0.00392308148203
0.000136651885542
-0.00393080259597
7.58696197485e-05
-0.00393123138336
1.59533445171e-05
-0.00392444448267
-4.32412551364e-05
-0.00391048893138
-0.000101854318402
-0.00388938195281
-0.000160016313242
-0.00386111207548
-0.000217841778858
-0.00382564095848
-0.000275421801228
-0.00378290741218
-0.000332815853976
-0.00373283263074
-0.000390042592464
-0.00367532843282
-0.000447070743544
-0.0036103069183
-0.000503809807468
-0.00353769356786
-0.000560102234362
-0.00345744140734
-0.000615716713103
-0.00336954838461
-0.000670344757271
-0.00327407486211
-0.000723599807658
-0.00317116363848
-0.000775021648582
-0.00306105855799
-0.000824084650071
-0.00294412419453
-0.000870214777742
-0.00282085975746
-0.000912812680652
-0.00269190868828
-0.000951295483897
-0.00255804540921
-0.000985148443867
-0.00242013787373
-0.00101401056541
-0.00227905084852
-0.00103775948419
-0.0021354993612
-0.00105659786433
-0.00198985080171
-0.00107103493092
-0.00184200102324
-0.00108166055557
-0.00169152072718
-0.00108856267266
-0.00153830309395
-0.00109052063539
-0.00138346012486
-0.00108476763994
-0.00123024118087
-0.00106748223288
-0.00107895366496
-0.00104204524117
-0.00093411203602
-0.00100256141984
-0.000793332126775
-0.000958044357741
-0.000664101787242
-0.000895210399175
-0.000553975468892
-0.000815463295385
-0.00046502266305
-0.00073031223722
-0.000384558574624
-0.000663382036128
-0.000309586033081
-0.000602488770512
-0.000243356740052
-0.000537944244055
-0.000188944703898
-0.000469817186874
-0.000146630933232
-0.0004030748065
-0.000114596105886
-0.00034222623116
-9.04357120334e-05
-0.000289293790815
-7.16130545632e-05
-0.000245028607429
-5.55085173754e-05
-0.000209312843418
-4.00371768269e-05
-0.000180451057082
-2.59677218078e-05
-0.000153113637422
-1.75357335642e-05
-0.000122013676265
-1.56407011307e-05
-9.24761174145e-05
-1.53982202904e-05
-7.32809123322e-05
-1.38436535149e-05
-6.1680486812e-05
-1.17615051692e-05
-5.15354197811e-05
-1.09118975008e-05
-4.07567616186e-05
-1.0409074237e-05
-3.26584600221e-05
-1.00454685355e-05
-2.61570287904e-05
-9.98815646626e-06
-2.054631436e-05
-9.75912120754e-06
-1.71844948089e-05
-9.61290204905e-06
-1.48609349623e-05
-9.25991334171e-06
-1.35231655543e-05
-8.52163205161e-06
-1.2798347487e-05
-7.60810703872e-06
-1.2599519499e-05
-6.38052152943e-06
-1.27340919268e-05
-5.34716478626e-06
-1.28622653288e-05
-4.04148073969e-06
-1.35163528919e-05
-2.92446187946e-06
-1.40227608589e-05
-2.07024121631e-06
-1.51389792461e-05
-1.00513006272e-06
-1.55373854522e-05
-1.54534805484e-05
-0.000254523122054
0.00202262299085
-0.000522179101892
0.00213112531115
-0.000785993104629
0.00210854018696
-0.00104350569256
0.00206977375105
-0.0012929313711
0.00201935339938
-0.00153278039689
0.00195868222194
-0.00176187024667
0.00188921829847
-0.00197932697262
0.00181248586168
-0.00218456858828
0.0017300002285
-0.00237727455643
0.00164320292725
-0.00255734662233
0.00155341303848
-0.00272486589537
0.00146179554406
-0.00288005027991
0.00136934547714
-0.00302321529443
0.00127688529504
-0.00315474015715
0.0011850723062
-0.00327503998991
0.00109441284706
-0.00338454420249
0.00100528025152
-0.00348368050239
0.000917934198634
-0.0035728637373
0.000832539652919
-0.00365248852639
0.000749184267242
-0.00372292481151
0.00066789358367
-0.00378451536268
0.000588643858168
-0.00383757465955
0.000511372501552
-0.00388238842975
0.000435986441515
-0.00391921360391
0.000362368627228
-0.00394827816384
0.000290383143097
-0.00396978091473
0.000219879176022
-0.00398389078031