/*--------------------------------*- C++ -*----------------------------------*\
| =========                 |                                                 |
| \\      /  F ield         | OpenFOAM: The Open Source CFD Toolbox           |
|  \\    /   O peration     | Version:  v1906                                 |
|   \\  /    A nd           | Web:      www.OpenFOAM.com                      |
|    \\/     M anipulation  |                                                 |
\*---------------------------------------------------------------------------*/
FoamFile
{
    version     2.0;
    format      ascii;
    class       volVectorField;
    location    "679";
    object      Ua;
}
// * * * * * * * * * * * * * * * * * * * * * * * * * * * * * * * * * * * * * //

dimensions      [0 1 -1 0 0 0 0];


internalField   nonuniform List<vector> 
9216
(
(-0.00665265953643 0.00665543470158 0)
(-0.00683903677672 0.0207555041568 2.38049065094e-27)
(-0.00682473655535 0.0349349840606 -4.60439218551e-31)
(-0.00677640824874 0.0491051294197 0)
(-0.00670871571065 0.0631291110267 0)
(-0.00662337066416 0.0769715150033 0)
(-0.00652158747919 0.0905929529305 0)
(-0.0064046243854 0.103956717965 0)
(-0.00627314183534 0.117028648708 0)
(-0.00612839947326 0.12977681476 0)
(-0.00597103023271 0.142171948672 0)
(-0.00580238600115 0.154187133513 0)
(-0.00562305077928 0.165798175069 0)
(-0.00543440345646 0.176983208507 0)
(-0.00523690419176 0.187722961853 0)
(-0.00503187831961 0.198000277938 0)
(-0.00481958845187 0.207800274606 0)
(-0.0046012351233 0.21710980777 0)
(-0.00437683027662 0.225917543329 0)
(-0.00414740213276 0.23421339804 0)
(-0.00391268778504 0.241988548966 0)
(-0.00367352435167 0.249234902943 0)
(-0.00342938666595 0.255945064197 0)
(-0.00318093385923 0.262111883992 0)
(-0.00292742483045 0.267728404858 0)
(-0.00266937899264 0.272787545232 0)
(-0.00240591685044 0.277282020495 0)
(-0.0021374761048 0.281204211423 0)
(-0.00186314086273 0.2845460567 0)
(-0.00158334074752 0.287299147685 0)
(-0.00129724546923 0.289454613301 0)
(-0.00100533506129 0.29100342598 0)
(-0.000707005462559 0.29193619629 0)
(-0.0004029089777 0.292243922821 0)
(-9.28303460034e-05 0.291917640492 0)
(0.000222344782426 0.2909495024 0)
(0.000542292984366 0.289332313524 0)
(0.000865828296678 0.287060971084 0)
(0.00119196141827 0.284131825873 0)
(0.00151918651097 0.280544437536 0)
(0.00184578117777 0.276300721483 0)
(0.00216996357698 0.271406908273 0)
(0.00248930074392 0.265872452782 0)
(0.00280185281765 0.259712036201 0)
(0.00310459442731 0.25294425386 0)
(0.0033955934964 0.245593465568 0)
(0.00367141802682 0.237688366116 0)
(0.00393029220617 0.229263530661 0)
(0.0041685423633 0.220358076931 0)
(0.00438457174765 0.211016847931 0)
(0.00457451645378 0.201289477084 0)
(0.0047368132371 0.191231249897 0)
(0.0048673764736 0.180902777158 0)
(0.00496455931595 0.170370450472 0)
(0.005024280094 0.159706461141 0)
(0.00504521129994 0.148988354017 0)
(0.00502418604505 0.138298517284 0)
(0.00496132814838 0.12772218935 0)
(0.00485572429529 0.117345750689 0)
(0.00471012660189 0.107253337959 0)
(0.00452682262386 0.0975241933008 0)
(0.00431168593067 0.0882286892334 0)
(0.00406996614593 0.0794258397379 0)
(0.0038091812246 0.0711608380515 0)
(0.0035347000879 0.0634657768744 0)
(0.00325296334248 0.0563603227036 0)
(0.00296882873936 0.0498531346725 0)
(0.00268862343741 0.0439410447743 0)
(0.00241692777673 0.0386099914034 0)
(0.00215859017667 0.0338357735098 0)
(0.00191612361912 0.029586995499 0)
(0.00169189236818 0.0258270339284 0)
(0.00148637415193 0.0225167905925 0)
(0.00130024967705 0.0196158544929 0)
(0.00113293638685 0.0170840650781 0)
(0.000984173754043 0.0148819789008 0)
(0.000852609603423 0.0129721197311 0)
(0.000737159189707 0.0113194458523 0)
(0.000635999905073 0.00989223093171 0)
(0.000547778153026 0.0086619342801 0)
(0.000470658875207 0.00760350470422 0)
(0.000403117992286 0.00669519057012 0)
(0.000342856774453 0.00591889936173 0)
(0.000285380734543 0.00526807635818 0)
(0.000221213407246 0.00465596822006 0)
(0.00019840568806 0.0042948487552 0)
(0.000190450603933 0.00387796723233 0)
(0.000167379029176 0.00351883082106 0)
(0.000167168972919 0.00321111036622 0)
(0.000178288621968 0.00286356280736 0)
(0.00017722170453 0.00251726165539 0)
(0.000178311827004 0.00215247252246 0)
(0.000199687954467 0.00176120799043 0)
(0.000225002654704 0.00133716322501 0)
(0.000253702253624 0.000827428032159 0)
(0.000272583116386 0.000265791151689 0)
(-0.020786909508 0.00687873729825 0)
(-0.0219456733269 0.0220460567603 0)
(-0.0218717165906 0.0371255685896 -2.44690209927e-27)
(-0.0216854562325 0.0522080113768 0)
(-0.0214317630858 0.067122960909 0)
(-0.0211160635214 0.0818408084258 0)
(-0.0207416639526 0.0963212829845 0)
(-0.020312444363 0.110525926076 0)
(-0.0198316553136 0.124418483019 0)
(-0.0193035724358 0.137965099899 0)
(-0.0187316593718 0.15113463897 0)
(-0.0181204621584 0.163898611322 0)
(-0.0174734037639 0.17623135155 0)
(-0.0167949943006 0.188109828247 0)
(-0.0160883042772 0.199513697896 0)
(-0.0153575017021 0.210425012604 0)
(-0.0146050282079 0.220828168754 0)
(-0.0138344605059 0.230709536789 0)
(-0.0130474156064 0.240057328988 0)
(-0.0122467225002 0.248861188119 0)
(-0.0114330855244 0.257112007646 0)
(-0.0106085401541 0.264801524894 0)
(-0.00977291116482 0.271922128641 0)
(-0.00892750651183 0.278466504381 0)
(-0.00807141552478 0.284427459811 0)
(-0.00720537580068 0.289797665368 0)
(-0.00632797582279 0.294569515442 0)
(-0.00543960632388 0.298734999128 0)
(-0.00453865672496 0.302285605079 0)
(-0.00362544157522 0.305212356086 0)
(-0.00269851358095 0.307505736516 0)
(-0.00175839716443 0.30915598059 0)
(-0.000804196429381 0.310153034378 0)
(0.000162990884191 0.310486978785 0)
(0.00114305696494 0.310148089348 0)
(0.002134024907 0.309127512006 0)
(0.00313437250587 0.307417330578 0)
(0.00414097535468 0.305011471742 0)
(0.00515057139629 0.301905760626 0)
(0.00615876122784 0.298099001043 0)
(0.00716040393422 0.293592965065 0)
(0.00814991114148 0.288393554609 0)
(0.00912038944472 0.282510656673 0)
(0.0100653974359 0.275959253419 0)
(0.010976694186 0.268759088841 0)
(0.0118475079116 0.260935590707 0)
(0.0126688226199 0.252519351767 0)
(0.0134340326661 0.24354678482 0)
(0.0141337982894 0.23405953693 0)
(0.0147617989063 0.224104937156 0)
(0.0153083653004 0.213735608011 0)
(0.0157670131652 0.203009895997 0)
(0.0161273714686 0.191991927735 0)
(0.0163823870383 0.180752054303 0)
(0.0165214223295 0.169367108504 0)
(0.0165381743102 0.157920231948 0)
(0.0164245883377 0.146500272984 0)
(0.0161789564727 0.135199950226 0)
(0.0158002416007 0.124113594457 0)
(0.015295265662 0.113333759941 0)
(0.0146731829918 0.102947729177 0)
(0.0139512571752 0.0930332022205 0)
(0.013148496558 0.0836544390742 0)
(0.0122878541449 0.0748594352214 0)
(0.0113877820776 0.066681041252 0)
(0.0104667651625 0.0591395331717 0)
(0.00954119954856 0.0522439568217 0)
(0.00863014308867 0.0459906644735 0)
(0.00774950609502 0.0403632066197 0)
(0.00691372540965 0.0353337558954 0)
(0.00613151049404 0.0308664171214 0)
(0.00540912062929 0.0269202199701 0)
(0.00474844490124 0.0234519437021 0)
(0.00415058454536 0.0204176283108 0)
(0.0036141566262 0.0177737045972 0)
(0.00313759521568 0.0154775407848 0)
(0.00271698580868 0.0134885369573 0)
(0.00234811760437 0.0117690467467 0)
(0.00202545485171 0.0102851550847 0)
(0.00174417897092 0.0090065926052 0)
(0.00149892172597 0.00790662275504 0)
(0.00128494488913 0.00696162107048 0)
(0.00109672787751 0.00615032201776 0)
(0.000928120653717 0.00545494912479 0)
(0.000766223760215 0.00481792999821 0)
(0.000658743501794 0.00422862860685 0)
(0.000580938170924 0.00379898504474 0)
(0.000507772120678 0.00344310094694 0)
(0.000494619407262 0.00308563952961 0)
(0.000520169386616 0.00279543231723 0)
(0.000530954373255 0.00249259021556 0)
(0.000552148398478 0.00211137916544 0)
(0.000598565225176 0.00171119813502 0)
(0.000728883431247 0.00135001345168 0)
(0.000885317495068 0.000861298078352 0)
(0.000800627523956 0.000236349204394 0)
(-0.0351277229097 0.00693408322205 0)
(-0.0371074094521 0.0222289002761 0)
(-0.0369559828539 0.0374006191996 -2.45026751513e-27)
(-0.0366354190841 0.0525926364247 0)
(-0.0362078165803 0.0676150537972 0)
(-0.0356784355084 0.0824369066093 0)
(-0.0350518700295 0.0970169124878 0)
(-0.0343336794698 0.11131612087 0)
(-0.0335296275546 0.125297856664 0)
(-0.0326462365159 0.138927996952 0)
(-0.031689881942 0.152175187621 0)
(-0.0306674906337 0.165010883467 0)
(-0.0295854924369 0.177409424891 0)
(-0.0284506570671 0.189347944644 0)
(-0.0272689203376 0.200806317734 0)
(-0.0260463722042 0.211766953967 0)
(-0.0247879784636 0.222214640632 0)
(-0.0234987295992 0.23213624619 0)
(-0.0221822795559 0.241520483295 0)
(-0.0208422587216 0.250357559687 0)
(-0.0194808495739 0.258638901225 0)
(-0.0181002563798 0.266356796122 0)
(-0.0167012336083 0.273504120002 0)
(-0.0152846894652 0.280074019527 0)
(-0.0138501799527 0.2860596784 0)
(-0.0123976098033 0.291454079126 0)
(-0.0109257102193 0.296249833987 0)
(-0.00943379139027 0.300439051407 0)
(-0.00792023541047 0.304013247584 0)
(-0.00638424854639 0.306963334895 0)
(-0.00482443385041 0.309279636504 0)
(-0.00324046094591 0.310952009528 0)
(-0.00163176411069 0.311969943098 0)
(8.95782719157e-07 0.312322875894 0)
(0.00165655209512 0.312000407348 0)
(0.00333271706695 0.310992782039 0)
(0.0050262414299 0.309291209676 0)
(0.00673236511836 0.30688852118 0)
(0.00844525747945 0.303779563705 0)
(0.0101575721032 0.299961978623 0)
(0.0118606121956 0.295436608257 0)
(0.0135445130859 0.290208303606 0)
(0.0151979768794 0.28428624961 0)
(0.016809158547 0.277684676438 0)
(0.0183649051599 0.270422998506 0)
(0.01985232679 0.262526297558 0)
(0.0212574499255 0.254025209186 0)
(0.0225673155145 0.244956115724 0)
(0.0237679303022 0.23536083862 0)
(0.0248466169875 0.225286659577 0)
(0.0257892295765 0.214786116321 0)
(0.026582581597 0.203917210558 0)
(0.0272112927352 0.192743734147 0)
(0.0276606710407 0.181335928678 0)
(0.0279142396082 0.169771216059 0)
(0.0279579287635 0.15813455425 0)
(0.0277790794163 0.146518063637 0)
(0.0273715267684 0.135019334373 0)
(0.0267347091296 0.123738683332 0)
(0.0258775514437 0.112775719427 0)
(0.0248175480519 0.102225094678 0)
(0.0235830592865 0.0921714524853 0)
(0.0222110452188 0.0826831802662 0)
(0.0207416812146 0.0738077197508 0)
(0.0192080640671 0.0655746592055 0)
(0.0176380630387 0.0580028106154 0)
(0.0160604150108 0.0511019301071 0)
(0.0145077284997 0.044868165189 0)
(0.0130099469378 0.0392819452533 0)
(0.0115913510253 0.0343103491646 0)
(0.010267483697 0.029911828196 0)
(0.00904718357771 0.0260406451383 0)
(0.00793347749401 0.0226500959147 0)
(0.00692678719912 0.0196939760339 0)
(0.00602530430541 0.0171269490777 0)
(0.00522582652512 0.014904579212 0)
(0.00452213655117 0.0129844048337 0)
(0.00390598090343 0.0113275811083 0)
(0.00336801945743 0.00989980000613 0)
(0.00289953181994 0.00867091753668 0)
(0.00249202863831 0.00761440531059 0)
(0.00213769659686 0.00670700036528 0)
(0.0018293876189 0.00592804381811 0)
(0.00156154587104 0.00526221821246 0)
(0.00133523204992 0.00465109247213 0)
(0.00115846589101 0.0041033964967 0)
(0.00102767396564 0.003755291077 0)
(0.000888388156774 0.00327173720423 0)
(0.000801220211703 0.00285816950159 0)
(0.000816457007361 0.00259751007246 0)
(0.000910412196542 0.00238222589727 0)
(0.000918886916785 0.00189405266425 0)
(0.00102848150816 0.001549562201 0)
(0.00118415070429 0.00112250905213 0)
(0.0013210098417 0.000671551630949 0)
(0.00128236848329 0.00020711594491 0)
(-0.0496660273135 0.00699150854487 0)
(-0.0524886552095 0.0224327079268 0)
(-0.0522720910612 0.0377283267406 2.44994296057e-27)
(-0.0518144251462 0.0530494998639 0)
(-0.0512047319251 0.0681974270905 0)
(-0.0504507435386 0.0831399467068 0)
(-0.0495590835604 0.0978345981276 0)
(-0.0485374748456 0.112241630033 0)
(-0.04739434485 0.126323759228 0)
(-0.0461388505595 0.14004645948 0)
(-0.0447803911129 0.153378132536 0)
(-0.043328691668 0.166290183385 0)
(-0.0417932730003 0.178757056777 0)
(-0.0401835931992 0.190756172751 0)
(-0.0385084879235 0.202267829894 0)
(-0.0367763860512 0.213275016786 0)
(-0.0349947423495 0.223763200222 0)
(-0.0331703463304 0.233720036873 0)
(-0.031308770668 0.243135077139 0)
(-0.0294147882719 0.251999415778 0)
(-0.0274918543033 0.260305355479 0)
(-0.0255426354678 0.268046046112 0)
(-0.0235685318251 0.275215158549 0)
(-0.0215703042582 0.28180656323 0)
(-0.0195476295592 0.287814058335 0)
(-0.0174997991652 0.293231125795 0)
(-0.0154252988039 0.298050741035 0)
(-0.0133225487616 0.302265228001 0)
(-0.0111895100572 0.30586616456 0)
(-0.00902444405155 0.308844343111 0)
(-0.00682557530297 0.311189806236 0)
(-0.00459182042088 0.312891915056 0)
(-0.00232252518818 0.313939483993 0)
(-1.81940490249e-05 0.314321048164 0)
(0.00231971913609 0.314025139125 0)
(0.00468817214601 0.313040705523 0)
(0.00708266590997 0.311357544841 0)
(0.00949677364212 0.308966892752 0)
(0.0119222205958 0.305861980427 0)
(0.0143486754024 0.302038744496 0)
(0.016763806193 0.297496441275 0)
(0.0191534200835 0.292238382872 0)
(0.0215015124367 0.286272492224 0)
(0.0237907988209 0.279611923493 0)
(0.0260027301734 0.272275408944 0)
(0.0281183699755 0.26428760104 0)
(0.0301182547212 0.255679075468 0)
(0.0319834083726 0.246486290105 0)
(0.0336947926109 0.23675124558 0)
(0.035234087648 0.226521202851 0)
(0.0365824494127 0.215848366989 0)
(0.0377208210601 0.204789954618 0)
(0.0386282519567 0.193408698822 0)
(0.0392824792314 0.181773978818 0)
(0.0396594081783 0.16996338262 0)
(0.0397359023034 0.158064015136 0)
(0.0394920690463 0.146172782539 0)
(0.0389159566473 0.134394662723 0)
(0.0380057095642 0.122839239111 0)
(0.036771521548 0.111617283456 0)
(0.035238757004 0.100835664605 0)
(0.0334483391194 0.0905916846164 0)
(0.0314614430273 0.0809615332207 0)
(0.0293428319826 0.0719894321523 0)
(0.0271399409404 0.0636959855318 0)
(0.024884572252 0.0560971427815 0)
(0.0226165490905 0.0492067007984 0)
(0.0203864012171 0.0430222116092 0)
(0.0182418570377 0.037518871661 0)
(0.0162190270405 0.0326544088309 0)
(0.0143394763395 0.0283774266435 0)
(0.0126130218371 0.0246343694049 0)
(0.0110416299189 0.0213735247669 0)
(0.00962396024339 0.0185460209037 0)
(0.00835749006055 0.0161045886039 0)
(0.00723807672248 0.0140021133441 0)
(0.00625678466633 0.0121928736443 0)
(0.00540006956898 0.0106360344098 0)
(0.00465358870373 0.00929715360594 0)
(0.00400451681492 0.00814675894357 0)
(0.0034410595903 0.00715897382453 0)
(0.00295194565293 0.00631147296436 0)
(0.00252743794725 0.00558517471457 0)
(0.00216035928343 0.0049692155655 0)
(0.00185117820141 0.00437864104871 0)
(0.00163561681357 0.00393707543684 0)
(0.00145119740825 0.00352026774929 0)
(0.00128078167918 0.00304569692104 0)
(0.00119972606337 0.00271606560953 0)
(0.00113802245332 0.00230251516665 0)
(0.00118774581591 0.00195701475753 0)
(0.00136070233926 0.00171193141383 0)
(0.00140321249754 0.00123315536097 0)
(0.00155879852284 0.000852088659653 0)
(0.00171833472258 0.000513646726856 0)
(0.00170298668105 0.000167840618852 0)
(-0.0643512248385 0.00706566392244 0)
(-0.0680131331851 0.0227020078703 0)
(-0.0677299879811 0.0381695597533 0)
(-0.0671319710323 0.0536651116403 0)
(-0.0663353595117 0.0689817833777 0)
(-0.0653506375777 0.0840861995352 0)
(-0.0641867116428 0.0989345105718 0)
(-0.0628537811313 0.113485881938 0)
(-0.061363087061 0.127702199569 0)
(-0.0597267085873 0.141548365621 0)
(-0.0579571890064 0.154992454128 0)
(-0.0560673460576 0.168005794301 0)
(-0.0540698875237 0.180562989619 0)
(-0.0519772503318 0.192641854107 0)
(-0.0498012249687 0.204223288446 0)
(-0.0475528457367 0.21529108018 0)
(-0.0452420505402 0.225831653271 0)
(-0.0428776497853 0.235833756007 0)
(-0.040467050928 0.245288115826 0)
(-0.0380163315796 0.254187056502 0)
(-0.0355300512132 0.262524108964 0)
(-0.0330114394717 0.270293615597 0)
(-0.0304622977842 0.277490357141 0)
(-0.0278832897179 0.284109202909 0)
(-0.0252739132348 0.290144805562 0)
(-0.0226328616858 0.295591338193 0)
(-0.0199580400039 0.30044228384 0)
(-0.0172469666037 0.304690275222 0)
(-0.0144968212212 0.308326987309 0)
(-0.0117048761937 0.311343075249 0)
(-0.00886859745318 0.313728209881 0)
(-0.00598607057841 0.315471109659 0)
(-0.00305616872169 0.316559678436 0)
(-7.90308216513e-05 0.316981250818 0)
(0.00294375738692 0.316722888433 0)
(0.00600870908601 0.315771790579 0)
(0.0091102447217 0.314115782388 0)
(0.0122403376783 0.311743919232 0)
(0.0153883822786 0.308647143846 0)
(0.0185410360195 0.304819040848 0)
(0.0216822250305 0.300256591405 0)
(0.024793276449 0.294960974394 0)
(0.0278531239474 0.288938283811 0)
(0.0308387845894 0.282200206412 0)
(0.0337257682141 0.274764505508 0)
(0.0364888477889 0.266655349983 0)
(0.0391025328014 0.25790333754 0)
(0.041541871611 0.248545278182 0)
(0.0437825845796 0.238623652219 0)
(0.0458013262862 0.228185939187 0)
(0.0475748458976 0.217283943246 0)
(0.0490791642271 0.205973563564 0)
(0.0502877419306 0.194315389055 0)
(0.0511705534279 0.182376519914 0)
(0.0516937123866 0.170233505552 0)
(0.0518223274501 0.157975507179 0)
(0.0515253270198 0.145705831158 0)
(0.0507824550144 0.133540108139 0)
(0.0495885575416 0.121600804838 0)
(0.0479523031901 0.110014754908 0)
(0.0459061017199 0.0989073451496 0)
(0.0435016683259 0.0883990342596 0)
(0.0408391152006 0.0785820598082 0)
(0.0380243753575 0.0694901351551 0)
(0.0351175909467 0.0611198920597 0)
(0.0321365272598 0.0534825241229 0)
(0.0291299432856 0.0466065079365 0)
(0.0261766575175 0.0404958942825 0)
(0.0233503757344 0.0351166947453 0)
(0.0207018539892 0.0304098264835 0)
(0.0182565998264 0.0263074465839 0)
(0.0160216673039 0.0227442165596 0)
(0.0139939778567 0.0196622714338 0)
(0.0121682633869 0.0170109140818 0)
(0.0105416643041 0.0147420033588 0)
(0.0091113220509 0.0128046895845 0)
(0.00786559819133 0.0111471086567 0)
(0.00678246904995 0.0097250066767 0)
(0.00584051466746 0.00850479203203 0)
(0.00502283588632 0.00745886691186 0)
(0.00431467577675 0.00656225524879 0)
(0.00370048249925 0.00579374720147 0)
(0.00316717410016 0.00513667946109 0)
(0.00270601882348 0.00458281451018 0)
(0.00230078831177 0.00401577987885 0)
(0.00210569865159 0.00370076342249 0)
(0.00192736570426 0.00329059548215 0)
(0.00173169397991 0.00284009116434 0)
(0.00154086605006 0.00233658785681 0)
(0.00150927632776 0.00199833998096 0)
(0.00149887991952 0.00159233113883 0)
(0.00167169451957 0.00134193429369 0)
(0.00186702642856 0.00103865968711 0)
(0.00189403178326 0.000651639895333 0)
(0.00197191781672 0.000375297815106 0)
(0.00195190280571 0.000124049121179 0)
(-0.079233297078 0.00715814113707 0)
(-0.083741378144 0.0230421964163 0)
(-0.0833883691936 0.0387297211978 0)
(-0.0826446464708 0.0544472497265 0)
(-0.0816539709071 0.0699782007615 0)
(-0.0804297544222 0.0852878214137 0)
(-0.0789834257252 0.100330599363 0)
(-0.077327966316 0.115064347348 0)
(-0.0754776871993 0.129449898422 0)
(-0.0734479060536 0.143451421908 0)
(-0.0712545614103 0.157036578032 0)
(-0.0689138801813 0.170176603843 0)
(-0.0664419891225 0.182846321237 0)
(-0.0638546018436 0.195024063943 0)
(-0.0611666540972 0.206691529829 0)
(-0.0583920387802 0.217833557111 0)
(-0.0555432979404 0.228437834006 0)
(-0.0526314426031 0.23849454564 0)
(-0.0496657410723 0.247995973674 0)
(-0.0466536610655 0.256936059711 0)
(-0.0436007858368 0.265309953601 0)
(-0.0405108973159 0.273113562706 0)
(-0.0373860228832 0.280343123618 0)
(-0.0342266424147 0.286994810017 0)
(-0.0310318332274 0.293064390179 0)
(-0.0277995561985 0.298546939001 0)
(-0.0245268537124 0.303436606846 0)
(-0.0212101749133 0.307726442899 0)
(-0.017845604762 0.311408271421 0)
(-0.0144292218923 0.314472606093 0)
(-0.0109573857594 0.316908676077 0)
(-0.00742710330066 0.318704417191 0)
(-0.00383639878978 0.319846598136 0)
(-0.000184768459363 0.32032104577 0)
(0.00352643791142 0.320112944361 0)
(0.00729354982251 0.319207249259 0)
(0.0111101985567 0.317589218712 0)
(0.0149669294791 0.315245062859 0)
(0.0188509326996 0.31216269756 0)
(0.0227458540245 0.30833259181 0)
(0.0266317538019 0.303748672037 0)
(0.0304852393594 0.29840925831 0)
(0.0342797625924 0.292317963763 0)
(0.037986161689 0.285484518962 0)
(0.0415733432467 0.277925412188 0)
(0.0450092154635 0.269664295765 0)
(0.0482616255468 0.260732021025 0)
(0.0512993848822 0.25116625736 0)
(0.0540929139807 0.241010612557 0)
(0.0566144856197 0.230313377908 0)
(0.0588374243338 0.219126126406 0)
(0.0607343077683 0.207502787792 0)
(0.062274011837 0.195500049162 0)
(0.0634186183836 0.183179941227 0)
(0.0641219571319 0.17061518198 0)
(0.0643324347603 0.157895685194 0)
(0.0640017256054 0.145132986826 0)
(0.0630970853324 0.132457980813 0)
(0.0616094788314 0.120009175615 0)
(0.0595390181552 0.107934905563 0)
(0.056924442529 0.0963850877346 0)
(0.0538120658532 0.0855247201764 0)
(0.0503762062714 0.0754842236035 0)
(0.0468052228608 0.0662678716804 0)
(0.0431665551303 0.0578081102546 0)
(0.0394093028515 0.0501094859416 0)
(0.0355902956528 0.0432468324624 0)
(0.031843490406 0.037242645024 0)
(0.0282855281186 0.03204406341 0)
(0.0249848469345 0.0275606240425 0)
(0.0219654062587 0.0236972312659 0)
(0.0192237002423 0.0203717424388 0)
(0.0167443111663 0.0175201201609 0)
(0.0145139094426 0.0150937085064 0)
(0.0125312694118 0.0130476467233 0)
(0.0108015272973 0.0113260437419 0)
(0.00931176867056 0.00986401642715 0)
(0.00802301193281 0.00861094871424 0)
(0.00690282249992 0.00753752107807 0)
(0.00593165930314 0.00662092267204 0)
(0.00509391727525 0.00583662386998 0)
(0.00436761092677 0.00516396552186 0)
(0.00373583222795 0.00459041511543 0)
(0.0031890479433 0.00409426185872 0)
(0.0027360383728 0.00360569752863 0)
(0.00250931826431 0.00327886215501 0)
(0.00227095490149 0.00282594304438 0)
(0.00212967070929 0.00247681210704 0)
(0.00202597659586 0.00210805829369 0)
(0.00197908347584 0.0017493361941 0)
(0.00183015064442 0.0012820245571 0)
(0.00189229117928 0.000966923620341 0)
(0.0021357328908 0.000775881780298 0)
(0.00219492924846 0.000518533285856 0)
(0.00219555248375 0.000286803129072 0)
(0.00217658465655 9.46307074603e-05 0)
(-0.0943583582381 0.00727049575664 0)
(-0.0997235485805 0.0234574429946 0)
(-0.0992961083966 0.0394142482566 2.46784238389e-27)
(-0.0983995162255 0.0554032191785 0)
(-0.0972054855874 0.0711958149266 0)
(-0.0957305485962 0.0867555881738 0)
(-0.0939889251519 0.102035010597 0)
(-0.0919967104494 0.116990240432 0)
(-0.0897716222076 0.131580822257 0)
(-0.0873325842786 0.14577002771 0)
(-0.0846992785034 0.159525017609 0)
(-0.0818917091225 0.172816928318 0)
(-0.0789297535571 0.185620871771 0)
(-0.0758327439055 0.197915848288 0)
(-0.0726190473021 0.209684574951 0)
(-0.0693056975484 0.220913229266 0)
(-0.0659080447577 0.231591113975 0)
(-0.0624394846415 0.241710248671 0)
(-0.058911231069 0.251264902265 0)
(-0.0553321971423 0.260251082266 0)
(-0.0517089374269 0.268666004498 0)
(-0.0480457105542 0.27650756664 0)
(-0.0443445963741 0.28377385114 0)
(-0.0406057163711 0.290462677182 0)
(-0.0368274756845 0.296571216345 0)
(-0.0330068730457 0.302095676636 0)
(-0.0291397963122 0.30703105287 0)
(-0.0252213628636 0.311370935282 0)
(-0.0212462364151 0.315107369737 0)
(-0.0172089963377 0.318230745473 0)
(-0.0131045188427 0.320729804212 0)
(-0.00892836789091 0.322591578784 0)
(-0.00467728911532 0.323801494392 0)
(-0.000349728428429 0.324343564076 0)
(0.00405364324141 0.324200675891 0)
(0.00852936131679 0.323355010856 0)
(0.0130706380346 0.321788610678 0)
(0.0176668618067 0.319484090301 0)
(0.0223031992965 0.316425493633 0)
(0.0269603173198 0.312599276223 0)
(0.031614280407 0.307995381358 0)
(0.0362366646134 0.302608379944 0)
(0.0407949130054 0.296438597162 0)
(0.0452529866847 0.289493174664 0)
(0.0495722949069 0.28178694583 0)
(0.0537129378321 0.273343020228 0)
(0.0576351553534 0.264192898943 0)
(0.0613008932647 0.254375965897 0)
(0.0646751323696 0.243938164032 0)
(0.0677265555247 0.232929879053 0)
(0.0704268438747 0.221403222865 0)
(0.072747906201 0.209409649053 0)
(0.0746567192234 0.19699925237 0)
(0.0761086214465 0.184224085101 0)
(0.0770420335189 0.171147014831 0)
(0.0773805120779 0.157855036732 0)
(0.0770475059779 0.144470295971 0)
(0.0759915640194 0.131147712997 0)
(0.0742063580432 0.118042614887 0)
(0.0716657595968 0.105329605416 0)
(0.0684222299356 0.0931802810696 0)
(0.0644430409438 0.0818506437473 0)
(0.0600667879392 0.0715750024017 0)
(0.0556723911842 0.0622802460046 0)
(0.0513206204724 0.0537237811904 0)
(0.0467286527518 0.0459061366395 0)
(0.0419772086857 0.0390406088291 0)
(0.0373271387584 0.0331910524509 0)
(0.0329696011612 0.0282579750176 0)
(0.0289904406442 0.0240896279939 0)
(0.0253975504242 0.0205462306488 0)
(0.0221620804676 0.0175230663197 0)
(0.0192430602517 0.0149524410724 0)
(0.0166108528469 0.0127978428186 0)
(0.014270948163 0.0110295919378 0)
(0.0122552088529 0.00958515445769 0)
(0.0105559620348 0.008368558592 0)
(0.00909298550145 0.00731603213138 0)
(0.00781550681669 0.00641341903323 0)
(0.00670777147517 0.00564994690524 0)
(0.00576098923168 0.00499819394231 0)
(0.00493953854124 0.0044355981093 0)
(0.00422287739662 0.00395629544788 0)
(0.00360017033291 0.00352390921108 0)
(0.00315393514946 0.00314111922087 0)
(0.00290166988811 0.00280491070908 0)
(0.00267471695489 0.00242850240353 0)
(0.00247152655456 0.00204022788367 0)
(0.0023907673061 0.00171520253577 0)
(0.00227436610372 0.00134239888968 0)
(0.00227085739702 0.00105763498012 0)
(0.00216109338734 0.000710622698455 0)
(0.0022416978976 0.000514234059807 0)
(0.00239096069833 0.000378297930598 0)
(0.00236375475069 0.000208765365206 0)
(0.0023435675169 6.87626189882e-05 0)
(-0.109775902634 0.00740396729872 0)
(-0.116012112774 0.0239522518362 0)
(-0.115504619699 0.0402299342614 -2.46746297293e-27)
(-0.11444618526 0.0565422316873 0)
(-0.113037184571 0.072646070766 0)
(-0.111297552865 0.0885029225646 0)
(-0.109244642369 0.104062816264 0)
(-0.106898057694 0.119279917652 0)
(-0.104279342861 0.134112224477 0)
(-0.101411468711 0.148521937751 0)
(-0.0983182988941 0.162475631882 0)
(-0.0950240570455 0.175944342161 0)
(-0.0915527940602 0.188903556256 0)
(-0.0879278721519 0.201333112082 0)
(-0.0841714630279 0.21321700031 0)
(-0.0803040824982 0.22454307149 0)
(-0.0763441648043 0.235302648131 0)
(-0.0723077080065 0.245490048682 0)
(-0.0682079977154 0.255102035286 0)
(-0.0640554415886 0.264137207383 0)
(-0.0598575132878 0.272595368357 0)
(-0.0556188242318 0.280476899727 0)
(-0.051341299471 0.287782174943 0)
(-0.0470244537181 0.294511042274 0)
(-0.0426657231938 0.300662392733 0)
(-0.0382608401455 0.306233818546 0)
(-0.0338042082733 0.311221351521 0)
(-0.0292892843232 0.315619265125 0)
(-0.0247089500968 0.319419922088 0)
(-0.0200559080146 0.322613633539 0)
(-0.0153231225605 0.325188642506 0)
(-0.0105042524321 0.327130991352 0)
(-0.00559425075962 0.328424580913 0)
(-0.000589977710907 0.329051316128 0)
(0.00450912904832 0.328991363375 0)
(0.00970034273266 0.328223561948 0)
(0.0149769430231 0.326726023935 0)
(0.0203275569509 0.32447691479 0)
(0.0257355940963 0.321455429662 0)
(0.0311788382019 0.31764293625 0)
(0.0366292379767 0.313024270944 0)
(0.0420529721476 0.307589132915 0)
(0.0474108254761 0.301333520703 0)
(0.0526589465325 0.294261131213 0)
(0.0577500211892 0.286384591738 0)
(0.0626349229675 0.277726385121 0)
(0.0672647728768 0.268319208333 0)
(0.0715934409392 0.258205472195 0)
(0.0755798829021 0.247435523089 0)
(0.0791900704831 0.236064355734 0)
(0.082396750509 0.224146773914 0)
(0.0851761230917 0.211732008882 0)
(0.0874993907908 0.198860182138 0)
(0.0893194084714 0.185564767639 0)
(0.0905564796873 0.171886691209 0)
(0.0910953178061 0.157900875026 0)
(0.0908088248051 0.143743825632 0)
(0.0896154388248 0.129616664637 0)
(0.0875470915392 0.115683240678 0)
(0.0844999925405 0.102150661947 0)
(0.080601966904 0.0891622970479 0)
(0.0754590516358 0.0771691256418 0)
(0.0698214280661 0.066713276353 0)
(0.0645506833017 0.0575213465037 0)
(0.0596791938066 0.0488642172288 0)
(0.0541831332464 0.0407661488891 0)
(0.0482777925565 0.0338455316365 0)
(0.042544163372 0.0282352928476 0)
(0.0372978178072 0.0237076125992 0)
(0.0326251270323 0.0199888046979 0)
(0.0284816802087 0.0168690855414 0)
(0.0247882114534 0.014217449613 0)
(0.0214550419382 0.0119690698948 0)
(0.0184173953633 0.0101217367815 0)
(0.0156965817561 0.00869207348016 0)
(0.0134025224328 0.00761104859002 0)
(0.011559411271 0.00670175623305 0)
(0.00997162810762 0.00587046005628 0)
(0.00855725404871 0.00515228475715 0)
(0.00732622060536 0.00456638829692 0)
(0.00630084707906 0.00406837319911 0)
(0.00540600552352 0.00362571421033 0)
(0.00462172110628 0.00324677576456 0)
(0.00393985602291 0.00288428593722 0)
(0.00352798452074 0.00259631715122 0)
(0.00324297493057 0.00227254352572 0)
(0.00305575625486 0.00197458128049 0)
(0.00286482566144 0.00163441437104 0)
(0.00271485335317 0.00130939904308 0)
(0.00255679010389 0.00098436710227 0)
(0.00247674899249 0.00072773584861 0)
(0.00247289318511 0.000526307427687 0)
(0.0023784688376 0.000328280402851 0)
(0.0025325376895 0.000234575169209 0)
(0.00248133343548 0.000139089642187 0)
(0.00245227531745 4.35015100996e-05 0)
(-0.125538628758 0.00755985508894 0)
(-0.132662407741 0.0245319076033 0)
(-0.132068047163 0.0411851143575 0)
(-0.130836806242 0.0578756422486 0)
(-0.129198634923 0.0743430663865 0)
(-0.127177252997 0.0905463165405 0)
(-0.124793577927 0.106432497109 0)
(-0.122071207376 0.121953400443 0)
(-0.119036024256 0.13706519639 0)
(-0.115715576324 0.151728831106 0)
(-0.112138440706 0.165910205236 0)
(-0.108333590291 0.179580259687 0)
(-0.104329765141 0.192714959501 0)
(-0.100154856301 0.205295176359 0)
(-0.0958353044271 0.217306466826 0)
(-0.0913955286506 0.228738740087 0)
(-0.0868574002623 0.239585812059 0)
(-0.0822397915668 0.249844847553 0)
(-0.0775582251049 0.259515703498 0)
(-0.0728246573134 0.268600197809 0)
(-0.0680474127357 0.277101341646 0)
(-0.0632312819062 0.285022580853 0)
(-0.0583777660699 0.292367094429 0)
(-0.0534854451273 0.299137190405 0)
(-0.0485504182989 0.305333822929 0)
(-0.0435667763944 0.310956232678 0)
(-0.038527059033 0.316001690135 0)
(-0.0334226856839 0.320465307635 0)
(-0.0282443585897 0.324339885927 0)
(-0.0229824748129 0.32761574316 0)
(-0.0176275989881 0.330280662131 0)
(-0.0121709340807 0.332319659426 0)