/*--------------------------------*- C++ -*----------------------------------*\
| =========                 |                                                 |
| \\      /  F ield         | OpenFOAM: The Open Source CFD Toolbox           |
|  \\    /   O peration     | Version:  v1906                                 |
|   \\  /    A nd           | Web:      www.OpenFOAM.com                      |
|    \\/     M anipulation  |                                                 |
\*---------------------------------------------------------------------------*/
FoamFile
{
    version     2.0;
    format      ascii;
    class       volVectorField;
    location    "77";
    object      U;
}
// * * * * * * * * * * * * * * * * * * * * * * * * * * * * * * * * * * * * * //

dimensions      [0 1 -1 0 0 0 0];


internalField   nonuniform List<vector> 
9216
(
(0.00284497821893 -0.00285624535228 0)
(0.00299901789653 -0.00922024987296 1.31667112202e-27)
(0.00299268176423 -0.015688067017 1.93902128276e-31)
(0.00295553996525 -0.0221601980276 0)
(0.0029046492642 -0.0285309269261 0)
(0.00283896563753 -0.0347734717585 0)
(0.0027635615467 -0.0408639162752 0)
(0.00267710899474 -0.0467792342933 0)
(0.00258370425002 -0.052498945104 0)
(0.00248100366487 -0.0580056382732 0)
(0.00237418336713 -0.063284373503 0)
(0.00225936962136 -0.0683226616336 0)
(0.00214119653272 -0.0731094456172 0)
(0.00201571091398 -0.0776309596235 0)
(0.00189218779931 -0.0818851093769 0)
(0.00176594796071 -0.0858686275998 0)
(0.00164184302938 -0.0895797315836 0)
(0.00151263111534 -0.093015652648 0)
(0.00138517135235 -0.0961735320024 0)
(0.00125481514661 -0.0990534119652 0)
(0.00112853656244 -0.101655602022 0)
(0.000999877255231 -0.103982626606 0)
(0.000877071094367 -0.106036387033 0)
(0.000751071881 -0.107820406614 0)
(0.000630246791394 -0.109336121738 0)
(0.000506409054009 -0.110582448004 0)
(0.000385859709825 -0.111571133338 0)
(0.000261367346655 -0.112290534192 0)
(0.000145092128679 -0.112749828491 0)
(2.60656838679e-05 -0.112954895132 0)
(-8.26113375448e-05 -0.112900435136 0)
(-0.000201148099299 -0.112619728434 0)
(-0.000320947756994 -0.112065585494 0)
(-0.00043976237608 -0.111251898846 0)
(-0.000546691826985 -0.110201181884 0)
(-0.000656750886448 -0.108912577868 0)
(-0.000760362298053 -0.107386022287 0)
(-0.000867671557498 -0.105633223958 0)
(-0.000967331239552 -0.103651933111 0)
(-0.00106734024558 -0.101455636624 0)
(-0.00115445749323 -0.099050514214 0)
(-0.00124311285562 -0.0964606390024 0)
(-0.00132203680278 -0.09367971395 0)
(-0.00139798069227 -0.0907340418832 0)
(-0.0014609298118 -0.0876369760227 0)
(-0.00151832476786 -0.0844086226857 0)
(-0.00156027956582 -0.0810708675746 0)
(-0.00159789136951 -0.0776449267154 0)
(-0.00161909285399 -0.0741543562134 0)
(-0.00163415006931 -0.070623550443 0)
(-0.00163360434253 -0.0670765027751 0)
(-0.00162606861415 -0.0635372529829 0)
(-0.00160310095359 -0.0600312562911 0)
(-0.00157487108749 -0.0565801311984 0)
(-0.00153301187581 -0.0532051382 0)
(-0.0014875790237 -0.0499244953942 0)
(-0.00143183905726 -0.0467558189362 0)
(-0.00137431967494 -0.0437072462212 0)
(-0.00130713503048 -0.0407962359216 0)
(-0.00124093608011 -0.0380279937136 0)
(-0.00117012749826 -0.0354082188957 0)
(-0.00110278955778 -0.0329378646283 0)
(-0.00103222423797 -0.0306171740113 0)
(-0.000966179369029 -0.0284432448767 0)
(-0.000900389855446 -0.0264123016218 0)
(-0.000841565164325 -0.0245181059591 0)
(-0.000780954585841 -0.0227526813366 0)
(-0.000726223675939 -0.0211115734525 0)
(-0.000671021607563 -0.019591511645 0)
(-0.000622980047894 -0.0181818208592 0)
(-0.000576253690298 -0.0168754419547 0)
(-0.000536133199444 -0.0156621184105 0)
(-0.000496148044947 -0.0145357280923 0)
(-0.000462536895292 -0.0134881274398 0)
(-0.000429814976775 -0.0125121901691 0)
(-0.000402243058245 -0.0116003171929 0)
(-0.000374659898098 -0.0107480592613 0)
(-0.000351373750074 -0.00994993999012 0)
(-0.000327931010258 -0.0092024217439 0)
(-0.000308834030411 -0.00850028252492 0)
(-0.000288950341749 -0.0078397060515 0)
(-0.000272414348491 -0.00721740125845 0)
(-0.000255478091791 -0.00663099313519 0)
(-0.000240321529868 -0.00607834194742 0)
(-0.000223636317136 -0.0055594792698 0)
(-0.000207559911555 -0.00507750768843 0)
(-0.000184281826688 -0.00463451628708 0)
(-0.000145909634919 -0.00423632636497 0)
(-0.000107203563484 -0.00384135690692 0)
(-0.000124992622663 -0.00362715830069 0)
(-0.000172650647471 -0.0033483288926 0)
(-0.000199200671452 -0.00292511139197 0)
(-0.00023087670314 -0.00244365278965 0)
(-0.000288606710145 -0.00190133758808 0)
(-0.000331767457541 -0.00115190191507 0)
(-0.000351237065837 -0.00035759061862 0)
(0.0092134729698 -0.00303996002626 0)
(0.0101920280914 -0.0102923807797 0)
(0.0101745270541 -0.0175358396936 -1.38256806466e-27)
(0.0100459678407 -0.0247902265826 0)
(0.00986864493122 -0.0319200719597 0)
(0.00964692920697 -0.0389044137873 0)
(0.00938976799281 -0.045717122432 0)
(0.0090965193108 -0.0523315645843 0)
(0.00877605006023 -0.0587238417525 0)
(0.008427044637 -0.0648754714553 0)
(0.008059634828 -0.0707683361936 0)
(0.0076705642372 -0.0763889582626 0)
(0.0072685069383 -0.0817269219121 0)
(0.00685112198165 -0.0867710493939 0)
(0.00643061819524 -0.0915282355504 0)
(0.00599936713345 -0.0959693390987 0)
(0.005568722827 -0.100107653805 0)
(0.00513191191345 -0.103922814096 0)
(0.00470196188214 -0.107442327526 0)
(0.00426686913902 -0.110650702488 0)
(0.00383878984694 -0.113555045619 0)
(0.00340685651739 -0.116155305542 0)
(0.00298346706816 -0.118448865318 0)
(0.00255733056338 -0.120436206466 0)
(0.00214157846953 -0.122123963513 0)
(0.00172282109189 -0.123513027943 0)
(0.00131398382755 -0.124604302866 0)
(0.000903297400695 -0.12541957525 0)
(0.000503517794659 -0.125939450189 0)
(0.0001028880884 -0.126173073839 0)
(-0.000282316332554 -0.126128568929 0)
(-0.000680363586695 -0.125783391956 0)
(-0.00107827953701 -0.125175399656 0)
(-0.00147572356268 -0.124283172403 0)
(-0.00184969728128 -0.123117797352 0)
(-0.00222277301897 -0.121679198828 0)
(-0.00258283120392 -0.119974551134 0)
(-0.00294228415672 -0.118010657037 0)
(-0.00328191440758 -0.11579490278 0)
(-0.00361565039137 -0.11334526133 0)
(-0.00392442053825 -0.110661564622 0)
(-0.00422498946093 -0.107751174672 0)
(-0.00449750622732 -0.104636615868 0)
(-0.00475014655778 -0.101335197499 0)
(-0.00496541085431 -0.0978638041093 0)
(-0.00515700985933 -0.094256464366 0)
(-0.00531049627621 -0.0905135729385 0)
(-0.00543551591593 -0.0866715809139 0)
(-0.00551172422211 -0.0827552467813 0)
(-0.00555827635561 -0.0787937961177 0)
(-0.00556112849552 -0.0748139922352 0)
(-0.00552959857319 -0.0708431864528 0)
(-0.00545458115035 -0.0669102089864 0)
(-0.0053537760981 -0.0630403354228 0)
(-0.00521465576088 -0.0592571541602 0)
(-0.00505438739795 -0.0555829247252 0)
(-0.00486545678539 -0.0520361375791 0)
(-0.00466357519981 -0.0486322542421 0)
(-0.00444134098437 -0.0453849243865 0)
(-0.00421500325319 -0.0422927516173 0)
(-0.00397799160477 -0.0393684802886 0)
(-0.00374519147604 -0.0366125049755 0)
(-0.00350915190566 -0.0340246664319 0)
(-0.00328399686185 -0.0316031805931 0)
(-0.00306062610029 -0.029332702997 0)
(-0.00285301119411 -0.0272292244199 0)
(-0.00264883872121 -0.0252677726816 0)
(-0.00245940650488 -0.023448983221 0)
(-0.00227656078862 -0.0217634506368 0)
(-0.00211010637196 -0.0201978909358 0)
(-0.00195406281271 -0.0187495455476 0)
(-0.00181576844921 -0.0174046631012 0)
(-0.00168291167905 -0.0161557177728 0)
(-0.00156751766294 -0.0149941675706 0)
(-0.00146046263541 -0.0139117154296 0)
(-0.00136523975766 -0.012899685486 0)
(-0.0012742550274 -0.0119527894379 0)
(-0.00119418434075 -0.0110667375954 0)
(-0.00111568555788 -0.0102328868383 0)
(-0.00104929850113 -0.00945263105713 0)
(-0.000987143091366 -0.00871883611653 0)
(-0.000930204736747 -0.00802044460812 0)
(-0.000874724352554 -0.00736673850198 0)
(-0.000821774729287 -0.00674533993005 0)
(-0.00076639249875 -0.00616362201685 0)
(-0.000713215434075 -0.00561653855347 0)
(-0.000644592328626 -0.00510462152165 0)
(-0.000546520481305 -0.00463519417363 0)
(-0.000435679808957 -0.00413635653197 0)
(-0.000444657483649 -0.00370847729406 0)
(-0.000553449722012 -0.00341355487825 0)
(-0.000631315828932 -0.00298344429355 0)
(-0.000740288294492 -0.0024728368692 0)
(-0.000965725486213 -0.00193818562575 0)
(-0.0012450525942 -0.00127045641553 0)
(-0.00114629389837 -0.000347001935004 0)
(0.0157732924673 -0.00308685751459 0)
(0.017472612063 -0.0104562534912 0)
(0.0174188792136 -0.0177919157765 -1.38035635416e-27)
(0.0171903928815 -0.0251501925926 0)
(0.0168809767045 -0.0323797672963 0)
(0.0164997618429 -0.0394589205454 0)
(0.0160549942338 -0.046358275894 0)
(0.0155518864287 -0.0530550586721 0)
(0.0149981604106 -0.0595224367241 0)
(0.0143997433814 -0.0657424095262 0)
(0.0137657926615 -0.0716998276506 0)
(0.0130988689497 -0.0773755625027 0)
(0.0124086230881 -0.0827616244734 0)
(0.0116993853222 -0.087848933998 0)
(0.0109773724296 -0.0926314986397 0)
(0.0102421158788 -0.0971108656265 0)
(0.00950153321565 -0.101276259068 0)
(0.00875948220233 -0.10513675464 0)
(0.00802174232959 -0.108676957372 0)
(0.0072826380909 -0.111904160418 0)
(0.00654895587203 -0.114818877631 0)
(0.00581446503522 -0.117423281183 0)
(0.00508632776494 -0.119720697713 0)
(0.00436219357445 -0.121713798777 0)
(0.00364917346031 -0.123407602266 0)
(0.00294404671462 -0.124801161251 0)
(0.00224985455275 -0.125918451516 0)
(0.00155603184793 -0.126738415652 0)
(0.00086891744117 -0.127258817178 0)
(0.000184278665415 -0.127501965127 0)
(-0.000490931248967 -0.127439658177 0)
(-0.00116557197436 -0.127101751964 0)
(-0.00183639954731 -0.126474885663 0)
(-0.00250257850695 -0.125569742467 0)
(-0.00315228806753 -0.124402824519 0)
(-0.003794232116 -0.122946074885 0)
(-0.00442080007517 -0.121220587521 0)
(-0.00503222503604 -0.11922919149 0)
(-0.00561612399696 -0.116980898523 0)
(-0.00618244356535 -0.114486075396 0)
(-0.00672142047376 -0.111754787926 0)
(-0.00723552771896 -0.108798967052 0)
(-0.00770521279268 -0.105634350819 0)
(-0.00812608384179 -0.102275721111 0)
(-0.00849976304285 -0.098758574446 0)
(-0.0088247876477 -0.0950773136205 0)
(-0.0090897911662 -0.0912681523597 0)
(-0.00929924796071 -0.087370396303 0)
(-0.00944039497584 -0.083394808296 0)
(-0.00951709876481 -0.0793596493352 0)
(-0.0095254196705 -0.075315946863 0)
(-0.009472108412 -0.0712847520588 0)
(-0.00935217606544 -0.0672784243814 0)
(-0.00917394533003 -0.0633385959997 0)
(-0.00893586708586 -0.059487816332 0)
(-0.00865279552687 -0.0557525306585 0)
(-0.00832760209574 -0.0521511118666 0)
(-0.00797292433184 -0.0486977586019 0)
(-0.00759308494982 -0.0454045556051 0)
(-0.00719989173902 -0.0422804597282 0)
(-0.00679509513333 -0.0393305913962 0)
(-0.00639039410354 -0.0365560117802 0)
(-0.00598764143898 -0.0339562703366 0)
(-0.00559766620663 -0.031526833101 0)
(-0.00521701908791 -0.029263076873 0)
(-0.0048540034878 -0.0271612080284 0)
(-0.00450638052872 -0.0252096700125 0)
(-0.00418029243995 -0.0233993931074 0)
(-0.00387358614405 -0.0217220868197 0)
(-0.0035910250992 -0.0201683750722 0)
(-0.00332731289197 -0.0187178655467 0)
(-0.00308786170055 -0.0173783841326 0)
(-0.00286762808521 -0.016134770454 0)
(-0.00266739738446 -0.0149682032503 0)
(-0.00248469567087 -0.0138909664832 0)
(-0.00232004370179 -0.0128849689908 0)
(-0.00216853005112 -0.011943917525 0)
(-0.00203238957795 -0.0110613909886 0)
(-0.00190678111571 -0.0102353858089 0)
(-0.00178906587707 -0.00944143262297 0)
(-0.00168263095332 -0.00870995999052 0)
(-0.00158294734834 -0.00801259672889 0)
(-0.00148993204467 -0.0073593281243 0)
(-0.0014005657628 -0.00674128367616 0)
(-0.00131370111885 -0.00615741515459 0)
(-0.00122805551109 -0.00559820972547 0)
(-0.00112594671209 -0.00507350358111 0)
(-0.00101045333321 -0.00458024233224 0)
(-0.000876810295781 -0.00405790586232 0)
(-0.000795205189779 -0.00345599926747 0)
(-0.000923331422388 -0.00325662947436 0)
(-0.00112199059435 -0.0028669345095 0)
(-0.00127378707786 -0.00221716385834 0)
(-0.00153970935009 -0.00160293981092 0)
(-0.00186471634216 -0.00100669656803 0)
(-0.00183548750201 -0.000304667244219 0)
(0.0224832994431 -0.00313189153656 0)
(0.0249273918599 -0.0106063385033 0)
(0.0248476070032 -0.0180373617922 1.37974598627e-27)
(0.0245161127545 -0.0254910716236 0)
(0.0240685885587 -0.0328117216769 0)
(0.0235193831034 -0.0399751284392 0)
(0.0228791501 -0.0469535055313 0)
(0.0221546777041 -0.0537163566947 0)
(0.0213594020128 -0.0602458235082 0)
(0.0205005296321 -0.0665170677861 0)
(0.0195890981406 -0.0725152125042 0)
(0.0186334364668 -0.0782263267271 0)
(0.0176453216684 -0.0836403093208 0)
(0.016633326358 -0.0887530517931 0)
(0.015603412318 -0.0935582154164 0)
(0.0145567581935 -0.0980449798724 0)
(0.0135031173572 -0.102217043543 0)
(0.0124460112891 -0.106072639806 0)
(0.0113906810521 -0.109612033839 0)
(0.0103376775065 -0.112836629498 0)
(0.00929163196356 -0.115748988806 0)
(0.00825142282752 -0.118349913194 0)
(0.0072172655696 -0.120652062367 0)
(0.00619249363996 -0.122639306602 0)
(0.00518403608295 -0.124338267832 0)
(0.00418960848454 -0.125740388279 0)
(0.00320146333523 -0.12684351384 0)
(0.00221295916232 -0.127655291682 0)
(0.00123459841298 -0.128169679254 0)
(0.000261628684381 -0.128393480103 0)
(-0.000704378453026 -0.128340573704 0)
(-0.00166518364915 -0.127985393888 0)
(-0.0026196555415 -0.12734939004 0)
(-0.00355984174963 -0.126431672792 0)
(-0.00448502715545 -0.125235208937 0)
(-0.0054006511505 -0.123764593044 0)
(-0.0062946253363 -0.122019571525 0)
(-0.00716963834374 -0.120022159671 0)
(-0.00801162544514 -0.117748139535 0)
(-0.00882248429107 -0.115224194722 0)
(-0.00959118118764 -0.112461752503 0)
(-0.0103120528644 -0.109464626166 0)
(-0.0109848000151 -0.106287923154 0)
(-0.0115935502445 -0.102891910209 0)
(-0.0121357638785 -0.0993007808203 0)
(-0.0126086543222 -0.0955704380637 0)
(-0.0129950582936 -0.0916820047403 0)
(-0.0132912215696 -0.0876861733335 0)
(-0.0134950447802 -0.0836094673417 0)
(-0.0136044004753 -0.0794851008705 0)
(-0.0136130021007 -0.0753422545302 0)
(-0.0135311968637 -0.0712148626839 0)
(-0.0133571703263 -0.067130657707 0)
(-0.0131013799508 -0.0631332258199 0)
(-0.0127594873648 -0.0592174775628 0)
(-0.0123453420546 -0.0554267733414 0)
(-0.0118749027915 -0.0517795951181 0)
(-0.0113605976723 -0.048289987499 0)
(-0.0108121811813 -0.0449696342578 0)
(-0.010240754686 -0.0418279628716 0)
(-0.00965768627259 -0.038869411207 0)
(-0.00907281067126 -0.0360940155041 0)
(-0.00849447047727 -0.0335007371578 0)
(-0.00793334826182 -0.0310822461883 0)
(-0.00738438419934 -0.0288322312051 0)
(-0.00685843804572 -0.0267543059202 0)
(-0.00636132267073 -0.024830125635 0)
(-0.00589791847839 -0.0230473854216 0)
(-0.00546413210386 -0.0213981908128 0)
(-0.00506639314895 -0.0198714465474 0)
(-0.00470055606348 -0.0184534993846 0)
(-0.00436288796992 -0.0171362054968 0)
(-0.00405140543698 -0.0159071292642 0)
(-0.00376839482457 -0.0147719350741 0)
(-0.00350916922531 -0.0137121961637 0)
(-0.00327553469993 -0.0127219333506 0)
(-0.00306262447236 -0.0117959627628 0)
(-0.0028691441523 -0.0109294982486 0)
(-0.00269505942858 -0.010118011111 0)
(-0.0025334251711 -0.00935541305066 0)
(-0.00238240079808 -0.00863653786481 0)
(-0.00224699299039 -0.00795745885722 0)
(-0.00211671599202 -0.00730262578436 0)
(-0.0019948081882 -0.00669223307772 0)
(-0.00187233298423 -0.00609167939157 0)
(-0.00175691332486 -0.00553330355958 0)
(-0.00163713622513 -0.00500691886566 0)
(-0.00149797937361 -0.00446144122342 0)
(-0.00136802641369 -0.00393953103468 0)
(-0.00122802651479 -0.00334679395633 0)
(-0.00131407561313 -0.00296754295579 0)
(-0.00157842541621 -0.00249207855292 0)
(-0.00192014226484 -0.0020130776201 0)
(-0.00212018808329 -0.00133124454643 0)
(-0.00242944224079 -0.00080767087701 0)
(-0.00244978369655 -0.000264487679698 0)
(0.0293001556719 -0.00319096907729 0)
(0.032488845996 -0.0108024914233 0)
(0.0323804579734 -0.0183650061647 0)
(0.0319414628281 -0.0259473530539 0)
(0.0313492903785 -0.0333889740953 0)
(0.0306238095547 -0.0406644645108 0)
(0.0297771937783 -0.0477419510248 0)
(0.0288245254571 -0.0545986424548 0)
(0.0277753522486 -0.0612030933308 0)
(0.0266455031779 -0.0675404760881 0)
(0.0254484825834 -0.0735933590727 0)
(0.0241969358983 -0.0793481656283 0)
(0.0229060860264 -0.0847997504561 0)
(0.0215845525484 -0.0899405090033 0)
(0.0202360193793 -0.0947581833722 0)
(0.0188708882566 -0.0992562497344 0)
(0.0174983533952 -0.103433167271 0)
(0.0161233783311 -0.107288861116 0)
(0.0147522452726 -0.110826472818 0)
(0.0133874119146 -0.114046335453 0)
(0.0120306463637 -0.116960538443 0)
(0.0106819297282 -0.11955498456 0)
(0.00934176057695 -0.121839088747 0)
(0.00801953395651 -0.123827723523 0)
(0.00671956348412 -0.125516110144 0)
(0.00542708535825 -0.126918774544 0)
(0.00414005532986 -0.128003761071 0)
(0.00286003559308 -0.128813920494 0)
(0.00158749793482 -0.129317717183 0)
(0.000325968696058 -0.12953279078 0)
(-0.000929786343149 -0.129455575054 0)
(-0.00217590095509 -0.129092931497 0)
(-0.00340789959714 -0.128445001304 0)
(-0.00462945625799 -0.127532441752 0)
(-0.00583663093367 -0.126320637365 0)
(-0.0070277246635 -0.124831006044 0)
(-0.00818945230791 -0.123064165039 0)
(-0.00932595564921 -0.121021494044 0)
(-0.0104262721144 -0.118736820814 0)
(-0.011478905974 -0.116170951822 0)
(-0.0124878494267 -0.113403239017 0)
(-0.0134295046051 -0.110347047081 0)
(-0.0143141552588 -0.107093314138 0)
(-0.01512818338 -0.103603523577 0)
(-0.0158474608634 -0.0999268911005 0)
(-0.0164658575991 -0.0960824280113 0)
(-0.0169794258433 -0.0920938525903 0)
(-0.0173781577932 -0.0880117817832 0)
(-0.0176523604243 -0.0838245056014 0)
(-0.0177952941965 -0.0795880546647 0)
(-0.0178048941147 -0.0753306916261 0)
(-0.0176896454295 -0.0710909326602 0)
(-0.0174482888996 -0.0669020101935 0)
(-0.0170970942435 -0.0627920019465 0)
(-0.0166450465079 -0.0588058005068 0)
(-0.0160922542158 -0.0549391359454 0)
(-0.0154654847783 -0.0512331091596 0)
(-0.0147809167648 -0.047697235833 0)
(-0.014051344581 -0.0443433555067 0)
(-0.013290274985 -0.0411807777362 0)
(-0.0125180123636 -0.0382147637259 0)
(-0.0117463033142 -0.0354419684187 0)
(-0.0109863529275 -0.0328633361802 0)
(-0.0102385484028 -0.0304656692918 0)
(-0.00950432440663 -0.0282517048955 0)
(-0.00881498849891 -0.0262267823065 0)
(-0.00817414614854 -0.0243424734417 0)
(-0.0075774100724 -0.0226007762313 0)
(-0.00701683536358 -0.0209873196865 0)
(-0.00650460876798 -0.0194925254644 0)
(-0.0060367885292 -0.0181042315074 0)
(-0.00560226977043 -0.0168126420391 0)
(-0.00520100339662 -0.0156149123732 0)
(-0.0048379284703 -0.0145021963363 0)
(-0.00450909396848 -0.0134640426801 0)
(-0.00420824892075 -0.0124873574225 0)
(-0.00393257929989 -0.0115760044861 0)
(-0.00368343473898 -0.0107245713556 0)
(-0.00345830411564 -0.00992534215638 0)
(-0.00324999952935 -0.00917295996044 0)
(-0.00305816885254 -0.00846241973032 0)
(-0.00288383819741 -0.00778718328336 0)
(-0.00272320632127 -0.0071562778679 0)
(-0.00257230329883 -0.00655415343892 0)
(-0.00242867592904 -0.00598033024454 0)
(-0.00228667063051 -0.00542536920075 0)
(-0.00215681717272 -0.00489631562646 0)
(-0.0020118839361 -0.00437655692243 0)
(-0.0018548137402 -0.0037960470876 0)
(-0.00180231869791 -0.00333636723634 0)
(-0.00179552172853 -0.0026641934952 0)
(-0.00202797796551 -0.00214361871209 0)
(-0.00236239601369 -0.00168055752146 0)
(-0.00272760257761 -0.00119271518969 0)
(-0.00283512909205 -0.000649989750136 0)
(-0.00290408167277 -0.000219199694363 0)
(0.0362590253113 -0.00326560294534 0)
(0.0402049086772 -0.0110534140703 0)
(0.0400635881819 -0.01878649741 0)
(0.0395091596731 -0.0265344735976 0)
(0.0387621804633 -0.0341310368854 0)
(0.0378485752113 -0.0415489334237 0)
(0.0367858629304 -0.0487575486979 0)
(0.0355861845225 -0.0557227796487 0)
(0.0342720251373 -0.0624270435256 0)
(0.0328580136589 -0.0688459825619 0)
(0.0313626200262 -0.0749660236236 0)
(0.0298048034228 -0.0807741777636 0)
(0.0282015319816 -0.0862726802784 0)
(0.0265555210273 -0.091437335128 0)
(0.0248824326751 -0.0962758445203 0)
(0.0231932355453 -0.100785794412 0)
(0.0214967345278 -0.104967849862 0)
(0.0198011914221 -0.108823061244 0)
(0.0181129142876 -0.112363601676 0)
(0.0164314585523 -0.115575914438 0)
(0.0147595756744 -0.118472395728 0)
(0.013098705681 -0.121055435064 0)
(0.0114575043533 -0.123324422597 0)
(0.00984181018828 -0.125311382715 0)
(0.00824468807832 -0.126995586223 0)
(0.00665283542526 -0.128365803966 0)
(0.00506946381011 -0.129458152963 0)
(0.00349445017073 -0.130240260912 0)
(0.00192921548303 -0.130734533309 0)
(0.000376124290044 -0.13093952989 0)
(-0.00116409516537 -0.130852321655 0)
(-0.00269178916007 -0.13049580615 0)
(-0.00420753475095 -0.1298353959 0)
(-0.00571213629096 -0.12889244636 0)
(-0.00720450464183 -0.127665060001 0)
(-0.00867316351628 -0.126151776333 0)
(-0.0101097631924 -0.124378130709 0)
(-0.0115069956374 -0.122300875321 0)
(-0.0128671681944 -0.120000932267 0)
(-0.0141746206745 -0.117384622131 0)
(-0.0154351128204 -0.114540635204 0)
(-0.0166283196369 -0.111415922272 0)
(-0.0177379624789 -0.10805917849 0)
(-0.0187538713403 -0.104474691522 0)
(-0.0196637306028 -0.100714206346 0)
(-0.0204464984941 -0.0967497967307 0)
(-0.0210877399896 -0.0926347300381 0)
(-0.0215811470749 -0.0883962484194 0)
(-0.0219244487205 -0.0840672192986 0)
(-0.0221101343505 -0.0797043897848 0)
(-0.0221248504512 -0.0753009190522 0)
(-0.0219727936118 -0.0709194300592 0)
(-0.0216584034536 -0.0665940697645 0)
(-0.0212011918139 -0.0623577550341 0)
(-0.0206178215279 -0.0582617512631 0)
(-0.0199142487812 -0.0543007225782 0)
(-0.0191123009353 -0.0505199787144 0)
(-0.0182372408608 -0.0469249892083 0)
(-0.0173158884359 -0.0435451017397 0)
(-0.016350628147 -0.0403587595404 0)
(-0.0153860931929 -0.0374045402385 0)
(-0.014398971379 -0.0346471941736 0)
(-0.0134082836406 -0.0320806605305 0)
(-0.0124826523595 -0.0297865254516 0)
(-0.0115759039311 -0.0276287230088 0)
(-0.0107280567091 -0.0256466185508 0)
(-0.0099405722184 -0.023802050051 0)
(-0.00921315252494 -0.0221158740911 0)
(-0.00853069283582 -0.0205470501942 0)
(-0.00790876582408 -0.0190957585872 0)
(-0.00734481051647 -0.0177513587467 0)
(-0.00682157858485 -0.0165034499188 0)
(-0.00633352911795 -0.0153282882798 0)
(-0.00588578522735 -0.0142293913353 0)
(-0.00548960993422 -0.0132174866771 0)
(-0.00513228537106 -0.0122672598425 0)
(-0.00479958359374 -0.0113710675719 0)
(-0.00448802427583 -0.0105192055854 0)
(-0.00421231396218 -0.00972866413103 0)
(-0.00396238175125 -0.00898780632509 0)
(-0.0037275653664 -0.00827892995356 0)
(-0.00351819191171 -0.00761843756055 0)
(-0.00332148419267 -0.00698663074992 0)
(-0.00313664698564 -0.00637952487769 0)
(-0.00296606502704 -0.00580279735652 0)
(-0.00281064441852 -0.00525304969964 0)
(-0.00265728079476 -0.00471058247793 0)
(-0.0024996032586 -0.00419612031571 0)
(-0.00233962800084 -0.00362336733074 0)
(-0.00240239760238 -0.00320597071403 0)
(-0.00247145138812 -0.00258682081766 0)
(-0.00253124294335 -0.00192034479938 0)
(-0.00277227856 -0.00142527425597 0)
(-0.00320528078234 -0.00106949535439 0)
(-0.00327805894415 -0.000593776023789 0)
(-0.00329745193976 -0.000185111742339 0)
(0.0433992968759 -0.00335831801655 0)
(0.0481167721185 -0.0113649022267 0)
(0.0479363651687 -0.0193100007436 1.36949045476e-27)
(0.0472561824019 -0.0272632754245 0)
(0.0463416345529 -0.0350511394459 0)
(0.0452260018525 -0.0426459605499 0)
(0.0439260670186 -0.0500096771237 0)
(0.0424648415722 -0.0571123573977 0)
(0.0408677079123 -0.0639342287902 0)
(0.0391519219894 -0.0704507136804 0)
(0.0373434561385 -0.0766489726579 0)
(0.0354678153489 -0.0825281208156 0)
(0.0335307252577 -0.088063579449 0)
(0.0315512590636 -0.0932616475884 0)
(0.0295451975905 -0.0981212839111 0)
(0.0275233715884 -0.102642795753 0)
(0.0254979866933 -0.106827544038 0)
(0.0234789379464 -0.110687793961 0)
(0.0214643373401 -0.114211950011 0)
(0.0194608477544 -0.117413206292 0)
(0.0174731628954 -0.120295642104 0)
(0.0155033303071 -0.122860785777 0)
(0.013568307408 -0.125124868043 0)
(0.0116583391 -0.127104327057 0)
(0.00975239448914 -0.128768339746 0)
(0.00786047435142 -0.130125569576 0)
(0.0059803421891 -0.131189389811 0)
(0.00411055980437 -0.131958030353 0)
(0.0022587081719 -0.132439952091 0)
(0.000422896371696 -0.132631375444 0)
(-0.00140197948577 -0.132551758819 0)
(-0.00321946089641 -0.132165399098 0)
(-0.00502779619054 -0.131493262605 0)
(-0.0068168296979 -0.130535074298 0)
(-0.00858652220607 -0.129288028336 0)
(-0.0103318892561 -0.127770571545 0)
(-0.0120453337601 -0.125965541961 0)
(-0.0137171463892 -0.123875433047 0)
(-0.0153541124402 -0.121509948526 0)
(-0.016944991672 -0.118840729465 0)
(-0.0184665518126 -0.115903144176 0)
(-0.0199076997031 -0.112695653558 0)
(-0.0212596334901 -0.109264216451 0)
(-0.0224950056213 -0.105566424004 0)
(-0.0235965360141 -0.101656594344 0)
(-0.0245490076127 -0.0975478802048 0)
(-0.0253435056096 -0.0932991281461 0)
(-0.0259529432829 -0.0888898903623 0)
(-0.0263683550521 -0.084384088509 0)
(-0.0265834344008 -0.0798187513181 0)
(-0.0265950470298 -0.0752307793353 0)
(-0.0264064425054 -0.0706894615809 0)
(-0.0260124390034 -0.0661932400038 0)
(-0.0254322600582 -0.0618022637122 0)
(-0.0247011983389 -0.0575706992741 0)
(-0.0238210866083 -0.0534931318109 0)
(-0.0228304897685 -0.0496358581333 0)
(-0.0217477452911 -0.045970272681 0)
(-0.0206169738606 -0.0425465004695 0)
(-0.0194088842373 -0.039343886537 0)
(-0.0181645388441 -0.0363641621348 0)
(-0.0169856311732 -0.033735870123 0)
(-0.0157937170446 -0.0312423169279 0)
(-0.0146680786392 -0.0289778095208 0)
(-0.0136011345924 -0.026875024905 0)
(-0.0125796795608 -0.0249209601833 0)
(-0.0116551666126 -0.0231529369761 0)
(-0.0108005057871 -0.021523699675 0)
(-0.00999332424684 -0.0199993913502 0)
(-0.00926213429633 -0.0186014558401 0)
(-0.00859763715139 -0.0173048566841 0)
(-0.00798777751689 -0.0161039353743 0)
(-0.007430790729 -0.0149799132499 0)
(-0.00692042117043 -0.0139351498299 0)
(-0.0064435013558 -0.0129311792038 0)
(-0.00602381463764 -0.0120100560594 0)
(-0.00564112069428 -0.0111398212387 0)
(-0.00529189855284 -0.010325162154 0)
(-0.00496447837437 -0.00953940834983 0)
(-0.00466964225926 -0.008810396059 0)
(-0.00439622182167 -0.00811067204152 0)
(-0.00414824800989 -0.00745040840555 0)
(-0.00392772536745 -0.00682674167234 0)
(-0.00371794396338 -0.00621991458915 0)
(-0.00352212225451 -0.00563832059952 0)
(-0.00333927531337 -0.00506830762495 0)
(-0.00316986294403 -0.00451932509105 0)
(-0.00299957730064 -0.00397062359569 0)
(-0.00284511199642 -0.00339496733703 0)
(-0.00285344206956 -0.00286687120022 0)
(-0.00304553437854 -0.00241108225822 0)
(-0.00314748087732 -0.001842192605 0)
(-0.0031552622876 -0.00123523995555 0)
(-0.00352913948536 -0.000912398510002 0)
(-0.00370349783558 -0.000561473130033 0)
(-0.0036741881116 -0.000167494856504 0)
(0.0507597720365 -0.0034707051149 0)
(0.0562688536055 -0.0117428304437 0)
(0.056041409991 -0.0199453374113 -1.36873139172e-27)
(0.0552218589657 -0.0281466724105 0)
(0.0541227877614 -0.0361654971469 0)
(0.0527839173135 -0.0439701572653 0)
(0.0512269025877 -0.0515198560308 0)
(0.0494816523477 -0.0587845824148 0)
(0.0475794840076 -0.0657437301808 0)
(0.0455418007302 -0.0723720079154 0)
(0.0434031903686 -0.0786648335556 0)
(0.0411824262379 -0.0846067900229 0)
(0.0388979981159 -0.0901916938202 0)
(0.0365726588774 -0.0954242089355 0)
(0.0342229347609 -0.100305066932 0)
(0.0318609659227 -0.104835318745 0)
(0.0295010140429 -0.109027682582 0)
(0.0271450178907 -0.112872146823 0)
(0.0248009539529 -0.116383883149 0)
(0.0224748147948 -0.119568477504 0)
(0.0201692834415 -0.122431521885 0)
(0.0178986742726 -0.124971375198 0)
(0.0156695047701 -0.127249770102 0)
(0.0134493391221 -0.129174563057 0)
(0.0112408417501 -0.130824600176 0)
(0.00904741965329 -0.132163148191 0)
(0.00687285580484 -0.133211615695 0)
(0.00471809319005 -0.133965928838 0)
(0.00258179989476 -0.134451110913 0)
(0.000458000693307 -0.134630066515 0)
(-0.00165742370747 -0.134522709635 0)
(-0.00376591359424 -0.134125577927 0)
(-0.00585688928967 -0.13343850432 0)
(-0.00793196482482 -0.132483387344 0)
(-0.00998463543539 -0.131214934188 0)
(-0.0120106074251 -0.12967408123 0)
(-0.0140084408182 -0.127836097718 0)
(-0.0159743216735 -0.125711235245 0)
(-0.0179060663651 -0.123273757077 0)
(-0.0197805330769 -0.120543608694 0)
(-0.0215814503858 -0.11755019655 0)
(-0.0232877247763 -0.114248258102 0)
(-0.0248899120421 -0.110682316072 0)
(-0.0263623932339 -0.106853554841 0)
(-0.0276847581568 -0.102812900884 0)
(-0.0288254075673 -0.0985318295829 0)
(-0.0297743646311 -0.0940716381337 0)
(-0.0305087441946 -0.0894611503143 0)
(-0.0310035316101 -0.0847355331279 0)
(-0.0312676357653 -0.0799697229581 0)
(-0.0312677417542 -0.0751541822778 0)
(-0.0310290383558 -0.0703956814075 0)
(-0.0305420926988 -0.0656891387705 0)
(-0.0298358621271 -0.0611289565319 0)
(-0.0289239745073 -0.0567073209172 0)
(-0.0278511049154 -0.0525097061096 0)
(-0.0266320017362 -0.0485242551541 0)
(-0.0253181056659 -0.0447847450709 0)
(-0.0238906199212 -0.0412999605944 0)
(-0.0224174376596 -0.038126493996 0)
(-0.0209498187267 -0.0352442986899 0)
(-0.019495860486 -0.0325741817811 0)
(-0.0181008913193 -0.0301331910543 0)
(-0.0167816123385 -0.0279054508149 0)
(-0.0155450033785 -0.0258744127947 0)
(-0.0143860679545 -0.0240348206073 0)
(-0.0132938768132 -0.0223065683575 0)
(-0.012310439698 -0.0207587905511 0)
(-0.0113873688256 -0.0193043732654 0)
(-0.0105453154111 -0.017967792044 0)
(-0.00979847029937 -0.0167549765523 0)
(-0.00909541051959 -0.0155917920012 0)
(-0.00846312497989 -0.0145248205395 0)
(-0.0078905557374 -0.0135268185232 0)
(-0.00736624801778 -0.0125868520699 0)
(-0.0068881526788 -0.011697795839 0)
(-0.00645672839627 -0.0108625524415 0)
(-0.00605056110157 -0.0100525225942 0)
(-0.00568792992627 -0.00930276072417 0)
(-0.00535912074516 -0.00859051717324 0)
(-0.00504723166769 -0.00790020915539 0)
(-0.00477091615494 -0.00725346062007 0)
(-0.00451605212884 -0.00662905389312 0)
(-0.00428797218718 -0.00603673540993 0)
(-0.00407814756108 -0.00546760695124 0)
(-0.00388576333164 -0.00490595801548 0)
(-0.00372253433504 -0.00436449240929 0)
(-0.0035473616811 -0.00378892625883 0)
(-0.00339371517857 -0.00319956622761 0)