/*--------------------------------*- C++ -*----------------------------------*\
| =========                 |                                                 |
| \\      /  F ield         | OpenFOAM: The Open Source CFD Toolbox           |
|  \\    /   O peration     | Version:  v1906                                 |
|   \\  /    A nd           | Web:      www.OpenFOAM.com                      |
|    \\/     M anipulation  |                                                 |
\*---------------------------------------------------------------------------*/
FoamFile
{
    version     2.0;
    format      ascii;
    class       volVectorField;
    location    "546";
    object      U;
}
// * * * * * * * * * * * * * * * * * * * * * * * * * * * * * * * * * * * * * //

dimensions      [0 1 -1 0 0 0 0];


internalField   nonuniform List<vector> 
9216
(
(0.00271005340345 -0.00271230240828 0)
(0.00285735234605 -0.00875294258123 1.17159468161e-27)
(0.00284918893479 -0.0148876245495 1.84086037166e-31)
(0.00281191016075 -0.0210226838054 0)
(0.00276014869241 -0.0270549422155 0)
(0.00269538172898 -0.0329601257391 0)
(0.00261927566821 -0.0387124028411 0)
(0.00253319589706 -0.0442887855584 0)
(0.00243841924842 -0.0496690910287 0)
(0.00233624411591 -0.0548359037338 0)
(0.00222790679292 -0.0597745668298 0)
(0.00211464267514 -0.0644730931716 0)
(0.00199757621494 -0.0689220684092 0)
(0.00187779928016 -0.0731144701911 0)
(0.00175625797519 -0.0770454962329 0)
(0.00163385423335 -0.0807123341613 0)
(0.0015113307787 -0.0841139616336 0)
(0.00138939316558 -0.0872509114518 0)
(0.00126859039066 -0.0901250812007 0)
(0.00114945270099 -0.0927395234579 0)
(0.00103236494055 -0.0950982865172 0)
(0.000917715874841 -0.0972062437472 0)
(0.000805762448145 -0.0990689719639 0)
(0.000696787248601 -0.100692621152 0)
(0.000590952934366 -0.102083827573 0)
(0.000488465721543 -0.103249618036 0)
(0.00038942053249 -0.104197349492 0)
(0.000293969182478 -0.104934638944 0)
(0.000202157660117 -0.105469321161 0)
(0.000114099544618 -0.105809397927 0)
(2.98095228187e-05 -0.105962993453 0)
(-5.06424309839e-05 -0.105938382678 0)
(-0.000127300101503 -0.105743807056 0)
(-0.000200112238477 -0.105387531606 0)
(-0.000269125647086 -0.104877847865 0)
(-0.000334314795867 -0.104223010526 0)
(-0.000395758253831 -0.103431216926 0)
(-0.000453456484753 -0.102510577763 0)
(-0.000507511482486 -0.101469092287 0)
(-0.000557945364533 -0.100314625324 0)
(-0.000604879724709 -0.0990548846872 0)
(-0.000648355061165 -0.0976974037248 0)
(-0.000688508568677 -0.0962495210419 0)
(-0.000725395418191 -0.0947183687377 0)
(-0.000759164135836 -0.0931108551711 0)
(-0.000789880644748 -0.0914336592929 0)
(-0.000817700335472 -0.0896932164538 0)
(-0.000842695884587 -0.0878957185521 0)
(-0.000865025309441 -0.0860471030568 0)
(-0.000884764380775 -0.0841530587348 0)
(-0.000902069886803 -0.0822190172847 0)
(-0.000917017518533 -0.080250163761 0)
(-0.000929759732362 -0.0782514304121 0)
(-0.000940369784813 -0.0762275110134 0)
(-0.000948993522667 -0.0741828558551 0)
(-0.000955700275897 -0.0721216887071 0)
(-0.000960628045644 -0.0700480022189 0)
(-0.000963841759484 -0.0679655764787 0)
(-0.00096547127532 -0.0658779736848 0)
(-0.000965577505491 -0.0637885570352 0)
(-0.000964282779405 -0.0617004840559 0)
(-0.000961645145783 -0.0596167250169 0)
(-0.000957780611474 -0.0575400542017 0)
(-0.000952745920483 -0.0554730670922 0)
(-0.000946652321901 -0.0534181695561 0)
(-0.000939556955315 -0.0513775936289 0)
(-0.000931567829386 -0.0493533846547 0)
(-0.000922743934007 -0.0473474156248 0)
(-0.000913191274626 -0.0453613729367 0)
(-0.00090297169388 -0.0433967697133 0)
(-0.000892189887128 -0.041454930812 0)
(-0.000880910899189 -0.0395370055352 0)
(-0.000869238219545 -0.0376439528702 0)
(-0.000857239794849 -0.0357765541952 0)
(-0.000845017398688 -0.0339353994889 0)
(-0.00083264096036 -0.0321209004375 0)
(-0.000820209547492 -0.0303332784241 0)
(-0.000807793691021 -0.0285725784382 0)
(-0.000795488389326 -0.0268386593071 0)
(-0.000783363052511 -0.0251312085865 0)
(-0.000771507009963 -0.0234497354743 0)
(-0.000759986584789 -0.0217935869044 0)
(-0.000748883557049 -0.0201619434021 0)
(-0.000738258755465 -0.0185538367605 0)
(-0.000728183688441 -0.0169681496345 0)
(-0.000718709472122 -0.015403636498 0)
(-0.000709890457535 -0.0138589304442 0)
(-0.00070175401417 -0.0123325759578 0)
(-0.000694306081715 -0.0108230631974 0)
(-0.00068747331499 -0.00932892375474 0)
(-0.000681014013954 -0.00784891457201 0)
(-0.000674227748115 -0.00638255942217 0)
(-0.000665208280775 -0.00493168620603 0)
(-0.000645334042018 -0.00351403284559 0)
(-0.000609171967987 -0.00200412334222 0)
(-0.0009246035707 -0.000924360593452 0)
(0.0087734679992 -0.00288733340305 0)
(0.00970101425125 -0.00977075695835 0)
(0.00967859286682 -0.0166413682264 -1.23031030254e-27)
(0.00954914645471 -0.0235173559591 0)
(0.00936999985794 -0.0302688299383 0)
(0.00914853134634 -0.0368740311454 0)
(0.00888911188402 -0.0433055326015 0)
(0.00859598535366 -0.0495380843797 0)
(0.00827342288024 -0.0555492764495 0)
(0.00792578334462 -0.0613197575073 0)
(0.00755731332972 -0.0668332741933 0)
(0.00717217924351 -0.0720766032322 0)
(0.00677425568895 -0.0770394227584 0)
(0.00636720834921 -0.0817141159114 0)
(0.00595430242266 -0.0860955513825 0)
(0.00553854354393 -0.0901808305874 0)
(0.00512250397334 -0.0939690402118 0)
(0.00470851116534 -0.0974609969478 0)
(0.00429848053841 -0.100659016 0)
(0.00389413699113 -0.103566687108 0)
(0.00349684251295 -0.106188682525 0)
(0.00310783769682 -0.10853057869 0)
(0.00272805584138 -0.110598710067 0)
(0.00235837509386 -0.112400036576 0)
(0.00199941477455 -0.113942038597 0)
(0.0016517928543 -0.115232622163 0)
(0.00131590412473 -0.116280045089 0)
(0.000992180689878 -0.117092849028 0)
(0.000680854224792 -0.117679805604 0)
(0.000382219801091 -0.118049863539 0)
(9.63879526054e-05 -0.118212113018 0)
(-0.000176468348072 -0.118175687325 0)
(-0.000436368773656 -0.117949863078 0)
(-0.000683229363032 -0.117543946856 0)
(-0.000917142374864 -0.11696720969 0)
(-0.00113811289598 -0.116228883747 0)
(-0.00134632480626 -0.115338129153 0)
(-0.00154186670384 -0.114304007198 0)
(-0.00172500066507 -0.113135452008 0)
(-0.00189588819311 -0.111841246056 0)
(-0.0020548581914 -0.110429994692 0)
(-0.00220213377965 -0.108910106129 0)
(-0.00233809775101 -0.107289769921 0)
(-0.00246302187477 -0.105576942149 0)
(-0.00257732865371 -0.103779328487 0)
(-0.00268132464234 -0.101904374924 0)
(-0.00277545731555 -0.0999592556143 0)
(-0.00286005405162 -0.0979508690823 0)
(-0.00293557316922 -0.0958858307524 0)
(-0.00300234996431 -0.0937704742562 0)
(-0.00306084088749 -0.091610848098 0)
(-0.00311137806168 -0.0894127213183 0)
(-0.00315440576885 -0.0871815835472 0)
(-0.00319024457965 -0.0849226540318 0)
(-0.00321931921707 -0.0826408840003 0)
(-0.00324193340873 -0.0803409678455 0)
(-0.00325848834445 -0.0780273466754 0)
(-0.0032692690289 -0.0757042204003 0)
(-0.00327465242756 -0.0733755512562 0)
(-0.00327490602045 -0.0710450755856 0)
(-0.00327038485078 -0.0687163063543 0)
(-0.00326134264568 -0.0663925436715 0)
(-0.00324811689944 -0.0640768755373 0)
(-0.00323095285874 -0.0617721864668 0)
(-0.00321017594846 -0.0594811561822 0)
(-0.00318602866357 -0.057206266156 0)
(-0.0031588296901 -0.0549497963191 0)
(-0.00312882374512 -0.0527138297115 0)
(-0.0030963270286 -0.0505002477281 0)
(-0.00306158989451 -0.0483107334195 0)
(-0.0030249284347 -0.0461467659939 0)
(-0.00298659989559 -0.0440096234662 0)
(-0.00294692052136 -0.0419003773097 0)
(-0.00290615349686 -0.0398198952177 0)
(-0.00286461336043 -0.0377688367144 0)
(-0.00282256623837 -0.0357476566771 0)
(-0.00278032139505 -0.0337566026238 0)
(-0.00273814335784 -0.031795719512 0)
(-0.00269633127337 -0.0298648491772 0)
(-0.00265514243778 -0.0279636367168 0)
(-0.00261486023098 -0.0260915324039 0)
(-0.00257572835117 -0.024247799862 0)
(-0.00253800797278 -0.0224315206175 0)
(-0.00250192168572 -0.02064160423 0)
(-0.00246769996869 -0.01887679569 0)
(-0.00243553262321 -0.0171356878025 0)
(-0.00240560197986 -0.0154167315006 0)
(-0.00237803387256 -0.0137182497298 0)
(-0.00235290135693 -0.0120384457226 0)
(-0.00233013478948 -0.0103753974655 0)
(-0.00230939983303 -0.00872698381727 0)
(-0.00228973862311 -0.00709061151595 0)
(-0.00226866532556 -0.00546206166862 0)
(-0.00223914146095 -0.00383200086145 0)
(-0.00216446462465 -0.00215962203403 0)
(-0.0020027715014 -0.000607088774462 0)
(0.0150194330863 -0.00293320869583 0)
(0.0166301835899 -0.009931550812 0)
(0.0165694645659 -0.016892419287 -1.22827103116e-27)
(0.0163384727393 -0.0238690568583 0)
(0.0160267482462 -0.0307175150012 0)
(0.015644072208 -0.0374145267968 0)
(0.015196937234 -0.0439316251937 0)
(0.014692291399 -0.0502430103376 0)
(0.0141374451367 -0.056325946353 0)
(0.0135398693272 -0.0621609471352 0)
(0.0129069412722 -0.0677317867906 0)
(0.0122458060491 -0.0730254138205 0)
(0.0115631862432 -0.0780317889531 0)
(0.0108653263984 -0.0827436644792 0)
(0.0101578739766 -0.0871563305631 0)
(0.00944590252691 -0.0912673415481 0)
(0.00873385074539 -0.0950762415021 0)
(0.00802560369101 -0.0985842964878 0)
(0.00732446674755 -0.101794245719 0)
(0.0066332799075 -0.104710073768 0)
(0.00595440400244 -0.107336809782 0)
(0.00528984699113 -0.109680351883 0)
(0.00464124597157 -0.11174731819 0)
(0.00400999153191 -0.113544920652 0)
(0.00339719647813 -0.115080860491 0)
(0.0028038113996 -0.116363240973 0)
(0.00223057743378 -0.11740049506 0)
(0.00167813153787 -0.118201324471 0)
(0.00114694481328 -0.118774647457 0)
(0.000637418772825 -0.119129553032 0)
(0.000149810982609 -0.119275261811 0)
(-0.000315665071159 -0.119221085404 0)
(-0.000758920568366 -0.118976393283 0)
(-0.00117991244136 -0.118550579975 0)
(-0.00157871941752 -0.11795302883 0)
(-0.00195545088201 -0.117193081977 0)
(-0.00231032983604 -0.116280007801 0)
(-0.00264360538236 -0.115222972396 0)
(-0.00295563286212 -0.114031010831 0)
(-0.00324678586587 -0.112713001575 0)
(-0.00351753430954 -0.111277641292 0)
(-0.003768356755 -0.109733423474 0)
(-0.00399981619326 -0.108088617689 0)
(-0.00421247343353 -0.106351253176 0)
(-0.00440696055016 -0.104529103255 0)
(-0.00458389614115 -0.102629674321 0)
(-0.00474395647532 -0.100660195545 0)
(-0.00488779345504 -0.0986276132264 0)
(-0.00501610355929 -0.0965385856968 0)
(-0.00512954924748 -0.0943994826552 0)
(-0.00522882576159 -0.0922163846516 0)
(-0.00531458665548 -0.0899950866526 0)
(-0.00538750851378 -0.0877411013091 0)
(-0.00544822113755 -0.0854596657599 0)
(-0.00549737014749 -0.0831557474988 0)
(-0.00553555223805 -0.0808340531635 0)
(-0.00556337555331 -0.0784990358039 0)
(-0.00558140019311 -0.076154904369 0)
(-0.00559019608444 -0.0738056310312 0)
(-0.00559028873558 -0.0714549601063 0)
(-0.00558221420207 -0.0691064143722 0)
(-0.00556646984114 -0.0667633024393 0)
(-0.00554356583118 -0.0644287231992 0)
(-0.00551398054724 -0.0621055710058 0)
(-0.00547820807402 -0.0597965379335 0)
(-0.00543671771652 -0.0575041166256 0)
(-0.00538999698103 -0.0552306004053 0)
(-0.00533851477631 -0.0529780840596 0)
(-0.00528275950976 -0.0507484623535 0)
(-0.00522320560029 -0.048543429397 0)
(-0.00516034653333 -0.0463644763019 0)
(-0.00509466445569 -0.0442128899488 0)
(-0.00502665828677 -0.0420897507167 0)
(-0.00495681626335 -0.0399959315185 0)
(-0.00488563939444 -0.0379320964147 0)
(-0.00481361691676 -0.0358987006535 0)
(-0.00474124554415 -0.0338959908804 0)
(-0.00466900779024 -0.0319240067427 0)
(-0.00459738751957 -0.029982583125 0)
(-0.00452685105582 -0.0280713536395 0)
(-0.00445785953662 -0.0261897551428 0)
(-0.00439085258086 -0.0243370332356 0)
(-0.0043262577762 -0.0225122490497 0)
(-0.004264476388 -0.0207142866294 0)
(-0.00420588981584 -0.0189418616439 0)
(-0.00415084597571 -0.0171935298336 0)
(-0.00409966105323 -0.0154676956877 0)
(-0.00405260283801 -0.0137626175921 0)
(-0.00400988261484 -0.0120764058837 0)
(-0.00397162903877 -0.0104069997249 0)
(-0.00393787244573 -0.0087520989251 0)
(-0.00390856074052 -0.00710898977167 0)
(-0.00388370640845 -0.00547407996357 0)
(-0.0038634828997 -0.00384122449967 0)
(-0.00383292181626 -0.0022217582168 0)
(-0.00350518972256 -0.000639573422552 0)
(0.0214132275338 -0.0029785514552 0)
(0.023727898304 -0.0100819787232 0)
(0.0236381706648 -0.0171383941484 1.22770058649e-27)
(0.0233035827111 -0.024211293251 0)
(0.0228529190357 -0.0311506626873 0)
(0.0223006341776 -0.0379317428831 0)
(0.0216561686105 -0.0445248886418 0)
(0.020929615743 -0.0509035957082 0)
(0.0201316303862 -0.0570447751608 0)
(0.0192730713619 -0.0629288877759 0)
(0.018364661808 -0.0685399054922 0)
(0.0174167259621 -0.0738651788165 0)
(0.0164389668551 -0.0788952236548 0)
(0.0154403284262 -0.0836234528435 0)
(0.0144288926228 -0.0880458760501 0)
(0.0134118530121 -0.0921607877227 0)
(0.0123955054763 -0.095968459459 0)
(0.0113852991641 -0.0994708487481 0)
(0.0103858832201 -0.102671332367 0)
(0.00940119718902 -0.105574469279 0)
(0.00843453905461 -0.108185794796 0)
(0.00748866467796 -0.11051164593 0)
(0.00656585260002 -0.112559015632 0)
(0.00566799337726 -0.114335433288 0)
(0.00479663794319 -0.115848867213 0)
(0.00395306836305 -0.117107645838 0)
(0.00313832592866 -0.118120393032 0)
(0.0023532626353 -0.11889597481 0)
(0.00159855130411 -0.119443453504 0)
(0.000874721531322 -0.119772047977 0)
(0.000182156527942 -0.119891095195 0)
(-0.000478877253157 -0.11981002801 0)
(-0.00110823783433 -0.119538310989 0)
(-0.00170589453413 -0.119085436132 0)
(-0.0022719355483 -0.118460881954 0)
(-0.00280654698282 -0.117674081559 0)
(-0.00331002458606 -0.116734391041 0)
(-0.00378275387505 -0.115651059671 0)
(-0.00422521965574 -0.114433200872 0)
(-0.00463798513086 -0.113089765551 0)
(-0.00502169919213 -0.11162951677 0)
(-0.00537707476023 -0.110061007328 0)
(-0.00570489410872 -0.108392559184 0)
(-0.00600598702597 -0.106632246201 0)
(-0.00628123469027 -0.104787879015 0)
(-0.00653154831828 -0.10286699336 0)
(-0.00675787217582 -0.100876840603 0)
(-0.00696116344396 -0.0988243816619 0)
(-0.00714239496421 -0.0967162830081 0)
(-0.00730253694087 -0.094558915755 0)
(-0.00744255994553 -0.0923583565255 0)
(-0.00756341903966 -0.0901203909659 0)
(-0.00766605750067 -0.087850518566 0)
(-0.00775139377281 -0.0855539595076 0)
(-0.00782032622856 -0.0832356622378 0)
(-0.00787372322982 -0.080900312361 0)
(-0.00791242906636 -0.0785523416003 0)
(-0.00793725711873 -0.0761959373097 0)
(-0.0079489968494 -0.0738350514152 0)
(-0.00794840982274 -0.0714734092086 0)
(-0.00793623737327 -0.0691145170365 0)
(-0.00791319892176 -0.0667616692756 0)
(-0.00787999970689 -0.0644179538715 0)
(-0.00783733068283 -0.0620862568403 0)
(-0.00778587559954 -0.0597692652591 0)
(-0.00772631166332 -0.0574694691431 0)
(-0.00765931526815 -0.0551891620006 0)
(-0.00758556271703 -0.0529304404514 0)
(-0.00750573408836 -0.0506952029333 0)
(-0.00742051348256 -0.0484851478031 0)
(-0.00733059075964 -0.0463017710692 0)
(-0.00723666106212 -0.0441463639318 0)
(-0.00713942445579 -0.0420200105348 0)
(-0.00703958469688 -0.0399235859065 0)
(-0.00693784704149 -0.0378577546368 0)
(-0.00683491642314 -0.0358229700349 0)
(-0.00673149385776 -0.0338194744489 0)
(-0.00662827425499 -0.0318473002151 0)
(-0.0065259418912 -0.0299062720592 0)
(-0.00642516807877 -0.0279960101436 0)
(-0.00632660613906 -0.0261159347311 0)
(-0.00623088903129 -0.0242652713644 0)
(-0.00613862410335 -0.0224430576655 0)
(-0.00605039058651 -0.0206481503237 0)
(-0.0059667341291 -0.0188792333902 0)
(-0.00588816374089 -0.0171348258715 0)
(-0.00581514584475 -0.015413289258 0)
(-0.00574810050969 -0.0137128315286 0)
(-0.00568739674473 -0.0120315063745 0)
(-0.00563335514543 -0.0103672005509 0)
(-0.00558626783438 -0.00871760633074 0)
(-0.00554647081808 -0.00708017076075 0)
(-0.00551446648133 -0.00545203493626 0)
(-0.0054900869268 -0.00382874880602 0)
(-0.00544784612407 -0.00223209695914 0)
(-0.00490519376612 -0.000653786622274 0)
(0.0279138568239 -0.00303809406319 0)
(0.0309343335945 -0.0102797677724 0)
(0.0308129884934 -0.0174687291209 0)
(0.0303694692202 -0.0246710126717 0)
(0.0297725850153 -0.03173175037 0)
(0.0290419172027 -0.0386244719647 0)
(0.0281903407228 -0.0453180997942 0)
(0.0272315332859 -0.0517852149533 0)
(0.0261798701688 -0.0580022855073 0)
(0.0250499307917 -0.0639497488262 0)
(0.023856047338 -0.0696119078147 0)
(0.0226119379838 -0.0749767265811 0)
(0.021330426242 -0.0800355427519 0)
(0.020023252359 -0.0847827273615 0)
(0.0187009631579 -0.0892153195167 0)
(0.017372876435 -0.0933326590535 0)
(0.0160470992296 -0.0971360345868 0)
(0.0147305931823 -0.100628359694 0)
(0.0134292658512 -0.103813884477 0)
(0.0121480832811 -0.106697946417 0)
(0.0108911860106 -0.10928676044 0)
(0.00966200781748 -0.111587246523 0)
(0.00846338378067 -0.113606890727 0)
(0.00729765081467 -0.115353635458 0)
(0.00616673126327 -0.116835793414 0)
(0.00507220547792 -0.118061980626 0)
(0.00401536705914 -0.119041063323 0)
(0.0029972681612 -0.119782114977 0)
(0.00201875060814 -0.120294379552 0)
(0.00108047038724 -0.12058723892 0)
(0.000182912425061 -0.120670178313 0)
(-0.000673598953638 -0.120552776035 0)
(-0.00148888589669 -0.120244623478 0)
(-0.00226292204066 -0.119755345282 0)
(-0.00299582298999 -0.119094544177 0)
(-0.00368784215484 -0.118271773045 0)
(-0.00433936615649 -0.117296502887 0)
(-0.00495090868353 -0.116178092025 0)
(-0.00552310367468 -0.114925756336 0)
(-0.00605669720297 -0.113548541437 0)
(-0.00655253812288 -0.112055296712 0)
(-0.00701156821211 -0.110454651962 0)
(-0.00743481081441 -0.108754996475 0)
(-0.00782335995779 -0.106964461159 0)
(-0.00817836781484 -0.105090903443 0)
(-0.00850103366817 -0.103141895392 0)
(-0.00879259108966 -0.101124714636 0)
(-0.00905429762396 -0.0990463384419 0)
(-0.0092874225333 -0.0969134404615 0)
(-0.00949323798454 -0.0947323903175 0)
(-0.00967300812907 -0.0925092555184 0)
(-0.00982798248279 -0.0902498057328 0)
(-0.00995938698751 -0.0879595189018 0)
(-0.0100684201234 -0.0856435890643 0)
(-0.0101562464369 -0.0833069353521 0)
(-0.0102239957165 -0.0809542119433 0)
(-0.0102727592038 -0.0785898184499 0)
(-0.0103035918449 -0.0762179104451 0)
(-0.0103175110609 -0.0738424096623 0)
(-0.0103155017155 -0.07146701358 0)
(-0.0102985169331 -0.0690952040535 0)
(-0.0102674850468 -0.0667302547368 0)
(-0.0102233116336 -0.0643752371281 0)
(-0.0101668874507 -0.0620330250874 0)
(-0.0100990906769 -0.0597062978725 0)
(-0.0100207947574 -0.0573975416258 0)
(-0.00993286987584 -0.0551090495592 0)
(-0.0098361897623 -0.052842920861 0)
(-0.00973163164226 -0.050601058747 0)
(-0.0096200813524 -0.048385167687 0)
(-0.00950243137041 -0.0461967503487 0)
(-0.0093795839655 -0.0440371042566 0)
(-0.00925244729466 -0.041907318776 0)
(-0.00912193666226 -0.039808272306 0)
(-0.00898896898643 -0.0377406303144 0)
(-0.00885446250026 -0.0357048439628 0)
(-0.0087193300827 -0.0337011499603 0)
(-0.00858447784665 -0.0317295712265 0)
(-0.00845079788578 -0.0297899189963 0)
(-0.00831916619344 -0.0278817958006 0)
(-0.00819043532311 -0.0260045999552 0)
(-0.00806543198298 -0.0241575308295 0)
(-0.00794494998759 -0.0223395955123 0)
(-0.00782974775561 -0.0205496159687 0)
(-0.00772054184337 -0.0187862372155 0)
(-0.00761800462124 -0.0170479352803 0)
(-0.00752275908248 -0.0153330251827 0)
(-0.00743537825719 -0.0136396673248 0)
(-0.00735638515602 -0.0119658719981 0)
(-0.00728626274184 -0.0103095011912 0)
(-0.0072254776221 -0.00866827487476 0)
(-0.00717453119661 -0.00703978133149 0)
(-0.00713395750106 -0.00542153361054 0)
(-0.00710265035691 -0.00380957901504 0)
(-0.00704527782116 -0.00222735383984 0)
(-0.00632408140254 -0.000655188269651 0)
(0.0345592255124 -0.00311354041623 0)
(0.0382964715691 -0.0105329611094 0)
(0.0381388991976 -0.0178939783839 0)
(0.0375784289603 -0.0252629989641 0)
(0.0368249527136 -0.0324794564022 0)
(0.0359036769164 -0.0395147858193 0)
(0.0348314718221 -0.0463361703572 0)
(0.0336261583989 -0.0529150895996 0)
(0.0323063456968 -0.0592275232157 0)
(0.0308907833282 -0.0652539730411 0)
(0.0293977775523 -0.0709792718585 0)
(0.0278447213344 -0.0763922786047 0)
(0.0262477482985 -0.0814854869393 0)
(0.0246215078016 -0.0862545862751 0)
(0.0229790495913 -0.0906980086662 0)
(0.0213318010303 -0.0948164883319 0)
(0.0196896173557 -0.0986126530527 0)
(0.0180608847983 -0.102090659865 0)
(0.0164526582784 -0.105255881236 0)
(0.0148708170938 -0.108114643273 0)
(0.013320225963 -0.110674013694 0)
(0.0118048905949 -0.112941635132 0)
(0.0103281013948 -0.114925597573 0)
(0.00889255966183 -0.116634343321 0)
(0.00750048505069 -0.118076597442 0)
(0.00615370236651 -0.119261317306 0)
(0.00485371011057 -0.120197655178 0)
(0.00360173095418 -0.120894929048 0)
(0.00239874869627 -0.121362597603 0)
(0.00124553241187 -0.121610236542 0)
(0.000142654281688 -0.121647510407 0)
(-0.000909508423833 -0.121484175292 0)
(-0.00191074959601 -0.121129977692 0)
(-0.0028610483761 -0.120594708214 0)
(-0.00376055627727 -0.119888125071 0)
(-0.00460959570496 -0.119019932557 0)
(-0.00540865347215 -0.11799974723 0)
(-0.00615837502283 -0.11683706586 0)
(-0.00685955490024 -0.115541234433 0)
(-0.00751312786597 -0.114121418949 0)
(-0.00812015617226 -0.112586578345 0)
(-0.00868181803648 -0.110945440078 0)
(-0.00919939254046 -0.109206478519 0)
(-0.00967424648997 -0.107377896519 0)
(-0.0101078180826 -0.10546761012 0)
(-0.0105016033047 -0.103483236603 0)
(-0.0108571395278 -0.101432085737 0)
(-0.0111759925597 -0.0993211542699 0)
(-0.0114597412418 -0.0971571234221 0)
(-0.0117099661375 -0.094946359322 0)
(-0.0119282360796 -0.0926949160596 0)
(-0.0121160993744 -0.0904085411852 0)
(-0.0122750731194 -0.0880926832599 0)
(-0.01240663763 -0.0857525011727 0)
(-0.0125122291468 -0.0833928747751 0)
(-0.0125932379492 -0.0810184164589 0)
(-0.0126510047518 -0.078633483191 0)
(-0.0126868225608 -0.0762421885871 0)
(-0.0127019366016 -0.0738484145673 0)
(-0.0126975494873 -0.0714558221999 0)
(-0.01267482401 -0.0690678613688 0)
(-0.0126348906821 -0.066687778968 0)
(-0.0125788522761 -0.0643186254261 0)
(-0.0125077924546 -0.0619632594175 0)
(-0.0124227807047 -0.0596243507587 0)
(-0.0123248806522 -0.0573043815181 0)
(-0.0122151540727 -0.0550056455325 0)
(-0.0120946676757 -0.0527302465039 0)
(-0.0119644951811 -0.0504800950124 0)
(-0.0118257217572 -0.0482569046998 0)
(-0.0116794436308 -0.0460621880348 0)
(-0.0115267698839 -0.0438972519216 0)
(-0.0113688195792 -0.0417631935593 0)
(-0.0112067210885 -0.039660896754 0)
(-0.0110416071271 -0.0375910290362 0)
(-0.0108746121262 -0.0355540396848 0)
(-0.0107068658111 -0.0335501589315 0)
(-0.010539489269 -0.0315793983283 0)
(-0.0103735877667 -0.0296415524772 0)
(-0.0102102461621 -0.0277362019938 0)
(-0.0100505215913 -0.0258627178441 0)
(-0.00989543876275 -0.0240202668175 0)
(-0.00974598303349 -0.0222078182283 0)
(-0.00960309604184 -0.0204241514861 0)
(-0.0094676696779 -0.018667864569 0)
(-0.00934054266829 -0.016937382893 0)
(-0.00922249644895 -0.0152309685782 0)
(-0.00911425446008 -0.0135467295902 0)
(-0.00901648317672 -0.0118826295428 0)
(-0.00892979966987 -0.0102364991482 0)
(-0.00885478609818 -0.00860605590659 0)
(-0.00879200878894 -0.00698893315375 0)
(-0.00874191752113 -0.00538274170393 0)
(-0.00870258670405 -0.00378353679559 0)
(-0.00862982248787 -0.00221455091191 0)
(-0.00773985216608 -0.000652395434912 0)
(0.0413863953738 -0.00320699391501 0)
(0.0458563005283 -0.0108472697159 0)
(0.0456560627772 -0.018422459087 1.21812892409e-27)
(0.0449677845582 -0.0259983717715 0)
(0.0440439178865 -0.0334072964561 0)
(0.0429159655543 -0.0406180373887 0)
(0.0416055091819 -0.0475956692097 0)
(0.0401352345184 -0.0543103964242 0)
(0.0385286544404 -0.06073772228 0)
(0.0368092695827 -0.0668583848999 0)
(0.0349998278807 -0.0726580437247 0)
(0.0331217439171 -0.0781268354876 0)
(0.0311946883368 -0.0832588414134 0)
(0.0292363390044 -0.0880515163987 0)
(0.0272622751808 -0.0925051215302 0)
(0.0252859884247 -0.0966221911408 0)
(0.0233189826442 -0.100407054967 0)
(0.0213709351621 -0.103865426896 0)
(0.0194498949211 -0.10700406396 0)
(0.0175624963952 -0.109830493841 0)
(0.0157141738604 -0.112352805059 0)
(0.0139093630897 -0.114579491909 0)
(0.0121516833795 -0.116519344872 0)
(0.0104440939668 -0.11818137711 0)
(0.00878902395129 -0.119574777828 0)
(0.00718847460085 -0.120708884219 0)
(0.00564409726888 -0.121593164658 0)
(0.00415724859358 -0.122237207327 0)
(0.00272902831454 -0.122650709783 0)
(0.00136030202451 -0.122843465248 0)
(5.17202074112e-05 -0.122825345594 0)
(-0.00119629486796 -0.122606311429 0)
(-0.00238351451096 -0.122196294549 0)
(-0.00350992482694 -0.121605282423 0)
(-0.00457571866781 -0.120843221108 0)
(-0.00558129252715 -0.119919998802 0)
(-0.00652724072988 -0.11884540956 0)
(-0.00741434846726 -0.117629119444 0)
(-0.00824358132448 -0.116280633662 0)
(-0.00901607381581 -0.114809265549 0)
(-0.00973311470966 -0.113224107959 0)
(-0.0103961320051 -0.111534007531 0)
(-0.0110066753232 -0.109747542153 0)
(-0.0115663987608 -0.107873001857 0)
(-0.0120770418594 -0.105918373263 0)
(-0.0125404118386 -0.103891327619 0)
(-0.0129583646001 -0.101799212385 0)
(-0.0133327877086 -0.0996490463042 0)
(-0.013665582718 -0.0974475177929 0)
(-0.0139586501011 -0.0952009864723 0)
(-0.0142138740361 -0.0929154875996 0)
(-0.0144331103506 -0.0905967391153 0)
(-0.0146181747704 -0.0882501509745 0)
(-0.0147708347848 -0.0858808363656 0)
(-0.0148928021553 -0.0834936243883 0)
(-0.0149857293227 -0.0810930737006 0)
(-0.0150512065839 -0.078683486645 0)
(-0.0150907631738 -0.07626892331 0)
(-0.0151058689427 -0.0738532150391 0)
(-0.0150979396006 -0.0714399768817 0)
(-0.0150683420494 -0.0690326185951 0)
(-0.015018402616 -0.0666343538173 0)
(-0.0149494146015 -0.0642482071987 0)
(-0.0148626478505 -0.061877019317 0)
(-0.0147593567501 -0.0595234493951 0)
(-0.0146407893349 -0.0571899758665 0)
(-0.0145081940225 -0.0548788950278 0)
(-0.0143628266958 -0.052592318014 0)
(-0.0142059548706 -0.0503321665006 0)
(-0.0140388617455 -0.048100167466 0)
(-0.0138628471417 -0.045897847492 0)
(-0.0136792281944 -0.0437265269401 0)
(-0.0134893370799 -0.0415873144656 0)
(-0.0132945186442 -0.0394811021213 0)
(-0.0130961254648 -0.0374085614339 0)
(-0.0128955131306 -0.0353701405754 0)
(-0.0126940334776 -0.0333660629102 0)
(-0.0124930283995 -0.0313963268996 0)
(-0.0122938221528 -0.0294607075482 0)
(-0.0120977145474 -0.0275587592558 0)
(-0.0119059731157 -0.0256898201875 0)
(-0.0117198263962 -0.0238530179331 0)
(-0.0115404566224 -0.0220472765095 0)
(-0.0113689936994 -0.0202713244142 0)
(-0.0112065090267 -0.0185237037504 0)
(-0.0110540108591 -0.0168027800901 0)
(-0.0109124401796 -0.015106753165 0)
(-0.0107826687453 -0.0134336684162 0)
(-0.0106654988346 -0.0117814297922 0)
(-0.0105616662816 -0.010147815444 0)
(-0.0104718454684 -0.00853050294021 0)
(-0.0103966464933 -0.00692709368771 0)
(-0.0103364590424 -0.00533515162751 0)
(-0.0102887400838 -0.0037506034767 0)
(-0.0102009787239 -0.0021961772576 0)
(-0.00914644182594 -0.000647317318948 0)
(0.0484364879095 -0.00332056674628 0)
(0.0536590208301 -0.0112293263268 0)
(0.0534077606497 -0.019064679047 -1.21748027673e-27)
(0.0525775952098 -0.0268911703669 0)
(0.0514655269367 -0.0345321843645 0)
(0.050110298638 -0.0419532449339 0)
(0.0485391610699 -0.0491169027041 0)
(0.0467806104725 -0.055991942482 0)
(0.0448639293362 -0.0625534857911 0)
(0.0428181056502 -0.068782796998 0)
(0.0406709075626 -0.0746667948231 0)
(0.0384481834841 -0.0801974154903 0)
(0.0361733937636 -0.085370889368 0)
(0.0338673563246 -0.0901869972333 0)
(0.0315481749936 -0.0946483574243 0)
(0.0292313117663 -0.0987597794897 0)
(0.0269297634006 -0.102527705426 0)
(0.024654304999 -0.105959747218 0)
(0.0224137690161 -0.109064320169 0)
(0.020215333867 -0.111850365042 0)
(0.0180648032504 -0.11432714825 0)
(0.0159668624408 -0.116504127402 0)
(0.0139253033715 -0.118390869018 0)
(0.0119432136699 -0.119997005596 0)
(0.0100231288058 -0.12133222017 0)
(0.00816714832837 -0.122406247857 0)
(0.00637701999913 -0.123228885551 0)
(0.00465419613509 -0.123810002853 0)
(0.00299986815414 -0.1241595495 0)
(0.00141498413886 -0.124287550641 0)
(-9.97380708399e-05 -0.124204121012 0)
(-0.00154382826361 -0.12391941474 0)
(-0.00291704066064 -0.123443612367 0)
(-0.00421937053873 -0.122786916921 0)
(-0.00545105539459 -0.121959497134 0)
(-0.0066125711502 -0.120971458783 0)
(-0.00770462718445 -0.119832807125 0)
(-0.00872815830972 -0.118553410193 0)
(-0.00968431314927 -0.117142963299 0)
(-0.010574439972 -0.115610955628 0)
(-0.0114000696155 -0.113966639604 0)
(-0.0121628967646 -0.112219003538 0)
(-0.0128647592683 -0.1103767479 0)
(-0.0135076168231 -0.108448265463 0)
(-0.0140935286502 -0.106441625394 0)
(-0.0146246314744 -0.104364561335 0)
(-0.0151031173353 -0.102224463401 0)
(-0.015531212499 -0.100028373991 0)
(-0.0159111569122 -0.097782987237 0)
(-0.0162451854422 -0.0954946518907 0)
(-0.0165355102939 -0.0931693773975 0)
(-0.0167843058429 -0.0908128428555 0)
(-0.0169936952247 -0.0884304084875 0)
(-0.017165739893 -0.0860271292186 0)
(-0.0173024313954 -0.0836077698515 0)
(-0.0174056864887 -0.0811768213134 0)
(-0.0174773446774 -0.078738517365 0)
(-0.017519169123 -0.0762968511751 0)
(-0.0175328497936 -0.0738555911388 0)
(-0.0175200095779 -0.0714182953757 0)
(-0.0174822120105 -0.0689883243859 0)
(-0.0174209711272 -0.0665688514625 0)
(-0.0173377619396 -0.0641628705512 0)
(-0.0172340319266 -0.0617732014119 0)
(-0.0171112119931 -0.0594024920508 0)
(-0.0169707272941 -0.0570532185664 0)
(-0.0168140064777 -0.0547276826429 0)
(-0.0166424898633 -0.0524280070804 0)
(-0.0164576353224 -0.0501561297739 0)
(-0.0162609225634 -0.0479137966701 0)
(-0.0160538548561 -0.0457025541738 0)
(-0.015837959082 -0.0435237415439 0)
(-0.0156147833922 -0.0413784836896 0)
(-0.0153858934854 -0.0392676848178 0)
(-0.0151528669638 -0.0371920232013 0)
(-0.0149172868172 -0.0351519473769 0)
(-0.0146807335822 -0.0331476738806 0)
(-0.0144447771856 -0.0311791866848 0)
(-0.0142109680443 -0.0292462383069 0)
(-0.0139808283394 -0.0273483526383 0)
(-0.0137558430346 -0.0254848293731 0)
(-0.0135374514538 -0.0236547500016 0)
(-0.0133270389897 -0.0218569852046 0)
(-0.0131259296757 -0.0200902035575 0)
(-0.0129353792287 -0.0183528813877 0)
(-0.0127565692517 -0.0166433136947 0)
(-0.0125906022911 -0.0149596261011 0)
(-0.0124384983964 -0.0132997878698 0)
(-0.012301192895 -0.0116616267241 0)
(-0.0121795354881 -0.0100428460469 0)
(-0.0120742888928 -0.00844104745986 0)