/*--------------------------------*- C++ -*----------------------------------*\
| =========                 |                                                 |
| \\      /  F ield         | OpenFOAM: The Open Source CFD Toolbox           |
|  \\    /   O peration     | Version:  v1906                                 |
|   \\  /    A nd           | Web:      www.OpenFOAM.com                      |
|    \\/     M anipulation  |                                                 |
\*---------------------------------------------------------------------------*/
FoamFile
{
    version     2.0;
    format      ascii;
    class       volVectorField;
    location    "623";
    object      U;
}
// * * * * * * * * * * * * * * * * * * * * * * * * * * * * * * * * * * * * * //

dimensions      [0 1 -1 0 0 0 0];


internalField   nonuniform List<vector> 
9216
(
(0.00155989665998 -0.00156105467371 0)
(0.00159969822079 -0.00486470124448 6.53961838834e-28)
(0.00158828730308 -0.008176246311 1.08299731232e-31)
(0.00156507006524 -0.0114675292034 0)
(0.00153383208541 -0.0146999608748 0)
(0.00149542380364 -0.0178594693168 0)
(0.00145064409489 -0.020931983182 0)
(0.00140034765771 -0.0239050991602 0)
(0.00134526059569 -0.0267681000948 0)
(0.00128624787296 -0.0295118793253 0)
(0.00122399430524 -0.0321290042333 0)
(0.00115931725085 -0.0346135618082 0)
(0.00109279249892 -0.0369611477617 0)
(0.00102513035006 -0.0391686507232 0)
(0.000956754240414 -0.0412341934443 0)
(0.000888240030319 -0.0431568908303 0)
(0.000819847330386 -0.0449367769047 0)
(0.000752018285686 -0.0465745681816 0)
(0.000684861126789 -0.0480715994102 0)
(0.000618703027748 -0.0494296114306 0)
(0.000553525618389 -0.0506507080583 0)
(0.000489567005908 -0.0517371779841 0)
(0.000426711226333 -0.0526914746386 0)
(0.000365134068598 -0.0535160733706 0)
(0.000304649486366 -0.0542134721326 0)
(0.000245394578097 -0.0547860830004 0)
(0.000187138182826 -0.0552362483322 0)
(0.000129999425483 -0.055566164043 0)
(7.37243427417e-05 -0.0557779081221 0)
(1.84329346539e-05 -0.0558733937868 0)
(-3.61317876331e-05 -0.0558544148347 0)
(-8.98357302718e-05 -0.0557226129284 0)
(-0.000142915918029 -0.0554795340042 0)
(-0.000195201430945 -0.0551266483944 0)
(-0.000246890463101 -0.0546653986057 0)
(-0.000297763983378 -0.0540972476564 0)
(-0.000347964846819 -0.0534237327417 0)
(-0.000397216061145 -0.0526465385269 0)
(-0.00044559568883 -0.0517675453756 0)
(-0.000492769045816 -0.0507889167261 0)
(-0.000538752507836 -0.0497131305418 0)
(-0.000583167262012 -0.0485430662905 0)
(-0.000625983881977 -0.047282006347 0)
(-0.000666803108442 -0.0459337092513 0)
(-0.000705571966468 -0.0445023765875 0)
(-0.000741892963491 -0.0429927126814 0)
(-0.000775700887535 -0.0414098687691 0)
(-0.000806600694806 -0.0397595101842 0)
(-0.000834496375154 -0.0380477712051 0)
(-0.00085896146635 -0.0362813676749 0)
(-0.00087981929765 -0.0344675960952 0)
(-0.000896562589839 -0.0326145106125 0)
(-0.000908897765405 -0.0307309541659 0)
(-0.000916241052664 -0.0288267447569 0)
(-0.000918241141915 -0.0269126362313 0)
(-0.000914364296467 -0.0250003769499 0)
(-0.000904375457209 -0.0231024763776 0)
(-0.000887973159503 -0.0212320641718 0)
(-0.000865177543738 -0.0194025124731 0)
(-0.000835993289049 -0.0176272181084 0)
(-0.000800730130553 -0.01591920796 0)
(-0.000759749603794 -0.0142908741937 0)
(-0.000713770462294 -0.0127534607149 0)
(-0.000663715498033 -0.011316562737 0)
(-0.000610920045117 -0.0099873581393 0)
(-0.000556813791046 -0.00877013185314 0)
(-0.000502890772865 -0.00766601199 0)
(-0.000450382901346 -0.00667327302984 0)
(-0.000400279086049 -0.00578780910573 0)
(-0.000353225928586 -0.00500384619572 0)
(-0.00030967946469 -0.00431444528946 0)
(-0.000269907071291 -0.00371194804278 0)
(-0.000234059485979 -0.00318825254874 0)
(-0.000202114646984 -0.00273513925607 0)
(-0.000173911479046 -0.00234459081667 0)
(-0.000149143989997 -0.00200910153159 0)
(-0.000127458748626 -0.00172188063228 0)
(-0.000108493068597 -0.00147689928329 0)
(-9.19542777612e-05 -0.00126881835805 0)
(-7.757485505e-05 -0.00109286815167 0)
(-6.51295327507e-05 -0.000944787971351 0)
(-5.43633060252e-05 -0.000820798363472 0)
(-4.49932724544e-05 -0.00071764325382 0)
(-3.63732520038e-05 -0.000633352890212 0)
(-2.75695823883e-05 -0.000556581738004 0)
(-2.41782409485e-05 -0.000513007082567 0)
(-2.25602211158e-05 -0.000462404054382 0)
(-1.94307790458e-05 -0.000420447106239 0)
(-1.92584957392e-05 -0.00038513497077 0)
(-2.06114204499e-05 -0.00034515542435 0)
(-2.06136804969e-05 -0.000305224310655 0)
(-2.10052193102e-05 -0.000262652122417 0)
(-2.39600379514e-05 -0.000216152711731 0)
(-2.7401089704e-05 -0.000164895444194 0)
(-3.11982780773e-05 -0.000102373187461 0)
(-3.36784288027e-05 -3.28809932601e-05 0)
(0.0048775854643 -0.00161733401484 0)
(0.00513880817848 -0.00517764861044 0)
(0.00509932175954 -0.00870654924805 -6.72447793319e-28)
(0.00502309899935 -0.0122162332552 0)
(0.00492168203249 -0.0156598055918 0)
(0.00479768200137 -0.0190240570328 0)
(0.00465340443733 -0.0222943169846 0)
(0.00449140918748 -0.0254574947647 0)
(0.00431413719675 -0.0285022185871 0)
(0.00412424130113 -0.0314188770166 0)
(0.00392407814566 -0.0341996419514 0)
(0.00371612403021 -0.0368383605825 0)
(0.00350240518716 -0.0393304792475 0)
(0.00328502223554 -0.0416728620442 0)
(0.00306552912342 -0.0438636639466 0)
(0.00284556414935 -0.0459021217351 0)
(0.00262617404659 -0.0477884159601 0)
(0.00240854113903 -0.0495234681602 0)
(0.0021932463053 -0.051108817829 0)
(0.00198107938107 -0.0525464459289 0)
(0.00177223612869 -0.0538386794725 0)
(0.00156720058965 -0.0549880491773 0)
(0.00136587558554 -0.0559972239847 0)
(0.00116852732836 -0.0568689029791 0)
(0.000974852715939 -0.0576057768542 0)
(0.000784978550091 -0.0582104508681 0)
(0.000598472821008 -0.0586854284582 0)
(0.000415391002698 -0.05903306179 0)
(0.000235240485942 -0.0592555536146 0)
(5.80667309302e-05 -0.0593549344936 0)
(-0.000116620352678 -0.0593330747957 0)
(-0.000288730218882 -0.0591917017477 0)
(-0.000458685406212 -0.0589324247159 0)
(-0.000626288243404 -0.0585567612794 0)
(-0.000791833391058 -0.0580661895714 0)
(-0.000954967061873 -0.0574622014304 0)
(-0.00111580506332 -0.0567463646779 0)
(-0.00127380213056 -0.0559203961509 0)
(-0.00142886818344 -0.0549862276944 0)
(-0.00158026344576 -0.0539460871356 0)
(-0.00172770469881 -0.0528025542692 0)
(-0.00187029823657 -0.051558633164 0)
(-0.00200762383332 -0.0502177816673 0)
(-0.00213871031761 -0.0487839596683 0)
(-0.00226307838683 -0.0472616231199 0)
(-0.00237975305462 -0.0456557467521 0)
(-0.00248823980201 -0.0439717938708 0)
(-0.00258756363568 -0.0422157381863 0)
(-0.00267715743878 -0.0403940488351 0)
(-0.00275593037566 -0.0385137601099 0)
(-0.00282307390044 -0.0365825206036 0)
(-0.00287720283734 -0.0346087451465 0)
(-0.00291713173353 -0.0326017268678 0)
(-0.00294117426559 -0.0305718145265 0)
(-0.00294795525526 -0.0285304627365 0)
(-0.00293590788917 -0.0264902528084 0)
(-0.0029040651678 -0.0244646948697 0)
(-0.00285161059141 -0.0224679824254 0)
(-0.00277844584337 -0.0205146183934 0)
(-0.00268471829721 -0.0186191158603 0)
(-0.00257125734154 -0.0167956661175 0)
(-0.00243928923144 -0.0150578459425 0)
(-0.00229094325645 -0.0134181758067 0)
(-0.00212927986433 -0.011887487892 0)
(-0.00195861437898 -0.0104739341098 0)
(-0.00178378918548 -0.00918223051159 0)
(-0.00160970387529 -0.00801336494441 0)
(-0.00144046644192 -0.00696497228943 0)
(-0.001279209219 -0.0060320744094 0)
(-0.00112798552904 -0.00520797796835 0)
(-0.000988167830297 -0.0044849141275 0)
(-0.000860613750487 -0.00385443036696 0)
(-0.000745790433957 -0.00330762200025 0)
(-0.00064363971253 -0.00283543924749 0)
(-0.000553595074207 -0.00242907879315 0)
(-0.000474627244056 -0.00208037963327 0)
(-0.000405519619487 -0.00178208359624 0)
(-0.000345084157436 -0.00152786529588 0)
(-0.000292368642587 -0.00131216659794 0)
(-0.000246559887984 -0.00113000347279 0)
(-0.000206950963927 -0.000976872260073 0)
(-0.00017282271038 -0.00084869919458 0)
(-0.000143454217408 -0.000741743196086 0)
(-0.000117892800937 -0.000652760100802 0)
(-9.46725535615e-05 -0.000573111361122 0)
(-7.96320738516e-05 -0.00050349550289 0)
(-6.85136855759e-05 -0.000451909728913 0)
(-5.86799977175e-05 -0.000410961628389 0)
(-5.6692950109e-05 -0.000370091910254 0)
(-5.98215078183e-05 -0.000337425547149 0)
(-6.15591304247e-05 -0.000303123326357 0)
(-6.49796440391e-05 -0.000258682021174 0)
(-7.17528176216e-05 -0.000211096666834 0)
(-8.88970869477e-05 -0.000167601052565 0)
(-0.000109286455825 -0.000107437392378 0)
(-9.93086587644e-05 -2.94655195958e-05 0)
(0.00825455184185 -0.00163862540097 0)
(0.00870104675268 -0.00524291625955 0)
(0.0086267204311 -0.0088086340436 -6.71500982154e-28)
(0.00849447288696 -0.0123576207235 0)
(0.00832068826571 -0.0158383165141 0)
(0.00810895756941 -0.0192368604 0)
(0.00786305296096 -0.0225381260861 0)
(0.00758716945917 -0.0257287989283 0)
(0.00728560361544 -0.0287974035974 0)
(0.00696276096898 -0.0317343536572 0)
(0.00662283276169 -0.0345319328485 0)
(0.0062698835158 -0.0371841938581 0)
(0.00590754512757 -0.0396868368223 0)
(0.00553919233774 -0.0420370325235 0)
(0.00516765652812 -0.0442332520391 0)
(0.00479548226797 -0.0462750656733 0)
(0.00442464952725 -0.0481629679936 0)
(0.00405689453778 -0.0498981886969 0)
(0.00369342449965 -0.0514825399665 0)
(0.0033352846743 -0.0529182581786 0)
(0.00298305225722 -0.0542078851577 0)
(0.00263723560165 -0.0553541464152 0)
(0.0022979398294 -0.0563598666602 0)
(0.00196528926194 -0.0572278821137 0)
(0.00163906315259 -0.0579609859503 0)
(0.00131913679113 -0.0585618697133 0)
(0.0010050901919 -0.0590330929098 0)
(0.000696665720157 -0.0593770487882 0)
(0.000393354984891 -0.0595959544539 0)
(9.48713707985e-05 -0.0596918389192 0)
(-0.000199277596355 -0.0596665532062 0)
(-0.000489305288578 -0.0595217773658 0)
(-0.000775585408108 -0.0592590510894 0)
(-0.00105815805203 -0.0588798078118 0)
(-0.00133717598263 -0.058385422955 0)
(-0.00161241111585 -0.0577772707266 0)
(-0.00188370896433 -0.0570567916058 0)
(-0.00215050630604 -0.0562255679842 0)
(-0.00241229585768 -0.0552854017628 0)
(-0.00266816758631 -0.0542383965469 0)
(-0.00291728516055 -0.0530870296514 0)
(-0.00315845861344 -0.0518342214245 0)
(-0.00339062656329 -0.0504833802326 0)
(-0.00361245598307 -0.0490384381942 0)
(-0.0038228097677 -0.0475038537806 0)
(-0.00402035192476 -0.0458846075091 0)
(-0.00420396483133 -0.0441861701399 0)
(-0.00437232795032 -0.0424144851136 0)
(-0.00452425148833 -0.0405759508528 0)
(-0.00465821728768 -0.0386774569626 0)
(-0.00477264135775 -0.0367264570464 0)
(-0.00486543981913 -0.0347311261709 0)
(-0.0049343281506 -0.0327005537046 0)
(-0.00497656992861 -0.0306449761431 0)
(-0.00498947124948 -0.0285759347571 0)
(-0.00497040796947 -0.0265063163166 0)
(-0.0049174374848 -0.0244501594564 0)
(-0.00482930014842 -0.0224222795861 0)
(-0.00470565019833 -0.020437845076 0)
(-0.00454686745677 -0.0185120137273 0)
(-0.00435409444012 -0.0166597025961 0)
(-0.0041293543758 -0.0148953769219 0)
(-0.00387581159173 -0.0132328195619 0)
(-0.00359873282461 -0.0116844159521 0)
(-0.0033057702805 -0.0102595796526 0)
(-0.00300587600589 -0.00896345014763 0)
(-0.00270791723672 -0.00779649081854 0)
(-0.00241923934307 -0.00675509664062 0)
(-0.00214507474173 -0.00583284456291 0)
(-0.00188864753216 -0.00502183348316 0)
(-0.00165199463112 -0.00431348960278 0)
(-0.00143651391723 -0.00369876606876 0)
(-0.00124302988345 -0.0031681352696 0)
(-0.00107148287147 -0.0027118282189 0)
(-0.000920796139412 -0.00232035514855 0)
(-0.000789018507865 -0.00198509348898 0)
(-0.000673816078011 -0.00169867355674 0)
(-0.000573043921664 -0.00145495977418 0)
(-0.000485096641708 -0.00124865933787 0)
(-0.000408713222988 -0.00107495399573 0)
(-0.000342755041037 -0.00092941351489 0)
(-0.000286133718193 -0.00080800940655 0)
(-0.000237863769469 -0.00070704464636 0)
(-0.000197058182349 -0.00062353343211 0)
(-0.000163546898905 -0.000548696637107 0)
(-0.00013869148188 -0.000485435464424 0)
(-0.000120251717061 -0.00044495561587 0)
(-0.000102041548042 -0.000389783819658 0)
(-9.11193836127e-05 -0.000343031409061 0)
(-9.30074742637e-05 -0.00031464693115 0)
(-0.000105259097508 -0.000291563313801 0)
(-0.000108141771941 -0.000233974051762 0)
(-0.000123458215695 -0.000193299731178 0)
(-0.000144911817719 -0.000141231130224 0)
(-0.000163883667973 -8.50270363785e-05 0)
(-0.000160003996167 -2.62215049028e-05 0)
(0.0116968932125 -0.00166499044403 0)
(0.012334468819 -0.00532547920159 0)
(0.0122272330275 -0.00894384110739 6.71412090054e-28)
(0.0120368979753 -0.0125442519826 0)
(0.011787109832 -0.0160729235593 0)
(0.0114831831437 -0.019515206502 0)
(0.0111306614313 -0.0228553780688 0)
(0.0107356178678 -0.026079787187 0)
(0.0103043535338 -0.029176830965 0)
(0.00984321321995 -0.0321369862925 0)
(0.00935831546782 -0.0349527521908 0)
(0.00885545328821 -0.0376185243672 0)
(0.00833989519191 -0.0401304308378 0)
(0.00781638180445 -0.042486130736 0)
(0.00728899642715 -0.0446846058957 0)
(0.00676124430765 -0.0467259432427 0)
(0.00623597187497 -0.0486111319414 0)
(0.00571550281098 -0.0503418680265 0)
(0.00520157959329 -0.0519203846497 0)
(0.00469553050031 -0.0533492963915 0)
(0.00419821180227 -0.0546314712589 0)
(0.00371018731091 -0.0557699166358 0)
(0.00323165852808 -0.056767690193 0)
(0.00276264688799 -0.0576278217776 0)
(0.0023029073893 -0.0583532558574 0)
(0.00185211072467 -0.0589468016611 0)
(0.00140974181217 -0.0594110999722 0)
(0.000975282870451 -0.0597485956503 0)
(0.000548101176517 -0.0599615243321 0)
(0.000127635734059 -0.0600519043475 0)
(-0.000286720461568 -0.0600215449696 0)
(-0.000695428791051 -0.0598720529699 0)
(-0.00109892536011 -0.0596048633043 0)
(-0.00149742539768 -0.0592212752662 0)
(-0.00189104722579 -0.0587225015176 0)
(-0.00227961894756 -0.0581097293497 0)
(-0.00266281192402 -0.0573841943396 0)
(-0.00303996132248 -0.0565472636317 0)
(-0.00341021896187 -0.0556005258011 0)
(-0.00377240165461 -0.0545458836156 0)
(-0.00412517286752 -0.0533856416011 0)
(-0.00446692732582 -0.0521225840972 0)
(-0.00479600012391 -0.0507600320666 0)
(-0.0051105789025 -0.0493018766353 0)
(-0.00540891584345 -0.0477525786866 0)
(-0.00568923050473 -0.0461171411545 0)
(-0.00594987190505 -0.0444010524652 0)
(-0.00618915319676 -0.042610224664 0)
(-0.00640540520039 -0.0407509407538 0)
(-0.00659670601571 -0.0388298532833 0)
(-0.00676083104468 -0.0368540587679 0)
(-0.00689495657856 -0.034831286458 0)
(-0.00699567670713 -0.0327701934774 0)
(-0.00705895343658 -0.0306807374779 0)
(-0.00708051835909 -0.0285745054976 0)
(-0.00705631634756 -0.0264648520798 0)
(-0.00698323402992 -0.0243666752983 0)
(-0.0068594907314 -0.022295790025 0)
(-0.0066845175341 -0.0202683636432 0)
(-0.00645896254667 -0.0183004224858 0)
(-0.00618410274343 -0.0164078255563 0)
(-0.00586250928673 -0.0146061946128 0)
(-0.00549756803633 -0.0129113147545 0)
(-0.00509664440826 -0.0113385241991 0)
(-0.00467164819447 -0.00989967387226 0)
(-0.00423703399275 -0.0086007030537 0)
(-0.00380692676702 -0.00744099510896 0)
(-0.00339257690862 -0.00641454681485 0)
(-0.00300120718583 -0.00551225092887 0)
(-0.00263656231955 -0.00472420755965 0)
(-0.0023008124467 -0.00404080835514 0)
(-0.00199583918193 -0.00345237371883 0)
(-0.00172305890635 -0.00294852598603 0)
(-0.00148253341444 -0.00251829859035 0)
(-0.00127252013096 -0.00215098163192 0)
(-0.00108969491051 -0.00183714297319 0)
(-0.000930074342105 -0.00156931811997 0)
(-0.000790239489938 -0.00134189908281 0)
(-0.000668032345908 -0.00115020178662 0)
(-0.000561947390226 -0.000989700159838 0)
(-0.000470473445232 -0.000856055257846 0)
(-0.000392127605233 -0.000745339235925 0)
(-0.000325599136592 -0.000654000853888 0)
(-0.000269829824518 -0.000579433157743 0)
(-0.000223911551218 -0.000509661426189 0)
(-0.000193136175129 -0.000461005434667 0)
(-0.000167702123605 -0.000414563275957 0)
(-0.000145582510166 -0.000362206166898 0)
(-0.000135278535544 -0.000326964055947 0)
(-0.000128652840271 -0.000280998553874 0)
(-0.000136633894993 -0.00024231260188 0)
(-0.000160303400592 -0.000215080786899 0)
(-0.0001690457215 -0.000157100650342 0)
(-0.000191726303457 -0.000109983758069 0)
(-0.000214583504657 -6.69076539839e-05 0)
(-0.000214144426315 -2.18862930413e-05 0)
(0.0152013622798 -0.00170028830722 0)
(0.0160298450121 -0.00543702522348 0)
(0.0158874600931 -0.00912846121303 0)
(0.0156354723318 -0.0127990527249 0)
(0.0153050556825 -0.0163928881481 0)
(0.0149035142339 -0.0198943259706 0)
(0.0144384326369 -0.0232868822963 0)
(0.0139180434395 -0.0265564662314 0)
(0.0133508731615 -0.02969132966 0)
(0.0127454305074 -0.0326820681761 0)
(0.0121099056378 -0.0355215168682 0)
(0.0114519672862 -0.0382045781535 0)
(0.0107785779631 -0.0407280043 0)
(0.010095915516 -0.0430901511649 0)
(0.0094092981068 -0.0452907250961 0)
(0.00872320743032 -0.0473305332636 0)
(0.00804129004572 -0.0492112518027 0)
(0.00736644348503 -0.0509352144449 0)
(0.00670085498839 -0.0525052288516 0)
(0.00604611455472 -0.0539244177447 0)
(0.00540326089705 -0.0551960875316 0)
(0.00477289747487 -0.0563236186571 0)
(0.00415522870044 -0.0573103783426 0)
(0.00355016776161 -0.0581596494822 0)
(0.00295735759927 -0.0588745761289 0)
(0.00237626878097 -0.0594581200675 0)
(0.00180620718909 -0.0599130294075 0)
(0.00124640556509 -0.0602418151814 0)
(0.000696023542349 -0.0604467378141 0)
(0.000154238394786 -0.0605298004194 0)
(-0.000379756540546 -0.0604927562391 0)
(-0.000906657507362 -0.0603371131155 0)
(-0.00142704957767 -0.0600641646459 0)
(-0.0019413086065 -0.0596750265633 0)
(-0.0024496009057 -0.0591706872508 0)
(-0.00295178757138 -0.0585520740328 0)
(-0.00344743389662 -0.0578201345482 0)
(-0.00393573078046 -0.0569759317336 0)
(-0.00441553055499 -0.0560207492528 0)
(-0.00488530486101 -0.0549562024698 0)
(-0.00534322463976 -0.0537843467653 0)
(-0.00578716884711 -0.052507774263 0)
(-0.00621485324731 -0.0511296864437 0)
(-0.00662388121521 -0.0496539327077 0)
(-0.00701189220888 -0.0480850036945 0)
(-0.00737660280935 -0.0464279770033 0)
(-0.0077158980794 -0.0446884172932 0)
(-0.0080277672847 -0.042872250105 0)
(-0.0083102353786 -0.0409856391695 0)
(-0.00856110956555 -0.0390349190314 0)
(-0.00877772085261 -0.0370266419134 0)
(-0.00895655720138 -0.0349678020053 0)
(-0.00909305164051 -0.032866274904 0)
(-0.00918153702622 -0.0307314351415 0)
(-0.00921568958755 -0.028574807473 0)
(-0.00918940626465 -0.0264104343557 0)
(-0.00909802042963 -0.0242546296055 0)
(-0.00893929433007 -0.0221247538639 0)
(-0.00871246272719 -0.0200384050222 0)
(-0.00841881730362 -0.0180125875262 0)
(-0.00805934230325 -0.0160641421202 0)
(-0.0076371373483 -0.0142096436349 0)
(-0.00715339549475 -0.0124676697066 0)
(-0.00661710941338 -0.0108591303389 0)
(-0.00604619025685 -0.00940052877409 0)
(-0.00546324697559 -0.00809921992231 0)
(-0.00489003597775 -0.00695246299963 0)
(-0.00434281531925 -0.0059497506744 0)
(-0.0038303287384 -0.00507715400849 0)
(-0.00335519618492 -0.00432171896286 0)
(-0.0029185362148 -0.00367300823181 0)
(-0.00252281388445 -0.00312122072231 0)
(-0.00217075792002 -0.00265500849608 0)
(-0.00186298850736 -0.00226144312578 0)
(-0.00159684576003 -0.00192764846107 0)
(-0.00136680666744 -0.00164276069622 0)
(-0.00116613246927 -0.00139931500222 0)
(-0.000989531647943 -0.00119300088419 0)
(-0.000834689585862 -0.00102043865589 0)
(-0.000700438176661 -0.000877456623219 0)
(-0.000584925480068 -0.000759646915097 0)
(-0.0004861727958 -0.000663180834237 0)
(-0.000402495056093 -0.000584773041403 0)
(-0.000332517796525 -0.000521473616012 0)
(-0.000274875869278 -0.00046066291428 0)
(-0.000244362098079 -0.000427417545463 0)
(-0.000219076154516 -0.000385012991905 0)
(-0.0001942285076 -0.000337721958335 0)
(-0.000172062935583 -0.000283095236803 0)
(-0.000169593989382 -0.000247652075074 0)
(-0.000171549422811 -0.000202085940985 0)
(-0.000196990352583 -0.000174024388142 0)
(-0.000226272597515 -0.000137501629472 0)
(-0.000234724601298 -8.80482881322e-05 0)
(-0.000248384213593 -5.14436448231e-05 0)
(-0.00024783786694 -1.70332813414e-05 0)
(0.0187893111558 -0.00174548168469 0)
(0.0198112004836 -0.00558053016946 0)
(0.0196302664611 -0.00936654691211 0)
(0.0193115064594 -0.0131275282349 0)
(0.0188939905414 -0.0168049326602 0)
(0.0183873390285 -0.0203818610387 0)
(0.017801533981 -0.0238408847817 0)
(0.0171473300121 -0.0271673875539 0)
(0.0164357988627 -0.0303494895859 0)
(0.0156779003403 -0.0333780041012 0)
(0.0148841111287 -0.036246270076 0)
(0.0140641471076 -0.0389499108663 0)
(0.0132267590719 -0.0414865453605 0)
(0.0123796230085 -0.0438554770423 0)
(0.0115292873388 -0.0460573838879 0)
(0.0106811930887 -0.0480940244306 0)
(0.00983972122717 -0.0499679719899 0)
(0.00900828624755 -0.0516823819274 0)
(0.00818942880198 -0.0532407949228 0)
(0.0073849340656 -0.0546469740933 0)
(0.00659593000084 -0.0559047739825 0)
(0.00582300060429 -0.0570180362851 0)
(0.00506626945106 -0.057990508942 0)
(0.00432549567355 -0.0588257832813 0)
(0.00360013760205 -0.0595272463906 0)
(0.0028894314949 -0.0600980445654 0)
(0.00219243926828 -0.0605410564153 0)
(0.00150811639322 -0.0608588730558 0)
(0.000835351886489 -0.0610537855771 0)
(0.000173034040432 -0.0611277782044 0)
(-0.00047990887507 -0.0610825350208 0)
(-0.00112443748253 -0.0609194398533 0)
(-0.00176135417652 -0.0606396077708 0)
(-0.0023912253116 -0.0602439192987 0)
(-0.00301432998025 -0.0597330723442 0)
(-0.0036305823549 -0.0591076531824 0)
(-0.00423948895394 -0.0583682271992 0)
(-0.00484009010424 -0.0575154485801 0)
(-0.00543094977644 -0.0565501866497 0)
(-0.0060101443672 -0.0554736627867 0)
(-0.00657531403143 -0.0542875888403 0)
(-0.00712372426166 -0.0529942939743 0)
(-0.00765239377157 -0.0515968235791 0)
(-0.00815822587157 -0.0500989924747 0)
(-0.00863818231173 -0.0485053747594 0)
(-0.0090894183973 -0.0468212189719 0)
(-0.00950939605897 -0.0450522862333 0)
(-0.0098958770898 -0.0432046284809 0)
(-0.0102468049047 -0.0412843466702 0)
(-0.0105599870755 -0.0392973994092 0)
(-0.0108326330152 -0.0372495639899 0)
(-0.0110607480152 -0.035146671695 0)
(-0.0112385949792 -0.0329952245648 0)
(-0.0113584494878 -0.0308034234581 0)
(-0.0114110756461 -0.0285824195072 0)
(-0.0113872225367 -0.0263472244169 0)
(-0.0112798974844 -0.024116601591 0)
(-0.0110869359665 -0.0219102674829 0)
(-0.0108072916131 -0.0197479188371 0)
(-0.0104442670345 -0.0176473316002 0)
(-0.00999742458051 -0.0156261724444 0)
(-0.00947210774527 -0.0137002720945 0)
(-0.00886030518809 -0.0118913083479 0)
(-0.00817139165274 -0.0102313378504 0)
(-0.00743286494339 -0.00874582800936 0)
(-0.00668062596984 -0.00744456331548 0)
(-0.00594838739536 -0.00632057612327 0)
(-0.00525936341916 -0.0053548504908 0)
(-0.00462252480021 -0.00452464112298 0)
(-0.0040353898724 -0.00381242307192 0)
(-0.00349546868071 -0.00320843311231 0)
(-0.00300653381028 -0.0027046017003 0)
(-0.00257471118642 -0.00228870617169 0)
(-0.00220224539743 -0.00194439129911 0)
(-0.00188520187328 -0.00165480399188 0)
(-0.00161426297699 -0.00140643326189 0)
(-0.00137765420043 -0.00119204613911 0)
(-0.00116690641098 -0.00101045879985 0)
(-0.000980850333239 -0.000861110554674 0)
(-0.000820212566509 -0.000739937975686 0)
(-0.000682578825043 -0.000641791447976 0)
(-0.000565116110328 -0.000562907538446 0)
(-0.000465897933483 -0.000500261302666 0)
(-0.000383063769616 -0.000449111560976 0)
(-0.000319093016084 -0.000402086641971 0)
(-0.000284431664893 -0.000371903708879 0)
(-0.000252329373816 -0.000328274712144 0)
(-0.000234536440396 -0.000295786202326 0)
(-0.000223349128874 -0.00025980039642 0)
(-0.000221079249407 -0.000223375986848 0)
(-0.000209254566009 -0.000169907319332 0)
(-0.000223244445042 -0.000133101717811 0)
(-0.000260539499792 -0.000109957453712 0)
(-0.000274880736123 -7.53101595276e-05 0)
(-0.000279827619343 -4.26231657769e-05 0)
(-0.000279913817155 -1.41324689734e-05 0)
(0.0224825265541 -0.00180173822815 0)
(0.0237014586103 -0.00575929929707 0)
(0.023477365191 -0.00966315683064 6.66668777429e-28)
(0.0230849731599 -0.0135363822503 0)
(0.0225717760377 -0.0173170879298 0)
(0.0219501534252 -0.0209867841818 0)
(0.0212329623276 -0.0245268920474 0)
(0.0204339538711 -0.027922202063 0)
(0.019567172805 -0.0311607600564 0)
(0.0186463956585 -0.0342337566604 0)
(0.0176846658046 -0.037135270892 0)
(0.0166939477596 -0.0398619310595 0)
(0.0156848959397 -0.0424125293204 0)
(0.0146667356691 -0.0447876239053 0)
(0.0136472324468 -0.0469891561176 0)
(0.0126327373621 -0.0490201005794 0)
(0.0116282793396 -0.0508841599533 0)
(0.0106376940687 -0.0525855082878 0)
(0.00966376394279 -0.0541285825586 0)
(0.00870836649544 -0.055517918178 0)
(0.00777261202458 -0.0567580227291 0)
(0.00685697581098 -0.057853281045 0)
(0.0059614107821 -0.0588078852089 0)
(0.0050854517827 -0.059625783361 0)
(0.00422830009839 -0.0603106424263 0)
(0.00338890278955 -0.0608658206048 0)
(0.00256601643815 -0.0612943467914 0)
(0.00175827170333 -0.0615989049182 0)
(0.000964228166644 -0.0617818225694 0)
(0.000182436569978 -0.0618450631002 0)
(-0.000588503296343 -0.061790230241 0)
(-0.00134987100592 -0.0616185607934 0)
(-0.00210275606649 -0.0613309547777 0)
(-0.00284797387555 -0.0609280045924 0)
(-0.00358598512487 -0.060410046439 0)
(-0.00431680666482 -0.0597772350692 0)
(-0.00503993537046 -0.0590296442788 0)
(-0.00575427785409 -0.0581673944583 0)
(-0.00645811164756 -0.0571908053442 0)
(-0.00714907395159 -0.0561005684858 0)
(-0.00782420462525 -0.054897928362 0)
(-0.00848003728847 -0.0535848556546 0)
(-0.0091127574296 -0.0521641896625 0)
(-0.00971840754645 -0.0506397228187 0)
(-0.0102931356862 -0.0490161977551 0)
(-0.0108334389484 -0.0472991922452 0)
(-0.0113363624492 -0.0454948774329 0)
(-0.0117995734701 -0.0436096603365 0)
(-0.0122212396793 -0.0416497504649 0)
(-0.0125996308525 -0.0396207483588 0)
(-0.0129323973563 -0.0375274039654 0)
(-0.0132155597666 -0.0353737649711 0)
(-0.0134423790473 -0.03316397727 0)
(-0.0136025570768 -0.0309039165878 0)
(-0.0136824920649 -0.0286035811442 0)
(-0.0136676950119 -0.026279256605 0)
(-0.0135470508186 -0.0239543430828 0)
(-0.0133206634748 -0.0216521480844 0)
(-0.0129860019393 -0.0193957362364 0)
(-0.0125529511399 -0.017202721196 0)
(-0.0120154077854 -0.0150919836876 0)
(-0.0113910520571 -0.0130725254462 0)
(-0.0106413503502 -0.0111669541556 0)
(-0.00977377625378 -0.00943169008431 0)
(-0.00883354845417 -0.00790976301991 0)
(-0.00787970036802 -0.00661474243767 0)
(-0.0069657661349 -0.00553120039865 0)
(-0.00612549745967 -0.00462388750582 0)
(-0.00536523088047 -0.00385317918879 0)
(-0.00466775073098 -0.00319466142819 0)
(-0.00402127578174 -0.00264415124563 0)
(-0.00343379808146 -0.00220046291433 0)
(-0.00292024412106 -0.00185072016829 0)
(-0.00248687337838 -0.00157193406166 0)
(-0.00212769923193 -0.00133966630155 0)
(-0.00182671869575 -0.00113521321413 0)
(-0.00156220052868 -0.000951958559798 0)
(-0.00131937139299 -0.000796197155869 0)
(-0.00110202104725 -0.000673744974187 0)
(-0.000917059407558 -0.000579185239111 0)
(-0.000759949443954 -0.00050455030636 0)
(-0.000625842445442 -0.00044649172596 0)
(-0.000513363833387 -0.000402448993777 0)
(-0.000419784182609 -0.000365806122736 0)
(-0.000356244292247 -0.000336648684681 0)
(-0.000318598225508 -0.000311159633105 0)
(-0.000288682593639 -0.000281111353545 0)
(-0.000265426041168 -0.000247575996705 0)
(-0.000259067696231 -0.000219346074183 0)
(-0.0002521942741 -0.000181216979038 0)
(-0.000260107759561 -0.000151136054943 0)
(-0.000256389422717 -0.000108558640138 0)
(-0.00027581535739 -8.27707523963e-05 0)
(-0.000303306193594 -6.25567006533e-05 0)
(-0.000305940027472 -3.56166347495e-05 0)
(-0.000306453094593 -1.18396016053e-05 0)
(0.0263053838128 -0.00187041336632 0)
(0.0277258611867 -0.00597748860544 0)
(0.0274526049383 -0.0100249105643 -6.66566318604e-28)
(0.0269776500627 -0.0140343773528 0)
(0.026357650164 -0.0179397902634 0)
(0.0256083581214 -0.0217206756809 0)
(0.024746150314 -0.0253570839738 0)
(0.0237883993339 -0.0288331765005 0)
(0.0227526803035 -0.032137047061 0)
(0.0216560475774 -0.0352605102323 0)
(0.0205144573237 -0.0381987170052 0)
(0.0193423546303 -0.0409496796925 0)
(0.0181524205106 -0.0435137563711 0)
(0.0169554630289 -0.0458931394383 0)
(0.0157604243489 -0.0480913811 0)
(0.0145744758161 -0.05011297646 0)
(0.0134031696786 -0.0519630142337 0)
(0.0122506239657 -0.0536468963116 0)
(0.0111197174467 -0.0551701215265 0)
(0.0100122820562 -0.05653812509 0)
(0.00892928023812 -0.057756163797 0)
(0.00787096450393 -0.0588292367121 0)
(0.00683701431035 -0.0597620322115 0)
(0.00582665370838 -0.0605588932649 0)
(0.00483874880173 -0.0612237947434 0)
(0.0038718913988 -0.0617603276461 0)
(0.00292446937573 -0.0621716869828 0)
(0.00199473133957 -0.0624606608686 0)
(0.00108084648635 -0.0626296202878 0)
(0.00018096751252 -0.0626805086311 0)
(-0.000706703453334 -0.0626148422567 0)
(-0.00158383667648 -0.0624336921706 0)
(-0.00245189030476 -0.0621377101249 0)
(-0.00331201076268 -0.0617271477807 0)
(-0.00416492633995 -0.0612019044978 0)
(-0.00501083311184 -0.0605616027364 0)
(-0.00584928472814 -0.0598056976469 0)
(-0.0066790927453 -0.0589336240744 0)
(-0.00749825550965 -0.0579449819348 0)
(-0.00830392835086 -0.0568397549366 0)
(-0.00909245728802 -0.0556185513508 0)
(-0.0098594889446 -0.0542828459706 0)
(-0.0106001723794 -0.0528351930637 0)
(-0.0113094490221 -0.051279370005 0)
(-0.0119824183706 -0.0496204054892 0)
(-0.0126147336959 -0.0478644451159 0)
(-0.0132029643236 -0.0460184201807 0)
(-0.0137448156212 -0.0440895051647 0)
(-0.0142390894477 -0.0420844035119 0)
(-0.0146852234165 -0.0400085565269 0)
(-0.0150822912032 -0.037865492306 0)
(-0.0154273629545 -0.0356566527439 0)
(-0.0157133719951 -0.0333822212038 0)
(-0.0159270034993 -0.0310435358012 0)
(-0.0160479396419 -0.0286475566801 0)
(-0.0160522410641 -0.0262117822387 0)
(-0.0159198623541 -0.0237695682276 0)
(-0.0156610798291 -0.0213492171259 0)
(-0.0152652866672 -0.0189802049114 0)
(-0.0147637946583 -0.0166767371647 0)
(-0.0141266799971 -0.0144642725571 0)
(-0.0134286061486 -0.0123262124177 0)
(-0.0125332666038 -0.0102740262737 0)
(-0.0114455321965 -0.00842352712172 0)
(-0.0102481583268 -0.00685174263132 0)
(-0.00904181544477 -0.00557677118056 0)
(-0.00791368795803 -0.00456636017471 0)
(-0.00691532756415 -0.00375429415841 0)
(-0.0060451789708 -0.00306686374072 0)
(-0.00524715738814 -0.00246843845471 0)