/*--------------------------------*- C++ -*----------------------------------*\
| =========                 |                                                 |
| \\      /  F ield         | OpenFOAM: The Open Source CFD Toolbox           |
|  \\    /   O peration     | Version:  v1906                                 |
|   \\  /    A nd           | Web:      www.OpenFOAM.com                      |
|    \\/     M anipulation  |                                                 |
\*---------------------------------------------------------------------------*/
FoamFile
{
    version     2.0;
    format      ascii;
    class       surfaceScalarField;
    location    "184";
    object      phia;
}
// * * * * * * * * * * * * * * * * * * * * * * * * * * * * * * * * * * * * * //

dimensions      [0 3 -1 0 0 0 0];
oriented        oriented;


internalField   nonuniform List<scalar> 
18240
(
0.00139858517721
-0.00139665544733
0.00293020014247
-0.00152941572329
0.00446139689278
-0.00152918470797
0.00597461805763
-0.00151095755164
0.00746148553304
-0.00148489073897
0.00891589084958
-0.00145207021837
0.0103312168078
-0.0014133860126
0.0117027890027
-0.0013691534068
0.0130248904473
-0.0013202019431
0.0142941726873
-0.00126677179831
0.0155058188626
-0.00120979642743
0.0166578675234
-0.00114944344908
0.0177463924512
-0.00108673592512
0.0187708171027
-0.00102172680238
0.019728031518
-0.000955501697464
0.0206187750178
-0.000887960240804
0.021440628775
-0.000820232130109
0.0221955253892
-0.000752039999125
0.0228815852422
-0.000684547128132
0.0235017869565
-0.000617287542617
0.024054633896
-0.000551457518525
0.0245439915891
-0.000486404713713
0.0249686028149
-0.00042336101268
0.0253330704988
-0.000361496081492
0.0256362548348
-0.00030208370895
0.0258833548725
-0.000244130661713
0.026073250141
-0.000188955331143
0.0262116130018
-0.000135415812486
0.0262972653388
-8.48776174955e-05
0.0263362384757
-3.60674308274e-05
0.0263272396971
9.60288688075e-06
0.026276562315
5.35247400133e-05
0.0261827429539
9.42540534255e-05
0.0260522293579
0.000133287155279
0.0258833620669
0.000169132121589
0.0256826801244
0.000203368575181
0.0254483055653
0.000234475190597
0.0251867905265
0.000264103220539
0.0248960249407
0.000290705126433
0.0245825158737
0.00031598916494
0.0242439176123
0.000338385196414
0.0238866385782
0.000359642440106
0.0235081030725
0.000378175009426
0.0231145822754
0.000395760185124
0.0227032837766
0.000410800545854
0.0222803058643
0.000425086418116
0.0218426607972
0.000437015985676
0.0213962518111
0.000448380599077
0.0209379237277
0.000457578675421
0.0204733641522
0.000466388473302
0.0199992852642
0.000473216371965
0.0195211499008
0.000479816477576
0.0190355770471
0.000484608753976
0.0185477950754
0.000489310509161
0.0180543734987
0.00049236416014
0.0175603048802
0.000495440770846
0.0170621541187
0.000497012435173
0.0165646732563
0.000498693484001
0.0160644676107
0.000498995966637
0.0155660486747
0.000499470297856
0.0150661038508
0.000498677144792
0.0145688982393
0.000498095139991
0.0140712388435
0.000496344507265
0.0135771404894
0.000494827271092
0.0130835602559
0.000492232051006
0.0125942523059
0.000489878946512
0.0121063473847
0.000486534851253
0.0116233299224
0.000483435102339
0.0111425194952
0.000479432048195
0.0106671168281
0.000475672966257
0.0101946384895
0.000471102693255
0.0097279901193
0.000466779014342
0.00926488645703
0.000461743110413
0.00880792492196
0.0004569614922
0.00835501482071
0.000451574779032
0.00790843679858
0.000446457698619
0.00746628736643
0.000440850398974
0.00703052320649
0.000435535019967
0.00659941957549
0.000429850353605
0.00617460816756
0.000424485825407
0.00575453509434
0.000418875501031
0.00534051038278
0.000413615055295
0.00493114761571
0.000408228916756
0.00452744864083
0.000403216232452
0.00412820227015
0.000398181548149
0.00373413754207
0.000393516187503
0.00334426529285
0.000388876115633
0.00295916176144
0.000384494838291
0.00257827153226
0.000379960416602
0.00220253142381
0.000375091963123
0.00183291913124
0.000368775884609
0.00147341892922
0.000358848536546
0.00113431428961
0.000338411516267
0.000835742196883
0.000297885238025
0.000477381726948
0.00035735195176
0.000476779292263
0.00154581116358
-0.00294038376385
0.00327180382163
-0.0032531531852
0.00498925649903
-0.00324442041516
0.00668354941156
-0.00320296104559
0.00834724478292
-0.00314636647581
0.00997375698694
-0.00307625952928
0.0115563370156
-0.00299373853762
0.0130892816695
-0.00289973447795
0.0145668218934
-0.00279550570627
0.0159845354211
-0.00268207833933
0.0173378226936
-0.00256084115565
0.0186236493222
-0.00243282177953
0.0198386067138
-0.00229945301531
0.0209810348416
-0.00216167226701
0.0220486428694
-0.00202088272806
0.0230410493626
-0.00187786085651
0.0239569447803
-0.00173392913984
0.024797077792
-0.00158965876168
0.0255609500083
-0.00144626559473
0.0262502658215
-0.00130409795309
0.0268651596005
-0.00116426047075
0.0274081146655
-0.001026881976
0.0278797315109
-0.000892966699244
0.0282831082545
-0.000762441436986
0.0286191664237
-0.000636227348722
0.0288914741729
-0.000514071660801
0.0291011532832
-0.000396830241237
0.029252116564
-0.000284093436548
0.0293455856483
-0.000176665537348
0.0293857079068
-7.39996877154e-05
0.0293737186336
2.31415502923e-05
0.0293139013234
0.000115424409002
0.0292074468122
0.000202118515766
0.0290587073074
0.000283991385336
0.0288687649353
0.000360341170762
0.0286419513376
0.000432021866026
0.0283791952514
0.000498351604127
0.0280847535643
0.000560253912184
0.027759370663
0.000617062004193
0.0274071809915
0.00066975330741
0.0270287224379
0.000717671395588
0.026627969112
0.000761832901302
0.0262052406121
0.000801587128358
0.0257643232891
0.000837975632352
0.0253053153705
0.000870349852116
0.0248317967042
0.000899763003054
0.0243436502457
0.000925565130293
0.0238442399165
0.000948808158115
0.0233332472054
0.00096883821922
0.0228138177645
0.000986694227518
0.0222854529843
0.00100171647245
0.021751085392
0.00101491987613
0.0212100632573
0.00102563851778
0.0206651156098
0.00103485422722
0.0201154692593
0.00104189575617
0.0195636636465
0.00104770432972
0.0190088375853
0.00105160651639
0.018453355452
0.00105449773813
0.0178963018004
0.00105570713587
0.0173398806513
0.0010560811977
0.0167831533323
0.0010549584278
0.0162281749461
0.00105313538091
0.0156740104777
0.00104996785044
0.0151225744762
0.00104620304319
0.014572956297
0.00104122285229
0.0140269329365
0.0010357269095
0.0134836322974
0.00102913186748
0.0129446928519
0.00102209209921
0.0124092882281
0.00101406702015
0.0118789126177
0.00100566807647
0.011352786588
0.000996403894007
0.0108322520242
0.000986844895996
0.0103165724532
0.000976553536903
0.00980692730588
0.000966060292112
0.0093026158617
0.000954983931279
0.00880464571098
0.000943815037723
0.00831234300194
0.000932228922254
0.0078265351194
0.000920675364435
0.00734656657318
0.00090888421758
0.00687307992948
0.000897262309228
0.00640543160338
0.000885589938631
0.00594407881144
0.000874226882698
0.00548838817567
0.000862996642129
0.00503863839243
0.000852204367787
0.00459421242208
0.000841702697795
0.00415522922413
0.000831722745721
0.00372111063261
0.000822109547714
0.00329185891204
0.000812957752109
0.00286697419469
0.000803979270189
0.00244637735279
0.00079489628769
0.00202953870717
0.000784803040052
0.00161559070549
0.000772047466525
0.00120025900877
0.000752987371597
0.000775042660129
0.000722378450662
0.00035645146847
0.000775148060174
0.000832815548273
0.00157226694632
-0.00451055373727
0.00331939588165
-0.00499803657312
0.00506062674548
-0.00498340824099
0.00677859983168
-0.00491866519634
0.00846525364931
-0.00483076222494
0.0101135354664
-0.00472224857678
0.0117167019509
-0.00459462629093
0.0132687289358
-0.00444943808958
0.0147639889874
-0.0042884628783
0.0161977372003
-0.0041134710382
0.0175656317788
-0.00392641084767
0.0188643024858
-0.00372910846253
0.0200907154503
-0.00352352533581
0.0212428466965
-0.00331139943415
0.0223188909499
-0.00309458198266
0.0233180578918
-0.00287461619541
0.02423962456
-0.00265316048093
0.0250838687173
-0.00243149967974
0.0258509685935
-0.00221105738
0.0265420835682
-0.00199283591929
0.0271581048204
-0.00177801863112
0.0277008885322
-0.00156733386556
0.0281718643777
-0.00136174359307
0.0285734204095
-0.00116172935697
0.0289073741619
-0.000968063231311
0.0291765035028
-0.000781014146983
0.0293828885404
-0.000601195090178
0.0295295783728
-0.000428693017448
0.0296188106682
-0.000263988183548
0.0296538028443
-0.000107011465267
0.0296368613957
4.18703023773e-05
0.0295712849278
0.000182861007704
0.02945937324
0.000315687375456
0.0293044294712
0.00044066662766
0.0291086835646
0.000557607292067
0.0288753791782
0.000666923535811
0.0286066239658
0.000768487095137
0.0283055487531
0.000862788275636
0.0279740995684
0.000949748655017
0.0276152543773
0.00102991747762
0.0272307684403
0.00110325212972
0.0268234354205
0.00117034350745
0.0263948012566
0.0012311729012
0.025947455604
0.00128635747557
0.0254827253688
0.00133589035462
0.0250029837466
0.00138039965704
0.0245093384746
0.00141988005678
0.0240039445002
0.00145495707792
0.0234876977681
0.00148561674594
0.022962539251
0.0015124687013
0.0224291687349
0.00153548250164
0.0218893262099
0.00155524126801
0.0213435363933
0.00157169112909
0.0207933550585
0.00158537938241
0.0202391581576
0.00159622539027
0.0196823392268
0.00160473510482
0.0191231534597
0.00161079974659
0.01856285384
0.00161488076468
0.0180016034836
0.00161684400336
0.0174405372491
0.00161710727514
0.0168797519579
0.00161551586931
0.0163202821624
0.0016124471004
0.0157621804426
0.00160773382983
0.0152063957474
0.00160171885684
0.0146529522031
0.00159423139279
0.0141027208535
0.00158558649278
0.0135557072016
0.00157561981514
0.0130127076202
0.00156462620475
0.0124737120181
0.0015524564778
0.0119394389041
0.00153939171619
0.0114098604986
0.00152530573166
0.0108856113185
0.00151047116562
0.010366639104
0.00149478994418
0.0098534846089
0.00147852928604
0.00934606230569
0.00146162208923
0.00884480948135
0.00144433124404
0.00834959726034
0.00142662043395
0.00786074993363
0.00140874662889
0.00737808660252
0.00139070182081
0.00690181201911
0.00137273338574
0.00643168689984
0.00135485614926
0.00596779265373
0.00133730166045
0.00550982868057
0.00132009908128
0.0050577536667
0.00130345377649
0.00461120521339
0.00128739464684
0.00417001969406
0.00127208165967
0.00373376556865
0.00125751443635
0.00330213013915
0.00124376576545
0.00287452345998
0.00123074492917
0.00245024010572
0.00121836020957
0.00202785966909
0.00120636674394
0.00160451520346
0.00119461359282
0.00117323895745
0.00118351933096
0.000718592329689
0.00117627356901
0.000295707029514
0.00119731978606
0.00112818800502
0.00159514303725
-0.00610360204841
0.00336469300943
-0.006765356961
0.00512855623584
-0.00674502482585
0.00686854418326
-0.00665639584794
0.00857618386575
-0.00653613703922
0.0102440580726
-0.00638784148289
0.0118652695207
-0.0062135468338
0.0134335720739
-0.00601542898957
0.0149433156299
-0.00579588547205
0.0163896071457
-0.00555741903494
0.0177681868733
-0.00530264077148
0.0190755900072
-0.00503414007554
0.0203089547308
-0.00475451846783
0.0214661971347
-0.00446625125746
0.0225457558192
-0.00417175841797
0.0235467927624
-0.00387325671217
0.024468880723
-0.00357287107719
0.0253122415844
-0.00327247486824
0.0260773824662
-0.00297384327911
0.0267653807317
-0.0026784778861
0.0273774751666
-0.00238780003535
0.0279154037514
-0.00210295504722
0.0283809540085
-0.00182504170449
0.0287763550097
-0.00155489088616
0.0291037897323
-0.00129332539303
0.0293658389592
-0.00104090957163
0.0295649563616
-0.000798235572048
0.0297039593723
-0.000565643363376
0.0297854685092
-0.000343530429892
0.0298124402209
-0.00013204470232
0.029787573113
6.85833321218e-05
0.0297138776558
0.000258370566375
0.0295940529337
0.000437227835452
0.0294310890729
0.000605312340347
0.0292276201768
0.000762656047696
0.0289865553834
0.000909532895623
0.0287104104525
0.00104607176757
0.028401963494
0.00117263930125
0.0280635702839
0.00128943977959
0.0276978396055
0.00139691018533
0.0273069364045
0.00149531023437
0.026893272542
0.0015851268131
0.0264588015371
0.00166665632034
0.0260057201733
0.00174041607606
0.0255357592267
0.00180672164345
0.0250508918983
0.00186610279483
0.0245526239702
0.00191887784588
0.0240427049883
0.00196557175462
0.023522421861
0.00200649050786
0.0229933086957
0.0020421389654
0.0224564475264
0.00207279734906
0.0219131724271
0.00209893690591
0.0213643808874
0.00212080146797
0.0208112280697
0.00213881857082
0.0202544522597
0.00215318834874
0.0196950546829
0.00216428805338
0.019133642123
0.00217227123303
0.0185710880446
0.00217746309264
0.0180078957275
0.00217997187011
0.0174448360383
0.0021800730901
0.0168823340573
0.0021778354884
0.0163210796931
0.00217349148335
0.0157614408616
0.00216707941007
0.0152040429581
0.00215879796896
0.0146492115228
0.00214866650238
0.0140975175067
0.00213686123438
0.0135492522071
0.00212339488081
0.0130049357168
0.0021084323368
0.0124648266527
0.00209199116631
0.0119293918496
0.00207423518465
0.0113988531651
0.0020551965387
0.0108736171814
0.00203504561305
0.0103538607709
0.00201383592473
0.00983992010824
0.00199174938235
0.00933191641125
0.0019688642705
0.00883010433509
0.00194537533463
0.00833453840429
0.00192138545254
0.00784538110956
0.00189710038912
0.00736261042155
0.00187264415287
0.00688628823846
0.0018482285007
0.00641630846152
0.00182399192332
0.00595262668578
0.00180014436298
0.00549504785192
0.00177682902542
0.0050434175155
0.00175424275507
0.00459744604559
0.00173252006961
0.00415685976394
0.00171182937108
0.00372125415037
0.00169227875231
0.00329019381061
0.00167399074742
0.00286306611548
0.00165703614961
0.00243908288319
0.00164151409835
0.00201707074442
0.00162757554314
0.00159526878315
0.00161563266117
0.00117118734775
0.00160681819438
0.000743196606446
0.0016035213555
0.000333331186909
0.00160647075403
0.00146116429383
0.00162436856499
-0.00772588353985
0.00342495361097
-0.00856371383613
0.0052193259211
-0.00853715978271
0.0069887008406
-0.00842351945957
0.00872419528827
-0.00826937137388
0.0104180288404
-0.00807939799223
0.0120630436101
-0.00785627150387
0.0136527726005
-0.00760284724
0.0151814487723
-0.00732223684495
0.0166440807466
-0.00701770472956
0.018036415245
-0.00669261709981
0.0193549889315
-0.00635033623213
0.0205970465476
-0.00599419128774
0.0217605774527
-0.005627383064
0.0228441991287
-0.00525298077607
0.0238471885601
-0.00487383977561
0.0247693408192
-0.00449262530797
0.0256110048838
-0.00411174296564
0.0263729272043
-0.00373338784797
0.027056300573
-0.00335948545067
0.0276626003988
-0.00299176235406
0.0281936527035
-0.00263169211101
0.0286514683777
-0.00228058058265
0.0290383323138
-0.00193950994695
0.0293566359405
-0.00160943178808
0.0296089856586
-0.00129110290343
0.0297980319399
-0.000985181486832
0.0299265934263
-0.000692152637427
0.0299974794731
-0.000412427095749
0.0300136272829
-0.000146257387271
0.0299779177485
0.000106159464775
0.0298933240206
0.000344772309772
0.0297627211696
0.000569565943792
0.0295890454572
0.000780661512653
0.0293750992955
0.000978199900679
0.0291237223689
0.00116244412632
0.0288375911527
0.00133365983825
0.0285194000143
0.00149222291414
0.0281716576796
0.00163849600446
0.0277968767264
0.00177294061616
0.0273973672956
0.00189599033658
0.0269754335662
0.00200816686816
0.0265331664746
0.00210995087395
0.0260726454635
0.00220190083092
0.0255957307701
0.00228452175051
0.0251042693193
0.00235838638103
0.0245998883541
0.00242400311094
0.0240842038873
0.00248193807342
0.0235586163999
0.00253268297064
0.0230245206504
0.00257677783717
0.0224831049651
0.00261468020214
0.021935560567
0.00264688763674
0.0213828849263
0.00267380892063
0.0208260891358
0.00269588625831
0.0202660064724
0.00271346994307
0.0197034958479
0.00272693920393
0.0191392556667
0.00273658119217
0.0185740215913
0.00274271019037
0.0180083865956
0.00274555169497
0.0174429911792
0.00274535900948
0.016878349453
0.00274230287515
0.0163150304127
0.00273658462589
0.0157534910414
0.00272833185857
0.015194247034
0.00271770710757
0.0146377131458
0.00270480908225
0.0140843623504
0.00268977675128
0.0135345745182
0.00267269597925
0.0129887838588
0.00265369697012
0.0124473359066
0.0026328671697
0.0119106227406
0.00261034200446
0.0113789497674
0.00258622297745
0.0108526589294
0.00256066087655
0.0103320054173
0.00253377971823
0.00981726917881
0.00250575230087
0.00930864273794
0.00247672937919
0.00880633145759
0.0024469074233
0.00831045248323
0.00241646354773
0.00782112418845
0.00238561568568
0.00733837690727
0.00235456308055
0.00686223203112
0.00232353869857
0.00639262433338
0.00229275579972
0.00592947076241
0.00226245311807
0.00547260403785
0.00223284728401
0.005021830599
0.0022041709171
0.00457687359066
0.00217663167753
0.00413741808594
0.00215044403773
0.00370305987993
0.00212579687259
0.00327333033726
0.00210288297121
0.0028476466012
0.00208188658871
0.00242530737423
0.00206303062052
0.00200545457536
0.00204661179622
0.00158715786826
0.00203314753488
0.00116973054616
0.00202350034329
0.00075398866105
0.00201849708811
0.000349687184953
0.00201002919856
0.00181051126965
0.00166125065355
-0.00938505714222
0.00350192579945
-0.0104021841168
0.00533552853747
-0.0103685318897
0.00714253975385
-0.0102282918414
0.00891359910239
-0.0100381757427
0.0106404997232
-0.00980402924701
0.0123157548333
-0.00952923715908
0.013932635417
-0.00921742024485
0.015485216874
-0.00887248866192
0.0169684076874
-0.00849854754083
0.0183779520956
-0.00809979275164
0.0197104221832
-0.00768042216445
0.0209631829311
-0.00724455182858
0.0221343589237
-0.00679614899082
0.0232227720113
-0.00633897513829
0.0242278947299
-0.00587654171439
0.0251497709853
-0.00541208179404
0.0259889679835
-0.00494852733185
0.026746489811
-0.00448850891741
0.0274237384585
-0.00403435059528
0.0280224294309
-0.00358809322507
0.0285445694943
-0.00315149941224
0.0289923791931
-0.00272609201783
0.0293682894653
-0.00231315900816
0.0296748709362
-0.00191379689556
0.0299148461564
-0.00152890739177
0.0300910213626
-0.00115923959072
0.0302063085053
-0.000805375689107
0.0302636559516
-0.000467771364067
0.0302660765965
-0.000146733741393
0.0302165765865
0.000157537450509
0.0301181880071
0.000444975423904
0.0299738981127
0.000715599878529
0.0297866863721
0.000969550823819
0.0295594537263
0.00120703734871
0.0292950667401
0.00142836756617
0.0289962873495
0.00163390156283
0.0286658219613
0.00182408144493
0.0283062525362
0.00199938408464
0.0279200896964
0.0021603525791
0.027509705438
0.0023075492185
0.0270773895808
0.0024415880383
0.0266252839722
0.00256308777818
0.0261554418648
0.00267270527001
0.0256697638296
0.00277108858577
0.025170059889
0.00285891078379
0.024657987535
0.00293682314175
0.0241351160448
0.00300548950984
0.0236028668153
0.00306554002653
0.0230625796614
0.0031176059198
0.0225154555757
0.00316227402761
0.0219626244807
0.0032001224537
0.0214050902832
0.0032316766299
0.0208437992533
0.00325744600681
0.0202795871665
0.00327788195467
0.0197132473265
0.00329341565086
0.0191454794564
0.00330441859447
0.0185769562606
0.0033112416238
0.0180082734597
0.00331417804755
0.0174400138083
0.00331350341688
0.0168726979693
0.00330944171576
0.0163068448965
0.00330220509502
0.015742923688
0.00329196243773
0.0151814087426
0.00327887957289
0.0146227325439
0.00326308910935
0.0140673365209
0.00324472914547
0.0135156244258
0.00322391578729
0.0129680075622
0.0032007789246
0.0124248599457
0.0031754366981
0.0118865582374
0.00314802824711
0.0113534393452
0.00311868914263
0.0108258351218
0.00308758047257
0.0103040331137
0.00305486598104
0.00978830669797
0.00302073675804
0.00927887948705
0.00298538988007
0.008775951052
0.00294904874895
0.00827966609299
0.00291194309749
0.00779013650332
0.00287432537749
0.00730741497394
0.00283645287295
0.00683151366856
0.0027985996395
0.00636238288446
0.00276104058174
0.00589992653436
0.00272406032747
0.00544398496643
0.00268793945865
0.00499434735589
0.002652960282
0.00455073736765
0.00261939654373
0.00411282134251
0.00258751762784
0.00368019595113
0.00255758309311
0.00325239251806
0.00252985023598
0.00282886750454
0.00250457890232
0.00240901320363
0.00248205875341
0.00199219607794
0.0024626335335
0.0015778389012
0.00244672857497
0.00116567755264
0.0024348818108
0.000756405026428
0.00242702795086
0.00035470955435
0.00241100549026
0.00216486556257
0.00170657747567
-0.0110895733151
0.00359681409498
-0.0122902181238
0.00547884742906
-0.0122483544725
0.00733223652013
-0.0120794520066
0.00914700679168
-0.0118507042697
0.0109144458484
-0.0115692052888
0.0126266556272
-0.0112391648292
0.0142766083974
-0.0108650653832
0.0158581814704
-0.0104517330846
0.0173661910984
-0.010004202149
0.018796375355
-0.009527602796
0.0201453861988
-0.00902703541035
0.021410732485
-0.00850748623845
0.0225907430653
-0.00797373079659
0.0236844845758
-0.00743028117424
0.024691707181
-0.00688132116815
0.025612750658
-0.00633068483082
0.0264484839634
-0.00578182368497
0.0272002127707
-0.00523781410968
0.0278696242947
-0.00470135407287
0.0284587079116
-0.00417479302154
0.0289697139133
-0.00366014936267
0.02940509385
-0.00315915073329
0.0297674751947
-0.00267325830152
0.0300596194735
-0.0022037035257
0.0302844076956
-0.00175150722964
0.0304448083519
-0.00131750456318
0.0305438659691
-0.000902355082385
0.0305846718411
-0.000506558376227
0.0305703522526
-0.000130459176904
0.0305040400677
0.000225740062357
0.0303888629048
0.000561974615451
0.0302279179243
0.000878298558057
0.0300242618828
0.00117488932014
0.029780887645
0.00145202346761
0.0295007210527
0.00171007350792
0.0291865986409
0.00194949164269
0.028841269167
0.00217080561165
0.0284673731356
0.00237460267439
0.0280674482831
0.00256152725039
0.0276439104268
0.00273226490324
0.0271990622578
0.00288754176226
0.0267350754955
0.00302810844249
0.0262540027921
0.00315474028945
0.0257577615378
0.00326822108678
0.0252481484147
0.00336934419487
0.0247268250992
0.00345889624281
0.0241953355527
0.00353765859485
0.0236550939829
0.00360639135666
0.0231074043629
0.0036658357022
0.0225534508204
0.00371669869854
0.0219943190273
0.00375965661253
0.0214309887623
0.00379534124788
0.0208643566618
0.00382434466524
0.0202952304519
0.00384720795979
0.0197243520194
0.00386442748793
0.0191523926849
0.00387644633499
0.018579975584
0.0038836625681
0.0180076713136
0.00388642342123
0.0174360186357
0.00388503516623
0.0168655195755
0.00387976008552
0.0162966571243
0.00387082799836
0.0157298892932
0.00385843457748
0.0151656647701
0.00384275352969
0.0146044148355
0.00382393667994
0.0140465655406
0.00380212582862
0.0134925281439
0.0037774536685
0.012942707974
0.00375005462706
0.0123974940125
0.00372006468897
0.0118572650363
0.00368763203125
0.0113223778817
0.00365291529829
0.0107931721137
0.00361609215538
0.0102699574599
0.00357735668383
0.00975301762114
0.00353692590177
0.00924259794635
0.00349503504555
0.00873890879376
0.00345194318322
0.00824211333558
0.00340792617189
0.00775233169943
0.00336328096401
0.00726962973344
0.00331831723453
0.00679402393376
0.00327336059013
0.00632547098787
0.00322874301061
0.00586387372487
0.00318480571147
0.00540907182645
0.00314188891713
0.00496084820557
0.0031003346416
0.00451892057228
0.00306047739702
0.00408294828947
0.00302264800739
0.00365252547753
0.00298716692936
0.0032271892931
0.00295435087349
0.0028064244305
0.00292451488905
0.00238968445649
0.00289798292834
0.0019764147739
0.00287509292855
0.00156615344179
0.00285621647217
0.00115863523037
0.00284166760501
0.000754032649679
0.00283087098106
0.00035508122843
0.00280921919317
0.00251961323488
0.00176111731923
-0.0128486478959
0.00371103381258
-0.01423797236
0.00565135248698
-0.0141864767306
0.00756044067344
-0.0139863338054
0.00942757955674
-0.0137156137405
0.0112434317325
-0.0133828089755
0.0129996187435
-0.012993075481
0.0146887570593
-0.012551903151
0.0163045125195
-0.0120651572978
0.0178416022042
-0.0115389359306
0.0192957897222
-0.0109794051033
0.020663837272
-0.0103926766237
0.0219434598457
-0.0097846787055
0.023133246007
-0.00916107253249
0.0242325861535
-0.00852716202814
0.025241577046
-0.00788784782937
0.0261609368311
-0.00724757692636
0.0269919073709
-0.00661033260331
0.0277361695523
-0.00597962399986
0.0283957583547
-0.00535850847492
0.0289729923592
-0.00474961518774
0.0294704137773
-0.00415518851164
0.0298907399458
-0.00357712981589
0.0302368304716
-0.00301704222756
0.0305116575963
-0.00247627058573
0.0307182905876
-0.00195593012264
0.030859872908
-0.00145693272718
0.0309396112362
-0.000979996988643
0.0309607501921
-0.000525664178907
0.0309265598816
-9.42994804142e-05
0.0308403087465
0.000313892111523
0.0307052496195
0.00069886654114
0.0305245944253
0.00106071453193
0.0303015035834
0.0013996702412
0.0300390637738
0.00171607977251
0.0297402827281
0.00201039909254
0.0294080704278
0.00228317438628
0.0290452373657
0.00253503684217
0.0286544790939
0.00276668526726
0.0282383769007
0.00297888167977
0.0277993848005
0.0031724359457
0.0273398322217
0.0033482017297
0.0268619133823
0.00350706211763
0.0263676918463
0.00364992570314
0.0258590921097
0.00377771281964
0.0253379064638
0.00389135153078
0.0248057890658
0.00399176410804
0.024264265171
0.00407986324774
0.0237147276974
0.00415653891901
0.0231584490934
0.0042226553469
0.0225965803277
0.00427903845933
0.0220301653494
0.00432647426987
0.0214601420022
0.00436569794409
0.0208873585389
0.00439739416151
0.0203125758914
0.004422188364
0.0197364853085
0.00444064985578
0.0191597109826
0.00445328564324
0.0185828279155
0.00446054654901
0.0180063639335
0.00446282364773
0.0174308162504
0.00446045754824
0.0168566514732
0.00445373773177
0.016284321033
0.00444291304099
0.0157142593049
0.00442819275829
0.0151468952497
0.00440975976522
0.0145826483263
0.00438777208741
0.0140219368246
0.00436237624543
0.0134651718203
0.00433370909991
0.0129127623581
0.00430191020613
0.0123651072667
0.00426712319819
0.0118225975181
0.00422950659599
0.0112856071546
0.00418923404254
0.0107544932741
0.0041465018117
0.0102295871289
0.00410152873038
0.00971119192018
0.00405456059751
0.00919957502319
0.00400586831367
0.00869496470315
0.00395574975434
0.00819754390683
0.00390452691608
0.00770744654364
0.00385254446475
0.00722475331566
0.00380016700526
0.00674948787633
0.00374777491948
0.006281615129
0.00369576137567
0.0058210378952
0.00364452658054
0.00536759706467
0.00359447546972
0.00492106894576
0.00354601083429
0.00448116726539
0.00349953247046
0.00404754192788
0.00345543064946
0.00361978381978
0.00341408760966
0.00319742895501
0.003375872998
0.00277996953759
0.00334114689029
0.00236687158244
0.00331026147691
0.0019576159969
0.00328356357144
0.00155170733909
0.00326135881885
0.00114873582091
0.0032438668417
0.00074856556653
0.00323031298602
0.000353108073997
0.00320397287136
0.00287237385528
0.00182573625798
-0.0146723705863
0.00384636062652
-0.0162564414768
0.0058556214224
-0.0161935765217
0.00783046449537
-0.0159589901082
0.00975923664407
-0.0156421814004
0.011631866224
-0.0152532043831
0.0134393990671
-0.0147983476159
0.0151740609344
-0.0142842690746
0.0168292803268
-0.0137180514
0.0183997015527
-0.0131069954128
0.0198811370977
-0.0124584515865
0.0212705274838
-0.0117796452769
0.0225658494013
-0.0110775575873
0.0237660436609
-0.0103587992326
0.0248708989432
-0.00962953765448
0.0258809611675
-0.00889541731457
0.0267974077208
-0.00816153002608
0.0276219510386
-0.00743238296233
0.0283567205111
-0.00671191239708
0.0290041774831
-0.00600349935993
0.0295670242248
-0.00531002047618
0.0300481463152
-0.00463389844777
0.03045056027
-0.0039771683227
0.0307773863059
-0.00334153523856
0.0310318278805
-0.00272842650058
0.0312171598306
-0.00213903004516
0.0313367197281
-0.0015743167831
0.0313938925679
-0.00103505634188
0.0313920986272
-0.000521819737741
0.031334768724
-3.4987784562e-05
0.0312253299972
0.000425244703009
0.0310671778458
0.000858859756792
0.0308636570156
0.0012660052172
0.0306180442843
0.00164697813565
0.0303335356547
0.00200221084673
0.0300132297064
0.00233225243254
0.0296601209337
0.00263775741285
0.0292770882157
0.00291946921836
0.0288668898719
0.00317821035818
0.0284321556047
0.0034148689705
0.0279753826157
0.00363038965375
0.0274989304986
0.00382576177752
0.0270050183206
0.00400201060662
0.026495721979
0.00416018642914
0.025972973034
0.00430135521114
0.0254385587644
0.00442658799278
0.0248941231108
0.00453695158479
0.0243411693688
0.00463349809754
0.0237810639681
0.00471725559328
0.0232150421168
0.00478921818843
0.0226442143014
0.00485033796004
0.0220695745795
0.00490151588728
0.0214920099011
0.00494359592069
0.0209123102681
0.00497735797688
0.0203311801373
0.00500351507928
0.0197492494785
0.00502270906793
0.0191670861032
0.00503551148744
0.0185852065115
0.00504242221558
0.0180040873733
0.00504387491855
0.017424174579
0.0050402384682
0.0168458947178
0.00503182470498
0.0162696606248
0.00501889344258
0.0156958796027
0.00500166280489
0.0151249563271
0.00498031535129
0.0145572980231
0.00495500995522
0.0139933140422
0.00492588797896
0.0134334175747
0.00489308579583
0.0128780219429
0.00485673990371
0.0123275399839
0.00481699748384
0.0117823780879
0.00477402088618
0.0112429327041
0.00472799624901
0.010709583155
0.00467913493788
0.0101826871869
0.00462767911408
0.00966257330115
0.00457390262355
0.00914953519731
0.00451811191317
0.00864382542608
0.00446064587819
0.00814564927942
0.00440187330449
0.00765516044312
0.00434219148902
0.00717245494289
0.0042820209772
0.00669756959173
0.00422180349109
0.00623047607853
0.00416199442099
0.00577108204522
0.00410306099104
0.00531922631862
0.00404547300973
0.00487468234881
0.00398970202823
0.00443715465197
0.00393621177493
0.00400628529163
0.00388545870693
0.00358165321558
0.00383788317692
0.00316278464077
0.00379391064217
0.00274916297672
0.00375394656832
0.00234024494256
0.00371837300239
0.001935468778
0.00368753811425
0.00153430233436
0.00366176194535
0.00113622648027
0.00364122421208
0.000740818591987
0.00362497535372
0.000349681545897
0.00359438931759
0.00322173263816
0.00190151047797
-0.0165719000083
0.00400494680112
-0.0183577895246
0.00609484857459
-0.0182813442745
0.00814638404264
-0.0180083782691
0.0101467986138
-0.0176404157254
0.0120851325725
-0.0171893312262
0.0139517842288
-0.0166627530562