/*--------------------------------*- C++ -*----------------------------------*\
| =========                 |                                                 |
| \\      /  F ield         | OpenFOAM: The Open Source CFD Toolbox           |
|  \\    /   O peration     | Version:  v1906                                 |
|   \\  /    A nd           | Web:      www.OpenFOAM.com                      |
|    \\/     M anipulation  |                                                 |
\*---------------------------------------------------------------------------*/
FoamFile
{
    version     2.0;
    format      ascii;
    class       surfaceScalarField;
    location    "234";
    object      phi;
}
// * * * * * * * * * * * * * * * * * * * * * * * * * * * * * * * * * * * * * //

dimensions      [0 3 -1 0 0 0 0];
oriented        oriented;


internalField   nonuniform List<scalar> 
18240
(
-0.000206795284043
0.00020672190553
-0.000412989997083
0.000206089352576
-0.000620335798363
0.000207285858884
-0.000825359926927
0.000204916552887
-0.00102638700969
0.000200981086106
-0.00122238582113
0.000195894303398
-0.00141232860515
0.000189911549533
-0.00159556322884
0.000183138254395
-0.00177132099115
0.000175741300309
-0.00193919512624
0.000167790100669
-0.00209863517021
0.000159437424318
-0.00224944205717
0.000150738172271
-0.00239126165977
0.00014182890231
-0.00252406173589
0.000132748476082
-0.00264765334251
0.000123610334724
-0.00276212388889
0.000114436764364
-0.00286741336281
0.000105314727124
-0.00296368197718
9.62524602826e-05
-0.00305096365204
8.73104413698e-05
-0.00312945040409
7.8487325882e-05
-0.00319924021102
6.98191370837e-05
-0.00326052429007
6.12999662332e-05
-0.00331344146049
5.29442763407e-05
-0.00335815834969
4.474631201e-05
-0.00339483790243
3.67019859228e-05
-0.00342360656883
2.88096025774e-05
-0.00344464048452
2.10494808486e-05
-0.00345801741288
1.34272032542e-05
-0.00346392082257
5.910384443e-06
-0.00346237795279
-1.48553275668e-06
-0.00345357809333
-8.80293835173e-06
-0.00343750153175
-1.60144765825e-05
-0.00341434699844
-2.31685811884e-05
-0.00338405889384
-3.02235985641e-05
-0.00334685383217
-3.72307414361e-05
-0.00330265686978
-4.41323093857e-05
-0.00325171588869
-5.09783739135e-05
-0.00319395952437
-5.76937869637e-05
-0.00312968475986
-6.43237459096e-05
-0.00305885138722
-7.0775001651e-05
-0.00298182639783
-7.7084925551e-05
-0.00289863150624
-8.3142818138e-05
-0.00280972554547
-8.89761479905e-05
-0.00271522311873
-9.44586818084e-05
-0.00261569525977
-9.96072038598e-05
-0.00251137827051
-0.000104283527252
-0.00240297108579
-0.000108494540498
-0.00229085360113
-0.000112096049058
-0.00217585819803
-0.000115089283497
-0.00205851552248
-0.000117334703864
-0.00193977620841
-0.000118838097703
-0.00182030043304
-0.000119482062774
-0.00170110792323
-0.000119294150557
-0.00158292743516
-0.000118201011612
-0.00146676009347
-0.000116269659087
-0.00135330786655
-0.000113486281377
-0.0012434460816
-0.000109962533035
-0.00113775099363
-0.000105741215173
-0.00103688388277
-0.000100964209871
-0.000941229982308
-9.5709758826e-05
-0.000851196557233
-9.01248680979e-05
-0.000766960868394
-8.42983133724e-05
-0.000688683698259
-7.83612231681e-05
-0.000616354953818
-7.23951081262e-05
-0.000549927241673
-6.65031919586e-05
-0.000489244467194
-6.07500169497e-05
-0.000434103867726
-5.52068728218e-05
-0.00038425106088
-4.99181453667e-05
-0.000339383056986
-4.49249333892e-05
-0.000299192179371
-4.02518789606e-05
-0.000263325895886
-3.59142128081e-05
-0.000231461908641
-3.19190438417e-05
-0.000203240047883
-2.82617446933e-05
-0.000178352234107
-2.49363228328e-05
-0.000156459756536
-2.19257778754e-05
-0.000137285652698
-1.92163726964e-05
-0.000120528773136
-1.67853418224e-05
-0.000105950589624
-1.46151259076e-05
-9.32951553012e-05
-1.26807166464e-05
-8.23677443097e-05
-1.09601641101e-05
-7.29719221814e-05
-9.41930739932e-06
-6.49974842519e-05
-8.00410510137e-06
-5.84707358784e-05
-6.54937413415e-06
-5.31900394394e-05
-5.30917245401e-06
-4.82368877924e-05
-4.97839870446e-06
-4.35032157389e-05
-4.76490815346e-06
-3.94342521739e-05
-4.09927902421e-06
-3.60237427513e-05
-3.44818194717e-06
-3.26475377191e-05
-3.41769103717e-06
-2.8914442258e-05
-3.78367022373e-06
-2.50741914427e-05
-3.89923999576e-06
-2.11548282414e-05
-3.98788883612e-06
-1.66956926271e-05
-4.53403648937e-06
-1.14083732782e-05
-5.37444029402e-06
-5.46346150514e-06
-6.05103989939e-06
-5.51650192981e-06
-0.00020837685564
0.000415016262759
-0.00043645399781
0.000434070206828
-0.000659805121597
0.000430555010365
-0.000878998752033
0.000424018228063
-0.00109338650299
0.000415296093977
-0.00130213571294
0.000404559764945
-0.00150433586962
0.000392051002126
-0.00169925115187
0.000377981412572
-0.00188616187162
0.000362605270182
-0.00206456052658
0.000346130748862
-0.00223395588841
0.000328800740668
-0.00239406140219
0.000310801087463
-0.00254459375322
0.000292343564889
-0.00268544994906
0.000273577667407
-0.00281651583267
0.000254671688388
-0.00293782452588
0.000235733324356
-0.00304938701085
0.000216883990349
-0.00315132506625
0.000198191856774
-0.0032437334665
0.000179734729603
-0.00332678133912
0.000161548166624
-0.00340061278074
0.000143673146439
-0.00346541160745
0.000126121274448
-0.00352134495636
0.000108904465069
-0.00356858766175
9.20187851647e-05
-0.00360731140099
7.54544480057e-05
-0.00363766634288
5.91993488189e-05
-0.00365981692857
4.32284952437e-05
-0.00367387990791
2.75278328236e-05
-0.00368000645448
1.20630147032e-05
-0.00367827715203
-3.17644139653e-06
-0.00366882955426
-1.8228557266e-05
-0.0036517119906
-3.30948644162e-05
-0.0036270531356
-4.78111390083e-05
-0.00359487800603
-6.23645766421e-05
-0.00355531701405
-7.67823561206e-05
-0.00350838796524
-9.10318357535e-05
-0.00345423961896
-0.000105125278695
-0.0033929046825
-0.000119005244537
-0.00332457211441
-0.000132663496444
-0.00324931663836
-0.000146014258461
-0.00316739300973
-0.000159024869364
-0.00307894806371
-0.000171579896454
-0.00298432929937
-0.000183620668234
-0.00288378605141
-0.000195003387727
-0.00277778430872
-0.000205644335255
-0.00266670395849
-0.000215375495127
-0.00255115108685
-0.000224092410338
-0.00243165795954
-0.000231611601185
-0.00230898283481
-0.000237818794467
-0.0021838177273
-0.000242533353155
-0.0020570638891
-0.000245655083619
-0.00192955036677
-0.00024703997284
-0.00180227356889
-0.000246641625929
-0.00167613074648
-0.000244398216883
-0.00155211801377
-0.000240359021379
-0.00143108961586
-0.00023457763265
-0.00131391964901
-0.000227213264475
-0.00120130330849
-0.000218427206106
-0.00109389244852
-0.000208457817262
-0.000992150133039
-0.0001975260731
-0.000896463576194
-0.000185893740499
-0.000807049545422
-0.00017378797543
-0.000724041695432
-0.000161448634906
-0.000647438210886
-0.000149073260836
-0.000577162208056
-0.000136854109191
-0.000513042838704
-0.000124940840183
-0.000454849556033
-0.000113468873137
-0.000402297975738
-0.000102536072059
-0.000355061106921
-9.22231062112e-05
-0.00031279266411
-8.25800681996e-05
-0.000275120916217
-7.36392754375e-05
-0.000241682392368
-6.54099056675e-05
-0.000212103478718
-5.78862170305e-05
-0.000186037069608
-5.10478147632e-05
-0.000163136421005
-4.4865224068e-05
-0.000143089924873
-3.93016557498e-05
-0.000125592007865
-3.43167434943e-05
-0.000110373609277
-2.98673941416e-05
-9.7173409196e-05
-2.59106001135e-05
-8.57614747203e-05
-2.24023915089e-05
-7.59081661065e-05
-1.92998082294e-05
-6.73831812448e-05
-1.65569716782e-05
-5.98310233792e-05
-1.41272186325e-05
-5.30974836138e-05
-1.20692388126e-05
-4.73297451927e-05
-1.07729408646e-05
-4.23476169737e-05
-9.77656747833e-06
-3.82010475067e-05
-8.27775682697e-06
-3.4796287768e-05
-6.88896410802e-06
-3.16736313883e-05
-6.58101404109e-06
-2.84790420006e-05
-7.02759615689e-06
-2.48607311477e-05
-7.57645632309e-06
-2.09820004673e-05
-7.93153184383e-06
-1.68085477604e-05
-8.78267197109e-06
-1.18908064144e-05
-1.03793093152e-05
-5.82088172325e-06
-1.22170891213e-05
-1.13857391685e-05
-0.000213983288112
0.000628912556482
-0.000442022833102
0.000662016054346
-0.000667552729008
0.000655995073137
-0.000889205883999
0.000645582492548
-0.0011059467707
0.000631955811044
-0.00131682072952
0.000615354646933
-0.00152092287778
0.000596083893914
-0.00171747976128
0.000574472224406
-0.00190580673838
0.000550877255661
-0.00208536998982
0.000525642954258
-0.00225572477898
0.00049911599686
-0.00241656734785
0.000471608378576
-0.00256766671219
0.000443418829103
-0.00270890955257
0.000414800652983
-0.00284023353142
0.000385986028575
-0.0029616657484
0.000357159896457
-0.00307326325351
0.000328484629213
-0.00317514460668
0.000300079983075
-0.00326744156528
0.000272045468185
-0.00335032252947
0.000244446164574
-0.00342395783858
0.000217330534652
-0.00348853361985
0.000190722032797
-0.00354423202257
0.000164630823206
-0.00359123402231
0.000139051353379
-0.00362971517863
0.000113967089009
-0.00365983634993
8.93543888928e-05
-0.00368175506242
6.51799613801e-05
-0.00369560360065
4.14113668907e-05
-0.00370151584194
1.80072252768e-05
-0.00369959280165
-5.0653867745e-06
-0.00368994443037
-2.78476577365e-05
-0.00367264324982
-5.03646931031e-05
-0.00364778060702
-7.26488477517e-05
-0.00361540941036
-9.47088109937e-05
-0.0035756137353
-0.000116558895478
-0.00352844211039
-0.00013818229404
-0.00347398912681
-0.000159566069299
-0.0034123207019
-0.000180659491364
-0.00334356561485
-0.00020141430921
-0.00326783420375
-0.000221739453405
-0.00318531736455
-0.000241546079174
-0.00309620006388
-0.000260699800714
-0.00300076484115
-0.000279069586413
-0.00289930177096
-0.000296478622931
-0.00279221367603
-0.000312755927001
-0.00267992447678
-0.000327687032394
-0.00256298304527
-0.000341067527274
-0.00244197162285
-0.000352655951541
-0.00231760419122
-0.000362230171617
-0.00219063452847
-0.000369546638316
-0.0020619416973
-0.00037440170757
-0.00193243405883
-0.000376601242291
-0.00180311284003
-0.000376025503556
-0.0016749683531
-0.000372605008749
-0.00154901956551
-0.000366377893148
-0.0014262091789
-0.00035745755218
-0.0013074306671
-0.000346067349053
-0.00119344099988
-0.00033249180218
-0.00108489122172
-0.00031708648915
-0.000982271770418
-0.000300223339084
-0.000885950362932
-0.000282294898847
-0.000796144113175
-0.000263672159577
-0.000712957525492
-0.000244713306105
-0.000636372019535
-0.000225734532908
-0.000566279474327
-0.000207020860714
-0.000502484146252
-0.000188807883254
-0.00044472769953
-0.00017129390921
-0.000392698682927
-0.000154630841857
-0.0003460481218
-0.00013893534876
-0.000304402959606
-0.000124283562905
-0.000267376061977
-0.00011072007877
-0.000234580669949
-9.82557384817e-05
-0.000205635451914
-8.68775044798e-05
-0.00018017627954
-7.65500299874e-05
-0.000157855479846
-6.72251749468e-05
-0.000138350380696
-5.88436453865e-05
-0.000121358710926
-5.13421912178e-05
-0.000106604450357
-4.46539315666e-05
-9.38310735851e-05
-3.87139868254e-05
-8.28032932603e-05
-3.34592273877e-05
-7.32956002265e-05
-2.88350566516e-05
-6.50810410662e-05
-2.47986195063e-05
-5.78641270238e-05
-2.13701847536e-05
-5.15142134071e-05
-1.84455298431e-05
-4.60028636389e-05
-1.63118602376e-05
-4.13645133014e-05
-1.44453954258e-05
-3.68862331612e-05
-1.27891468601e-05
-3.26522119269e-05
-1.11587315564e-05
-2.93183737795e-05
-9.95551206661e-06
-2.67310275419e-05
-9.66409701288e-06
-2.32650170487e-05
-1.11004444941e-05
-1.89942577345e-05
-1.22677856709e-05
-1.46108443585e-05
-1.32368569356e-05
-9.80308314516e-06
-1.52648009733e-05
-5.02063622924e-06
-1.7084080221e-05
-1.64495916025e-05
-0.000218317636223
0.000847139029179
-0.000449274781662
0.000892875126923
-0.000678018327921
0.000884644695219
-0.000902840312489
0.000870313263813
-0.00112254893963
0.000851579489378
-0.0013360964379
0.000828821900391
-0.0015425457202
0.000802460945522
-0.00174109679965
0.000772957127523
-0.00193107380034
0.000740797300312
-0.00211194380567
0.000706462801341
-0.00228329208903
0.000670423756563
-0.00244483186275
0.000633114587246
-0.00259637310865
0.000594935847536
-0.00273782717914
0.000556237148054
-0.00286917500924
0.000517324783885
-0.00299046947997
0.000478451296728
-0.00310180700252
0.000439826376012
-0.00320332906792
0.000401611430461
-0.00329519945377
0.000363931125863
-0.0033776051448
0.000326871329371
-0.00345074000753
0.000290489258624
-0.00351480454649
0.000254813669065
-0.00356999613072
0.000219852401549
-0.00361650681129
0.000185594313968
-0.00365451977872
0.000152013777593
-0.00368420457012
0.000119074308549
-0.00370571942631
8.6730031816e-05
-0.00371920350748
5.49312458213e-05
-0.00372478485645
2.3623183966e-05
-0.0037225695795
-7.24620056297e-06
-0.00371265526092
-3.7729841833e-05
-0.00369511744454
-6.78711842289e-05
-0.00367002848483
-9.77098417063e-05
-0.00363744177278
-0.000127268922109
-0.00359741589742
-0.000156562396315
-0.00354999725448
-0.000185580406637
-0.00349524916354
-0.000214298594538
-0.00343323325848
-0.000242662059809
-0.00336404279109
-0.000270596988163
-0.0032877829092
-0.000297994126666
-0.00320460687607
-0.000324722953973
-0.0031146950635
-0.000350615383029
-0.00301829260125
-0.000375482280962
-0.00291568709671
-0.000399097625185
-0.00280724663755
-0.000421216677214
-0.0026933968511
-0.000441560694272
-0.00257465867952
-0.000459836552121
-0.00245162562639
-0.000475723737942
-0.0023249996221
-0.000488897861622
-0.00219556653467
-0.000499025182262
-0.00206422387156
-0.000505796409864
-0.00193194609319
-0.000508934427963
-0.00179979205107
-0.000508240693503
-0.00166885033897
-0.000503610932036
-0.0015402209102
-0.000495076070516
-0.00141494714887
-0.000482802396534
-0.00129398921956
-0.000467099792116
-0.00117816788414
-0.000448389017734
-0.00106815747672
-0.000427174850799
-0.000964463866894
-0.000403995362982
-0.000867440061648
-0.000379397570162
-0.00077728561122
-0.000353904908967
-0.000694068882059
-0.000328007319527
-0.000617735684513
-0.000302143449358
-0.000548133547972
-0.00027669666833
-0.000485025259545
-0.00025198729735
-0.000428110389495
-0.000228277016939
-0.00037703827787
-0.000205768023195
-0.000331423310171
-0.00018461156326
-0.000290857531896
-0.000164906977413
-0.000254923737069
-0.0001467071209
-0.00022320813446
-0.000130020678803
-0.000195310196426
-0.000114820593326
-0.000170849775458
-0.000101052050204
-0.000149470829836
-8.86422862345e-05
-0.000130843675618
-7.75062291384e-05
-0.000114665119794
-6.75536784316e-05
-0.000100658425626
-5.86917242923e-05
-8.85717612463e-05
-5.08300607291e-05
-7.81765980759e-05
-4.38826619256e-05
-6.9265021736e-05
-3.77739130784e-05
-6.16458218939e-05
-3.24444920143e-05
-5.51262787153e-05
-2.79159987171e-05
-4.9309434889e-05
-2.42890242207e-05
-4.40721480197e-05
-2.15779321665e-05
-3.91965415555e-05
-1.93523823721e-05
-3.46736651856e-05
-1.7346240438e-05
-3.07276614101e-05
-1.51418345932e-05
-2.68075980958e-05
-1.39166140979e-05
-2.28299605973e-05
-1.36884569075e-05
-2.00703890568e-05
-1.39141468617e-05
-1.61629135525e-05
-1.62380816738e-05
-1.15015973135e-05
-1.79653224002e-05
-7.63394825682e-06
-1.92003100756e-05
-3.99978580739e-06
-2.07922760642e-05
-2.04899358741e-05
-0.000223354670272
0.00107039829456
-0.00045902849094
0.00112844828025
-0.000692351042706
0.00111786807522
-0.000921513333565
0.00109938115634
-0.00114522954455
0.00107520664516
-0.00136237188001
0.00104588196126
-0.00157195971196
0.00101197365263
-0.00177316724618
0.000974097910257
-0.00196532188591
0.000932893386648
-0.00214790267371
0.000888994206723
-0.00232052839239
0.00084300862107
-0.00248294694603
0.000795501424576
-0.00263501722912
0.000746982651837
-0.0027766948108
0.000697899729035
-0.00290801267211
0.000648635132178
-0.00302906749619
0.000599506010967
-0.00314000266462
0.000550767874809
-0.00324099731798
0.000502618531873
-0.00333225312291
0.000455204607274
-0.00341398645969
0.000408627104163
-0.003486419122
0.000362948324284
-0.00354977301159
0.000318197391933
-0.0036042642953
0.000274376228243
-0.00365009965418
0.000231464393209
-0.00368747328386
0.000189423645912
-0.00371656387613
0.000148202159207
-0.00373753397881
0.000107737788639
-0.00375052718151
6.79620771188e-05
-0.00375566961655
2.88026220695e-05
-0.00375306719468
-9.81259354434e-06
-0.00374280926219
-4.79533049687e-05
-0.0037249661228
-8.56816591899e-05
-0.00369959513175
-0.000123050535829
-0.00366673886297
-0.000160097426968
-0.00362643393867
-0.000196842622837
-0.00357871031743
-0.000233282464486
-0.00352360298418
-0.000269387999935
-0.00346115251024
-0.000305098257552
-0.00339141921169
-0.000340320133775
-0.00331448461496
-0.000374922672823
-0.00323046712938
-0.000408738962664
-0.00313952352828
-0.000441562061243
-0.0030418648898
-0.000473149005093
-0.00293775741984
-0.000503218145951
-0.00282753820504
-0.000531454336505
-0.00271161594076
-0.000557506726461
-0.00259048759495
-0.000580994433621
-0.0024647407696
-0.000601505623099
-0.0023350720379
-0.000618607339379
-0.00220229013689
-0.000631853482092
-0.00206732852136
-0.000640809387428
-0.0019312376543
-0.000645082021129
-0.00179517227779
-0.00064436715969
-0.00166035115567
-0.000638497036215
-0.00152800901482
-0.000627487243984
-0.0013993269977
-0.000611555872253
-0.00127537580305
-0.000591125276035
-0.00115705722704
-0.000566783903535
-0.00104508218964
-0.000539227554406
-0.000939965351219
-0.000509190809458
-0.00084203967906
-0.000477402090272
-0.000751470466362
-0.000444551982733
-0.000668277278413
-0.000411277715844
-0.000592349718554
-0.000378146033516
-0.000523474374975
-0.000345645126673
-0.000461354292582
-0.000314178332486
-0.000405630987196
-0.000284068045529
-0.000355901402183
-0.000255562684075
-0.000311729380385
-0.000228844868429
-0.000272659736759
-0.000204033781142
-0.000238232763937
-0.00018118712631
-0.000207998128168
-0.000160303611361
-0.000181528472933
-0.00014133439451
-0.000158424397737
-0.000124196293513
-0.000138318252819
-0.000108785169968
-0.000120874024364
-9.49845283077e-05
-0.000105786622061
-8.26727553288e-05
-9.27810095905e-05
-7.17273704822e-05
-8.16107565806e-05
-6.20289183772e-05
-7.20574185273e-05
-5.346362001e-05
-6.3931618703e-05
-4.59266145246e-05
-5.70738272306e-05
-3.93288146691e-05
-5.14020970802e-05
-3.36139988262e-05
-4.63209639261e-05
-2.93976922593e-05
-4.1643622376e-05
-2.62851585354e-05
-3.71663003118e-05
-2.38627680633e-05
-3.27959799844e-05
-2.17520416596e-05
-2.78308476292e-05
-2.01447249686e-05
-2.33201368433e-05
-1.8468568816e-05
-1.92368290227e-05
-1.7818544871e-05
-1.60655424143e-05
-1.71368264204e-05
-1.34487637643e-05
-1.89136604756e-05
-9.52621800967e-06
-2.19493983358e-05
-5.85108147635e-06
-2.29380396437e-05
-2.99788151496e-06
-2.37125905526e-05
-2.35217328466e-05
-0.000229564626287
0.00129986209671
-0.000471506783207
0.00137028219559
-0.000710823183084
0.00135708072084
-0.000945598183561
0.00133405669069
-0.00117444733271
0.00130396322502
-0.00139616339234
0.00126751225903
-0.00160971411423
0.0012254474262
-0.00181425114036
0.00117856635185
-0.00200910511304
0.00112768876186
-0.0021937804924
0.00107362002196
-0.00236793807613
0.0010171268307
-0.00253138010652
0.000958912983881
-0.00268402682526
0.000899608494562
-0.00282589855197
0.000839758760651
-0.00295709266954
0.000779825027067
-0.00307776755687
0.00072018376222
-0.00318812371878
0.000661133964908
-0.00328839171123
0.000602902265273
-0.00337881851863
0.000545652716672
-0.00345965951621
0.000489493892621
-0.00353116955664
0.000434488231573
-0.00359359799578
0.0003806589056
-0.0036471833613
0.000327997352317
-0.00369215027591
0.000276469069762
-0.00372870660072
0.000226019133972
-0.00375704133776
0.000176576963566
-0.00377732349024
0.000128060254741
-0.00378970042719
8.03792285925e-05
-0.0037942980923
3.34397025927e-05
-0.00379121973109
-1.28525322445e-05
-0.00378054752212
-5.8588816425e-05
-0.00376234202392
-0.000103852246637
-0.00373664561026
-0.000148714576942
-0.00370348315675
-0.000193229966776
-0.00366286789175
-0.000237431196643
-0.00361480396431
-0.000281322732229
-0.00355929506622
-0.000324877045004
-0.00349634912105
-0.000368027863633
-0.00342598946585
-0.000410667769871
-0.00334826112445
-0.000452642983726
-0.00326324340781
-0.00049375348609
-0.00317105641025
-0.00053375033975
-0.00307187341532
-0.000572338639254
-0.0029659263529
-0.000609176789395
-0.00285351753428
-0.000643880593969
-0.00273502504024
-0.00067602212699
-0.00261091633627
-0.000705132216966
-0.00248175822499
-0.000730698632777
-0.00234823669722
-0.000752169969639
-0.002211173281
-0.000768963424981
-0.00207154587626
-0.000780489409666
-0.00193049373725
-0.000786191453091
-0.00178930757007
-0.000785615635864
-0.00164938488109
-0.000778486149241
-0.00151215881759
-0.00076478296157
-0.00137900831798
-0.000744778684402
-0.00125116608204
-0.000719042418017
-0.00112963960156
-0.000688387089491
-0.0010151821437
-0.000653763205856
-0.000908305286734
-0.000616147014886
-0.000809307242263
-0.000576479288814
-0.000718300611893
-0.000535637108681
-0.000635235718717
-0.000494419493878
-0.000559924050573
-0.000453532678981
-0.000492068617848
-0.000413573527369
-0.000431291600594
-0.000375025969545
-0.000377160807639
-0.00033826721509
-0.000329206396459
-0.000303583011304
-0.000286929087489
-0.000271184315908
-0.000249812714358
-0.000241208215509
-0.000217340018703
-0.000213712851065
-0.000189013316878
-0.000188677948729
-0.000164370901654
-0.000166019727983
-0.000142991500969
-0.000145614270777
-0.000124494930616
-0.000127316971906
-0.000108539387402
-0.000110972551257
-9.48189922921e-05
-9.6423683685e-05
-8.30613495547e-05
-8.3514042246e-05
-7.30258420662e-05
-7.20923683473e-05
-6.45022704781e-05
-6.20143880742e-05
-5.7309373171e-05
-5.31462434688e-05
-5.12666911794e-05
-4.53979138973e-05
-4.61148045908e-05
-3.8792560963e-05
-4.12751489458e-05
-3.42655089508e-05
-3.68491895704e-05
-3.07418443958e-05
-3.25146385279e-05
-2.82304797482e-05
-2.86517359077e-05
-2.56505864875e-05
-2.51387348888e-05
-2.36969716146e-05
-2.0997821288e-05
-2.26541418507e-05
-1.67925101985e-05
-2.20715954476e-05
-1.25235578811e-05
-2.1454590947e-05
-9.90817315914e-06
-2.15817394102e-05
-7.77685612331e-06
-2.41395370488e-05
-4.74383216912e-06
-2.60280099829e-05
-2.39219727224e-06
-2.61227684382e-05
-2.59472832494e-05
-0.000237208128006
0.00153696357027
-0.000487006623488
0.0016199681511
-0.000733819002316
0.00160378268074
-0.000975571480543
0.00157570508629
-0.0012107579564
0.00153905231835
-0.00143807673205
0.00149474255892
-0.00165643948767
0.00144373044126
-0.00186497522818
0.00138703305308
-0.00206302775595
0.0013256819911
-0.00225013909155
0.00126068336353
-0.00242603149764
0.00119298104774
-0.00259057994424
0.00112343406093
-0.00274378810988
0.00105279842324
-0.00288575978122
0.000981721801296
-0.00301667638408
0.000910740988826
-0.00313677349622
0.000840288249081
-0.00324632366412
0.000770698119656
-0.00334562005197
0.000702218955146
-0.00343496506696
0.000635023204687
-0.00351466039849
0.000569219365574
-0.00358500024007
0.000504861992472
-0.00364626588386
0.000441961625256
-0.00369872190756
0.00038049293446
-0.00374261350381
0.00032040203055
-0.00377816428652
0.000261612590483
-0.00380557503824
0.000204030998785
-0.00382502229788
0.000147551048169
-0.00383665779409
9.20578131458e-05
-0.00384060750373
3.74318084165e-05
-0.00383697160666
-1.6447414028e-05
-0.00382582421892
-6.96967205684e-05
-0.00380721430941
-0.000122424868197
-0.00378116671743
-0.000174727129185
-0.00374768477549
-0.000226679765654
-0.00370675355661
-0.000278333133415
-0.00365834512482
-0.000329705375215
-0.00360242473439
-0.000380775028827
-0.00353895917463
-0.000431475057131
-0.0034679258579
-0.000481686604151
-0.00338932362447
-0.000531235332823
-0.00330318331417
-0.000579888337241
-0.00320957898698
-0.00062735441765
-0.00310863750251
-0.000673284871036
-0.00300054787783
-0.000717276986282
-0.00288556880972
-0.000758875919155
-0.00276403694625
-0.000797576518141
-0.00263637743331
-0.000832820590556
-0.00250311907876
-0.000863992140976
-0.00236491927305
-0.000890411318852
-0.00222259622191
-0.000911334835273
-0.00207716506764
-0.00092597386167
-0.00192986971457
-0.000933547022044
-0.00178217789439
-0.000933371879448
-0.0016357362556
-0.000924995762444
-0.00149226397186
-0.000908327051909
-0.00135342612555
-0.000883689391442
-0.0012206904083
-0.000851853240591
-0.00109520047804
-0.000813955086705
-0.000977742758388
-0.000771300488449
-0.000868800438781
-0.000725170232338
-0.000768611759204
-0.000676748661386
-0.000677211805515
-0.000627115691204
-0.000594458523436
-0.000577250256796
-0.000520055034783
-0.000528010097618
-0.000453592982132
-0.000480108060167
-0.000394588630371
-0.000434101636262
-0.000342517791041
-0.000390407055031
-0.000296833989751
-0.00034933471376
-0.000256963562459
-0.000311118809179
-0.000222312977822
-0.000275917559958
-0.000192289172368
-0.000243789609827
-0.000166331853
-0.000214681702698
-0.000143938321958
-0.000188454143792
-0.000124665228231
-0.000164924129091
-0.000108121071705
-0.000143894280195
-9.39613934974e-05
-0.000125163584453
-8.18811425474e-05
-0.000108533325154
-7.16129293626e-05
-9.38108029955e-05
-6.29235081445e-05
-8.08094985874e-05
-5.56147642444e-05
-6.93502963829e-05
-4.95270842239e-05
-5.92608387162e-05
-4.45482566505e-05
-5.04035309023e-05
-4.01810225558e-05
-4.3187244e-05
-3.59427365046e-05
-3.85330857907e-05
-3.18607844663e-05
-3.48554707734e-05
-2.82834221978e-05
-3.18421191251e-05
-2.44511920609e-05
-2.95198913914e-05
-2.08077096416e-05
-2.73812441146e-05
-1.71025414427e-05
-2.64037248785e-05
-1.39389030113e-05
-2.52823917548e-05
-1.03848952786e-05
-2.50587546795e-05
-7.13116923431e-06
-2.48861997357e-05
-5.74641017333e-06
-2.55736999181e-05
-3.70010567751e-06
-2.81295820545e-05
-1.85756360683e-06
-2.80231509098e-05
-2.78338327383e-05
-0.000246507261556
0.00178335750977
-0.00050590346819
0.00187924260751
-0.000761851659512
0.0018596147497
-0.00101206810154
0.00182581134118
-0.00125488726721
0.00178177029464
-0.00148889592488
0.00172865903983
-0.00171294061234
0.00166769424517
-0.0019261347919
0.00160015703943
-0.00212784619254
0.00152733554547
-0.0023176773736
0.00145046779413
-0.00249543366768
0.00137070266073
-0.00266109150188
0.00128906767076
-0.00281476154613
0.00120645508019
-0.00295665748849
0.0011236135085
-0.00308706455275
0.00104115291757
-0.00320631565979
0.000959551757294
-0.0033147693285
0.000879171393576
-0.00341279464889
0.000800269748141
-0.00350075807313
0.000723017474044
-0.00357901544001
0.000647511868668
-0.00364790516168
0.000573790560946
-0.00370774463415
0.00050184281971
-0.00375882719092
0.00043161946617
-0.00380142063517
0.000363041077516
-0.00383576600436
0.000296004547032
-0.00386207675585
0.000230388875008
-0.0038805381936
0.000166059494114
-0.00389130658508
0.000102872791395
-0.00389450879879
4.06795262565e-05
-0.003890241271
-2.06706979979e-05
-0.00387857011282
-8.13255630709e-05
-0.00385953057248
-0.000141424079572
-0.00383312840831
-0.000201091622017
-0.00379934094374
-0.000260432164253
-0.00375812106846
-0.000319521229359
-0.00370940126931
-0.000378396547292
-0.0036531014354
-0.000437050100731
-0.00358913674881
-0.000495418656033
-0.00351742953321
-0.000553377189509
-0.00343792038323
-0.000610732118001
-0.00335058224801
-0.000667219249166
-0.00325543183528
-0.000722502515555
-0.00315254205289
-0.000776178260491
-0.00304204941743
-0.000827778851351
-0.00292416187502
-0.000876779373798
-0.00279916246505
-0.000922598136159
-0.00266741865548
-0.000964593649567
-0.00252939677727
-0.00100205032293
-0.0023856943165
-0.00103415703012
-0.00223708999236
-0.0010599887008
-0.002084613977
-0.00107850696021
-0.00192961482043
-0.00108860926014
-0.00177378944078
-0.00108926519222
-0.00161913355932
-0.00107972280911
-0.00146777414275
-0.00105976100963
-0.00132180405722
-0.00102973077596
-0.00118303902448
-0.000990693952764
-0.00105278960032
-0.000944282914663
-0.000931835807846
-0.000892333643702
-0.000820578855128
-0.000836510509185
-0.000719156424321
-0.00077825260051
-0.000627500905046
-0.000718850367963
-0.00054534780039
-0.000659479389253
-0.000472256885539
-0.000601173237134
-0.00040766748134
-0.000544768334697
-0.000350956574033
-0.000490882445972
-0.000301492607235
-0.000439940344969
-0.000258648405473
-0.00039224842518
-0.000221771897843
-0.000348060201884
-0.000190173611773
-0.00030757412738
-0.000163154609473
-0.000270859522099
-0.000140070027426
-0.000237809487795
-0.000120371344319
-0.000208190500737
-0.000103597790684
-0.000181731736554
-8.93533160496e-05
-0.00015817033232
-7.72950970457e-05
-0.00013725192271
-6.71237630044e-05
-0.000118734052341
-5.85779246442e-05
-0.000102385299988
-5.14313094205e-05
-8.79843682281e-05
-4.54911160763e-05
-7.53183937634e-05
-4.05965383542e-05
-6.4183047012e-05
-3.66009401463e-05
-5.44267177499e-05
-3.27931712986e-05
-4.70233985515e-05
-2.93422187538e-05
-4.20144082443e-05
-2.61564249408e-05
-3.80740718982e-05
-2.32893481109e-05
-3.47446214748e-05
-2.02940909053e-05
-3.25539453427e-05
-1.68474889297e-05
-3.08699522158e-05
-1.3695984851e-05
-2.96005128125e-05
-1.03924622372e-05
-2.86335232047e-05
-8.15308288148e-06
-2.73466432461e-05
-5.65959959484e-06
-2.74293253939e-05
-3.86471678011e-06
-2.74205437694e-05
-2.83919147592e-06
-2.92056535387e-05
-1.37352953433e-06
-2.9540852403e-05
-2.92379117038e-05
-0.000257711858932
0.00204094920584
-0.000528667329211
0.0021500707983
-0.000795586655279
0.00212641054727
-0.00105590852443
0.00208601808323
-0.00130776877179
0.00203352461899
-0.0015496174195
0.00197041361614
-0.0017802330046
0.00189822723839
-0.00199872028494
0.0018185754773
-0.00220449483281
0.00173305352274
-0.00239724593681
0.00164317616957
-0.00257689790075
0.00155032367135
-0.00274356036566
0.00145571171851
-0.00289748596878
0.00136037267052
-0.00303902586706
0.0012651558746
-0.00316859602246
0.00117073414451
-0.00328664605927
0.00107762107268
-0.00339363783917
0.000986189167395
-0.00349002784165
0.000896691790416
-0.00357625611581
0.000809282729626
-0.00365273848578
0.000724035368383
-0.0037198620512
0.000640958629399
-0.0037779829724
0.000560010789515
-0.00382742510195
0.000481110667373
-0.00386848015327
0.000404146407452
-0.00390140722516
0.000328982766239
-0.00392643344785
0.000255466325539
-0.0039437532169
0.000183430363903
-0.00395352840228