/*--------------------------------*- C++ -*----------------------------------*\
| =========                 |                                                 |
| \\      /  F ield         | OpenFOAM: The Open Source CFD Toolbox           |
|  \\    /   O peration     | Version:  v1906                                 |
|   \\  /    A nd           | Web:      www.OpenFOAM.com                      |
|    \\/     M anipulation  |                                                 |
\*---------------------------------------------------------------------------*/
FoamFile
{
    version     2.0;
    format      ascii;
    class       surfaceScalarField;
    location    "136";
    object      phia;
}
// * * * * * * * * * * * * * * * * * * * * * * * * * * * * * * * * * * * * * //

dimensions      [0 3 -1 0 0 0 0];
oriented        oriented;


internalField   nonuniform List<scalar> 
18240
(
0.0121978249084
-0.0121978265789
0.0250788003647
-0.0128809776494
0.0378851746771
-0.0128063758697
0.0505306461625
-0.0126454737567
0.0629559338243
-0.0124252890302
0.0751084872018
-0.0121525557035
0.0869406978758
-0.0118322118606
0.0984097416489
-0.0114690461345
0.109477705633
-0.011067964993
0.120111716408
-0.0106340131526
0.13028400619
-0.0101722906145
0.139971859653
-0.00968785584039
0.149157484122
-0.00918562513432
0.157827774682
-0.00867029292333
0.165974035024
-0.00814626084468
0.173591625492
-0.00761759280585
0.180679603232
-0.00708797809257
0.1872403196
-0.00656071866975
0.19327903956
-0.00603872017005
0.19880354051
-0.00552450320714
0.203823753677
-0.00502021324637
0.208351398301
-0.00452764682916
0.212399670161
-0.00404827181871
0.215982928803
-0.00358326078909
0.219116444025
-0.0031335150711
0.22181614177
-0.00269969982965
0.224098409781
-0.00228226775972
0.225979900763
-0.0018814929987
0.227477394573
-0.00149749346892
0.228607658094
-0.00113026546678
0.22938737007
-0.000779711553957
0.229833059075
-0.000445690877046
0.229961154758
-0.000128095189424
0.229788136032
0.000173016930632
0.229327735409
0.00046040118293
0.228594680579
0.000733053113089
0.227603422279
0.000991258915634
0.226367869473
0.00123555116686
0.224901422479
0.0014664476585
0.223216958547
0.00168446237202
0.221326849781
0.00189010947108
0.219242952068
0.00208389623125
0.216976626609
0.00226632620126
0.214538733558
0.00243789164813
0.211939657206
0.00259907712158
0.209189303149
0.00275035273307
0.206297125591
0.00289217835073
0.203272126672
0.00302499767421
0.2001228846
0.00314924288204
0.19685755411
0.00326532932377
0.19348389451
0.00337366042398
0.190009270579
0.00347462284184
0.18644067993
0.00356859147973
0.182784753922
0.00365592499629
0.179047783954
0.00373697080376
0.175235722159
0.00381206085786
0.171354206431
0.00388151656236
0.167408560788
0.00394564478198
0.163403819024
0.00400474259386
0.159344724745
0.00405909349157
0.155235753622
0.00410897194392
0.151081113138
0.00415463976932
0.146884763474
0.00419635047257
0.142650417049
0.00423434578161
0.138381558098
0.00426885974489
0.134081442098
0.00430011542685
0.12975311412
0.00432832875293
0.125399408249
0.0043537053673
0.121022964783
0.00437644421969
0.116626229758
0.00439673458946
0.112211471079
0.00441475940978
0.107780778245
0.00443069246645
0.103336077491
0.00444470145866
0.0988791318112
0.00445694538011
0.0944115551729
0.00446757731537
0.0899348129255
0.00447674201294
0.0854502351536
0.00448457841814
0.0809590175376
0.0044912174456
0.076462233902
0.00449678424804
0.0719608375976
0.00450139619539
0.0674556732954
0.00450516487673
0.0629474789588
0.00450819428633
0.0584368969478
0.00451058254399
0.0539244766875
0.00451242026694
0.0494106852311
0.00451379194647
0.0448959109192
0.00451477437752
0.0403804739876
0.00451543738153
0.0358646325579
0.0045158415593
0.0313485964805
0.00451603649161
0.0268325437746
0.00451605289534
0.0223166594851
0.00451588465726
0.0178012226298
0.00451543709011
0.0132868666326
0.00451435628551
0.00877532878804
0.00451153815455
0.00428057874505
0.00449475039351
0.00428057890813
0.0128052751868
-0.0250031036167
0.0264780394169
-0.0265537439555
0.0400294606873
-0.0263577990093
0.053399632519
-0.0260156476243
0.0665344891623
-0.0255601474521
0.0793821725726
-0.0250002411063
0.0918939162158
-0.0243439571859
0.104025300843
-0.023600432703
0.115736774173
-0.0227794399015
0.126993919068
-0.0218911599271
0.137767558337
-0.0209459313531
0.148033722267
-0.0199540215812
0.15777351638
-0.0189254206069
0.166972893102
-0.01786967138
0.175622363313
-0.0167957323052
0.183716648457
-0.0157118796055
0.191254308679
-0.0146256394553
0.198237343128
-0.0135437546924
0.204670795184
-0.0124721732617
0.210562353075
-0.0114160625892
0.215921975177
-0.0103798362807
0.220761525016
-0.00936719807533
0.225094442164
-0.00838118980185
0.228935429641
-0.00742424959003
0.232300181713
-0.00649826788474
0.235205129553
-0.00560464891205
0.237667227148
-0.00474436600685
0.239703752676
-0.00391801968817
0.241332146324
-0.00312588768403
0.242569856529
-0.00236797675464
0.24343420999
-0.00164406550306
0.24394226461
-0.0009537465028
0.244110610516
-0.00029644150642
0.243954849437
0.00032877708139
0.243492339255
0.000922911026814
0.242738960444
0.00148643107089
0.241709908761
0.00202031032778
0.240419886784
0.00252557236141
0.238883083548
0.00300325068514
0.237113162541
0.00345438266354
0.235123263445
0.00388000841531
0.232925997041
0.00428116198476
0.230533455173
0.00465886797145
0.227957212198
0.00501413403474
0.225208339936
0.00534794933546
0.222297413182
0.00566127895886
0.219234527535
0.00595506399474
0.216029307269
0.00623021747036
0.212690924582
0.00648762560795
0.20922810865
0.00672814484042
0.205649165302
0.0069526038505
0.201961986451
0.00716180133077
0.198174069543
0.00735650850164
0.194292526862
0.00753746736599
0.190324104328
0.00770539348439
0.186275190378
0.00786097454504
0.182151833878
0.00800487323791
0.177959752428
0.00813772601596
0.173704349266
0.00826014595755
0.16939072095
0.00837272163564
0.165023673225
0.00847601989338
0.160607728096
0.00857058476804
0.156147138683
0.00865694013112
0.151645895739
0.00873558863531
0.147107741559
0.00880701418904
0.142536176022
0.00887168091046
0.137934469635
0.00893003541998
0.13330566919
0.00898250579606
0.128652610024
0.00902950367833
0.123977921405
0.00907142322771
0.119284038081
0.00910864303913
0.114573205486
0.00914152511304
0.10984749068
0.00917041658103
0.105108787445
0.00919564869869
0.100358826695
0.00921753838976
0.0955991815504
0.00923638727172
0.0908312772747
0.00925248302477
0.0860563964009
0.00926609846163
0.0812756882565
0.00927749272655
0.0764901742009
0.00928691041815
0.071700756792
0.0092945826194
0.0669082251932
0.00930072607389
0.0621132640351
0.00930554403216
0.0573164590569
0.00930922545347
0.0525183057289
0.00931194559988
0.0477192152055
0.00931386513044
0.0429195227445
0.0093151301672
0.0381194938165
0.0093158707426
0.0333193313509
0.00931619928535
0.0285191780338
0.00931620649538
0.023719107798
0.00931595520095
0.0189190732763
0.00931547188732
0.0141187115994
0.00931471827793
0.00931704753743
0.00931320253143
0.00451829654523
0.00929350172299
0.00879887563732
0.0129692440511
-0.037972349554
0.0267761439216
-0.0403606458108
0.0404737707591
-0.0400554278016
0.0539882418747
-0.0395301206985
0.0672607087226
-0.0388326161786
0.0802371676568
-0.0379767019397
0.0928675165843
-0.036974307913
0.105106378235
-0.0358392961831
0.11691353696
-0.0345866003418
0.128254196274
-0.0332318209917
0.139099068058
-0.031790804761
0.149424319493
-0.0302792746819
0.159211406493
-0.0287125091363
0.168446811916
-0.0271050783809
0.177121716036
-0.0254706378568
0.185231614583
-0.0238217796408
0.192775908893
-0.0221699351001
0.199757478577
-0.0205253257732
0.206182256567
-0.0188969524915
0.212058811207
-0.0172926185344
0.217397950256
-0.0157189764746
0.222212346277
-0.0141815953132
0.226516194122
-0.0126850386999
0.23032489595
-0.0112329525464
0.233654781575
-0.00982815447487
0.236522856855
-0.00847272523542
0.238946586047
-0.00716809607692
0.240943699083
-0.00591513368445
0.242532028306
-0.00471421770284
0.243729363678
-0.00356531300688
0.244553328764
-0.00246803130595
0.245021264843
-0.00142168338418
0.245150134379
-0.000425311681931
0.24495663914
0.000522271595286
0.244457582872
0.00142196673258
0.243668593267
0.00227542002456
0.24260484008
0.00308406302236
0.241281048175
0.00384936368403
0.239711436156
0.00457286227756
0.237909691628
0.00525612667369
0.235888966587
0.00590073309015
0.233661876788
0.00650825132818
0.231240509041
0.00708023540926
0.228636427918
0.00761821476004
0.225860688098
0.00812368890144
0.222923844829
0.00859812188634
0.219835968946
0.0090429396743
0.216606659307
0.0094595268197
0.213245059076
0.00984922568424
0.209759868978
0.0102133346997
0.206159363909
0.0105531088091
0.202451406279
0.0108697587688
0.198643462335
0.0111644523776
0.19474261512
0.0114383144344
0.190755580149
0.0116924284272
0.186688717715
0.0119278368745
0.182548047717
0.0121455432442
0.178339261181
0.0123465124862
0.174067734161
0.0125316730207
0.169738538433
0.0127019173352
0.165356454466
0.0128581039338
0.160925981326
0.0130010579153
0.156451348745
0.0131315728145
0.151936526308
0.0132504111109
0.147385234704
0.0133583059224
0.142800954268
0.0134559614156
0.13818693551
0.0135440543321
0.133546207114
0.0136232342894
0.128881585836
0.013694125133
0.124195684059
0.0137573251285
0.119490919156
0.0138134081406
0.114769520693
0.0138629237258
0.110033539345
0.0139063981459
0.105284853844
0.0139443343737
0.100525179515
0.0139772129532
0.0957560750509
0.0140054919318
0.090978950745
0.0140296075813
0.0861950751502
0.0140499742717
0.0814055830764
0.0140669850637
0.0766114821886
0.0140810115374
0.0718136608159
0.0140924042646
0.0670128945378
0.0141014925962
0.0622098538387
0.0141085850096
0.0574051107078
0.0141139688391
0.0525991461316
0.0141179104596
0.0477923566374
0.0141206548915
0.0429850613922
0.0141224257049
0.0381775080738
0.0141234243457
0.0333698780265
0.0141238296368
0.0285622877347
0.0141237970839
0.0237547835368
0.0141234597099
0.0189473209306
0.0141229347801
0.0141397315017
0.0141223079794
0.00933196771289
0.0141209666603
0.00453286871859
0.014092601081
0.0133317445176
0.0131458732805
-0.0511182247293
0.027130791171
-0.0543455657267
0.0410033383053
-0.0539279769019
0.0546861958155
-0.053212980166
0.0681172075704
-0.0522636298372
0.0812400654458
-0.0510995617007
0.0940030182821
-0.049737262581
0.106359571212
-0.0481958509232
0.118268849894
-0.0464958807745
0.12969581421
-0.0446587870366
0.140611301911
-0.0427062941253
0.150991925725
-0.0406599001372
0.160819850176
-0.0385404351582
0.17008247294
-0.0363677026951
0.178772037868
-0.0341602042622
0.186885201432
-0.0319349446624
0.194422575054
-0.0297073101053
0.201388258926
-0.0274910110094
0.207789383319
-0.025298078174
0.213635666336
-0.0231389028224
0.218938997969
-0.0210223093045
0.22371305383
-0.018955652356
0.227972943708
-0.0169449296842
0.231734894278
-0.0149949042088
0.235015968072
-0.0131092292879
0.237833815544
-0.0112905737141
0.240206460606
-0.00954074207208
0.242152115224
-0.00786078922594
0.24368902283
-0.00625112615999
0.244835326194
-0.00471161721351
0.245608960722
-0.00324166660665
0.246027570638
-0.00184029406472
0.246108460518
-0.000506202255545
0.245868590725
0.000762140702967
0.245324026195
0.00196653064665
0.244490714003
0.00310873160735
0.243384041698
0.00419073478154
0.242018815297
0.00521458954462
0.240409285201
0.0061823918946
0.238569148564
0.00709626283401
0.236511552312
0.00795832892485
0.234249097648
0.00877070557649
0.231793848468
0.0095354842313
0.229157341073
0.010254721797
0.226350596728
0.010930432943
0.223384134512
0.0115645837993
0.220267986139
0.0121590877971
0.217011710382
0.0127158023257
0.213624408853
0.0132365270113
0.210114740962
0.013723002389
0.206490939803
0.0141769098126
0.202760826975
0.014599871441
0.198931828043
0.0149934511993
0.195010986787
0.0153591555773
0.191004979952
0.015698435193
0.186920130687
0.0160126860674
0.182762422411
0.0163032514891
0.17853751136
0.016571423504
0.174250739504
0.0168184448819
0.169907146191
0.0170455106497
0.165511480139
0.0172537700243
0.161068210211
0.0174443278789
0.156581536539
0.0176182465552
0.152055400519
0.0177765471972
0.147493495148
0.0179202113913
0.142899274326
0.0180501823327
0.138275962514
0.0181673662684
0.133626563444
0.0182726334818
0.128953869194
0.0183668195323
0.124260468411
0.0184507260588
0.119548754903
0.0185251218207
0.114820935469
0.0185907433308
0.110079038098
0.0186482957111
0.105324919494
0.0186984531707
0.100560272968
0.0187418596943
0.0957866357284
0.0187791293844
0.0910053965407
0.0188108470015
0.0862178028523
0.018837568191
0.0814249682702
0.0188598198933
0.0766278795794
0.0188781004737
0.0718274040842
0.0188928800187
0.067024296555
0.0189046003817
0.0622192064569
0.0189136753748
0.057412684828
0.0189204907328
0.0526051913577
0.0189254042044
0.0477971010856
0.0189287454389
0.0429887110829
0.0189308159939
0.0381802464581
0.0189318892604
0.0333718656605
0.0189322107362
0.0285636641212
0.0189319989297
0.023755675956
0.0189314481658
0.0189478746047
0.0189307364176
0.0141401956343
0.0189299872706
0.00933286786827
0.0189282947393
0.00453543074736
0.0188900385337
0.0178671754518
0.013377607672
-0.064495834316
0.0276080635948
-0.0685760236325
0.0417184004155
-0.0680383157229
0.0556287348066
-0.0671233165133
0.0692734098389
-0.0659083067954
0.0825933441049
-0.0644194978558
0.0955346296588
-0.062678549985
0.108049266004
-0.0607104890808
0.120095490227
-0.0585421067659
0.131637944495
-0.056201243033
0.142647657584
-0.0537160088947
0.153101869366
-0.0511141135582
0.162983727951
-0.0484222953317
0.172281890408
-0.0456658666976
0.180990057413
-0.0428683727626
0.189106468231
-0.0400513569308
0.196633379456
-0.0372342227315
0.20357654573
-0.0344341786397
0.209944717358
-0.0316662511084
0.215749164903
-0.0289433516305
0.2210032384
-0.0262763840154
0.225721964924
-0.0236743800521
0.229921687
-0.0211446528833
0.233619741484
-0.0186929597753
0.236834178296
-0.0163236671352
0.239583516384
-0.0140399127981
0.241886534779
-0.0118437614164
0.243762095183
-0.00973635054171
0.245228993536
-0.00771802537993
0.246305836964
-0.00578846147269
0.247010943823
-0.00394677425372
0.24736226456
-0.00219161555462
0.247377328124
-0.000521266527346
0.247073183565
0.00106628459051
0.246466354996
0.0025733585885
0.245572799076
0.00400228693205
0.244407934963
0.00535559833958
0.242986613066
0.00663591091423
0.241323109756
0.00784589471619
0.239431128717
0.00898824341073
0.237323806565
0.0100656506496
0.23501372105
0.0110807906906
0.232512901915
0.0120363029986
0.229832843365
0.0129347800022
0.22698451821
0.0137787577865
0.223978392735
0.0145707089839
0.220824442511
0.0153130377624
0.217532168308
0.0160080762895
0.214110612441
0.016658082669
0.210568374819
0.0172652398212
0.206913629093
0.0178316553763
0.203154138264
0.0183593621246
0.199297270199
0.0188503191462
0.195350012464
0.0193064132106
0.191318986941
0.0197294606393
0.187210463726
0.020121209221
0.183030374756
0.0204833404214
0.178784326701
0.0208174715359
0.174477613582
0.0211251579986
0.170115228686
0.0214078955573
0.165701876217
0.0216671225258
0.16124198229
0.0219042218498
0.156739705709
0.0221205231996
0.152198948132
0.0223173048488
0.147623364066
0.0224957955496
0.143016370319
0.0226571761824
0.138381155319
0.0228025813871
0.133720687962
0.0229331009681
0.129037726363
0.0230497812764
0.124334826202
0.0231536263728
0.119614349023
0.0232455991682
0.11487847017
0.0233266223609
0.110129186719
0.0233975793531
0.105368325106
0.0234593149821
0.100597548774
0.0235126362377
0.0958183655645
0.0235583128121
0.0910321351521
0.0235970776434
0.0862400762672
0.0236296273115
0.081443273976
0.0236566224293
0.0766426867831
0.0236786879161
0.0718391537982
0.0236964132603
0.0670334017569
0.0237103526829
0.0622260520916
0.0237210253054
0.0574176278652
0.023728915227
0.0526085607211
0.0237344716219
0.0477991976532
0.0237381087844
0.0429898076838
0.0237402062487
0.0381805882419
0.0237411089961
0.0333716712819
0.0237411279956
0.0285631291588
0.0237405413533
0.0237549811082
0.0237395965291
0.0189472027053
0.0237385151118
0.0141397598444
0.0237374303977
0.00933291799918
0.0237351369283
0.00453622602782
0.0236867308732
0.0224034016389
0.0136719920175
-0.0781678282561
0.0282182549175
-0.0831222885915
0.0426335832842
-0.08245364609
0.0568348181441
-0.0813245533563
0.0707519626199
-0.0798254532086
0.0843225050778
-0.0779900422189
0.0974898475452
-0.0758458943153
0.110204127112
-0.0734247704735
0.122422523046
-0.0707605044792
0.13410936868
-0.0678880904064
0.145236048578
-0.0648426904832
0.155780721684
-0.061658788312
0.165727908717
-0.0583694839612
0.17506798276
-0.0550059422936
0.183796599196
-0.0515969906995
0.191914096082
-0.0481688552739
0.199424890785
-0.0447450188393
0.206336892613
-0.0413461818287
0.212660946184
-0.0379903059892
0.218410315138
-0.0346927218504
0.223600212218
-0.0314662823114
0.228247378194
-0.0283215472019
0.232369710053
-0.0252669858666
0.235985936747
-0.0223091875533
0.239115339988
-0.0194530714123
0.241777516423
-0.0167020902294
0.243992177555
-0.0140584234982
0.245778983247
-0.011523157145
0.247157405136
-0.00909644813493
0.248146616143
-0.00677767331004
0.248765402779
-0.00456556167707
0.249032096945
-0.00245831047121
0.248964524365
-0.000453694652737
0.248579933047
0.00145087524136
0.247895024483
0.00325826652866
0.246925906948
0.00497140387752
0.245688090924
0.00659341381301
0.244196480452
0.00812752086618
0.242465376736
0.0095769979468
0.240508484509
0.0109451351824
0.23833892188
0.0122352128558
0.235969232488
0.0134504796877
0.233411399592
0.0145941355305
0.230676861452
0.0156693178047
0.227776527743
0.0166790911876
0.2247207965
0.0176264399434
0.221519571465
0.0185142625409
0.218182279448
0.0193453680741
0.214717887667
0.0201224742446
0.211134920777
0.0208482065269
0.20744147763
0.0215250983632
0.203645247527
0.0221555920896
0.199753526049
0.0227420405084
0.195773230293
0.023286708871
0.191710913634
0.0237917772241
0.187572779835
0.024259342964
0.183364696679
0.0246914235421
0.17909220897
0.0250899592254
0.174760551068
0.0254568159015
0.170374658826
0.0257937878156
0.165939181107
0.0261026002784
0.161458490763
0.0263849122421
0.156936695233
0.0266423187954
0.152377646668
0.026876353492
0.147784951741
0.0270884905702
0.14316198104
0.0272801469902
0.138511878197
0.0274526843507
0.133837568676
0.0276074106217
0.129141768344
0.0277455817546
0.124426991757
0.0278684031167
0.119695560286
0.0279770308092
0.114949610004
0.0280725728219
0.110191099465
0.028156090084
0.105421817282
0.0282285973667
0.10064338964
0.0282910640915
0.0958572876525
0.0283444150205
0.0910648346719
0.0283895308543
0.0862672134907
0.0284272487304
0.0814654735098
0.0284583626559
0.076660537831
0.0284836238464
0.0718532103295
0.0285037410191
0.0670441826648
0.0285193806093
0.0622340412806
0.0285311669556
0.0574232743443
0.0285396824327
0.0526122786639
0.0285454675762
0.0478013665292
0.0285490211982
0.0429907725073
0.0285508005571
0.0381806601694
0.0285512216272
0.0333711288718
0.0285506595963
0.0285622208476
0.0285494496876
0.0237539294098
0.0285478882551
0.0189462097745
0.0285462350346
0.0141390097341
0.028544630768
0.00933255017895
0.0285415967937
0.00453630442934
0.0284829769514
0.026939706259
0.0140346482586
-0.0922024784672
0.0289712285771
-0.0980588709258
0.0437630750566
-0.0972454946139
0.0583226608809
-0.0958841411727
0.0725745189324
-0.094077313224
0.0864519013417
-0.0918674265485
0.0998949376386
-0.0892889324952
0.112851559295
-0.0863813939687
0.125277772142
-0.0831867191235
0.137137689882
-0.0797480098955
0.148403314153
-0.0761083164592
0.159054119088
-0.0723095949024
0.169076491344
-0.0683918578269
0.178463075441
-0.0643925279488
0.187212068351
-0.0603459851204
0.195326499837
-0.0562832882204
0.202813527117
-0.0522320475328
0.209683764713
-0.0482164207863
0.215950663556
-0.0442572061491
0.221629947676
-0.0403720072367
0.226739112241
-0.0365754480974
0.231296983263
-0.0328794193963
0.235323336879
-0.0292933406119
0.238838574425
-0.0258244261809
0.241863448591
-0.0224779466167
0.244418835464
-0.019257478096
0.246525547181
-0.0161651361671
0.248204180037
-0.0132017909087
0.249474993275
-0.0103672622409
0.250357814141
-0.0076604950016
0.250871965201
-0.00507971352424
0.251036210086
-0.00262255610284
0.25086871113
-0.000286196400252
0.250386945301
0.00193264041013
0.249607847041
0.00403736416802
0.248547661761
0.00603158857708
0.247221991471
0.00791908355558
0.245645791834
0.00970371999144
0.243833382728
0.0113894065719
0.24179846046
0.0129800570025
0.239554112693
0.0144795602057
0.237112835076
0.0158917569165
0.234486549128
0.0172204211203
0.231686620877
0.0184692457248
0.228723879974
0.0196418317872
0.22560863893
0.0207416807118
0.222350712303
0.0217721889163
0.21895943563
0.0227366445214
0.215443683978
0.0236382256956
0.211811890001
0.0244800003261
0.208072061458
0.025264926751
0.2042317981
0.0259958553146
0.20029830794
0.0266755305576
0.196278422846
0.027306593874
0.192178613506
0.0278915864946
0.18800500371
0.0284329527094
0.183763384031
0.0289330431887
0.179459224869
0.0293941183736
0.175097688924
0.0298183518504
0.170683643099
0.0302078336611
0.166221669895
0.0305645735203
0.161716078292
0.0308905038975
0.157170914201
0.031187482955
0.152589970462
0.031457297313
0.147976796485
0.0317016646436
0.14333470751
0.0319222360762
0.13866679356
0.0321205984231
0.133975928104
0.0322982762145
0.129264776449
0.0324567335576
0.124535803912
0.0325973758133
0.119791283783
0.0327215511099
0.115033305106
0.032830551682
0.110263780306
0.0329256150771
0.105484452684
0.033007925192
0.100696903794
0.0330786131955
0.0959025607231
0.0331387583146
0.0911027032961
0.0331893885131
0.0862984712065
0.0332314810597
0.0814908711015
0.0332659630079
0.0766807836156
0.0332937115856
0.0718689703784
0.033315554515
0.0670560809863
0.0333322702645
0.0622426599573
0.0333445882517
0.0574291536592
0.0333531890016
0.0526159172246
0.0333587042859
0.0478032214476
0.0333617172555
0.0429912596885
0.0333627626031
0.0381801548256
0.0333623267866
0.0333699663676
0.033360848355
0.0285606979674
0.0333587183891
0.0237523058194
0.0333562807206
0.0189447083453
0.0333538328024
0.0141378125409
0.0333515268323
0.00933177660395
0.0333476330789
0.00453601974104
0.0332787341882
0.0314757261576
0.0144718178677
-0.106674298299
0.0298794025273
-0.1134664577
0.0451249867968
-0.112491080931
0.060115432007
-0.110874588413
0.0747684553256
-0.108730338523
0.08901213673
-0.106111109898
0.102782701088
-0.103059498754
0.116025551711
-0.099624246451
0.128695479171
-0.0958566483953
0.140756577491
-0.0918091099835
0.152181859655
-0.0875336003393
0.162952653482
-0.0830803903999
0.173057846282
-0.0784970522448
0.182493041975
-0.0738277252121
0.191259684383
-0.0691126290453
0.199364189077
-0.0643877943845
0.206817115083
-0.0596849749551
0.213632397503
-0.0550317045765
0.219826653675
-0.0504514636394
0.225418568551
-0.0459639233851
0.230428359979
-0.0415852407463
0.234877320898
-0.0373283814924
0.238787433172
-0.0332034540138
0.242181046383
-0.0292180404767
0.245080614398
-0.0253775156684
0.247508482355
-0.0216853470477
0.249486717121
-0.018143371883
0.251036974706
-0.0147520494015
0.252180398826
-0.0115106872256
0.25293754543
-0.0084176424314
0.253328328898
-0.0054704977762
0.25337198632
-0.00266621426908
0.253087048576
-1.25935474172e-06
0.25249123059
0.00252845774015
0.251601710137
0.00492688400811
0.250434871897
0.00719842624051
0.249006404898
0.00934755001542
0.247331307625
0.0113788167579
0.245423906537
0.0132968071868
0.243297874898
0.0151060881992
0.240966253511
0.0168111811824
0.238441472345
0.0184165377002
0.235735372673
0.0199265204408
0.232859229313
0.0213453887598
0.229823772744
0.0226772880599
0.226639210842
0.0239262423419
0.223315250127
0.0250961493877
0.219861116353
0.0261907780744
0.216285574423
0.0272137674302
0.212596947513
0.0281686270635
0.208803135425
0.0290587386901
0.204911632121
0.0298873584908
0.200929542464
0.0306576201081
0.196863598161
0.0313725380915
0.192720172929
0.0320350116618
0.188505296933
0.0326478286593
0.184224670501
0.0332136695933
0.179883677167
0.0337351116982
0.175487396079
0.0342146329463
0.171040613811
0.0346546159536
0.166547835621
0.0350573517518
0.16201329619
0.0354250433847
0.157440969898
0.0357598093188
0.152834580656
0.0360636866416
0.148197611349
0.0363386340502
0.143533312925
0.0365865346136
0.138844713155
0.0368091983193
0.134134625112
0.0370083643959
0.129405655393
0.0371857034282
0.124660212115
0.037342819254
0.119900512716
0.037481250683
0.11512859158
0.0376024730026
0.110346307529
0.0377078993245
0.10555535117
0.037798881757
0.100757252156
0.0378767124249
0.0959533863508
0.0379426243451
0.0911449829236
0.037997792174
0.0863331313911
0.0380433328337
0.0815187886145
0.0380803060333
0.0767027857615
0.0381097146935
0.0718858352474
0.0381325052893
0.0670685376564
0.0381495681201
0.0622513886558
0.0381617375208
0.057434785902
0.0381697920274
0.0526190359549
0.0381744545092
0.0478043612004
0.0381763922915
0.0429909068192
0.038176217273
0.0381787478333
0.0381744860677
0.0333678963249
0.0381717001688
0.0285583089496
0.0381683060777
0.0237498949453
0.0381646950116
0.0189425246429
0.0381612033931
0.0141360531692
0.0381579986445
0.00933057234496
0.0381531142107
0.0045354652957
0.0380738415636
0.0360111916483
0.0149910303727
-0.121665330677
0.0309583084511
-0.129433737844
0.0467420873749
-0.128274861958
0.0622422050729
-0.126374708156
0.0773679850119
-0.123856120477
0.0920412724146
-0.120784399268
0.106193717568
-0.117211945834
0.119767919628
-0.113198450389
0.132717523941
-0.108806254543
0.145006961564
-0.104098549388
0.156610832736
-0.0991374732458
0.167513046867
-0.0939826062125
0.177705810113
-0.0886898171243
0.187188541703
-0.0833104583797
0.195966783888
-0.0778908727597
0.204051154013
-0.072472165984
0.211456371725
-0.0670901940941
0.218200381296
-0.0617757155198
0.224303578416
-0.0565546620846
0.229788143053
-0.0514484892952
0.234677474366
-0.0464745732862
0.238995720222
-0.0416466285242
0.242767391821
-0.0369751267453
0.246017053189
-0.0324677029272
0.248769075192
-0.0281295387106
0.251047444345
-0.0239637171938
0.252875617425
-0.0199715459131
0.254276413954
-0.0161528468353
0.255271939607
-0.012506213744
0.25588353451
-0.00902923815623
0.256131742069
-0.00571870611862
0.256036297564
-0.0025707705037
0.255616120255
0.000418917258112
0.254889164691
0.00325541265659
0.253872847662
0.00594320042868
0.252583683045
0.00848759028915
0.251037432639
0.0108937998872
0.249249121369
0.0131671275297
0.247233063488
0.0153128645997
0.24500288884
0.0173362624133
0.242571569961
0.0192424996559
0.239951449207
0.0210366580804
0.237154265499
0.0227237038019
0.234191180464
0.0243084734772
0.231072803755
0.0257956644778
0.227809217459
0.0271898283737
0.224409999502
0.0284953671053
0.220884246013
0.0297165313494
0.217240592626
0.0308574206269
0.213487234722
0.0319219848003
0.209631946631
0.0329140266373
0.205682099807
0.033837205192
0.201644680038
0.0346950397762
0.197526303699
0.0354909143498
0.193333233129
0.0362280821714
0.189071391152
0.036909670595
0.184746374816
0.037538685906
0.180363468388
0.0381180181215
0.175927655661
0.0386504456859
0.171443631626
0.0391386400173
0.166915813563
0.0395851698596
0.162348351589
0.0399925054191
0.157745138724
0.0403630222594
0.153109820509
0.0406990049463
0.148445804231
0.0410026504317
0.143756267784
0.0412760711774
0.139044168215
0.0415212980169
0.134312249989
0.0417402827639
0.129563053
0.0419349005711
0.124798920368
0.0421069520516
0.120022006056
0.0422581651718
0.115234282317
0.0423901969295
0.11043754701
0.0425046348295
0.105633430805
0.0426029981702
0.100823404293
0.0426867391556
0.0960087850184
0.0427572438466
0.0911907444629
0.0428158329652
0.0863703149739
0.0428637625662
0.0815483966681
0.0429022245896
0.076725764311
0.0429323473072
0.0719030741856
0.0429551956766
0.0670808709554
0.0429717716164
0.0622595945322
0.0429830142139
0.0574395869528
0.0429897998804
0.0526210992739
0.0429929424656
0.0478042985035
0.0429931933447
0.042989274579
0.0429912414869
0.0381760474334
0.0429877135124
0.0333645741822
0.0429831737225
0.0285547565015
0.0429781240605
0.0237464482717
0.042973003564
0.0189394631506
0.0429681888104
0.0141335972698
0.0429638647787
0.00932887396896
0.0429578378642
0.00453464582261
0.0428680700903
0.0405458376271
0.015601560668
-0.137266893365
0.0322272672907
-0.146059446653
0.0486427156771
-0.144690312453
0.0647390714997
-0.142471066071
0.0804153984756
-0.139532449488
0.0955861087571
-0.135955111547
0.110177589039
-0.131803428064
0.124129446411
-0.127150309665
0.137394419729
-0.122071229713
0.149937854773
-0.116641986237
0.161736761318
-0.11093638154
0.172778607348
-0.105024453941
0.183059970922
-0.0989711823409
0.192585151732
-0.0928356407828
0.201364819506
-0.0866705420697
0.209414752776
-0.0805221007398
0.216754700983
-0.0744301437311
0.223407386147
-0.0684284020654
0.229397647916
-0.06254492518
0.234751726993
-0.0568025696513
0.239496676499
-0.0512195240192
0.24365988767
-0.0458098408766
0.247268715152
-0.0405839553565
0.250350187105
-0.0355491759668
0.25293078628
-0.0307101389229
0.2550362894
-0.0260692213078
0.256691653823
-0.0216269112834
0.257920941925
-0.0173821358426
0.258747275153
-0.0133325478329
0.25919281047
-0.00947477429517
0.259278734367
-0.00580463079393
0.259025282356
-0.00231731923083
0.258451767719
0.00099243120711
0.257576405764
0.00413077396787
0.256416790854
0.00710281473903
0.254989554349
0.00991482623172
0.253310507888
0.012572845822
0.251394678743
0.0150829561818
0.249256342923
0.0174511999601
0.24690906009
0.0196835448176
0.244365707649
0.0217858516996
0.24163851377
0.0237638515909
0.238739089051
0.0256231281819
0.235678456713
0.0273691055034
0.232467081277
0.0290070396297
0.229114895707
0.0305420136851
0.225631327036
0.0319789355439
0.222025320507
0.0333225376697
0.218305362284
0.0345773786658
0.214479500784
0.0357478461389
0.210555366705
0.0368381605776
0.206540191815
0.0378523799645
0.202440826578
0.0387944049176
0.198263756686
0.0396679841662
0.19401511858
0.0404767202224
0.189700714019
0.0412240751185
0.185326023787
0.0419133761198
0.180896220583
0.0425478213256