/*--------------------------------*- C++ -*----------------------------------*\
| =========                 |                                                 |
| \\      /  F ield         | OpenFOAM: The Open Source CFD Toolbox           |
|  \\    /   O peration     | Version:  v1906                                 |
|   \\  /    A nd           | Web:      www.OpenFOAM.com                      |
|    \\/     M anipulation  |                                                 |
\*---------------------------------------------------------------------------*/
FoamFile
{
    version     2.0;
    format      ascii;
    class       volScalarField;
    location    "822";
    object      pa;
}
// * * * * * * * * * * * * * * * * * * * * * * * * * * * * * * * * * * * * * //

dimensions      [0 2 -2 0 0 0 0];


internalField   nonuniform List<scalar> 
9216
(
915.04239774
914.736975495
914.105133144
913.141383936
911.851136711
910.240454606
908.316882042
906.089331702
903.567936177
900.763932462
897.689509884
894.357692975
890.782183414
886.977247689
882.957562093
878.738113525
874.334055016
869.760625454
865.033020221
860.166332596
855.175441212
850.074973287
844.879208399
839.602061824
834.257002765
828.857055161
823.414728042
817.942031011
812.4504145
806.950797383
801.453515025
795.968358743
790.50453053
785.070686844
779.674900293
774.324713045
769.027101677
763.788534989
758.614942717
753.511777255
748.483985234
743.536071904
738.67207493
733.895630324
729.20994786
724.61787757
720.121886273
715.724123674
711.426399541
707.230248548
703.136907694
699.147379104
695.262407331
691.482539468
687.808102106
684.239258222
680.775983675
677.418120543
674.165353191
671.017257889
667.973278626
665.032773022
662.194988205
659.459103163
656.824205064
654.289328317
651.853431776
649.515434804
647.274195791
645.128545533
643.077267451
641.119128546
639.252861616
637.477193997
635.790831971
634.192487425
632.680864521
631.25468433
629.912673757
628.6535881
627.476202143
626.37933055
625.361820947
624.422572008
623.560528288
622.77469577
622.064138085
621.427989031
620.865449239
620.375793857
619.958365302
619.612566613
619.337824183
619.133466889
618.997340623
618.938707427
915.346816258
915.039665395
914.406174307
913.438066845
912.141613753
910.523161282
908.5904243
906.352456776
903.819535144
901.003037525
897.915302299
894.569497
890.979470746
887.159625706
883.124774914
878.890025713
874.470650739
869.881989318
865.139336053
860.257862936
855.252526983
850.138013093
844.928659874
839.638421435
834.280809176
828.868869809
823.415140484
817.931640279
812.429836268
806.920646147
801.414413557
795.920918633
790.449361045
785.008380392
779.606043854
774.249871182
768.946828302
763.703357463
758.525374498
753.418302539
748.387072206
743.436157885
738.569580056
733.790943191
729.103439513
724.509887656
720.012737205
715.614107317
711.315791438
707.119295153
703.025840538
699.036402575
695.151712667
691.37229308
687.69845926
684.130351882
680.667937759
677.31103925
674.059333708
670.912380172
667.869617458
664.930388225
662.093935958
659.359426635
656.725944942
654.192513864
651.758090537
649.421584113
647.181851655
645.037714625
642.987955183
641.031331598
639.16657523
637.392405093
635.707525703
634.110640918
632.600452747
631.175674503
629.835030557
628.577268772
627.4011611
626.305515194
625.289175697
624.351034865
623.49003435
622.705174628
621.995517038
621.360191777
620.79839998
620.309420369
619.892612443
619.547426669
619.273424767
619.070361361
618.938559272
618.88002503
915.980099684
915.66821975
915.0289664
914.052154188
912.74415367
911.111447178
909.161944849
906.904919982
904.350887935
901.51147516
898.399277082
895.027716836
891.410898399
887.563468019
883.500474731
879.237244397
874.78925559
870.172032306
865.401039548
860.491597286
855.458796829
850.317435759
845.081953753
839.76638627
834.384317125
828.948847911
823.472564331
817.967518457
812.445206236
806.916560252
801.391936478
795.881115291
790.393296243
784.937106566
779.52060154
774.151278813
768.836083989
763.581429571
758.39320443
753.276796191
748.237103634
743.278561579
738.405155374
733.620447405
728.927592908
724.329367325
719.828182729
715.426115285
711.124921624
706.926065722
702.830734624
698.839864108
694.954153228
691.174088253
687.499955607
683.931863704
680.469754018
677.113420601
673.862519195
670.716584394
667.67503688
664.737198367
661.902297198
659.169481338
656.53782268
654.00632845
651.573944629
649.239566167
647.002039928
644.860174096
642.812741004
640.858486064
638.996130758
637.224381318
635.541932083
633.947474049
632.439698671
631.01730633
629.679010556
628.423546361
627.24967479
626.156190997
625.141928978
624.205769223
623.346643449
622.563541652
621.855516684
621.221690624
620.661259287
620.173498438
619.757769791
619.413530796
619.140350113
618.937948562
618.806485356
618.743994797
916.953677414
916.636351434
915.988094068
914.997683307
913.671685214
912.016813616
910.041273496
907.754675574
905.167904081
902.292973558
899.142878765
895.731443004
892.073165377
888.183073536
884.076580805
879.769353611
875.277186604
870.615890844
865.801191018
860.848636617
855.773521847
850.590818908
845.315118548
839.960582532
834.540901425
829.069262633
823.558321922
818.020183843
812.466384231
806.907880654
801.355043938
795.817656951
790.304914101
784.825426176
779.387226012
773.997779927
768.663997952
763.392249629
758.188378115
753.057719332
748.005118934
743.034953879
738.151151413
733.357212231
728.656230716
724.05091894
719.543627428
715.136369287
710.830840807
706.628445036
702.530311579
698.537318984
694.650113172
690.869128111
687.19460242
683.626597944
680.165014239
676.809604841
673.55998953
670.415668269
667.376031347
664.440371145
661.607890408
658.877712164
656.248886492
653.720399001
651.291176526
648.960094616
646.725982594
644.587630458
642.543793704
640.593199982
638.734553976
636.966544059
635.28784742
633.697136856
632.193086222
630.774377375
629.439705931
628.187788304
627.017367648
625.927220864
624.916164575
623.98306192
623.126828382
622.346438206
621.640929951
621.009412469
620.451070282
619.965169508
619.551063943
619.208202171
618.936136002
618.734534869
618.603452147
618.540232651
918.271584576
917.947253741
917.286688713
916.277654874
914.9270177
913.241828477
911.230702232
908.903716678
906.272265143
903.348898123
900.147160179
896.681425445
892.966734666
889.018638081
884.853045664
880.486087982
875.933987886
871.212945308
866.339034177
861.32811288
856.195746276
850.957140051
845.627084776
840.219910189
834.749446852
829.22899586
823.671303929
818.088544923
812.492305414
806.893575717
801.302744111
795.72959601
790.183316174
784.672492856
779.205126451
773.78864084
768.429895947
763.135203338
757.910342539
752.760579854
747.690687435
742.704964427
737.80725796
733.000985832
728.289158678
723.674403458
719.158986096
714.74483506
710.433563767
706.226493567
702.124675233
698.128910701
694.239773039
690.457626372
686.782643848
683.214825341
679.754013085
676.399906941
673.152077602
670.009979411
666.972961242
664.040277072
661.211094827
658.484505074
655.859528251
653.335121937
650.910186957
648.583573724
646.354087697
644.220495256
642.181528932
640.235893183
638.382269721
636.619323441
634.945708036
633.360072219
631.861065688
630.447345652
629.117583119
627.870469636
626.70472377
625.619097919
624.612384798
623.683424135
622.831108975
622.054392065
621.35229183
620.723898335
620.168378914
619.684983778
619.273051425
618.932013644
618.661399443
618.460840076
618.330340718
618.267141586
919.940470486
919.607277398
918.93094802
917.89802215
916.515775516
914.791714254
912.734994669
910.35630637
907.66770668
904.682443124
901.41477285
897.879781968
894.093208752
890.07127445
885.830524128
881.387679949
876.759507974
871.962699663
867.013767949
861.928957999
856.724171471
851.414903568
846.016191039
840.542570079
835.008042183
829.426047156
823.809441741
818.170483595
812.520819582
806.871478543
801.232867775
795.614773626
790.026365911
784.476202518
778.972240647
773.521849093
768.131822567
762.808398239
757.557273632
752.383626223
747.292133935
742.286996936
737.37195995
732.550335509
727.825027377
723.198554554
718.673075117
714.250410273
709.932067894
705.719265907
701.612954813
697.61383972
693.722401189
689.938915291
686.263472247
682.695994064
679.236250618
675.883874632
672.638375092
669.499149586
666.465495178
663.536618347
660.711643672
657.989621789
655.369536369
652.850310639
650.430813201
648.109863674
645.886237906
643.758673239
641.725873587
639.786514728
637.939249584
636.182713817
634.515531513
632.936321206
631.443702018
630.03630012
628.712755264
627.471727562
626.311904274
625.232006719
624.230797107
623.307085368
622.459735802
621.687673613
620.989891178
620.365454099
619.813506935
619.333278619
618.924087402
618.585344679
618.316557601
618.117332644
617.98765252
617.924796618
921.968777133
921.624663272
920.928872884
919.866439268
918.445165725
916.67314312
914.560217646
912.117854357
909.358948024
906.297621652
902.949023678
899.329127198
895.454535778
891.342299611
887.009744725
882.474317417
877.753445131
872.864414595
867.824267107
862.649710528
857.357046675
851.962112641
846.480233983
840.926187889
835.31417427
829.657793335
823.970028283
818.263232508
812.549120745
806.838764098
801.142588859
795.470378988
789.831282449
784.233817335
778.685885572
773.194786675
767.767233889
762.409372192
757.126797759
751.924578799
746.807277435
741.778972569
736.843283459
732.003393954
727.262077103
722.621720103
718.084349271
713.651654993
709.325016332
705.105525233
700.994010006
696.991058031
693.09703739
689.312117399
685.636287784
682.069376529
678.611066217
675.260908932
672.018339649
668.882688226
665.85319
662.928995171
660.109177017
657.39273917
654.778622023
652.265708528
649.85282944
647.538768277
645.322266027
643.20202584
641.176717734
639.244983463
637.40544158
635.656692789
633.997325557
632.425922064
630.941064425
629.541341203
628.225354144
626.99172512
625.839103193
624.766171765
623.771655723
622.854328546
622.013019271
621.246619291
620.554088886
619.934463473
619.386859466
618.910479655
618.504618008
618.168663339
617.902101695
617.704520692
617.575889125
617.513564936
924.366895977
924.009602027
923.290347939
922.192343041
920.724050844
918.894295493
916.713784053
914.19494423
911.351705137
908.199265704
904.753864281
901.032553263
897.052983855
892.833204773
888.391477723
883.74611165
878.915316971
873.917080318
868.769059565
863.48849821
858.092157421
852.596263543
847.016468375
841.36781952
835.664738239
829.92100282
824.149736062
818.363396206
812.573771086
806.791975574
801.028453205
795.292979977
789.594673134
783.941999904
778.342793046
772.804266872
767.333035373
761.935132039
756.616031035
751.380669561
746.2334712
741.178370125
736.218835998
731.357899456
726.598177981
721.941902052
717.390941354
712.94683089
708.610796771
704.383781509
700.266468562
696.259305966
692.362528826
688.57618052
684.900132443
681.334102201
677.877670163
674.530294365
671.29132374
668.160009784
665.135516681
662.216930086
659.403264658
656.693470556
654.086439064
651.581007551
649.175963939
646.870050877
644.661969774
642.550384851
640.533927327
638.611199851
636.780781241
635.041231603
633.391097837
631.828919539
630.3532353
628.962589339
627.655538457
626.430659227
625.286555368
624.221865222
623.235269263
622.325497554
621.491337085
620.731638904
620.045324974
619.431394684
618.888930924
618.417105637
618.015184736
617.68253184
617.418611272
617.222993431
617.095633161
617.033981338
927.147347864
926.77438061
926.027278756
924.887077
923.363054924
921.464944866
919.204515046
916.595373322
913.65270948
910.39302615
906.833874582
902.993599767
898.891100268
894.545606656
889.976481212
885.203040771
880.244403747
875.119361714
869.84627506
864.442991396
858.926784419
853.314310188
847.621577139
841.863926091
836.056016816
830.211818591
824.344603176
818.466939734
812.590691913
806.727017643
800.886373322
795.078519521
789.312531958
783.59681334
777.93911136
772.346537206
766.82558602
761.382158803
756.021585507
750.748649114
745.567610585
740.482234568
735.495815755
730.611205773
725.830840477
721.156767489
716.590673819
712.133913353
707.787534021
703.552304395
699.428739494
695.417125548
691.517543506
687.729891077
684.05390313
680.489170332
677.035155924
673.691210621
670.456585635
667.330443907
664.311869657
661.399876401
658.593413628
655.891372346
653.292589716
650.795853005
648.399903074
646.103437631
643.905114412
641.803554491
639.797345828
637.885047198
636.065192555
634.336295892
632.696856618
631.145365458
629.680310829
628.300185669
627.003494639
625.788761653
624.654537612
623.599408302
622.62200233
621.720999025
620.895136203
620.143217725
619.464120739
618.85680255
618.320307009
617.853770336
617.456426302
617.127610448
616.86676338
616.673436799
616.547569455
616.48671484
930.324992935
929.933573954
929.153768172
927.964046588
926.374693078
924.396558555
922.042711034
919.328194598
916.269722832
912.885363287
909.194232451
905.216206008
900.971649875
896.481175577
891.765422329
886.844867348
881.739665338
876.46951734
871.053568349
865.510331961
859.85763907
854.112606431
848.291620073
842.410328261
836.48363932
830.52572091
824.549999052
818.569156867
812.595134081
806.639128669
800.711603236
794.822293131
788.980218906
783.193702652
777.470388605
771.817264611
766.240685258
760.746396155
755.339559105
750.024778055
744.806125751
739.687171068
734.671006926
729.760278743
724.957213282
720.263647772
715.681059119
711.210592998
706.853092613
702.609126855
698.479017577
694.462865739
690.56057612
686.771880372
683.096358212
679.533456578
676.08250667
672.742738825
669.513295259
666.39324077
663.381571535
660.477222195
657.679071465
654.985946506
652.396626343
649.909844588
647.524291749
645.238617351
643.051432115
640.961310371
638.966792876
637.066390141
635.258586376
633.541844069
631.914609245
630.37531737
628.922399868
627.554291187
626.269436344
625.066298848
623.94336891
622.899171829
621.932276461
621.041303639
620.224934472
619.481918394
618.811080895
618.211330816
617.681667149
617.221185244
616.829082382
616.504662264
616.247338981
616.05664347
615.932494662
615.872558154
933.917285599
933.504284164
932.686333777
931.438907677
929.773525414
927.702414228
925.24023037
922.403759244
919.21154688
915.68352747
911.840669741
907.704646949
903.297535415
898.641544419
893.75877902
888.671036947
883.399640275
877.965302228
872.388028461
866.687050906
860.880790356
854.986842235
849.021978464
843.002157944
836.942538939
830.857488764
824.76058902
818.664637242
812.581647507
806.522852831
800.498713008
794.518925603
788.592439356
782.727476614
776.931556862
771.211521721
765.573561157
760.023240376
754.565527224
749.204820071
743.944976238
738.789340993
733.740777136
728.801695103
723.974083533
719.259540129
714.659302668
710.174279932
705.805082313
701.552051793
697.415290986
693.394690909
689.489957149
685.700634141
682.026127293
678.465722774
675.018604843
671.683870682
668.460542769
665.347578903
662.343880069
659.448296363
656.659631279
653.976644644
651.398054553
648.922538598
646.548734744
644.275242109
642.100621936
640.023398965
638.04206338
636.155073476
634.360859113
632.657826014
631.044360911
629.518837496
628.079623136
626.72508626
625.453604322
624.263572234
623.153411137
622.121577399
621.166571706
620.286948124
619.481323008
618.748383663
618.086896625
617.495715494
616.973788215
616.520163721
616.133997916
615.814558747
615.561230321
615.373519517
615.251322453
615.192426497
937.944589288
937.506436006
936.644175404
935.329794855
933.576339584
931.397733808
928.810575301
925.833757835
922.488024494
918.795526068
914.779410745
910.463448761
905.871695521
901.028194178
895.956718076
890.680553392
885.222322809
879.603850877
873.846071038
867.96897237
861.991581591
855.931972812
849.807295119
843.63380697
837.426907587
831.201158854
824.970296069
818.747230241
812.544047129
806.372008401
800.241559738
794.162345093
788.143221149
782.192287731
776.316914823
770.523771876
764.81885754
759.207529367
753.694533476
748.284034338
742.979644941
737.784457462
732.701074548
727.731641188
722.877877106
718.141109551
713.522306319
709.022108777
704.640864597
700.378659889
696.235350325
692.210590866
688.303863679
684.514503883
680.841722802
677.284628503
673.842243448
670.513519257
667.297348587
664.192574317
661.197996235
658.312375534
655.534437464
652.862872514
650.29633653
647.833450148
645.472797933
643.212927573
641.052349415
638.989536615
637.022926099
635.150920462
633.371890907
631.684181246
630.086112961
628.575991265
627.15211209
625.812769892
624.55626615
623.380918417
622.28506979
621.267098629
620.325428409
619.458537526
618.664968951
617.943339581
617.292349189
616.710788864
616.197548846
615.751625696
615.372128767
615.058285547
614.809446383
614.625091218
614.505089452
614.447359994
942.430566895
941.963143011
941.049502257
939.65759593
937.80236437
935.499834011
932.768981852
929.631255276
926.110027015
922.230070947
918.017087339
913.497278546
908.696975224
903.642311133
898.358944597
892.871826229
887.205013924
881.381537103
875.42331143
869.351103057
863.184537329
856.942142188
850.641411943
844.298874991
837.930150341
831.549983515
825.172260452
818.810005743
812.475375128
806.179652167
799.933255358
793.745754386
787.625889476
781.581610542
775.620109148
769.747853121
763.970620259
758.293530915
752.721079762
747.257167298
741.905131575
736.667780482
731.547424727
726.545911539
721.664659017
716.904691021
712.266672432
707.750944543
703.357560276
699.08631883
694.936799296
690.908392729
687.000332192
683.211720271
679.541553697
675.988744763
672.552139364
669.230531619
666.022675131
662.927291093
659.943073515
657.068691944
654.302792108
651.643994954
649.090894552
646.642055357
644.296009279
642.051252964
639.906245663
637.859407957
635.909121577
634.053730468
632.291543161
630.620836499
629.039860654
627.546845386
626.140007402
624.817558707
623.577715766
622.418709335
621.338794751
620.336262554
619.409449209
618.556747819
617.776618626
617.067599191
616.428314096
615.857484093
615.353934568
614.916603265
614.544547232
614.236948804
613.993120363
613.81251108
613.694960678
613.638529089
947.402668437
946.901160315
945.927933174
944.446280029
942.473516562
940.028291071
937.132508182
933.810712267
930.08941989
925.996498976
921.560623982
916.810801896
911.775963121
906.484609919
900.964517313
895.242484822
889.344141186
883.293806425
877.114415653
870.827505892
864.453261243
858.010603636
851.517308564
844.990120263
838.444842405
831.896389352
825.358797747
818.845211498
812.36785879
805.93804049
799.566131133
793.261599341
787.033039741
780.888218606
774.834114966
768.876961573
763.022282906
757.274930384
751.63911576
746.118443866
740.7159456
735.434111655
730.274927185
725.239907386
720.330133925
715.546292101
710.888708578
706.357389461
701.952058382
697.672194125
693.517067227
689.485774903
685.577273658
681.790408982
678.12394162
674.576570048
671.14694895
667.833703625
664.635440447
661.550753607
658.578228517
655.716442326
652.963962096
650.319341212
647.781114606
645.347793391
643.01785945
640.78976046
638.661905788
636.632663577
634.700359282
632.863275799
631.119655271
629.467702548
627.905590258
626.431465353
625.043456995
623.739685589
622.518272797
621.377352291
620.315081081
619.32965116
618.419301315
617.582328862
616.817101168
616.122066757
615.495765905
614.93684056
614.444043516
614.016246778
613.652449059
613.351782048
613.113515781
612.93706543
612.822237008
612.76724062
952.892745132
952.351450722
951.308987037
949.723288327
947.614681634
945.005114207
941.920112077
938.387982573
934.438995992
930.104656089
925.417084312
920.408501275
915.110788681
909.555116194
903.771623128
897.789152359
891.635040735
885.334975258
878.912925194
872.3911566
865.790326541
859.12964121
852.427047671
845.699419009
838.962692913
832.231938846
825.521355665
818.844226272
812.212863959
805.638583373
799.131695119
792.701533726
786.356508605
780.104160705
773.951216103
767.903634663
761.966652315
756.144818058
750.442027919
744.861558076
739.406098592
734.077788389
728.878251562
723.808634928
718.869646648
714.06159581
709.384432881
704.83779081
700.421026445
696.133261697
691.973423756
687.940283503
684.032491298
680.24860933
676.587139913
673.046549237
669.625286326
666.321797144
663.134534002
660.061960583
657.102553059
654.254797877
651.517186899
648.888210589
646.366349986
643.950068169
641.63780187
639.427953829
637.318886381
635.308916658
633.39631368
631.579297489
629.856040371
628.224670136
626.683275335
625.229912258
623.862613505
622.579397916
621.378281607
620.257289895
619.214469822
618.247903077
617.355719043
616.53610777
615.787332643
615.107742597
614.495783675
613.950009858
613.46909302
613.051831932
612.697160321
612.404153812
612.17203531
612.000181743
611.888362324
611.834945888
958.937831697
958.349895512
957.226686345
955.519996392
953.254025855
950.454916832
947.152702478
943.380270066
939.172362228
934.564732938
929.593470127
924.294447739
918.702873218
912.85290216
906.777303443
900.507171218
894.071692634
887.497988814
880.81105001
874.033781245
867.187161671
860.290499195
853.36173637
846.417742334
839.474521996
832.547297536
825.650468646
818.797504983
812.000835931
805.271789751
798.62058701
792.056381754
785.587344263
779.220737368
772.962986044
766.819734985
760.795894298
754.895676296
749.12262797
743.479663073
737.969095928
732.592677465
727.35163328
722.246703276
717.278182586
712.445963726
707.749579962
703.188249808
698.760922317
694.4663225
690.302995958
686.269351623
682.363701473
678.584296203
674.929355984
671.397095766
667.985744763
664.693560123
661.51883496
658.459901205
655.515127849
652.682915353
649.96168703
647.349878299
644.845924703
642.448249542
640.155251937
637.965296018
635.876701825
633.887738347
631.996619022
630.201499808
628.500479872
626.891604787
625.372872063
623.942238786
622.59763111
621.336955298
620.158110057
619.058999838
618.037548851
617.091715455
616.219506702
615.418992718
614.688320739
614.025728542
613.42955715
612.898262625
612.43042688
612.024767432
611.68014607
611.395576094
611.170228338
611.003437912
610.894932908
610.84324892
965.581156853
964.938200594
963.72030319
961.872257168
959.423330529
956.405065406
952.853140493
948.80602217
944.303760002
939.38703794
934.096462874
928.472019264
922.552628717
916.375768569
909.977123825
903.390269149
896.646397321
889.7741259
882.799420802
875.745671703
868.633935582
861.48333085
854.311518732
847.135165243
839.970260658
832.832209782
825.735707794
818.694511352
811.721227384
804.827203145
798.02252537
791.31609796
784.715777204
778.228479401
771.860271101
765.616435755
759.501520105
753.519366635
747.673140869
741.9653603
736.39792759
730.972167793
725.688868499
720.548321846
715.550367853
710.694439149
705.979607401
701.404631559
696.968007664
692.668019428
688.502788363
684.470321944
680.568558281
676.795405914
673.148777644
669.626617679
666.226921712
662.947749935
659.787233294
656.743573549
653.815037938
650.999949355
648.296673123
645.703601424
643.219136496
640.841673651
638.569585091
636.401205343
634.334819037
632.368651497
630.500862483
628.729543201
627.052716527
625.468340303
623.974313397
622.568484257
621.248661582
620.012626785
618.858147892
617.782994547
616.784953755
615.861846067
615.011541838
614.23197729
613.521170079
612.877234166
612.298393751
611.782996179
611.329523676
610.936603843
610.603018916
610.327713721
610.109801661
609.948571374
609.843706496
609.793916661
972.873471514
972.16506368
970.835286933
968.821028881
966.158326848
962.885769865
959.046151169
954.684725672
949.847794304
944.581691415
938.93209891
932.943561235
926.659101425
920.119868161
913.364778199
906.430152573
899.349375941
892.15263246
884.866786231
877.515473241
870.119449085
862.6971849
855.265625123
847.84093151
840.438987845
833.075485241
825.765618795
818.523626458
811.362403571
804.293319564
797.326245441
790.469725862
783.731194327
777.117131344
770.633178061
764.28420918
758.07437403
752.00711669
746.0851918
740.310687468
734.685057778
729.20916206
723.883308084
718.707296952
713.680468832
708.801750059
704.06970254
699.482576035
695.038363258
690.734856817
686.569706291
682.540473318
678.644682563
674.879866728
671.243604173
667.733548279
664.347448128
661.083160581
657.93865418
654.912005666
652.001390105
649.205065842
646.521355548
643.94862475
641.485259163
639.129642134
636.88013335
634.735049867
632.69265024
630.751122356
628.9085753
627.163035313
625.51244575
623.954670695
622.487501896
621.108668542
619.815849477
618.606687416
617.478804771
616.429820665
615.457368795
614.559115675
613.732778957
612.976145412
612.2870883
611.663583822
611.103726486
610.605743186
610.168005932
609.789043165
609.467549658
609.202394739
608.992628902
608.837490392
608.736613747
608.688889298
980.874829386
980.087707787
978.624423878
976.413082563
973.498985382
969.930053247
965.758085118
961.03655674
955.819039413
950.158224357
944.105373357
937.709990456
931.019562351
924.079269107
916.931618701
909.616009534
902.168269198
894.620255271
886.999630368
879.329932793
871.631041256
863.920060482
856.212521797
848.523614481
840.869026374
833.264995416
825.727631054
818.272012811
810.911504895
803.657476696
796.519428606
789.505360104
782.622122065
775.875644862
769.271069721
762.812819303
756.504622255
750.349506213
744.349791441
738.5071047
732.822412888
727.296066986
721.927850315
716.717027198
711.662390725
706.762311457
702.014789297
697.41750994
692.967906192
688.663222928
684.500583153
680.477052084
676.589696233
672.83563502
669.212083085
665.716382277
662.346022898
659.098654402
655.972086202
652.964279635
650.07333239
647.297456919
644.634954448
642.08418625
639.643543846
637.311419686
635.086179767
632.966139417
630.949543214
629.034549734
627.219221434
625.501519709
623.879304824
622.350340274
620.91230097
619.56278471
618.299326331
617.119414104
616.020507852
615.000058419
614.055527975
613.184410763
612.384253783
611.652677045
610.987392971
610.386224682
609.847122901
609.368181354
608.947650538
608.583949824
608.275677945
608.021621888
607.820763373
607.672285243
607.575769368
607.530292606
989.657028952
988.773930859
987.14929596
984.70175737
981.489669735
977.57349362
973.016436623
967.881818331
962.231483606
956.125068466
949.619776308
942.7703546
935.629057053
928.245463637
920.666104068
912.933899431
905.087497324
897.160629405
889.181667309
881.173584141
873.154522126
865.13908136
857.14023716
849.171442969
841.248130744
833.387671075
825.607900631
817.925387738
810.35423242
802.905706317
795.588627837
788.41012237
781.376228788
774.492189959
767.762573106
761.191320823
754.781742083
748.536450511
742.457317925
736.545477821
730.801367384
725.224781923
719.814932031
714.570497247
709.489674495
704.570226431
699.809534476
695.204659201
690.752409077
686.449415831
682.292212446
678.277309152
674.401263088
670.660738287
667.052553768
663.573718556
660.221453333
656.993199119
653.88661396
650.899559047
648.030075949
645.276356882
642.636710014
640.109521859
637.693218765
635.386229429
633.186950182
631.093714565
629.10476838
627.218250991
625.432183238
623.744461818
622.152859671
620.655031604
619.248524346
617.930790217
616.699203759
615.551080723
614.483698983
613.494320845
612.580216308
611.738686706
610.96708822
610.262854723
609.623519564
609.04673588
608.530295242
608.072144427
607.670400269
607.32336259
607.029525267
606.787585273
606.596449663
606.455241734
606.363485813
606.320450448
999.307043492
998.30491823
996.482124472
993.747675887
990.178978647
985.853558959
980.848977718
975.240077126
969.097773093
962.488934904
955.47678201
948.121378306
940.479943999
932.606839402
924.553163444
916.36600059
908.087425133
899.753444076
891.393135971
883.028320852
874.674141569
866.340874711
858.037002215
849.772916275
841.563817114
833.429471569
825.391011053
817.467624684
809.674519703
802.022550798
794.519207853
787.170173223
779.980363904
772.95419588
766.095606681
759.40806452
752.894508377
746.557177346
740.397492737
734.416057518
728.612727237
722.986685879
717.5365181
712.260269402
707.155491285
702.21928491
697.448352651
692.839061574
688.387521263
684.08967327
679.941385468
675.938544156
672.077137583
668.353326556
664.763499509
661.30431091
657.972702929
654.765911161
651.681455827
648.717120341
645.870919479
643.141059502
640.525892734
638.023869055
635.633486787
633.353245287
631.181601416
629.116931732
627.157501887
625.301444161
623.546743484
621.891231625
620.332588728
618.868351023
617.4959235
616.212596493
615.015565317
613.901952401
612.868831416
611.913252981
611.032271358
610.222971564
609.482496162
608.808071192
608.197030628
607.646839019
607.155111995
606.719634524
606.338376854
606.009508169
605.731408101
605.502676274
605.322138933
605.188854679
605.102286641
605.061899376
1009.93195579
1008.77920891
1006.70811473
1003.61920134
999.618941682
994.808238661
989.282305853
983.128892825
976.428224388
969.25410287
961.675342255
953.75705778
945.561478601
937.148151357
928.573482195
919.889680278
911.1432502
902.373263974
893.609757423
884.872754027
876.172592018
867.512296892
858.892461429
850.317937794
841.803910832
833.375250037
825.059382802
816.880064829
808.854017026
800.990831319
793.295341391
785.770801042
778.420660094
771.24843762
764.257434279
757.450707221
750.830969211
744.400189472
738.159346211
732.108452984
726.246711377
720.572623842
715.084089474
709.778472327
704.652632914
699.702958385
694.925408162
690.315578514
685.868792039
681.580207241
677.444936121
673.458158452
669.615223555
665.911734185
662.343609798
658.907128461
655.598947812
652.416106429
649.35600767
646.416388537
643.595276384
640.890936456
638.301813242
635.826468658
633.463519982
631.21158041
629.069204852
627.034843314
625.106803708
623.283225277
621.562063024
619.941082491
618.417863557
616.989811398
615.654172857
614.40805673
613.248457072
612.172278914
611.176366134
610.257531048
609.412585219
608.638370623
607.931790405