/*--------------------------------*- C++ -*----------------------------------*\
| =========                 |                                                 |
| \\      /  F ield         | OpenFOAM: The Open Source CFD Toolbox           |
|  \\    /   O peration     | Version:  v1906                                 |
|   \\  /    A nd           | Web:      www.OpenFOAM.com                      |
|    \\/     M anipulation  |                                                 |
\*---------------------------------------------------------------------------*/
FoamFile
{
    version     2.0;
    format      ascii;
    class       surfaceScalarField;
    location    "804";
    object      phia;
}
// * * * * * * * * * * * * * * * * * * * * * * * * * * * * * * * * * * * * * //

dimensions      [0 3 -1 0 0 0 0];
oriented        oriented;


internalField   nonuniform List<scalar> 
18240
(
0.00085053565323
-0.000850400948492
0.0017432383556
-0.000892533144808
0.00263384757721
-0.000890479110324
0.00351730466319
-0.000883280110681
0.00439067113386
-0.000873246911852
0.00525150281372
-0.000860648747468
0.0060973191016
-0.000845707220016
0.00692604340838
-0.000828536716688
0.00773547047689
-0.000809328730284
0.00852385168012
-0.000788190351853
0.00928926737485
-0.000765328459
0.0100303088701
-0.000740848708568
0.0107453510163
-0.000714966016452
0.0114333187322
-0.000687774263736
0.0120928671458
-0.000659483468099
0.0127232243491
-0.000630164289321
0.0133232884141
-0.000600010043489
0.0138925387534
-0.000569059127274
0.0144300612097
-0.000537479245368
0.0149355207236
-0.000505271089552
0.0154081257913
-0.000472572220047
0.0158476553273
-0.000439344917089
0.0162533747079
-0.000405696607449
0.016625109553
-0.000371554927187
0.0169621246217
-0.000337001721557
0.0172642369339
-0.000301937874362
0.0175306689184
-0.000266427558758
0.0177611929242
-0.000230355664163
0.0179549687642
-0.000193779463052
0.0181117118421
-0.000156581322005
0.0182305252796
-0.000118824405337
0.0183110816401
-8.04015583063e-05
0.0183524591655
-4.1394835073e-05
0.0183543334614
-1.72677991495e-06
0.0183158256456
3.84849169395e-05
0.0182366908141
7.92747392068e-05
0.0181161860229
0.000120477259817
0.0179542467203
0.000162071239977
0.0177503798801
0.000203835381521
0.01750481638
0.000245687155166
0.0172174328486
0.000287349121917
0.0168888677555
0.000328680361963
0.0165194759984
0.000369355313193
0.0161103988996
0.000409184358396
0.0156625565472
0.000447805148666
0.0151776683949
0.000484988515581
0.0146572906971
0.000520340831898
0.0141037933809
0.000553592886797
0.0135194466477
0.000584311433432
0.0129073656872
0.000612174782701
0.0122706379726
0.000636694530492
0.0116132422934
0.000657490395052
0.0109391840504
0.000674026322608
0.0102533773952
0.000685902326078
0.00956073691758
0.000692606575897
0.00886699860644
0.000693831789185
0.00817772800188
0.000689231196953
0.00749906431418
0.000678748867555
0.00683664602925
0.000662369642021
0.0061962631486
0.000640452812875
0.00558276007162
0.000613442289296
0.00500071582648
0.000582095440122
0.00445351458763
0.000547130163697
0.0039440540595
0.000509491812162
0.00347405450541
0.000469922035981
0.00304485758612
0.000429206819349
0.00265664674219
0.00038812943158
0.00230891420517
0.000347725828075
0.00199994031443
0.000308894785088
0.00172750424001
0.000272421191832
0.00148869834228
0.000238734430626
0.00128059807321
0.000208083474823
0.00110007809001
0.000180458216843
0.000944272144416
0.000155790080195
0.000810316554949
0.000133903155863
0.000695639857271
0.000114662310368
0.000597713546352
9.78817344606e-05
0.000514318141845
8.338255207e-05
0.000443380045923
7.09002633759e-05
0.000383176149228
6.01934888074e-05
0.000332142381631
5.10020416439e-05
0.000289031785332
4.31025970911e-05
0.000252784764815
3.62202082755e-05
0.000222785376522
2.99935266436e-05
0.000199294211737
2.34682074674e-05
0.000179345137891
1.99425921445e-05
0.000160810307133
1.85132751178e-05
0.000144706658891
1.60942924231e-05
0.000129215410521
1.54683929081e-05
0.000113073754767
1.61270482946e-05
9.70220854082e-05
1.60247647538e-05
8.11133273373e-05
1.58862713165e-05
6.37647120048e-05
1.73202083304e-05
4.37416776189e-05
1.99879554378e-05
2.11518250806e-05
2.25432260744e-05
2.11291581606e-05
0.000898017926307
-0.00174827093881
0.00185158399761
-0.00184593453605
0.00279991499872
-0.00183865794722
0.00373969520869
-0.00182289597924
0.00466839991492
-0.00180180317676
0.00558355439687
-0.001775639452
0.00648265844128
-0.00174466729753
0.00736342938067
-0.00170914519419
0.00822362575201
-0.00166938650946
0.00906128239445
-0.00162568685556
0.00987447810078
-0.00157839164033
0.0106615966399
-0.00152781035634
0.0114210509221
-0.00147429446973
0.0121515700947
-0.00141814062464
0.01285188457
-0.00135967923442
0.0135210370016
-0.00129916872482
0.0141580327216
-0.00123689459435
0.0147621727936
-0.00117305669101
0.0153326752541
-0.00110787832543
0.0158690289286
-0.00104148832469
0.016370591459
-0.000974039406885
0.0168369629231
-0.000905586511058
0.0172675668591
-0.000836213299586
0.0176620425801
-0.000765907723742
0.0180198150153
-0.000694695041162
0.0183405041906
-0.00062251132759
0.0186234891459
-0.000549341343806
0.0188683324846
-0.000475090587042
0.019074342945
-0.000399726463322
0.0192410124026
-0.000323149655459
0.0193675822574
-0.000245338099776
0.0194534924215
-0.000166217774155
0.0194979533969
-8.58065511526e-05
0.0195004011502
-4.0876195309e-06
0.0194600813094
7.88475795855e-05
0.019376509404
0.000162926656074
0.0192490670427
0.000247956370035
0.0190774611881
0.000333750290471
0.0188613326864
0.000419994957353
0.0186007074514
0.000506378889196
0.0182956154257
0.00059246696071
0.0179465256269
0.000677830247633
0.0175539735767
0.000761928589465
0.0171189740947
0.000844238161164
0.0166426578924
0.000924138914266
0.0161266619959
0.00100103407352
0.0155727813438
0.0010742367186
0.0149833446656
0.00114307630273
0.014360889532
0.00120678114472
0.0137085349177
0.00126457558745
0.0130296800006
0.00131556513999
0.0123283740333
0.00135884390396
0.0116090150231
0.00139340228425
0.0108766912169
0.00141827427167
0.0101368288777
0.00143248466958
0.00939546257731
0.00143524315717
0.00865879108355
0.00142591257266
0.00793336003446
0.00140421654167
0.00722552067236
0.00137020768687
0.00654148762761
0.001324506512
0.00588671090613
0.00126820266667
0.00526601219267
0.00120279660898
0.00468318546816
0.00112992656808
0.0041411207428
0.00105154505723
0.00364171218277
0.000969288818854
0.00318636407291
0.000884527760164
0.00277548736524
0.000798954191147
0.0024084079961
0.000714767788799
0.00208319865159
0.000634049290969
0.00179716491076
0.000558415558362
0.00154704656377
0.000488801652482
0.00132948667371
0.000425606915948
0.00114110823796
0.000368791855588
0.000978761768472
0.000318104659319
0.000839442676168
0.000273183881933
0.000720370291129
0.000233706706169
0.000618871547814
0.00019934721789
0.000532515164795
0.000169714395793
0.000459121851054
0.000144265045747
0.000396841631285
0.000122453337704
0.000344045120943
0.000103774812587
0.000299343977656
8.77869893738e-05
0.000261487639962
7.40567933022e-05
0.00022924829368
6.22189003876e-05
0.000200599091365
5.21007398717e-05
0.000176077934964
4.44505468177e-05
0.000156257912828
3.83168752057e-05
0.000139794120225
3.25435845021e-05
0.000124948077084
3.02967120074e-05
0.000110355281904
3.07009111499e-05
9.48955577104e-05
3.14618510568e-05
7.90636825204e-05
3.16947448124e-05
6.25975463053e-05
3.37573204618e-05
4.38886547901e-05
3.86625611105e-05
2.14585901419e-05
4.49335203138e-05
4.25666054275e-05
0.000906244213673
-0.00265436396347
0.00186547505409
-0.00280500594309
0.00282052979862
-0.00279355381513
0.00376708950178
-0.00276929549784
0.00470241598497
-0.00273697357533
0.00562392003859
-0.00269698503857
0.0065290936576
-0.00264968812955
0.0074155902367
-0.00259548607059
0.00828118638845
-0.00253483392816
0.00912385920125
-0.00246820769821
0.00994172519613
-0.0023961138061
0.0107331178792
-0.0023190556294
0.0114965079982
-0.00223754632254
0.0122305823252
-0.00215207282325
0.0129341474669
-0.00206311231198
0.0136062100871
-0.00197109510963
0.0142458665039
-0.00187642560835
0.0148523850694
-0.00177944545866
0.0154250846716
-0.0016804596551
0.015963420621
-0.00157970135489
0.0164668556282
-0.00147736355161
0.0169349510142
-0.0013735662183
0.0173672341106
-0.00126839321619
0.0177632964292
-0.00116186183037
0.0181226608043
-0.00105396396626
0.0184448875808
-0.00094463747335
0.0187294442678
-0.000833810322791
0.0189758200581
-0.000721373282525
0.0191833999916
-0.000607226209384
0.0193515879672
-0.0004912519267
0.0194796875715
-0.000373364816292
0.0195670333466
-0.000253484988509
0.019612880141
-0.000131587384313
0.0196165433199
-7.67913126967e-06
0.0195772979816
0.000118152222326
0.0194945267593
0.000245762894772
0.019367628914
0.000374907178985
0.0191961728797
0.000505264865285
0.0189798127176
0.000636401934696
0.0187184398957
0.000767803978887
0.0184121020582
0.000898845798548
0.0180611469283
0.00102883168643
0.0176661379222
0.001156973219
0.0172279844029
0.00128243261412
0.0167478519086
0.0014043024465
0.0162272794459
0.00152164300717
0.0156680902779
0.00163345341917
0.015072506891
0.00173869313992
0.014443076193
0.0018362377557
0.0137827980917
0.0019248863939
0.0130950756759
0.00200331408698
0.012383860283
0.00207009318878
0.0116536088941
0.00212368128085
0.0109094099849
0.00216250765273
0.0101568854405
0.00218503516529
0.00940223362667
0.00218992700805
0.00865202185107
0.00217614453948
0.00791314111935
0.00214312086602
0.00719250147088
0.00209085487848
0.0064967763212
0.00202023842195
0.00583182965225
0.00193313808022
0.00520265856785
0.0018319579896
0.00461329097985
0.00171926928032
0.0040663780876
0.00159843665841
0.00356365005899
0.00147198196134
0.00310677928511
0.00134136333532
0.00269657342779
0.00120911438041
0.00233224785925
0.00107904963366
0.00201144434727
0.000954804496177
0.00173082857815
0.000838987584515
0.0014866123493
0.000732973251481
0.00127500434349
0.000637175582536
0.00109240177165
0.0005513553931
0.000935533801253
0.000474938783853
0.000801407207273
0.000407276465293
0.000687223451158
0.000347860599862
0.000590247084588
0.000296293278986
0.000507917416342
0.000252017244926
0.000438038920437
0.000214117266686
0.000378789880879
0.000181679846265
0.000328595332277
0.00015394775118
0.000286087562165
0.000130276041986
0.000250094910133
0.000110031334162
0.000219575825957
9.27224116141e-05
0.000193344349593
7.83163789668e-05
0.000170540335754
6.72395461682e-05
0.000149659090301
5.91816616879e-05
0.00013057151301
5.1615156129e-05
0.000115050953647
4.57996776588e-05
0.000102364084096
4.33681130404e-05
8.73597577785e-05
4.64431608585e-05
7.0247910487e-05
4.87825634631e-05
5.30599311549e-05
5.09200602305e-05
3.4940059825e-05
5.67510159766e-05
1.76975819595e-05
6.21405550487e-05
6.02472779929e-05
0.000914676636296
-0.00356888802982
0.00188189970446
-0.00377206561938
0.00284503824663
-0.00375653195356
0.00379954532134
-0.0037236414853
0.00474256301221
-0.00367983261708
0.00567140846503
-0.00362567201677
0.00658352373961
-0.00356164757349
0.0074765080112
-0.00348831509182
0.00834811840669
-0.00340629232905
0.00919629946679
-0.00331623761558
0.0100191726715
-0.00321883970562
0.0108150592743
-0.00311479600345
0.0115824583974
-0.00300480359267
0.0123200636884
-0.00288953749851
0.0130267310032
-0.00276964382647
0.0137014896664
-0.00264571936304
0.0143435013672
-0.00251830811775
0.0149520674961
-0.0023878838943
0.0155265816747
-0.00225485166797
0.0160665354778
-0.00211953459093
0.0165714678461
-0.00198218114792
0.0170409721067
-0.00184295735054
0.0174746457251
-0.00170195966224
0.0178721013316
-0.00155921192858
0.0182329197042
-0.00141468289124
0.0185566666489
-0.00126828658353
0.0188428510268
-0.00111990291711
0.0190909483521
-0.00096938035481
0.0193003650196
-0.00081655861243
0.0194704692751
-0.000661273311595
0.0196005629322
-0.000503381448122
0.0196899204023
-0.000342766694421
0.0197377695722
-0.000179366486883
0.0197433407527
-1.31813725318e-05
0.0197058578851
0.000155698503179
0.0196245972961
0.000327085846355
0.0194988891255
0.00050067231591
0.0193281839095
0.00067602604801
0.0191120608291
0.000852575728946
0.0188502965677
0.00102961798123
0.0185428734845
0.00120631352432
0.0181900422627
0.00138170666538
0.0177923213336
0.00155473304566
0.0173505453647
0.00172424676065
0.0168658508296
0.00188903060445
0.0163397100362
0.00204781698108
0.0157739092886
0.00219928336331
0.0151705828089
0.00234204909073
0.0145322052296
0.00247464205304
0.0138616519275
0.00259546785281
0.0131622310987
0.00270276191457
0.0124377841563
0.00279456860972
0.0116927489979
0.00286874482163
0.0109322522466
0.00292303239682
0.0101621176124
0.00295519778596
0.00938883994011
0.00296323007716
0.00861945903485
0.00294554871507
0.00786145002504
0.00290114723818
0.00712258773812
0.00282972741269
0.00641044693167
0.00273237588387
0.00573144684588
0.0026121294657
0.00509085403403
0.00247252948776
0.00449319970281
0.00231690172772
0.00394047132471
0.00215113918662
0.00343367560835
0.00197874770754
0.00297534777983
0.00179965363783
0.00256730009487
0.00161712100736
0.00220861347152
0.00143769311949
0.00189600976682
0.00126736445819
0.00162500339591
0.00110995258684
0.00139086783133
0.000967068504373
0.00118916096826
0.000838845705669
0.00101593693295
0.000724544463134
0.000867832335798
0.000623011525262
0.000741953625476
0.000533124624619
0.000635576726169
0.000454208078027
0.00054583170381
0.000386009695768
0.000469873996866
0.00032794767091
0.000405480850352
0.000278484800372
0.000350953594447
0.000236184163007
0.000304824388091
0.000200055652829
0.000265766913774
0.000169314498348
0.000232748356382
0.000143032193434
0.000204927747741
0.00012052654235
0.000181627842888
0.000101600665927
0.000158973370672
8.9877497111e-05
0.000138474827488
7.96629479329e-05
0.000120590967277
6.94814744885e-05
0.000103375716664
6.29963403867e-05
8.63951219931e-05
6.03285877173e-05
7.37508279113e-05
5.90664266772e-05
5.78538905689e-05
6.46564182536e-05
4.03366210155e-05
6.84114896083e-05
2.60727561725e-05
7.0989437046e-05
1.33591433148e-05
7.48256843094e-05
7.35901200631e-05
0.000925581785277
-0.0044943148404
0.00190393889534
-0.00475026145657
0.00287806149936
-0.00473049077805
0.00384327423401
-0.00468869223111
0.00479661686719
-0.00463301408654
0.00573530924989
-0.00456420464266
0.00665671997295
-0.0044829002186
0.00755838549015
-0.00438982418211
0.0084380228274
-0.00428577546537
0.0092935453673
-0.0041716080184
0.0101230664832
-0.00404821136778
0.0109249068095
-0.00391648930774
0.0116975880559
-0.00377734086811
0.012439831618
-0.00363163984947
0.0131505431749
-0.00348021755113
0.013828803428
-0.00332384480499
0.0144738447627
-0.00316321828258
0.015085035807
-0.00299894701941
0.0156618525365
-0.00283154434993
0.0162038594924
-0.00266142091036
0.0167106787547
-0.00248888380276
0.0171819715
-0.00231413702035
0.0176174086947
-0.00213728792172
0.0180166564343
-0.00195835430243
0.018379351308
-0.00177727656156
0.0187050916344
-0.00159392926541
0.0189934189632
-0.00140813673065
0.0192438158982
-0.00121968724119
0.0194556942143
-0.00102835089547
0.0196283997322
-0.000833896147133
0.0197612081244
-0.000636111039939
0.019853337989
-0.000434820957268
0.0199039562959
-0.000229912910325
0.0199122023646
-2.13586365454e-05
0.0198772049932
0.000190761090949
0.0197981184832
0.000406234596212
0.0196741519226
0.000624697636038
0.0195046158523
0.000845617944809
0.0192889601554
0.00106828383142
0.0190268251763
0.00129180247909
0.0187180793676
0.00151510549329
0.0183628637052
0.00173696564993
0.0179616164464
0.00195602032881
0.0175150984878
0.00217080199083
0.0170243955413
0.0023797675763
0.0164909210867
0.00258132291234
0.0159164020091
0.00277383109893
0.0153028778674
0.00295560031089
0.0146527021118
0.00312484319376
0.0139685819764
0.00327961362237
0.0132536427134
0.00341772561211
0.0125115488954
0.00353668914871
0.0117466366415
0.003633680661
0.0109640665292
0.00370563018185
0.0101698841245
0.00374940211523
0.00937100509544
0.00376213757988
0.0085750426439
0.00374152961507
0.00779025284457
0.00368595844316
0.00702575621784
0.0035942278491
0.00629084043802
0.00346728999078
0.00559252014382
0.0033104296733
0.00493626584818
0.00312876522949
0.00432814777826
0.00292499308752
0.00376826063091
0.00271100536782
0.00325513468966
0.0024918460353
0.00279389709967
0.00226085971606
0.00238893769205
0.00202204612193
0.0020390140773
0.00178758028426
0.00173894232124
0.00156740176515
0.00148218044324
0.00136667971843
0.00126253391465
0.00118668374368
0.00107466941865
0.00102667986104
0.000914220598157
0.000884965948097
0.000777832190846
0.000759373724522
0.000662973025909
0.000647958305659
0.000567239509193
0.000549915633436
0.000487489318793
0.000465733844634
0.000420148582795
0.000395262308203
0.000362989844899
0.000335618904868
0.000314668897931
0.000284481804782
0.00027391540363
0.000240788237282
0.000239354036453
0.00020385638241
0.000210139781914
0.000172228306816
0.000185581113595
0.00014506850757
0.000165348644448
0.000121816435968
0.000145580943309
0.000109627560717
0.000126439653504
9.8785850155e-05
0.000105874195879
9.00280991942e-05
8.71657146807e-05
8.16855282201e-05
7.01199219311e-05
7.73542090853e-05
5.65767330177e-05
7.25885583108e-05
4.53678433023e-05
7.58439181361e-05
3.10387703017e-05
8.27199520979e-05
1.86320292988e-05
8.33721624495e-05
9.31553022208e-06
8.41158830561e-05
8.2893808209e-05
0.000939267610274
-0.00543342598042
0.00193188492005
-0.00574271098546
0.00292001307401
-0.00571845416121
0.00389883789711
-0.0056673520967
0.00486527782015
-0.00559929092422
0.00581644270814
-0.00551520751448
0.00674960737779
-0.00541590469935
0.00766223261605
-0.0053022909281
0.00855198061576
-0.00517536723835
0.00941672892115
-0.00503620225537
0.0102545766625
-0.00488590775639
0.0110638487719
-0.00472561260328
0.011843092081
-0.0045564384792
0.012591069828
-0.00437947474594
0.0133067479174
-0.00419575623292
0.0139892803558
-0.00400624094927
0.0146379867918
-0.00381179214733
0.0152523305333
-0.00361316151254
0.0158318898198
-0.00341097832089
0.0163763316547
-0.00320574091829
0.0168853808776
-0.0029978152889
0.0173587943356
-0.00278743632741
0.017796332432
-0.00257471603427
0.0181977378919
-0.00235965340285
0.0185627132438
-0.00214214973532
0.018890906417
-0.00192202384585
0.0191818951979
-0.00169903103432
0.0194351797169
-0.0014728807756
0.0196501735552
-0.00124325775237
0.0198262029694
-0.00100984193275
0.0199625054152
-0.000772333713952
0.0200582369418
-0.000530475919151
0.0201124808052
-0.00028408392716
0.0201242670022
-3.30750573526e-05
0.0200925943726
0.000222499896672
0.0200164649792
0.000482427183233
0.0198949215246
0.000746300742445
0.0197270961287
0.00101350005228
0.0195122597311
0.00128317341482
0.0192498783815
0.00155423406752
0.0189396637059
0.00182536685244
0.018581621792
0.00209505128454
0.0181760864573
0.0023615957454
0.0177237413679
0.00262318410226
0.017225618837
0.00287792341363
0.0166830851517
0.00312388703741
0.0160978079359
0.00335913570082
0.0154717265625
0.0035817069949
0.0148070341886
0.00378955976596
0.0141062005611
0.00398046977827
0.013372057159
0.0041518935299
0.0126079527681
0.00430081338179
0.0118180006503
0.00442365929624
0.0110073140948
0.00451633451497
0.0101822108485
0.00457453509096
0.00935012178787
0.00459424554106
0.00851931775184
0.00457236251917
0.00769873842141
0.00450655294678
0.00689964416304
0.00439333264847
0.0061348574331
0.00423206472632
0.00541154208312
0.00403373094252
0.00473443769983
0.00380583969457
0.00411518036157
0.00354422710872
0.00354844733099
0.00327771751567
0.00302468219275
0.00301558599174
0.00255699740531
0.0027285195444
0.00215623757904
0.00242277500158
0.00181986085677
0.0021239321582
0.00153854663385
0.00184868870491
0.0013021002512
0.00160310409764
0.0011022377381
0.00138652334521
0.00093258107129
0.00119631775226
0.000788310492362
0.00102921750871
0.000666294972111
0.000881372939028
0.000564975906004
0.000749258828879
0.00048294293399
0.000631929248124
0.000416511242425
0.000532143744854
0.000360093938754
0.000451656280698
0.000311638949115
0.000384050128515
0.00027081920148
0.000325278987694
0.000236731605528
0.000274854159053
0.000207544685434
0.000233023967598
0.000182740475436
0.000197013851722
0.000161803578233
0.000165987771463
0.000142224800002
0.000141377631393
0.000123408380504
0.000128425806851
0.000106306376223
0.000115868671996
9.06060760547e-05
0.00010570884992
7.31938869805e-05
9.90768244346e-05
5.66124628863e-05
9.39146782487e-05
4.05419968896e-05
8.86401283607e-05
3.04207660232e-05
8.59459676536e-05
2.26928652136e-05
9.04260378865e-05
1.33443326774e-05
9.27009456069e-05
6.55715400263e-06
9.08827651925e-05
8.94388846958e-05
0.00095594796792
-0.00638921406207
0.0019660236512
-0.00675262084767
0.00297129358031
-0.00672355503833
0.00396675284004
-0.00666264454916
0.00494917341275
-0.00658154530382
0.00591553016934
-0.00648139983259
0.0068629840645
-0.00636319569639
0.00778890338497
-0.00622804938488
0.00869088284919
-0.00607718792855
0.00956675671624
-0.00591191985085
0.0104146068728
-0.00573360416591
0.0112327650596
-0.00554361997499
0.0120198100831
-0.00534333556253
0.0127745591446
-0.00513407916589
0.0134960544269
-0.00491711004416
0.0141835438968
-0.00469359254446
0.0148364580118
-0.00446457179457
0.015454381484
-0.00423095435156
0.0160370225911
-0.00399349239
0.0165841796388
-0.00375277492884
0.0170957077478
-0.00350922407722
0.0175714857922
-0.00326309915102
0.0180113866783
-0.00301450547581
0.0184152502877
-0.00276340968655
0.0187828614539
-0.00250965733406
0.0191139312995
-0.00225299419521
0.0194080833451
-0.00199308726421
0.0196648421381
-0.0017295477124
0.019883625738
-0.00146195304242
0.0200637403167
-0.00118987202322
0.0202043792752
-0.000912891587123
0.0203046254938
-0.000630644728502
0.0203634608124
-0.00034284509391
0.0203797817254
-4.93253816399e-05
0.0203524247379
0.000249924317188
0.0202802004368
0.000554715415981
0.0201619386821
0.000864623317374
0.0199965422895
0.00117895374937
0.0197830496864
0.00149672017606
0.019520701023
0.00181663330569
0.0192090051952
0.00213711001511
0.0188477988347
0.00245630125651
0.0184372918841
0.00277214282281
0.0179780896827
0.00308242255615
0.0174711871733
0.0033848586449
0.016917931678
0.00367717182761
0.0163199597327
0.00395713381293
0.0156791234641
0.00422256790215
0.0149974271083
0.00447127794765
0.0142770211843
0.0047008991718
0.0135202753879
0.00490865780079
0.0127300139211
0.00509109938197
0.0119098677606
0.00524382117294
0.0110647835582
0.00536144577158
0.0102013636338
0.00543797241118
0.00932783021262
0.00546781457762
0.0084530235954
0.005447191682
0.00758558223709
0.00537401944201
0.00673994400641
0.00523897721025
0.00593774121878
0.00503425623676
0.00518360913181
0.00478783250079
0.00447719306169
0.00451222217818
0.00385041404777
0.00417097254414
0.00328260930175
0.0038454874129
0.00273793722371
0.00356022095396
0.00225515274752
0.00321127042726
0.00186048391002
0.00281740450705
0.00154600315834
0.00243838960111
0.00129308722872
0.00210157796833
0.00108513493382
0.0018110415923
0.000911452620096
0.00156018716975
0.000764811882034
0.00134294925385
0.000639922171844
0.00115409388643
0.000534114845238
0.000987173827324
0.000448093070572
0.000835266828547
0.000383267814156
0.000696743910938
0.000334969224083
0.000580425158545
0.000291813893444
0.000494792716525
0.00025273232256
0.000423111060839
0.000220351010555
0.00035763839625
0.000194466366518
0.000300718794829
0.000171323792603
0.000256147047489
0.000151404364351
0.000216915470236
0.000134828322099
0.000182545898456
0.000117281632802
0.000158906379754
0.000101418806497
0.000144269107075
8.48244668269e-05
0.000132443447586
6.91201112822e-05
0.000121392788957
5.39190080664e-05
0.000114257328855
4.14711668934e-05
0.000106342139217
2.86953646763e-05
0.000101395528386
1.79753887069e-05
9.66473471029e-05
1.37351594731e-05
9.46502744008e-05
8.27718948183e-06
9.81394091247e-05
3.99649568758e-06
9.51431495735e-05
9.34266823028e-05
0.000975813761627
-0.00736486590654
0.00200670918746
-0.00778334209916
0.00303240652982
-0.00774908179416
0.00404767045353
-0.00767773757425
0.00504908691631
-0.0075827929073
0.00603346902699
-0.00746561425353
0.00699783895822
-0.00732739987059
0.0079394545638
-0.00716950110471
0.00885582913308
-0.00699340099475
0.00974474629417
-0.00680067788465
0.0106042675879
-0.00659296919056
0.0114327351789
-0.00637193407634
0.0122287674583
-0.00613921762125
0.0129912500039
-0.0058964145972
0.0137193192102
-0.00564503573878
0.0144123413744
-0.00538647457159
0.0150698845121
-0.00512197866511
0.0156916865255
-0.00485262367849
0.0162776176095
-0.00457929484979
0.0168276416949
-0.00430267411537
0.0173417755517
-0.00402323721836
0.0178200510471
-0.00374125772785
0.0182624790879
-0.00345682082123
0.0186690201657
-0.00316984186644
0.0190395586836
-0.00288009114546
0.0193738843975
-0.00258721892842
0.0196716765438
-0.0022907825224
0.0199324930509
-0.00199027093448
0.0201557602924
-0.00168513095262
0.0203407666798
-0.00137479253401
0.0204866572701
-0.00105870011061
0.0205924336804
-0.000736342384482
0.0206569588605
-0.000407295205705
0.0206789717995
-7.12664560799e-05
0.0206571109723
0.000271853394786
0.0205899519971
0.000621939475611
0.0204760569243
0.000978579845224
0.0203140388934
0.00134103001788
0.0201026369659
0.00170817661437
0.0198408012826
0.00207852014848
0.0195277787519
0.00245017978443
0.0191631940533
0.00282092956197
0.0187471108163
0.00318826551258
0.01828006359
0.00354950551963
0.0177630450471
0.00390190899578
0.0171974444348
0.00424280085038
0.0165849368806
0.00456966729659
0.0159273400117
0.00488018796269
0.015226475204
0.00517216587164
0.0144840772366
0.00544331694363
0.0137018451107
0.00569091281497
0.0128816962247
0.00591126380073
0.0120263703036
0.00609917163265
0.0111402951437
0.0062475387143
0.0102305244457
0.00634777800045
0.00930675605329
0.00639161167968
0.00837851613983
0.00637546410941
0.00744984068713
0.00630271753396
0.00653891681354
0.006149895619
0.00569303236336
0.00588010862874
0.00490378592443
0.00557705302748
0.00414770876849
0.00526826323151
0.00352947401597
0.00478914152684
0.00298467310198
0.00439022173111
0.00239006988866
0.00415481329377
0.00187085973081
0.00373038736267
0.00148736453618
0.00320091578914
0.00121114137168
0.00271453143579
0.00100238046531
0.00231036390781
0.000833832849624
0.00197952816019
0.000693795506261
0.00170025046938
0.000575338848795
0.00146135894722
0.000472411591249
0.00125704662284
0.000382519847505
0.00107702776671
0.000311196318316
0.000906606209904
0.000267782325136
0.000740128807379
0.000246595882408
0.000601604277083
0.000218920978378
0.000522447737135
0.000187568528072
0.000454441677519
0.000163876268128
0.000381314397729
0.000148901149131
0.000315675616014
0.000131864768603
0.000273169413016
0.00011663181193
0.00023213314125
0.00010417619816
0.000194984977877
8.95785977005e-05
0.000173485741203
7.62184619449e-05
0.000157610272066
6.24873967569e-05
0.000146154158939
4.81061993392e-05
0.00013575376212
3.58782766044e-05
0.000126464526865
2.39933226945e-05
0.000118206598722
1.6443557654e-05
0.000108926401259
9.23232111624e-06
0.000103840478526
4.96993815307e-06
9.88936636375e-05
3.52706781274e-06
9.95665268454e-05
1.50988124334e-06
9.71446715716e-05
9.49267622567e-05
0.000999085074726
-0.00836378442974
0.00205436249653
-0.00883844720063
0.00310397420458
-0.00879851736865
0.00414239268402
-0.00871598247839
0.00516598290521
-0.00860621014599
0.00617136088373
-0.00847082118914
0.0071553842135
-0.00831125380359
0.00811517909943
-0.00812912882497
0.00904816350558
-0.00792622047977
0.00995206176304
-0.00770441395763
0.0108249133062
-0.00746566125285
0.0116650739268
-0.00721193841767
0.0124712117898
-0.00694520227524
0.0132422958586
-0.00666734904533
0.0139775789342
-0.0063801725608
0.014676572249
-0.00608532552709
0.0153390144805
-0.00578428213534
0.0159648324714
-0.00547830702919
0.0165540980966
-0.00516842959975
0.0171069798197
-0.00485542922746
0.0176236950663
-0.00453982971277
0.0181044628533
-0.00422190708744
0.0185494630661
-0.00390170648592
0.0189588008626
-0.0035790694177
0.019332480591
-0.00325366445354
0.0196703850522
-0.00292502118206
0.0199722618239
-0.00259256080012
0.0202377108407
-0.00225562553072
0.0204661747541
-0.00191350400967
0.0206569278481
-0.00156545869501
0.0208090678564
-0.00121075660984
0.0209215084658
-0.0008487032764
0.0209929802994
-0.000478690628942
0.0210220393384
-0.000100252799866
0.0210070898998
0.000286872268511
0.020946421612
0.000682673466404
0.0208382661238
0.00108679772442
0.0206808709915
0.00149848368132
0.020472593703
0.00191650897316
0.0202120085846
0.0023391562451
0.0198980234794
0.00276421209116
0.0195299906624
0.00318900523823
0.0191077993802
0.00361049579895
0.0186319257956
0.00402541389833
0.0181034226695
0.0044304434031
0.0175238281941
0.00482242341049
0.0168949913912
0.0051985294836
0.0162188277627
0.00555637563327
0.0154970434275
0.00589397194502
0.0147309045533
0.00620947827511
0.0139211452923
0.00650069044084
0.0130682227021
0.00676420835342
0.0121731289913
0.00699428825647
0.0112390679609
0.0071816273228
0.0102737112173
0.00731316651561
0.00929074138178
0.00737461134282
0.0083022345296
0.00736399431027
0.00729292986586
0.00731202094731
0.00627993841069
0.00716283591287
0.00539403395398
0.00676602729432
0.00457563877757
0.00639543287439
0.00370345210106
0.00614037039459
0.00314299295646
0.00534958135029
0.00270770319651
0.00482551331456
0.00197601030252
0.00488643862326
0.00137975370036
0.00432669679301
0.00103122753483
0.00354934192837
0.000831659673189
0.00291416406311
0.0006951754092
0.0024467501856
0.000578058353668
0.00209670122438
0.000476225726475
0.00180199815985
0.000388808826213
0.00154882290969
0.000307237430109
0.00133854995629
0.000226435167474
0.00115785597761
0.000160000490216
0.000972991384015
0.000139458756536
0.000760655711742
0.000162500749187
0.000578542446613
0.000149630691896
0.000535273213072
0.000116633818036
0.000487436752664
0.000100229988995
0.000397686284509
0.000103384645121
0.000312512159287
9.08772652751e-05
0.000285661028905
7.93278829609e-05
0.000243666416384