/*--------------------------------*- C++ -*----------------------------------*\
| =========                 |                                                 |
| \\      /  F ield         | OpenFOAM: The Open Source CFD Toolbox           |
|  \\    /   O peration     | Version:  v1906                                 |
|   \\  /    A nd           | Web:      www.OpenFOAM.com                      |
|    \\/     M anipulation  |                                                 |
\*---------------------------------------------------------------------------*/
FoamFile
{
    version     2.0;
    format      ascii;
    class       volVectorField;
    location    "804";
    object      U;
}
// * * * * * * * * * * * * * * * * * * * * * * * * * * * * * * * * * * * * * //

dimensions      [0 1 -1 0 0 0 0];


internalField   nonuniform List<vector> 
9216
(
(0.00156826731974 -0.00156938854883 0)
(0.0016083581592 -0.00489074406902 6.54464331264e-28)
(0.00159703101764 -0.00822026508553 1.0887053404e-31)
(0.00157390779429 -0.0115297917758 0)
(0.00154278932445 -0.0147806799261 0)
(0.00150452962074 -0.0179589215383 0)
(0.00145992419946 -0.021050505062 0)
(0.00140983162763 -0.0240430816693 0)
(0.001354971653 -0.0269259927332 0)
(0.00129621446946 -0.0296901812984 0)
(0.00123423570531 -0.0323282691203 0)
(0.00116986001501 -0.0348343856978 0)
(0.00110365047407 -0.0372041747642 0)
(0.00103632723552 -0.0394345577114 0)
(0.0009682966493 -0.0415236963086 0)
(0.000900147518539 -0.0434707250834 0)
(0.000832116939605 -0.0452757043043 0)
(0.000764663494509 -0.0469393525981 0)
(0.000697866359707 -0.0484630131953 0)
(0.000632073062102 -0.0498484054974 0)
(0.000567228315786 -0.0510976170439 0)
(0.000503594690057 -0.0522128837347 0)
(0.000441010153359 -0.0531966089039 0)
(0.00037967926943 -0.0540511733736 0)
(0.000319359372442 -0.0547789792635 0)
(0.000260220630109 -0.0553822897534 0)
(0.000201963644405 -0.0558632914015 0)
(0.00014474510373 -0.056223961767 0)
(8.82304264578e-05 -0.056466146716 0)
(3.25818828082e-05 -0.0565914567726 0)
(-2.25490996589e-05 -0.0566013591626 0)
(-7.69797792701e-05 -0.0564971001371 0)
(-0.000131050527135 -0.0562797962347 0)
(-0.000184532641944 -0.0559504142835 0)
(-0.000237732493401 -0.0555098690653 0)
(-0.000290360212558 -0.05495902775 0)
(-0.00034266614716 -0.054298819748 0)
(-0.000394283342721 -0.0535302781136 0)
(-0.000445388200197 -0.0526546451351 0)
(-0.000495530803908 -0.0516734426063 0)
(-0.00054480925727 -0.050588559389 0)
(-0.000592701466225 -0.0494023353153 0)
(-0.000639240094616 -0.0481176100984 0)
(-0.000683858691606 -0.0467378013302 0)
(-0.000726551984288 -0.0452669005685 0)
(-0.000766744357395 -0.0437095382765 0)
(-0.000804415412104 -0.0420709293975 0)
(-0.000838996770425 -0.0403569445059 0)
(-0.000870441808905 -0.0385740406296 0)
(-0.000898159486187 -0.0367293915992 0)
(-0.000922013787646 -0.0348308564701 0)
(-0.000941320730854 -0.0328872175971 0)
(-0.000955782082784 -0.0309081990711 0)
(-0.000964594601428 -0.0289047717146 0)
(-0.000967334920924 -0.0268891052224 0)
(-0.00096322268697 -0.0248747529868 0)
(-0.000951937137185 -0.0228763318414 0)
(-0.000933009860063 -0.0209094129382 0)
(-0.00090650248758 -0.0189898965594 0)
(-0.000872534028719 -0.0171336168785 0)
(-0.000831823919197 -0.0153554318641 0)
(-0.000785210026589 -0.013668644706 0)
(-0.000733884043745 -0.0120843565441 0)
(-0.000679118941602 -0.0106111710206 0)
(-0.000622409100474 -0.00925465486057 0)
(-0.000564907422815 -0.00801759618432 0)
(-0.000507610325175 -0.00690049538905 0)
(-0.000451374798303 -0.00590202794997 0)
(-0.000397211625717 -0.00501891138944 0)
(-0.00034606402492 -0.00424583526122 0)
(-0.000298796663958 -0.00357553636333 0)
(-0.00025594974369 -0.00299927648643 0)
(-0.000217788551456 -0.00250744738892 0)
(-0.000184205943534 -0.00209030616169 0)
(-0.000154867823667 -0.00173858885905 0)
(-0.000129263957529 -0.00144398844684 0)
(-0.000106965037028 -0.0011992097359 0)
(-8.7702237903e-05 -0.000997693076749 0)
(-7.13447543526e-05 -0.000833231803105 0)
(-5.76682525504e-05 -0.000699961093213 0)
(-4.63606524345e-05 -0.000592586972091 0)
(-3.70541917846e-05 -0.000506548457894 0)
(-2.94035322136e-05 -0.000438007075368 0)
(-2.28819419686e-05 -0.000384308411697 0)
(-1.66309589764e-05 -0.00033815587498 0)
(-1.38153899566e-05 -0.0003110928833 0)
(-1.26499582848e-05 -0.000283713837832 0)
(-1.07058599624e-05 -0.000260593182822 0)
(-1.07067315063e-05 -0.000241577541531 0)
(-1.17835048247e-05 -0.000219469436272 0)
(-1.2136554464e-05 -0.00019694347695 0)
(-1.28823519848e-05 -0.000172013229831 0)
(-1.53766193676e-05 -0.000143524762882 0)
(-1.82852013656e-05 -0.00011090009748 0)
(-2.1417664864e-05 -6.97023970631e-05 0)
(-2.33342567415e-05 -2.25306818892e-05 0)
(0.00490367696196 -0.00162589270042 0)
(0.00516652513187 -0.0052051231809 0)
(0.00512729324899 -0.0087530149425 -6.72964037451e-28)
(0.00505136340251 -0.0122819901546 0)
(0.00495032652799 -0.0157450654662 0)
(0.00482679982083 -0.0191291117262 0)
(0.0046830822823 -0.0224195225421 0)
(0.00452173790184 -0.0256032682111 0)
(0.00434519650416 -0.0286690373971 0)
(0.00415611639669 -0.0316072744744 0)
(0.00395683821439 -0.0344102066595 0)
(0.00374984582827 -0.0370717300379 0)
(0.00353714334292 -0.0395873390474 0)
(0.00332084150579 -0.0419539372185 0)
(0.00310246444193 -0.0441697175533 0)
(0.00288366347871 -0.0462339434289 0)
(0.00266544585261 -0.0481468195024 0)
(0.00244900987576 -0.0499092764972 0)
(0.00223488497347 -0.0515228587885 0)
(0.00202387975384 -0.0529895329303 0)
(0.00181612384819 -0.0543116044247 0)
(0.00161212223428 -0.0554915576825 0)
(0.00141169399358 -0.0565320041307 0)
(0.00121512758122 -0.0574355537558 0)
(0.0010220154388 -0.058204791336 0)
(0.000832506833324 -0.0588421764919 0)
(0.000646041992156 -0.0593500430301 0)
(0.000462698511986 -0.0597305246052 0)
(0.000281831275009 -0.059985573293 0)
(0.000103508120248 -0.0601169104587 0)
(-7.29360863542e-05 -0.0601260595755 0)
(-0.000247384207978 -0.0600143280845 0)
(-0.000420452453062 -0.0597828672545 0)
(-0.000591903514551 -0.059432665978 0)
(-0.000762229497413 -0.0589646294899 0)
(-0.0009310093348 -0.0583796168441 0)
(-0.0010985406743 -0.057678531585 0)
(-0.00126416229828 -0.0568623895921 0)
(-0.00142792478354 -0.0559324197819 0)
(-0.00158890144243 -0.0548901516135 0)
(-0.00174688565887 -0.0537375109192 0)
(-0.00190071310752 -0.0524769083452 0)
(-0.00204996855209 -0.0511113074904 0)
(-0.00219333661092 -0.0496442911037 0)
(-0.00233029142836 -0.0480800813997 0)
(-0.00245947977165 -0.046423571463 0)
(-0.0025803524819 -0.0446802978384 0)
(-0.00269157280095 -0.0428564564846 0)
(-0.00279254293184 -0.0409588685488 0)
(-0.00288183847851 -0.0389950443833 0)
(-0.00295860707589 -0.0369732164127 0)
(-0.0030210825445 -0.0349025230921 0)
(-0.00306790137166 -0.0327931463788 0)
(-0.0030968301748 -0.0306565856137 0)
(-0.00310609978004 -0.0285057679523 0)
(-0.00309346412142 -0.0263551746768 0)
(-0.00305752080224 -0.0242206355636 0)
(-0.00299698222532 -0.0221190697682 0)
(-0.00291172082957 -0.0200679605431 0)
(-0.00280230249581 -0.018084796089 0)
(-0.00267087701537 -0.0161860910806 0)
(-0.00252040994859 -0.0143864566873 0)
(-0.00235456396281 -0.0126981286275 0)
(-0.00217769799204 -0.0111305510028 0)
(-0.0019947426278 -0.00968949947952 0)
(-0.0018095287006 -0.00837740218687 0)
(-0.00162499904377 -0.00719446742724 0)
(-0.00144387788557 -0.00613929708557 0)
(-0.00126937949163 -0.00520849725123 0)
(-0.00110471634754 -0.00439628227459 0)
(-0.000952718986526 -0.00369452315733 0)
(-0.000815225582593 -0.00309331809908 0)
(-0.000693041605847 -0.00258179031286 0)
(-0.000585799003466 -0.00214897289641 0)
(-0.000492266947769 -0.00178461707513 0)
(-0.000410669551204 -0.00147981830867 0)
(-0.000339491390583 -0.00122709901788 0)
(-0.000277953602363 -0.00101981920657 0)
(-0.000225767839371 -0.000851443335163 0)
(-0.000182279572078 -0.000715560539104 0)
(-0.000146420905692 -0.000606404057071 0)
(-0.000117016160055 -0.00051909693461 0)
(-9.30542649172e-05 -0.000449469017125 0)
(-7.34586157017e-05 -0.000393962652604 0)
(-5.67788001762e-05 -0.000347325275024 0)
(-4.55383128018e-05 -0.000304912746315 0)
(-3.82041747989e-05 -0.000277570590263 0)
(-3.21319992801e-05 -0.000255511548369 0)
(-3.12949384867e-05 -0.000233395103492 0)
(-3.39218184323e-05 -0.000215971459628 0)
(-3.60582069143e-05 -0.00019716877964 0)
(-3.97415025702e-05 -0.000171056637787 0)
(-4.59121702256e-05 -0.000141714351707 0)
(-5.91268853066e-05 -0.000114016333627 0)
(-7.46973444811e-05 -7.39923738945e-05 0)
(-6.87322962463e-05 -2.04111177977e-05 0)
(0.00829845206026 -0.00164715042243 0)
(0.00874770668591 -0.00527027035258 0)
(0.0086737751727 -0.00885486232138 -6.7201199052e-28)
(0.00854201016581 -0.0124230447951 0)
(0.00836886528406 -0.0159231516281 0)
(0.0081579311764 -0.0193414020593 0)
(0.00791297504907 -0.022662733803 0)
(0.00763818903356 -0.0258738947812 0)
(0.0073378619837 -0.0289634702995 0)
(0.00701639538528 -0.0319219317551 0)
(0.00667796923535 -0.0347416183298 0)
(0.00632664261995 -0.0374166341466 0)
(0.00596603159163 -0.0399427275735 0)
(0.00559950362976 -0.0423171120754 0)
(0.00522986824054 -0.0445382970497 0)
(0.00485966011604 -0.0466058835319 0)
(0.00449082941769 -0.0485203907857 0)
(0.0041250986402 -0.0502830629514 0)
(0.00376363479124 -0.0518957182204 0)
(0.00340746372486 -0.0533605851519 0)
(0.00305710898452 -0.0546801859161 0)
(0.0027130514109 -0.0558572078696 0)
(0.00237532536712 -0.0568944210205 0)
(0.00204401658998 -0.0577945822463 0)
(0.00171881249162 -0.0585603825581 0)
(0.00139953560076 -0.0591943790242 0)
(0.00108564942518 -0.0596989658942 0)
(0.000776827106356 -0.0600763296253 0)
(0.000472417245864 -0.0603284404568 0)
(0.000172047914778 -0.0604570290363 0)
(-0.000124940913736 -0.0604635980635 0)
(-0.000418858807387 -0.0603494198966 0)
(-0.000710261251151 -0.0601155684514 0)
(-0.000999280715772 -0.0597629466619 0)
(-0.00128624628924 -0.0592923417732 0)
(-0.00157099191048 -0.0587044797357 0)
(-0.00185350021803 -0.0580001067755 0)
(-0.00213320153865 -0.0571800720772 0)
(-0.0024096434064 -0.0562454288254 0)
(-0.00268179832061 -0.0551975349907 0)
(-0.00294876265368 -0.054038158475 0)
(-0.00320908975541 -0.0527695746804 0)
(-0.00346151583609 -0.0513946483334 0)
(-0.00370432416781 -0.0499168977075 0)
(-0.00393607823144 -0.048340524502 0)
(-0.00415499933192 -0.0466704225945 0)
(-0.00435966029244 -0.0449121474787 0)
(-0.00454833393368 -0.0430718844635 0)
(-0.00471958502669 -0.0411564036433 0)
(-0.0048715530584 -0.0391730675916 0)
(-0.0050024202922 -0.0371298803745 0)
(-0.00510968023775 -0.0350356553879 0)
(-0.0051905936337 -0.032900251835 0)
(-0.00524166265952 -0.0307349135084 0)
(-0.0052593229535 -0.0285525534572 0)
(-0.00523985835738 -0.0263679336016 0)
(-0.00518033210588 -0.024197540278 0)
(-0.00507864515909 -0.0220591889597 0)
(-0.00493401568069 -0.019971625905 0)
(-0.00474745052416 -0.0179539503277 0)
(-0.00452253696646 -0.0160243485054 0)
(-0.00426497183834 -0.0141984662378 0)
(-0.00398055875962 -0.0124894926191 0)
(-0.00367736250208 -0.0109078374618 0)
(-0.00336469526587 -0.0094588834152 0)
(-0.00304919861806 -0.00814359482722 0)
(-0.00273496755401 -0.00696138807534 0)
(-0.00242624632329 -0.00591112400034 0)
(-0.0021286274746 -0.0049898041498 0)
(-0.0018481261967 -0.00419140351986 0)
(-0.00158990774352 -0.00350683039735 0)
(-0.00135733364478 -0.00292477379356 0)
(-0.00115171497344 -0.002432816935 0)
(-0.000972258865898 -0.00201857101044 0)
(-0.000816394768629 -0.00167078714989 0)
(-0.000680475708207 -0.00138036025243 0)
(-0.000561415556189 -0.00114054450291 0)
(-0.000458178687691 -0.000945604132362 0)
(-0.000370943323299 -0.000789070530576 0)
(-0.000298782216267 -0.000663931543447 0)
(-0.000239593127838 -0.000564040535087 0)
(-0.000191228299116 -0.00048460945696 0)
(-0.000152143552667 -0.000421659138413 0)
(-0.000120908316906 -0.000371874345261 0)
(-9.66829006313e-05 -0.000330031793707 0)
(-7.85594801969e-05 -0.000293015117854 0)
(-6.63222345408e-05 -0.000273368722657 0)
(-5.55526460332e-05 -0.000243650798353 0)
(-4.98236143642e-05 -0.000218458087446 0)
(-5.20681217241e-05 -0.00020416038074 0)
(-6.15674446066e-05 -0.000192579616134 0)
(-6.64315244656e-05 -0.000157644941262 0)
(-7.93459835872e-05 -0.000132470858776 0)
(-9.69527646744e-05 -9.83096772299e-05 0)
(-0.000112662195047 -5.9879657959e-05 0)
(-0.000111296475671 -1.85295501694e-05 0)
(0.0117585646078 -0.00167343084715 0)
(0.0124000493346 -0.00535255571764 0)
(0.0122933714847 -0.0089895920142 6.71922592038e-28)
(0.0121037179522 -0.0126090044346 0)
(0.011854834972 -0.0161568968036 0)
(0.0115520354497 -0.0196187004863 0)
(0.0112008578287 -0.0229787573559 0)
(0.0108073686799 -0.026223480107 0)
(0.0103778613532 -0.029341327555 0)
(0.00991867135608 -0.0323228360516 0)
(0.00943590605114 -0.0351605614027 0)
(0.00893534576534 -0.0378489529032 0)
(0.00842224327451 -0.0403841885642 0)
(0.00790132206843 -0.0427639730618 0)
(0.0073766436062 -0.0449873289242 0)
(0.00685168999913 -0.0470543776636 0)
(0.00632927755933 -0.048966136435 0)
(0.00581169860808 -0.0507243208684 0)
(0.00530065431016 -0.0523311746554 0)
(0.00479743031379 -0.0537893114137 0)
(0.00430282654204 -0.0551015856843 0)
(0.00381734892031 -0.0562709755811 0)
(0.00334112283894 -0.0573004922065 0)
(0.00287409177973 -0.0581930972471 0)
(0.00241590947801 -0.0589516432181 0)
(0.00196614345883 -0.0595788181317 0)
(0.0015241470956 -0.0600771092769 0)
(0.00108927003526 -0.0604487691312 0)
(0.0006607146122 -0.0606957982796 0)
(0.000237757058805 -0.0608199299437 0)
(-0.000180405795454 -0.0608226332067 0)
(-0.000594421989112 -0.0607051155945 0)
(-0.00100494270116 -0.0604683458111 0)
(-0.00141237385796 -0.0601130880903 0)
(-0.00181703990132 -0.0596399508662 0)
(-0.00221892619405 -0.0590494483379 0)
(-0.00261785327317 -0.0583420822104 0)
(-0.0030132230295 -0.0575184351417 0)
(-0.00340421486545 -0.0565792805937 0)
(-0.00378955467764 -0.0555256996414 0)
(-0.00416774855242 -0.0543592025673 0)
(-0.00453689309983 -0.0530818441474 0)
(-0.00489495558245 -0.0516963232982 0)
(-0.00523962945885 -0.0502060563344 0)
(-0.0055686445001 -0.0486152110681 0)
(-0.00587963471631 -0.0469286984761 0)
(-0.00617041690716 -0.0451521164771 0)
(-0.0064387916933 -0.0432916638276 0)
(-0.00668269180818 -0.0413540405139 0)
(-0.00689982981293 -0.0393463876423 0)
(-0.00708766134233 -0.037276306438 0)
(-0.00724291877615 -0.0351520300848 0)
(-0.00736155772966 -0.0329827674721 0)
(-0.00743851951634 -0.0307792132079 0)
(-0.00746815641377 -0.0285540989758 0)
(-0.00744472015339 -0.0263225589093 0)
(-0.00736338054911 -0.0241020673659 0)
(-0.00722091805242 -0.0219117274874 0)
(-0.00701528346665 -0.019772158168 0)
(-0.00674742019913 -0.0177052461745 0)
(-0.00642276076718 -0.0157322239239 0)
(-0.00605113370676 -0.0138699438026 0)
(-0.00563925407879 -0.0121330302476 0)
(-0.00519996024288 -0.0105344522423 0)
(-0.0047499497641 -0.00907857269784 0)
(-0.00429860199692 -0.00776260731627 0)
(-0.00384907115022 -0.0065843675808 0)
(-0.00340617889296 -0.0055439502127 0)
(-0.00297857837624 -0.00463972605307 0)
(-0.00257627410909 -0.00386547222618 0)
(-0.00220762530528 -0.00321039250941 0)
(-0.00187785216418 -0.00266071459098 0)
(-0.00158878025512 -0.00220138933533 0)
(-0.00133888076247 -0.00181755004245 0)
(-0.00112347215784 -0.00149607661529 0)
(-0.000935628271725 -0.00122753360932 0)
(-0.0007694582104 -0.00100704136392 0)
(-0.000624309587207 -0.000831212053025 0)
(-0.000502629059565 -0.000693606797636 0)
(-0.000403450141527 -0.000585523165528 0)
(-0.000322751003419 -0.000499963877908 0)
(-0.000256841965091 -0.000432601421709 0)
(-0.000203864821606 -0.000379973484457 0)
(-0.000161839981162 -0.000339152316073 0)
(-0.000129539116962 -0.000303235631864 0)
(-0.000107330876856 -0.000277281268424 0)
(-9.09724415253e-05 -0.000255589551365 0)
(-7.82454753957e-05 -0.000228706233357 0)
(-7.31958049134e-05 -0.000211524998371 0)
(-7.15624056447e-05 -0.000186673895998 0)
(-7.998074492e-05 -0.000165007134513 0)
(-9.90314018249e-05 -0.00014957084279 0)
(-0.000109775247649 -0.00011191656139 0)
(-0.000129502800586 -7.99154851492e-05 0)
(-0.000148766346348 -4.92080773127e-05 0)
(-0.000150270459935 -1.61557840422e-05 0)
(0.0152805825578 -0.00170861038685 0)
(0.0161140977934 -0.00546371964842 0)
(0.0159724364457 -0.00917356608552 0)
(0.0157213331554 -0.0128628967001 0)
(0.0153920911958 -0.0164756951909 0)
(0.0149920130262 -0.0199964015332 0)
(0.0145286769855 -0.0234085976875 0)
(0.0140103071842 -0.0266982578892 0)
(0.0134454205977 -0.0298536973395 0)
(0.0128425139483 -0.032865572917 0)
(0.0122097638298 -0.035726778555 0)
(0.0115548224578 -0.038432272666 0)
(0.0108846334935 -0.0409788602041 0)
(0.0102053522969 -0.0433649458188 0)
(0.009522271078 -0.0455902801796 0)
(0.0088398409848 -0.0476557094655 0)
(0.00816167294655 -0.0495629427315 0)
(0.00749062294103 -0.0513143393508 0)
(0.00682882932594 -0.0529127242604 0)
(0.00617782547242 -0.0543612274006 0)
(0.0055385831757 -0.0556631507775 0)
(0.00491162885176 -0.0568218564443 0)
(0.00429707586014 -0.057840676982 0)
(0.00369473331942 -0.0587228410902 0)
(0.0031041218164 -0.0594714158652 0)
(0.00252457349995 -0.060089258892 0)
(0.00195523329024 -0.0605789824148 0)
(0.00139515456425 -0.0609429240633 0)
(0.000843292116824 -0.061183127585 0)
(0.000298600113959 -0.0613013291051 0)
(-0.000239975857779 -0.0612989563675 0)
(-0.000773392994704 -0.0611771298701 0)
(-0.0013025136774 -0.060936680781 0)
(-0.00182798895655 -0.0605781854144 0)
(-0.00235025739587 -0.0601020105119 0)
(-0.00286942150862 -0.0595083781631 0)
(-0.00338525039887 -0.0587974511871 0)
(-0.00389706447581 -0.0579694376833 0)
(-0.00440376056976 -0.0570247149298 0)
(-0.00490372974737 -0.0559639676539 0)
(-0.00539493156585 -0.0547883345998 0)
(-0.00587487288317 -0.0534995524595 0)
(-0.0063407528365 -0.0521000829934 0)
(-0.0067895132938 -0.0505932071525 0)
(-0.0072180427626 -0.0489830674393 0)
(-0.00762325691474 -0.047274644992 0)
(-0.00800227985733 -0.045473662236 0)
(-0.00835243191372 -0.0435864207131 0)
(-0.00867123143159 -0.041619602851 0)
(-0.00895612015771 -0.039580094498 0)
(-0.00920415662149 -0.0374749200143 0)
(-0.00941145851416 -0.0353113932437 0)
(-0.00957277464185 -0.0330975829071 0)
(-0.00968116921349 -0.0308431300501 0)
(-0.00972834140144 -0.0285602588548 0)
(-0.00970566047301 -0.0262645495304 0)
(-0.00960576699494 -0.0239750179797 0)
(-0.00942435433302 -0.0217122616579 0)
(-0.00915664320601 -0.0194991905621 0)
(-0.00880215536993 -0.0173623864117 0)
(-0.00836887606141 -0.0153289213433 0)
(-0.00787533024289 -0.0134157245807 0)
(-0.00732355356739 -0.0116389953331 0)
(-0.00673313265623 -0.0100191268954 0)
(-0.00613670408304 -0.00855804330792 0)
(-0.00554529986691 -0.00724316542104 0)
(-0.00495522004032 -0.0060693518425 0)
(-0.00436986211241 -0.00504096234139 0)
(-0.00380283349301 -0.00416018115184 0)
(-0.00327075052065 -0.00342068900077 0)
(-0.00278661487622 -0.00280860945867 0)
(-0.00235789632224 -0.00230609742271 0)
(-0.00198689202721 -0.00189398658492 0)
(-0.00167104219556 -0.00155338049583 0)
(-0.00140246333176 -0.0012676324216 0)
(-0.00116807320028 -0.00102642746834 0)
(-0.000955943061748 -0.000829293263452 0)
(-0.000767394923593 -0.000678831193766 0)
(-0.0006121761949 -0.000568258110595 0)
(-0.000489494104958 -0.000484093051959 0)
(-0.000390764508475 -0.0004174659105 0)
(-0.000309433590985 -0.000365751832821 0)
(-0.000244518393445 -0.000326675792483 0)
(-0.000193371271532 -0.000297365512885 0)
(-0.000153291193993 -0.000268916864829 0)
(-0.000131709008416 -0.000256642000491 0)
(-0.000115784216437 -0.000239061336759 0)
(-0.000102647605767 -0.000216792877058 0)
(-9.25157565927e-05 -0.000188270976382 0)
(-9.41664971424e-05 -0.000170830979479 0)
(-0.000100384398734 -0.000144649769655 0)
(-0.000122709662404 -0.000128069430022 0)
(-0.000148594929855 -0.000103830686835 0)
(-0.000160615821793 -6.84624754291e-05 0)
(-0.000174601808224 -4.07367378101e-05 0)
(-0.000176458683426 -1.35361254594e-05 0)
(0.0188857981248 -0.00175365252808 0)
(0.0199138241562 -0.00560673984829 0)
(0.0197337814941 -0.00941083576735 0)
(0.0194161130902 -0.0131902255997 0)
(0.0190000467918 -0.0168862677177 0)
(0.0184952014901 -0.0204821458105 0)
(0.017911551648 -0.0239604987076 0)
(0.0172598420728 -0.0273067769529 0)
(0.016551133023 -0.0305091660268 0)
(0.0157963703013 -0.0335585426373 0)
(0.0150060144243 -0.0364483070816 0)
(0.0141897619227 -0.0391741415861 0)
(0.0133563413108 -0.0417337210044 0)
(0.0125134021669 -0.0441264014661 0)
(0.0116674624226 -0.046352909701 0)
(0.0108239271452 -0.0484150485066 0)
(0.00998713559635 -0.0503154302013 0)
(0.00916045320592 -0.052057242994 0)
(0.00834636346699 -0.0536440531785 0)
(0.0075465844397 -0.0550796409441 0)
(0.00676216567988 -0.0563678677841 0)
(0.00599359936731 -0.0575125702585 0)
(0.00524090183836 -0.0585174767649 0)
(0.00450370726004 -0.0593861417727 0)
(0.00378132862265 -0.0601218947654 0)
(0.00307283424524 -0.0607277994306 0)
(0.00237709254247 -0.0612066218281 0)
(0.0016928383903 -0.0615608045677 0)
(0.00101871063441 -0.0617924474377 0)
(0.000353318223702 -0.0619032926765 0)
(-0.00030471933211 -0.0618947211077 0)
(-0.00095669720058 -0.0617677478895 0)
(-0.00160377275785 -0.0615230356991 0)
(-0.00224687692753 -0.0611609249868 0)
(-0.00288665064503 -0.0606814756539 0)
(-0.00352334525617 -0.0600845324416 0)
(-0.00415675688837 -0.0593698149577 0)
(-0.0047861342171 -0.058537033588 0)
(-0.0054101359609 -0.0575860324616 0)
(-0.00602677968403 -0.0565169553824 0)
(-0.00663346231655 -0.0553304284362 0)
(-0.00722699338632 -0.0540277459804 0)
(-0.00780371852112 -0.0526110419548 0)
(-0.00835966482879 -0.0510834220439 0)
(-0.00889076798779 -0.0494490278767 0)
(-0.00939308844445 -0.047713006027 0)
(-0.00986304017681 -0.0458813590782 0)
(-0.0102975067833 -0.0439606800245 0)
(-0.0106938248729 -0.0419577902928 0)
(-0.0110495100394 -0.0398793711727 0)
(-0.0113617059662 -0.0377316998601 0)
(-0.0116263484327 -0.035520699829 0)
(-0.0118372054377 -0.0332525265197 0)
(-0.011985130791 -0.030934824924 0)
(-0.0120581770887 -0.028578631796 0)
(-0.0120433563086 -0.0262000227076 0)
(-0.0119296064965 -0.0238207960709 0)
(-0.011713349553 -0.0214626356988 0)
(-0.0113835781601 -0.0191499885334 0)
(-0.0109343519694 -0.0169175057616 0)
(-0.0103772079306 -0.0148054228365 0)
(-0.00975525091474 -0.012824642828 0)
(-0.00904459083294 -0.0109908508181 0)
(-0.00827498958293 -0.00934761833222 0)
(-0.00752109345118 -0.00789075247422 0)
(-0.0067898876927 -0.00658113244634 0)
(-0.00605481710441 -0.00540893610114 0)
(-0.00531429679485 -0.00439156769949 0)
(-0.00459240552594 -0.00354061675844 0)
(-0.00391809903848 -0.00284925441867 0)
(-0.00331111415542 -0.00229753806426 0)
(-0.00278118446815 -0.00186099097291 0)
(-0.00233085725028 -0.0015145343341 0)
(-0.00195671754564 -0.00123312061896 0)
(-0.00164678211363 -0.000993107229542 0)
(-0.00137615096053 -0.000781013576697 0)
(-0.00111788443256 -0.000606364244363 0)
(-0.000878813227891 -0.000487446678998 0)
(-0.000690375421531 -0.000415707324995 0)
(-0.000551253783055 -0.000364112603969 0)
(-0.000440570183538 -0.000319904326796 0)
(-0.000345746935368 -0.000286355720051 0)
(-0.000271436634102 -0.000263898314894 0)
(-0.000213729439141 -0.000247524187293 0)
(-0.000169266373961 -0.000230116758062 0)
(-0.000146815259182 -0.000224298268149 0)
(-0.00012878366364 -0.000207946210947 0)
(-0.000121053171678 -0.00019628474702 0)
(-0.000118430131534 -0.000180837865394 0)
(-0.000122706578357 -0.000163270896218 0)
(-0.000123458897645 -0.000130592580553 0)
(-0.000140480299684 -0.000107086010766 0)
(-0.000173642258474 -9.10421325674e-05 0)
(-0.000191294285549 -6.40380079827e-05 0)
(-0.000200309552158 -3.72046750263e-05 0)
(-0.000203070515031 -1.24119674006e-05 0)
(0.0225959296596 -0.00180972508318 0)
(0.0238220818105 -0.00578492061402 0)
(0.0235990496797 -0.00970645650199 6.67154163818e-28)
(0.0232079608966 -0.013597689883 0)
(0.0226964945759 -0.0173966387642 0)
(0.0220770290283 -0.0210848977307 0)
(0.0213624125415 -0.0246439571764 0)
(0.0205663852075 -0.028058676506 0)
(0.0197029786187 -0.0313171690601 0)
(0.0187859535531 -0.0344106914412 0)
(0.0178283349663 -0.0373333868555 0)
(0.0168420656512 -0.0400819457209 0)
(0.015837774777 -0.0426552199408 0)
(0.0148246580571 -0.0450538247472 0)
(0.013810446581 -0.0472797553157 0)
(0.0128014511321 -0.0493360364946 0)
(0.0118026536826 -0.0512264169719 0)
(0.0108178348765 -0.0529551118889 0)
(0.00984971277221 -0.0545265935489 0)
(0.00890008937984 -0.0559454258299 0)
(0.0079699865122 -0.0572161366156 0)
(0.00705977555225 -0.0583431211797 0)
(0.00616928766268 -0.0593305701136 0)
(0.00529791503515 -0.0601824154642 0)
(0.00444469230664 -0.0609022901735 0)
(0.00360837246228 -0.0614934964032 0)
(0.00278748712027 -0.0619589798387 0)
(0.00198040781583 -0.0623013076787 0)
(0.00118539789701 -0.062522649587 0)
(0.000400672959294 -0.0626247607711 0)
(-0.00037554162841 -0.0626089736191 0)
(-0.00114493802879 -0.062476184919 0)
(-0.00190904994476 -0.0622268619432 0)
(-0.00266915928674 -0.0618610645342 0)
(-0.00342619991444 -0.0613784798561 0)
(-0.00418064492359 -0.0607784851923 0)
(-0.00493239953377 -0.0600602406953 0)
(-0.00568069001548 -0.0592228170582 0)
(-0.00642397734515 -0.0582653604535 0)
(-0.00715989205137 -0.0571872938239 0)
(-0.0078852249455 -0.0559885478831 0)
(-0.0085959735224 -0.0546698080239 0)
(-0.00928747780699 -0.0532327535907 0)
(-0.00995463620931 -0.0516802555841 0)
(-0.0105922155361 -0.0500164898446 0)
(-0.0111952106222 -0.0482469158031 0)
(-0.0117592187459 -0.0463780790316 0)
(-0.0122807171242 -0.0444172036941 0)
(-0.0127571484787 -0.0423716042067 0)
(-0.0131866349515 -0.0402479734884 0)
(-0.013567225878 -0.0380517560884 0)
(-0.013895554142 -0.0357868901743 0)
(-0.0141650426106 -0.0334563625205 0)
(-0.0143641037631 -0.0310640987827 0)
(-0.014475451129 -0.0286184812476 0)
(-0.0144788619539 -0.0261359756587 0)
(-0.0143566618048 -0.0236450073025 0)
(-0.0141147482392 -0.021166230056 0)
(-0.01372750167 -0.0187201903916 0)
(-0.0131706422433 -0.0163560139577 0)
(-0.0124584641803 -0.014149817785 0)
(-0.0117157161224 -0.0120831019214 0)
(-0.0108175970239 -0.0101587225664 0)
(-0.00980917219681 -0.00849560991462 0)
(-0.00889128262829 -0.00707287355233 0)
(-0.00803839631513 -0.00577675988504 0)
(-0.00715832646239 -0.00459358914073 0)
(-0.00624080807873 -0.00357835095422 0)
(-0.00533707418638 -0.00276376456318 0)
(-0.00450081797831 -0.00213916555736 0)
(-0.00376058208186 -0.00167146327245 0)
(-0.00312642861276 -0.00132562498403 0)
(-0.00260029939661 -0.00106933074067 0)
(-0.00217977347575 -0.000869148583676 0)
(-0.00185066951353 -0.000686946060245 0)
(-0.00156597513963 -0.000497455338091 0)
(-0.00125773057872 -0.000331929394989 0)
(-0.000944736185345 -0.000251314066733 0)
(-0.000722278048232 -0.000240694489981 0)
(-0.000583286871329 -0.000234285311153 0)
(-0.000472110214908 -0.000211958274296 0)
(-0.000362501746304 -0.000196615932181 0)
(-0.000281918299202 -0.000194586919976 0)
(-0.000221164151668 -0.000192928368418 0)
(-0.00017760901159 -0.000190737706037 0)
(-0.00015544936992 -0.000191093933167 0)
(-0.000140449323619 -0.000185474644668 0)
(-0.00013238188716 -0.000175052020698 0)
(-0.000135223422137 -0.000165247925438 0)
(-0.000140344350315 -0.00014482057185 0)
(-0.000155248833724 -0.000127930763614 0)
(-0.000163844362869 -9.83786187516e-05 0)
(-0.000187298535765 -7.85447078546e-05 0)
(-0.000215566974828 -6.05639363119e-05 0)
(-0.000224171932132 -3.54494468221e-05 0)
(-0.000227811733579 -1.1887388875e-05 0)
(0.026435283923 -0.00187818322206 0)
(0.0278640408984 -0.00600241599087 0)
(0.0275920183518 -0.0100670438338 -6.67051244563e-28)
(0.0271185834903 -0.0140940464276 0)
(0.0265006026388 -0.0180172370505 0)
(0.0257538275066 -0.0218162281252 0)
(0.0248946248041 -0.0254711414467 0)
(0.0239403549906 -0.0289662095208 0)
(0.0229085786643 -0.0322895961098 0)
(0.021816332934 -0.0354331845362 0)
(0.0206795537579 -0.0383921930848 0)
(0.0195126625402 -0.0411646997683 0)
(0.0183283127288 -0.0437511265168 0)
(0.0171372802115 -0.046153727536 0)
(0.0159484697293 -0.0483761144808 0)
(0.0147690089334 -0.0504228392622 0)
(0.0136043991312 -0.0522990443339 0)
(0.0124586987197 -0.0540101818166 0)
(0.0113347166804 -0.0555617966348 0)
(0.0102342029801 -0.0569593652228 0)
(0.00915802378164 -0.0582081796995 0)
(0.00810631822904 -0.0593132672743 0)
(0.00707863236039 -0.0602793355354 0)
(0.00607403311373 -0.0611107354776 0)
(0.00509120191998 -0.0618114357899 0)
(0.00412851388483 -0.0623850031787 0)
(0.0031841035872 -0.0628345851524 0)
(0.00225592489197 -0.0631628925904 0)
(0.00134180633463 -0.0633721812076 0)
(0.000439510098732 -0.0634642308975 0)
(-0.000453204137208 -0.0634403309807 0)
(-0.00133850259068 -0.0633012548182 0)
(-0.00221838727941 -0.0630472553872 0)
(-0.00309458890202 -0.0626780731956 0)
(-0.00396844394857 -0.0621929593278 0)
(-0.0048407550059 -0.0615907298867 0)
(-0.00571164329122 -0.0608698576583 0)
(-0.00658039849074 -0.0600286087894 0)
(-0.0074453437612 -0.0590652316727 0)
(-0.00830373071525 -0.0579781999532 0)
(-0.00915169274553 -0.0567665066895 0)
(-0.00998428029242 -0.0554299954581 0)
(-0.0107956105512 -0.0539697011182 0)
(-0.0115791507577 -0.0523881561363 0)
(-0.0123281468159 -0.0506895985625 0)
(-0.0130361745458 -0.0488800054327 0)
(-0.013697753163 -0.0469668617015 0)
(-0.0143089043919 -0.0449586057894 0)
(-0.0148674715873 -0.0428637040373 0)
(-0.0153729639475 -0.0406894443345 0)
(-0.0158256365117 -0.0384406146156 0)
(-0.0162245234591 -0.0361185119015 0)
(-0.0165642851961 -0.0337210712651 0)
(-0.0168312171575 -0.0312452284327 0)
(-0.0169999353862 -0.02869338472 0)
(-0.0170368300003 -0.026081228151 0)
(-0.016907245372 -0.0234566746373 0)
(-0.0166602396707 -0.0208334689001 0)
(-0.0162352251664 -0.0182058748364 0)
(-0.0155488475076 -0.0156484539491 0)
(-0.014603338422 -0.0133504602205 0)
(-0.0138129587242 -0.0111836103661 0)
(-0.0126837695733 -0.00908402966807 0)
(-0.0112778793642 -0.00742074603671 0)
(-0.0102040315389 -0.00611772273073 0)
(-0.00928757055855 -0.00484386868392 0)
(-0.00827007285561 -0.00360564532487 0)
(-0.00713497869113 -0.00256368006607 0)
(-0.00600624305304 -0.00179332622469 0)
(-0.00498597312376 -0.00126498542051 0)