/*--------------------------------*- C++ -*----------------------------------*\
| =========                 |                                                 |
| \\      /  F ield         | OpenFOAM: The Open Source CFD Toolbox           |
|  \\    /   O peration     | Version:  v1906                                 |
|   \\  /    A nd           | Web:      www.OpenFOAM.com                      |
|    \\/     M anipulation  |                                                 |
\*---------------------------------------------------------------------------*/
FoamFile
{
    version     2.0;
    format      ascii;
    class       surfaceScalarField;
    location    "235";
    object      phia;
}
// * * * * * * * * * * * * * * * * * * * * * * * * * * * * * * * * * * * * * //

dimensions      [0 3 -1 0 0 0 0];
oriented        oriented;


internalField   nonuniform List<scalar> 
18240
(
0.000926088061203
-0.000924744768949
0.00185242655206
-0.000924843127014
0.00278888930877
-0.000935183948354
0.00372249894755
-0.000932053984677
0.0046478760333
-0.000924141739341
0.00556244970582
-0.000912955333578
0.00646299310988
-0.000899355885848
0.00734804385683
-0.000883365437471
0.00821464467484
-0.000865465539938
0.00906185378329
-0.000845453969776
0.00988676940909
-0.000823839733007
0.0106889195105
-0.000800324220464
0.0114654224313
-0.000775493290318
0.0122162746344
-0.00074895732991
0.0129385889122
-0.000721380765365
0.0136328188678
-0.000692270806535
0.0142960337804
-0.000662366134161
0.0149291092964
-0.000631060102179
0.0155290215452
-0.000599159388484
0.0160970177062
-0.000565935501902
0.0166299262596
-0.000532260080115
0.0171293009837
-0.000497282858233
0.0175917730657
-0.000461938258801
0.0180191394142
-0.000425259624019
0.018407798801
-0.000388246235272
0.0187597310795
-0.000349829201519
0.0190710911337
-0.000311074569977
0.0193440004601
-0.000270829569181
0.0195743887787
-0.000230232018739
0.019764495949
-0.000188071351803
0.0199100805845
-0.000145559369897
0.020013504977
-0.000101452978272
0.0200704488935
-5.70453341833e-05
0.0200834348331
-1.10988480188e-05
0.0200481998906
3.5011282404e-05
0.0199674987492
8.24858498577e-05
0.0198372989899
0.000129864614685
0.019660687825
0.000178277698096
0.0194340680905
0.000226183970717
0.0191609881891
0.00027461606199
0.018838507292
0.000321960979695
0.0184707709193
0.000369133890752
0.0180557135267
0.000414469094741
0.017598211236
0.000458757612382
0.0170972650468
0.000500308664922
0.0165585816615
0.000539797326063
0.0159823598046
0.000575551610909
0.0153751733614
0.000608164247429
0.0147384409175
0.000636046911358
0.0140795163455
0.000659774942481
0.0134008922042
0.000677937031555
0.0127104390429
0.000691186993764
0.0120113677705
0.000698395852184
0.0113116053007
0.000700390233556
0.0106145498325
0.000696400478447
0.00992761311434
0.000687467886888
0.00925380607295
0.000673180283219
0.00859949889806
0.000654750435659
0.00796686214158
0.000632043849538
0.00736088100499
0.000606345938205
0.00678263797012
0.000577690006813
0.00623560630206
0.000547328990915
0.00571973988487
0.00051535735087
0.00523707957466
0.000482902436685
0.00478658895165
0.000450029111892
0.0043691120517
0.000417676590511
0.00398287122644
0.000385827896697
0.00362782428949
0.000355216158837
0.00330173065322
0.00032572869267
0.0030039715822
0.000297907412054
0.00273209662694
0.000271554565252
0.0024851769499
0.000247053577902
0.00226075203667
0.000224144575413
0.00205778350488
0.000203091455219
0.00187393824182
0.000183599206962
0.00170820285115
0.000165848701223
0.00155845403315
0.000149531886986
0.00142378818892
0.000134770259779
0.00130235353118
0.000121242068788
0.00119347374405
0.000108975929924
0.00109581644446
9.7487193195e-05
0.00100966041604
8.62439484584e-05
0.000936895770763
7.26095737548e-05
0.000876550222205
6.04213138982e-05
0.000815780363479
6.0638502365e-05
0.000753917765022
6.19305549312e-05
0.000698952060485
5.48603230774e-05
0.000651637256603
4.7368147857e-05
0.000601042363698
5.05132664879e-05
0.000540776910493
6.02998299802e-05
0.000475643138287
6.50654614169e-05
0.000405986391688
6.96583011774e-05
0.00032328312307
8.26738196355e-05
0.00022243798097
0.000100800208692
0.000106841940235
0.000115520268566
0.000106814217596
0.000931201683448
-0.0018545795887
0.0019528026468
-0.00194496590671
0.00295893968281
-0.00193988943808
0.0039547346291
-0.00192634433599
0.00493961426295
-0.00190759508312
0.00591195758417
-0.00188377219778
0.00686929636068
-0.00185527338794
0.00780971850407
-0.00182223793167
0.00873073536558
-0.00178506780559
0.00963070345683
-0.00174384945849
0.0105072871488
-0.00169901826086
0.0113591795368
-0.00165062321461
0.0121842153213
-0.00159913893819
0.0129814327491
-0.00154456510068
0.013748823061
-0.00148740253031
0.0144857518233
-0.00142758048734
0.0151903314631
-0.00136560818401
0.0158622146273
-0.00130132402142
0.0164995828186
-0.00123523071343
0.0171023180247
-0.00116706247542
0.0176686092478
-0.00109730704003
0.018198501561
-0.00102559088658
0.0186901312084
-0.000952387519842
0.0191436419574
-0.000877223947323
0.0195570685933
-0.000800568678886
0.019930601069
-0.000721867738607
0.0202621454112
-0.000641601523751
0.0205519055297
-0.000559162685585
0.0207976590408
-0.000475065436302
0.0209996176004
-0.000388683842607
0.0211554671981
-0.000300594034338
0.0212654577391
-0.000210191085693
0.0213272562111
-0.000118140703536
0.0213412117925
-2.39066662748e-05
0.0213050886651
7.17224360427e-05
0.021219440761
0.000169168322141
0.0210822863785
0.000267490813672
0.0208945246412
0.000366955069836
0.0206546184097
0.000466448586245
0.020363980084
0.00056604885972
0.0200217267128
0.000664464700198
0.0196299633281
0.000761571847841
0.0191886714249
0.000855912242856
0.0187008209914
0.000947167416047
0.0181674447919
0.00103374763472
0.0175925166524
0.00111517719251
0.0169782521229
0.00118980303879
0.0163296966486
0.0012570739309
0.0156502736864
0.00131539402816
0.0149460343284
0.00136428288355
0.0142214580551
0.00140238827735
0.0134833301428
0.00142951024436
0.0127367977457
0.00144476594557
0.0119888741679
0.0014484472609
0.0112447763092
0.00144030876468
0.0105110964065
0.00142122814433
0.00979247164047
0.00139159635972
0.00909447934527
0.00135277870123
0.00842067771359
0.00130562562388
0.00777525361023
0.00125177116408
0.00716042768131
0.00119229314966
0.00657886083037
0.00112887155126
0.00603140703461
0.00106259344238
0.00551928897035
0.000994980361558
0.00504216769982
0.000926944519444
0.00460008842564
0.000859708818513
0.00419181585908
0.000793911939034
0.00381655242474
0.000730433190911
0.00347248870697
0.000669624568495
0.00315831033759
0.000612044966271
0.00287192265487
0.000557796074542
0.00261176902753
0.000507174260642
0.00237569588369
0.000460091938372
0.00216210661222
0.000416655642523
0.00196894248713
0.000376655214047
0.00179469585075
0.000340076581729
0.00163748889366
0.000306645120446
0.00149596447834
0.000276280385479
0.00136844234984
0.000248681632709
0.00125368156609
0.000223724103482
0.00115003056745
0.000201064564259
0.00105579865542
0.000180462368288
0.00096693727869
0.000161403924512
0.000882394693511
0.00014494616238
0.00080710038485
0.000135881711165
0.000740105628147
0.00012891305507
0.000683425934292
0.000111498471352
0.000635429968903
9.53560588928e-05
0.000588630588278
9.72843148933e-05
0.000537657067371
0.000111256823514
0.000476126339933
0.000126567211721
0.000406464145897
0.000139301433137
0.000328641943087
0.000160454567997
0.000233983984192
0.000195408934477
0.000114677339302
0.000234768573223
0.000221449252388
0.00095093030628
-0.00280412806338
0.00196710194509
-0.00295967053463
0.00297797580894
-0.00294930480353
0.00398024233115
-0.00292712981262
0.00497176046942
-0.00289764921651
0.0059504287444
-0.00286094855187
0.00691391021407
-0.00281728523005
0.00786008311562
-0.00276690640055
0.00878669172072
-0.00271020115472
0.00969182790417
-0.00264746936856
0.0105734414594
-0.00257915348368
0.0114299064252
-0.00250556297564
0.0122594086265
-0.00242716377582
0.0130606157574
-0.00234424335853
0.0138319420603
-0.00225725941753
0.0145723298406
-0.00216644319373
0.0152803874726
-0.00207221258304
0.015955287286
-0.00197471222377
0.0165957769947
-0.00187429429459
0.0172011972801
-0.00177099589168
0.0177703681946
-0.00166509022863
0.0183027280928
-0.00155650137991
0.0187971018112
-0.00144542509626
0.019252959474
-0.00133168295077
0.0196690737407
-0.00121541073292
0.0200448938653
-0.00109635362473
0.02037910413
-0.000974616710679
0.0206711042456
-0.000849906025812
0.0209194811094
-0.000722335493075
0.0211235840872
-0.000591619848149
0.0212819273097
-0.000457929730682
0.0213938442751
-0.000321041518027
0.0214578389819
-0.00018123501245
0.0214733028251
-3.8413248774e-05
0.0214388358818
0.000106975980588
0.0213540052502
0.000254840948043
0.0212176559197
0.000404510339161
0.0210296873288
0.000555647154378
0.0207893749256
0.000707314233508
0.0204971385942
0.000858890625249
0.0201528915391
0.00100915194522
0.0197577745775
0.00115717969125
0.019312549838
0.00130146990579
0.0188192752352
0.00144082499191
0.0182797550032
0.00157350265501
0.0176971310022
0.00169808508552
0.0170743979132
0.00181268305491
0.016415885366
0.0019157825944
0.0157258309259
0.00200552030472
0.0150097227627
0.00208051207091
0.0142729120718
0.00213920824763
0.0135217871462
0.0021806941412
0.0127624088768
0.00220410358296
0.0120015151003
0.00220934851245
0.0112452057079
0.0021965372767
0.0104998265063
0.00216657316649
0.00977077248038
0.00212053805899
0.0090633269207
0.00206015725597
0.00838163771265
0.00198718084711
0.00772953347157
0.00190378513942
0.00710966181658
0.00181201929386
0.00652426566274
0.001714164627
0.005974477376
0.00161223319227
0.00546106407826
0.00150828607386
0.00498385907665
0.00140400554386
0.0045424566018
0.00130100647803
0.00413573873674
0.00120049645628
0.00376249535522
0.00110358039959
0.00342101434835
0.00101098710782
0.00310962326947
0.000923352344941
0.00282632457192
0.000840992716253
0.00256926372514
0.000764164915678
0.00233639418913
0.000692875347988
0.00212587811428
0.000627113745512
0.0019357750092
0.000566685776782
0.00176438337545
0.000511419918558
0.00160994953559
0.000461016941133
0.00147095478757
0.000415233691354
0.00134583129302
0.000373750119414
0.00123317536331
0.000336341369546
0.00113140430368
0.000302784612368
0.00103875733345
0.0002730734192
0.000952075055621
0.000248035259363
0.000871418357814
0.000225570721112
0.000798818706374
0.000208440055916
0.000736476509305
0.000191227774795
0.000672474927439
0.000175462919672
0.000607750883916
0.000160054174133
0.000556171961525
0.000148834308132
0.00051541820136
0.000151983425847
0.000454481400458
0.000187464785887
0.000375837570648
0.000217912756237
0.000292167315133
0.000244097388651
0.000197293573363
0.000290218918142
0.000100905511372
0.000331078096087
0.000322324875291
0.000962168490686
-0.00376491438403
0.00198307165769
-0.0039791209882
0.00300052128197
-0.00396529082503
0.00400992474196
-0.00393506364395
0.0050086559555
-0.00389491017461
0.00599432180525
-0.00384513517461
0.00696454949492
-0.00378603401703
0.0079170988207
-0.00371796578791
0.00884976789873
-0.00364138227298
0.00976054304938
-0.00355674454687
0.0106474646406
-0.0034645797292
0.0115087971711
-0.00336538845238
0.0123428527061
-0.00325972114645
0.0131481858782
-0.00314806778159
0.0139233742995
-0.00303095326998
0.0146672417335
-0.00290880785094
0.0153785951696
-0.00278208420663
0.0160564791314
-0.00265110921132
0.0166998697964
-0.00251622635634
0.0173079634465
-0.00237762984205
0.0178798305551
-0.00223553441148
0.0184147416631
-0.00208999282657
0.0189117851609
-0.00194109407839
0.0193702326722
-0.00178876416618
0.0197891254133
-0.00163299102505
0.0201676796875
-0.00147360846028
0.0205048461433
-0.00131054554837
0.0207997536864
-0.00114359387356
0.0210512468184
-0.000972678360836
0.0212583654935
-0.00079761048892
0.0214198658181
-0.00061837778705
0.0215347320705
-0.000434881697129
0.0216016888419
-0.000247246787586
0.0216197413972
-5.55499032978e-05
0.0215876856956
0.000139863074321
0.0215046712461
0.000338655660015
0.0213697154066
0.00054018006486
0.0211822806065
0.000743764111399
0.0209417969853
0.000948394062419
0.0206482429738
0.0011530096111
0.02030167872
0.00135619734929
0.0199028183218
0.00155649167555
0.0194525760867
0.00175208394958
0.0189526190934
0.00194112644605
0.0184049287963
0.00212146299883
0.0178123235143
0.00229093622483
0.0171780344589
0.00244715065277
0.0165061823229
0.00258779311185
0.0158013536575
0.00271044816788
0.0150690013739
0.0028129480938
0.0143149872801
0.00289325564702
0.0135458643532
0.00294983922406
0.0127683511033
0.00298159644774
0.0119894836509
0.00298818917375
0.0112160435179
0.00296991441042
0.0104546489474
0.00292790035114
0.00971124004846
0.00286385131083
0.00899121688884
0.00278008329681
0.00829906984014
0.00267920968735
0.00763858351134
0.002564156634
0.007012560942
0.00243791275546
0.00642305002449
0.00230355235637
0.00587116627549
0.00216398512223
0.00535736573367
0.00202196294684
0.00488135754542
0.00187988602631
0.0044423878287
0.0017398588889
0.0040391852894
0.00160358116995
0.00367021458727
0.00147244568749
0.00333362546745
0.00134747258646
0.00302747042695
0.00122941692268
0.00274965174062
0.00111872393971
0.00249810250681
0.00101563915683
0.00227072327931
0.00092018240778
0.00206552535447
0.000832250027819
0.00188055872684
0.000751592491388
0.00171402397894
0.000677902935009
0.00156419525842
0.000610794294776
0.00142950523646
0.000549878184516
0.00130846082503
0.000494748096184
0.00119969682294
0.000445061898257
0.00110187770174
0.000400560321952
0.00101369352989
0.000361215699897
0.000933507586244
0.000328182025232
0.00085840593017
0.00030063047242
0.000788031726206
0.000278779255821
0.000719094359926
0.000260124867726
0.000651218351689
0.000243296229852
0.000589778145202
0.000221455771761
0.000524686703758
0.00021388351743
0.000455384729437
0.000221241638112
0.00040555562948
0.000237255062629
0.000331009489035
0.000292419704373
0.000238804202631
0.000336242658694
0.000159685439746
0.000369283986874
8.33563009587e-05
0.000407345506671
0.000405631056848
0.000973407364616
-0.0047369464219
0.00200384338688
-0.00500810468316
0.00303094726363
-0.00499093943092
0.00405004525778
-0.00495269840486
0.00505835727657
-0.00490175734805
0.00605332944237
-0.00483863515496
0.00703250711423
-0.00476373640139
0.00799356504365
-0.00467754013345
0.00893427943305
-0.00458061023838
0.0098525829087
-0.00447355335195
0.0107465276206
-0.00435702871758
0.0116143442871
-0.00423170239743
0.0124543873929
-0.00409826333211
0.0132651961243
-0.0039573713102
0.0140454208555
-0.00380967876803
0.0147938861119
-0.00365577345954
0.0155094986309
-0.00349620806992
0.0161913134154
-0.00333144004787
0.0168384256127
-0.00316187165064
0.0174500422232
-0.00298779006927
0.018025361161
-0.00280942046463
0.0185636522489
-0.00262686810675
0.01906412826
-0.00244018475565
0.0195260386793
-0.00224931294358
0.0199485363564
-0.00205416432937
0.0203307860853
-0.00185456428402
0.0206718298503
-0.00165033942732
0.0209707105649
-0.00144126139354
0.0212263374376
-0.00122714203937
0.0214376249404
-0.00100777735941
0.0216033608894
-0.000783048563645
0.0217223608136
-0.000552863832056
0.0217933428761
-0.000317270596198
0.0218150984346
-7.63985322318e-05
0.0217863775401
0.000169428478936
0.0217060750074
0.00041974902682
0.0215731281572
0.000673854262784
0.0213867150517
0.000930849820124
0.0211461639441
0.00118955468798
0.0208511570735
0.00144857183284
0.0205016480338
0.00170620061149
0.0200980636787
0.00196051757834
0.0196412266911
0.002209304124
0.0191325502295
0.00245013609334
0.0185739650972
0.00268032692565
0.0179681050694
0.00289702884362
0.0173182385383
0.0030972007456
0.0166284362738
0.00327773824954
0.0159034908623
0.0034354941708
0.0151490334531
0.0035674721799
0.0143713884856
0.00367093174554
0.0135775750839
0.00374365835814
0.0127750264333
0.00378412127998
0.0119714385271
0.00379173370633
0.0111743736304
0.00376691271686
0.0103910493374
0.00371114564198
0.00962798030606
0.00362682131184
0.00889089938874
0.00351705966886
0.00818458575683
0.00338540608302
0.00751291609041
0.00323570721228
0.00687875150185
0.00307195139887
0.00628400161108
0.00289817793304
0.00572960432209
0.00271825427162
0.00521569186541
0.00253575286152
0.00474166226574
0.00235379271327
0.00430638027243
0.00217502589834
0.00390825215479
0.0020015980982
0.00354538891473
0.00183520707312
0.00321566072816
0.00167710552623
0.00291682665368
0.00152816616557
0.00264657565231
0.00138889700071
0.00240262803323
0.00125951893634
0.0021827478083
0.00114000041717
0.00198481140203
0.00103013194265
0.00180679985839
0.000929553200105
0.00164684381203
0.000837812817818
0.00150320670155
0.000754386898116
0.0013743141754
0.00067872876039
0.00125873363121
0.00061028633002
0.00115520175274
0.000548552799442
0.00106263910589
0.000493080750891
0.000980211438249
0.000443606798137
0.000908469972485
0.000399880759865
0.000841862998616
0.000367199819019
0.000777570097707
0.000343029106583
0.000711961458532
0.000325689130795
0.000642065869764
0.000313143289793
0.000556982779481
0.000306485565411
0.000477316648605
0.00029349784749
0.000403579430858
0.000294927414936
0.000343210038822
0.000297570776408
0.000290033216525
0.000345546513331
0.000208747729627
0.000417489923075
0.000129858474497
0.000448099323538
6.61084946711e-05
0.000471007715089
0.000471707058424
0.000986362807217
-0.00572194268563
0.00202963850713
-0.00604994966328
0.00306938393761
-0.00602923610478
0.00410090927682
-0.00598277324255
0.00512136729375
-0.00592075794425
0.00612809345634
-0.00584389935951
0.00711854947174
-0.00575272325429
0.00809032818268
-0.00564784386474
0.0090411592748
-0.00552995897975
0.00996892652426
-0.00539983281644
0.0108716706888
-0.00525827876292
0.011747604416
-0.00510613842007
0.0125951056641
-0.00494426314788
0.0134127267676
-0.00477349042678
0.0141991757499
-0.0045946259542
0.0149533189672
-0.00440841861441
0.0156741498725
-0.00421554639503
0.0163607864978
-0.00401659299951
0.0170124290676
-0.00381204219288
0.0176283556751
-0.00360225957848
0.0182078728099
-0.00338749912874
0.0187503143134
-0.00316789244645
0.0192549897299
-0.0029434688403
0.0197211914297
-0.00271415127187
0.0201481450252
-0.0024797877556
0.0205350274711
-0.00224015094442
0.0208809211191
-0.00199497745465
0.0211848431657
-0.00174396834331
0.0214457039197
-0.00148683438272
0.0216623479237
-0.00122329886385
0.0218335173251
-0.000953147837869
0.0219579062125
-0.000676233069621
0.0220341335421
-0.00039253528248
0.0220608138064
-0.000102169820659
0.0220365425499
0.000194548546713
0.0219599853309
0.00049709957905
0.0218298772539
0.000804693784514
0.021645128452
0.00111627431205
0.0214048347916
0.0014304619661
0.0211083936046
0.00174557167072
0.0207555195906
0.00205957200266
0.020346362743
0.00237011827163
0.0198815247133
0.00267452649588
0.0193621745157
0.00296981899267
0.0187900681572
0.00325270949766
0.0181676658113
0.00351965917547
0.0174981627617
0.00376688049009
0.0167856091442
0.00399042585646
0.0160349415687
0.00418625176983
0.0152520676079
0.00435040071455
0.0144438259566
0.00447919250527
0.0136179272911
0.00456954667175
0.0127827218292
0.00461929151358
0.0119469001494
0.004627500482
0.011119060164
0.00459467889204
0.0103073114792
0.00452280545704
0.00951888460428
0.00441514893106
0.00875995973345
0.00427587747365
0.00803562233799
0.00410963087644
0.00734989955507
0.00392131235633
0.00670568960701
0.00371604169332
0.0061047380251
0.00349900584715
0.00554768695197
0.0032751839099
0.00503423127403
0.00304908746852
0.00456330422681
0.00282460448999
0.00413327542084
0.00260494453835
0.00374210020239
0.00239267142956
0.00338745169322
0.00218976158886
0.00306681685912
0.00199765608531
0.00277759704046
0.0018173110386
0.00251719026358
0.00164923849755
0.00228306765321
0.0014935852985
0.00207281012719
0.00135020908586
0.00188414571304
0.00121875290498
0.00171496000599
0.00109869931815
0.00156331382003
0.000989421263101
0.00142744460626
0.000890219499055
0.00130577543391
0.000800360944869
0.00119691341355
0.000719111234718
0.00109964882064
0.000645778150448
0.00101293520331
0.000579756375698
0.000935389233832
0.00052111401791
0.00086563745224
0.000469594703201
0.000797462560713
0.000435332905422
0.000731378011157
0.000409070387061
0.000661198460158
0.000395823591119
0.000595410022759
0.000378878014937
0.000533905373141
0.000367933869684
0.000458725638487
0.000368614287594
0.000375949323232
0.000377639026751
0.000289054867259
0.000384412920629
0.000232267475333
0.000402281169361
0.000182566268371
0.000467113537442
0.000113251200677
0.000517350538197
5.67743781474e-05
0.000527419529492
0.000528428151548
0.00100166911194
-0.00672226089542
0.00206076980304
-0.0071076215661
0.00311606742969
-0.00708310414327
0.00416281560333
-0.00702808203698
0.00519807938916
-0.00695457914437
0.00621909774358
-0.00686346679726
0.00722323555592
-0.00675540410554
0.00820800349472
-0.00663114559269
0.00917106406332
-0.00649154688746
0.010110253079
-0.00633753999768
0.0110235817927
-0.00617012050118
0.0119092544385
-0.00599031653951
0.0127656610786
-0.00579917277963
0.0135913872759
-0.00559771533761
0.014385195476
-0.00538693438096
0.0151460244267
-0.00516774822554
0.0158729587742
-0.0049409879543
0.0165652180462
-0.00470736587266
0.0172221169087
-0.00446746718602
0.0178430469196
-0.00422172888358
0.0184274328363
-0.00397044336235
0.0189747131784
-0.00371375159105
0.0194842996172
-0.00345165994559
0.0199555625919
-0.0031840468026
0.0203877987921
-0.00291068912599
0.0207802249141
-0.00263127738909
0.0211319543249
-0.00234544633436
0.0214419984937
-0.00205279384742
0.0217092514491
-0.00175291368944
0.02193249851
-0.00144542018379
0.022110408742
-0.00112998255249
0.022241553355
-0.000806355052934
0.0223244115351
-0.000474424889326
0.0223574035326
-0.000134249853141
0.022338914758
0.00021389276393
0.022267347529
0.000569463406147
0.0221411655715
0.00093161484451
0.021958963298
0.00129915578429
0.0217195270786
0.0016705199264
0.0214219145832
0.00204374576353
0.021065523529
0.00241646772081
0.0206501707994
0.00278591556048
0.0201761604956
0.0031489250764
0.0196443593325
0.00350194915978
0.019056268441
0.00384107520829
0.0184141084266
0.00416203753427
0.0177209173003
0.00446024112307
0.0169806645115
0.00473079772409
0.016198381081
0.0049686129223
0.0153802687273
0.00516854687893
0.0145337686127
0.00532569497949
0.0136674992545
0.00543578853374
0.0127910314609
0.00549570998273
0.0119144561713
0.00550400334995
0.0110478052771
0.00546124430793
0.0102004414582
0.00537007405824
0.00938048456085
0.00523499804393
0.00859462419995
0.00506163543086
0.00784824042258
0.0048559055461
0.00714557131184
0.00462386726007
0.00648956188383
0.00437193082909
0.00588174909425
0.00410669895909
0.00532231766251
0.00383449222588
0.00481035745075
0.00356093409243
0.00434413476724
0.00329071619583
0.00392138145674
0.0030275978679
0.00353946519509
0.00277449559518
0.00319552582742
0.00253361832512
0.00288656617942
0.002306543974
0.00260954910926
0.00209426533798
0.00236150709199
0.00189722770168
0.00213962111566
0.00171542885379
0.0019412537001
0.0015485399785
0.00176397166501
0.001396003789
0.00160554841467
0.00125709281958
0.00146397274021
0.00113096746749
0.00133744770393
0.00101671374338
0.00122439829767
0.000913378358619
0.00112347902246
0.000819996108952
0.00103360482119
0.00073561660135
0.000954021042942
0.000659302007694
0.000884468620528
0.000590629864061
0.000820846937304
0.000533177849691
0.000755423638251
0.000500713203877
0.000687913853648
0.000476537713512
0.000624010738036
0.000459676903486
0.000553065805701
0.000449769202148
0.000483208289509
0.000437729419688
0.000408570756177
0.000443183862308
0.000340715756519
0.000445425343383
0.000262945623582
0.00046210807905
0.000188397640893
0.000476762325646
0.000150066747555
0.000505398533953
9.76876315174e-05
0.000569645656068
4.87019767531e-05
0.000576311995376
0.000577097282376
0.00101964463968
-0.00774057161172
0.00209753105687
-0.00818411641389
0.00317134130895
-0.00815549874048
0.00423617963828
-0.00809150348029
0.00528900879013
-0.00800598117429
0.00632694786025
-0.00789997296941
0.00734725641317
-0.00777426928978
0.00834734493324
-0.00762978291827
0.00932479971627
-0.00746753935363
0.0102773935763
-0.00728866388397
0.0112031049518
-0.00709435162398
0.0121001219068
-0.00688584750329
0.0129668524676
-0.00666440972244
0.0138019182991
-0.00643128521822
0.0146041526546
-0.0061876694441
0.0153725813391
-0.00593468004455
0.0161064061591
-0.00567331829098
0.0168049732364
-0.00540444668473
0.0174677433643
-0.00512876015758
0.0180942521052
-0.00484677525654
0.0186840734569
-0.00455881887184
0.0192367803177
-0.00426503432273
0.0197519104943
-0.00396539014701
0.0202289362663
-0.00365970133263
0.0206672393327
-0.00334765267998
0.021066092997
-0.00302882700492
0.0214246460029
-0.00270273414544
0.0217419147451
-0.00236883910841
0.0220167723996
-0.00202659317654
0.0222479487978
-0.00167546553951
0.0224340239086
-0.00131497753423
0.0225734384115
-0.00094474086156
0.0226644991503
-0.000564512136788
0.0227054083282
-0.000174239795003
0.0226942881623
0.0002258740467
0.0226292357784
0.000635321128314
0.0225083709039
0.001053225116
0.0223299163009
0.0014782994007
0.0220922637445
0.00190880032255
0.0217940702354
0.00234251020604
0.0214343289675
0.00277671742936
0.0210124652249
0.0032082298308
0.0205283992849
0.00363337800434
0.0199826340639
0.00404804282175
0.019376317762
0.00444765733495
0.0187113471236
0.00482721849055
0.0179904746117
0.00518126702026
0.0172174798969
0.00550389512987
0.016397368311
0.00578877808122
0.0155366018308
0.0060293290893
0.0146432731814
0.00621900161673
0.0137271519994
0.00635186136231
0.0127994413857
0.00642335163429
0.0118722043479
0.00643114730996
0.0109574884503
0.00637586515237
0.0100664263241
0.00626101005055
0.00920824327785
0.00609306581875
0.00839002237813
0.00587974740891
0.00761736280746
0.00562844977305
0.00689481850713
0.00534629206109
0.00622547348501
0.00504115047824
0.00561057705971
0.0047214675063
0.00504964236037
0.00439530674492
0.0045408592103
0.00406960392723
0.00408158243607
0.00374989331467
0.00366870724207
0.00344038186981
0.00329888979392
0.00314423349899
0.00296863621763
0.00286380081888
0.00267436630434
0.0026007504404
0.00241250608415
0.00235607230596
0.00217964171062
0.00213004864203
0.0019726225492
0.00192241418713
0.00178857686302
0.00173255880263
0.00162489915743
0.00155965597232
0.00147924805451
0.0014027186781
0.0013495367624
0.00126065190482
0.00123392768016
0.00113229314634
0.00113083233607
0.00101644225686
0.00103891119469
0.000911883787069
0.000957076251402
0.000817415755495
0.000884464047015
0.000731876064894
0.000820082327572
0.000654974124101
0.000756236576521
0.000596983322932
0.000695764797217
0.000561142941847
0.000635878952158
0.000536376451357
0.000577989488958
0.000517514951467
0.000515225001048
0.000512475906157
0.00044087273785
0.000512015441507
0.000367895325041
0.00051608771745
0.000291364274823
0.000521878996044
0.000234643006784
0.000518758175461
0.000171128307056
0.000540208200472
0.000120926065352
0.000555512806197
8.61160825081e-05
0.000604390156173
4.16779276095e-05
0.000620684576634
0.000618720632592
0.00104048841568
-0.00877975398696
0.00214025316192
-0.00928249542948
0.00323562130683
-0.00924948438651
0.00432153215977
-0.00917601787811
0.00539479433134
-0.00907784247403
0.00645239334995
-0.00895615936786
0.00749145480153
-0.00881190932854
0.00850927705068
-0.00864617065431
0.0095033470771
-0.008460165089
0.0104713682927
-0.00825522741127
0.0114112694075
-0.00803278643076
0.0123212253659
-0.00779432542819
0.0131996552358
-0.00754135581411
0.01404523199
-0.0072753701473
0.0148568659898
-0.00699781027039
0.0156336986972
-0.00671001692769
0.0163750693066
-0.00641319733751
0.0170804901676
-0.00610838004885
0.0177495984991
-0.00579639179114
0.0183821179041
-0.00547782957407
0.0189778039758
-0.00515305769406
0.0195364031922
-0.00482220583318
0.0200576055905
-0.00448518989184
0.0205410133248
-0.00414173383496
0.0209861095202
-0.00379140571712
0.0213922406907
-0.00343364992004
0.0217585999286
-0.00306782380733
0.0220842172681
-0.00269322853844
0.0223679488866
-0.00230914138688
0.0226084698734
-0.00191485058991
0.0228042665745
-0.00150968772645
0.0229536358916
-0.00109307572209
0.0230546917918
-0.000664586421956
0.0231053830242
-0.000224004733077
0.0231035257935
0.000228602563427
0.0230468508082
0.000692809777643
0.0229330691175
0.00116776409839
0.0227599493789
0.00165211674423
0.0225254117993
0.00214397767481
0.022227622453
0.00264087700995
0.0218650955644
0.00313976154806
0.0214367801858
0.00363699680188
0.0209421458134
0.00412840068752
0.0203812460324
0.00460926297131
0.0197547915989
0.00507437045736
0.0190642252054
0.00551797837708
0.0183118600297
0.00593376866259
0.017501079196
0.00631475394168
0.0166366584762
0.00665323106081
0.015725143351
0.00694082789056
0.0147752760462
0.00716881893212
0.0137982185441
0.00732885755293
0.0128073618418
0.00741409573549
0.0118176091207
0.00742081276065
0.0108438465866
0.00734947967046
0.00989994665135
0.00720477772451
0.00899634761189
0.00699651678376
0.00814005950308
0.00673591554875
0.00733660664642
0.0064317901839
0.00659115869419
0.00609160311843
0.00590723173278
0.00572494260465
0.00528569345278
0.00534287708409
0.00472498940493
0.00495588706509
0.00422197121673
0.00457252522995
0.00377269816927
0.00419907612164
0.00337302339685
0.00383998266307
0.00301877690351
0.00349841737997
0.00270576318278
0.00317674810954
0.00242973169102
0.00287673242157
0.00218642473724
0.00259932604738
0.00197188600727
0.00234454697232
0.00178260535183
0.00211166369129
0.00161548271672
0.00189965295167
0.00146775144119
0.00170736007096
0.00133695862719
0.00153348255601
0.0012209482322
0.00137662979754
0.00111784476202
0.00123536284839
0.00102604462869
0.00110820584804
0.000944221678485
0.000993669974959
0.000871335857851
0.000890263876844
0.000806647189083
0.000796524504911
0.000749504294097
0.00071207701015
0.000689322154149
0.000657123946766
0.000628553935699
0.00062186664883
0.000570633616443
0.000594247035884
0.000511350252505
0.000576745484847
0.000454031371407