/*--------------------------------*- C++ -*----------------------------------*\
| =========                 |                                                 |
| \\      /  F ield         | OpenFOAM: The Open Source CFD Toolbox           |
|  \\    /   O peration     | Version:  v1906                                 |
|   \\  /    A nd           | Web:      www.OpenFOAM.com                      |
|    \\/     M anipulation  |                                                 |
\*---------------------------------------------------------------------------*/
FoamFile
{
    version     2.0;
    format      ascii;
    class       volScalarField;
    location    "416";
    object      p;
}
// * * * * * * * * * * * * * * * * * * * * * * * * * * * * * * * * * * * * * //

dimensions      [0 2 -2 0 0 0 0];


internalField   nonuniform List<scalar> 
9216
(
273.718958592
273.798852925
273.964178719
274.21634012
274.553924936
274.975340461
275.47863093
276.061479007
276.721288407
277.455174934
278.260058251
279.132641661
280.069512527
281.067108177
282.121822486
283.22995571
284.387825987
285.591702189
286.837920224
288.1227992
289.442763226
290.794241781
292.173797967
293.578014325
295.003628514
296.447405736
297.906282494
299.37722671
300.857389997
302.343956301
303.834302763
305.325837292
306.816167677
308.302929981
309.783965537
311.25713903
312.720523191
314.172208433
315.610494368
317.033691433
318.440318769
319.828898593
321.198159754
322.546825794
323.873823582
325.178065942
326.458664593
327.714708409
328.945479981
330.150230487
331.328398981
332.479385048
333.602769982
334.698088288
335.765049694
336.803310751
337.812696646
338.792974034
339.744071411
340.665854483
341.558343864
342.421494187
343.255407715
344.060118524
344.835800686
345.582558742
346.300628985
346.990177558
347.651493508
348.284795678
348.890416185
349.468617354
350.019764447
350.544153712
351.042173258
351.514143284
351.960464222
352.381470004
352.777562688
353.149079615
353.496413881
353.819896081
354.119900064
354.396739928
354.650760637
354.882250804
355.091517898
355.278817428
355.444412972
355.588522829
355.711367465
355.813138105
355.894045042
355.954364431
355.995254924
356.01112101
273.639143042
273.719399839
273.885067005
274.138229714
274.47724702
274.900456218
275.405851103
275.991083608
276.653514101
277.390231202
278.198110678
279.073832159
280.013940445
281.014854912
282.072930041
283.184455179
284.345712906
285.55296841
286.802525634
288.090706657
289.413906391
290.768562977
292.151212129
293.558449751
294.98698701
296.433606283
297.895217807
299.368809857
300.851507519
302.340517741
303.833190445
305.326959127
306.819404585
308.30819063
309.791130228
311.266117769
312.731197297
314.184490856
315.624268879
317.048875147
318.456799106
319.846597779
321.216969847
322.566674914
323.894609188
325.199722525
326.481095531
327.737854857
328.969251523
330.174574932
331.353232189
332.504661324
333.628411353
334.724055172
335.791270044
336.829750663
337.839289686
338.819691433
339.770852027
340.692674199
341.585146557
342.448259927
343.282085213
344.086691721
344.862223058
345.608817863
346.326683152
347.016017902
347.677083301
348.310129592
348.915462694
349.493374749
350.044206657
350.568282711
351.065968655
351.537610808
351.983589317
352.404262134
352.800013195
353.171201599
353.518204516
353.841371867
354.141063799
354.417611144
354.671347347
354.902574953
355.111591897
355.298664271
355.464047031
355.607962971
355.730617314
355.832180868
355.912789092
355.972493911
356.011133944
356.026976334
273.47313399
273.554539353
273.72173683
273.977201846
274.319259596
274.746204756
275.255967381
275.846134395
276.51399156
277.256558282
278.070634452
278.952834242
279.899632038
280.90739102
281.972404808
283.090918524
284.259164838
285.473376977
286.72981929
288.024792852
289.354661545
290.715851446
292.104873696
293.518318989
294.952878459
296.405334386
297.872580023
299.351607385
300.83952664
302.333551507
303.83101854
305.329370488
306.826175722
308.3191096
309.805973934
311.284676744
312.753251779
314.209836588
315.652692125
317.080179345
318.490778905
319.883066432
321.255732326
322.607555934
323.937425512
325.244311493
326.527286658
327.785498748
329.018190904
330.224673845
331.404346577
332.556668396
333.681179894
334.777474963
335.845222059
336.884136424
337.894001549
338.874641746
339.825943687
340.747829489
341.640278169
342.503299333
343.336954341
344.141330701
344.916562744
345.662806771
346.380261003
347.069141572
347.729701546
348.362207821
348.966959018
349.544263397
350.094455479
350.61787507
351.114882491
351.585838854
352.031119833
352.451097314
352.846151651
353.216654857
353.562981334
353.885492721
354.184547098
354.460485634
354.713640261
354.944322215
355.152828182
355.339430812
355.504383208
355.647911255
355.770215745
355.87146404
355.951786001
356.011251408
356.049783419
356.067767975
273.217901662
273.300592782
273.470184685
273.729249614
274.076051206
274.50880906
275.025358652
275.623182882
276.299455278
277.051082791
277.874751663
278.76696889
279.724105121
280.742430522
281.818151314
282.947437854
284.126453709
285.351375756
286.618416312
287.923836259
289.263961568
290.635190971
292.03400843
293.456986853
294.900797873
296.362212823
297.838110839
299.325477912
300.821413945
302.323130366
303.827956465
305.333335712
306.83683157
308.336122871
309.829008932
311.313403758
312.787340632
314.248965348
315.696540258
317.128436578
318.543137957
319.939231961
321.315413266
322.670474473
324.003309018
325.312901485
326.598330374
327.858758074
329.093433605
330.301682431
331.482909285
332.636587982
333.762264417
334.859546504
335.928107416
336.967675755
337.978039059
338.959034261
339.910551449
340.832524654
341.72493579
342.587805767
343.421198524
344.225212433
344.999984304
345.745681036
346.462503463
347.150678218
347.810461302
348.442130124
349.045986699
349.622349865
350.171558043
350.693961654
351.189925408
351.65982098
352.104028823
352.522931172
352.916913416
353.286357514
353.63164297
353.95314075
354.251213901
354.526212065
354.778471778
355.008311622
355.216032225
355.401912074
355.566207175
355.709147295
355.830934727
355.931741039
356.011703159
356.070915335
356.109357726
356.127796553
272.872367199
272.956705422
273.129582552
273.393595102
273.746912955
274.18764523
274.713495119
275.321799225
276.009575889
276.773574709
277.610326075
278.51618793
279.487390333
280.520074983
281.610331399
282.754227269
283.947835546
285.187255947
286.468634039
287.788175473
289.14215891
290.526944938
291.938984759
293.374825562
294.831116519
296.304611949
297.792175687
299.29078285
300.797523197
302.309601904
303.824342159
305.33918493
306.851690972
308.359540104
309.860532211
311.352585449
312.833736623
314.30213859
315.756059902
317.193881419
318.6140953
320.015300923
321.396203326
322.755608579
324.09242182
325.405642228
326.694360796
327.957755081
329.195086876
330.405696877
331.589002398
332.74449211
333.871723915
334.970319876
336.039964336
337.08039913
338.091421999
339.072882129
340.024678863
340.946757563
341.839108594
342.70176347
343.534794013
344.338308721
345.112452016
345.857400733
346.573363337
347.260576462
347.919304006
348.54983363
349.15247567
349.727559558
350.275432513
350.79645588
351.29100359
351.759458451
352.202210414
352.619652864
353.01218075
353.380186942
353.724060304
354.044182196
354.340924549
354.614646587
354.865692968
355.094390763
355.301047682
355.485949373
355.649357657
355.791508282
355.912609236
356.012838145
356.092342141
356.151235759
356.189520743
356.208041606
272.434750343
272.521177571
272.698285409
272.968676893
273.330393073
273.781392155
274.319200753
274.940961186
275.643487565
276.423322979
277.276795131
278.200068678
279.189193305
280.240146323
281.348869816
282.511301925
283.723403038
284.98117685
286.280687478
287.61807267
288.989554394
290.391446719
291.820162263
293.272216858
294.74423363
296.232945902
297.735200032
299.247957342
300.768296253
302.293413556
303.820625977
305.347370584
306.871205901
308.389812106
309.900990957
311.402664871
312.892876312
314.369786044
315.831671731
317.276925392
318.70405128
320.111662642
321.498479005
322.863322386
324.205114133
325.522870749
326.815700463
328.082798842
329.323445252
330.536998429
331.722892995
332.880635131
334.009799284
335.110024067
336.181009263
337.222512038
338.234344298
339.21636926
340.168499178
341.090692254
341.982950693
342.845317905
343.677876803
344.480747198
345.254084232
345.99807585
346.712941253
347.39892834
348.056312064
348.685391769
349.286489365
349.85994651
350.406122578
350.925391667
351.41814036
351.884764605
352.325667299
352.7412551
353.131935904
353.498115672
353.840195875
354.158570422
354.45362316
354.72572497
354.97523139
355.202479941
355.407787912
355.591449961
355.753736193
355.89489007
356.015126753
356.114632723
356.193564057
356.252044432
356.290087522
356.308545886
271.902776889
271.991792027
272.174157769
272.452477808
272.824624027
273.288357534
273.840976128
274.479372232
275.200099224
275.999438308
276.873462306
277.818094593
278.829161881
279.902439867
281.033691793
282.218699936
283.453290868
284.733355024
286.054861681
287.413870007
288.80653723
290.22912444
291.678000865
293.149646938
294.640656724
296.147739813
297.667723039
299.197551952
300.734292236
302.275130926
303.817377503
305.358464413
306.895947887
308.427508527
309.950950679
311.464201866
312.965311747
314.452450644
315.923907646
317.378088302
318.813511949
320.228808684
321.622716044
322.994075423
324.341828269
325.66501213
326.962756554
328.234278948
329.478880376
330.695941402
331.884917961
333.045337354
334.17679434
335.278947415
336.351515241
337.394273308
338.40705076
339.389727493
340.342231387
341.264535812
342.156657239
343.018653075
343.85061954
344.652689734
345.425031647
346.167846312
346.881365806
347.565851363
348.221591252
348.848898727
349.448109702
350.019580486
350.563685216
351.080813356
351.57136691
352.035757711
352.474404478
352.887729956
353.276157894
353.640110135
353.980003608
354.29624746
354.589240165
354.859366772
355.106996215
355.332478745
355.536143503
355.718296241
355.879217172
356.019159346
356.138347158
356.236974548
356.315205937
356.373174644
356.410896108
356.42921575
271.273628025
271.365787889
271.554546469
271.842499592
272.227303167
272.706465555
273.276993477
273.9354636
274.678102559
275.500866195
276.399513649
277.369674357
278.40690629
279.506744917
280.664742893
281.876501228
283.137692843
284.444079773
285.791525175
287.176001359
288.593594846
290.040509392
291.513067693
293.007712319
294.521006361
296.049633954
297.590400968
299.14023576
300.696190135
302.255440272
303.815287665
305.373159545
306.926609818
308.473319638
310.011096673
311.537874504
313.051711588
314.5507896
316.033411478
317.497998872
318.943089346
320.367333047
321.769489234
323.14842234
324.503098012
325.832578779
327.136019808
328.412664379
329.661839565
330.882951717
332.07548225
333.238983319
334.373073883
335.477435712
336.551809866
337.59599314
338.609835028
339.593234656
340.546138252
341.468536533
342.360462629
343.221989842
344.053229893
344.854330916
345.625475872
346.366880607
347.078792268
347.761487261
348.415269515
349.040468236
349.637435905
350.20654576
350.748189489
351.262774433
351.750720988
352.212459579
352.648427823
353.059067366
353.44482091
353.806129007
354.143427065
354.457142217
354.747690409
355.015473438
355.260876229
355.484264117
355.685980377
355.866343862
356.025646975
356.164153732
356.282098192
356.379684508
356.457084748
356.514435903
356.551760265
356.56989385
270.543877708
270.639810111
270.836232774
271.135722787
271.535661118
272.033235452
272.625085278
273.307392283
274.075978139
274.926399547
275.854035227
276.8541624
277.922021286
279.05286716
280.242010715
281.48484779
282.77688021
284.113729299
285.49114387
286.905004087
288.351322622
289.826244075
291.326043591
292.847125223
294.386020511
295.939387509
297.504010343
299.07679932
300.654791424
302.235151153
303.815171117
305.392272971
306.964008218
308.528058744
310.082236176
311.624481345
313.152863039
314.665576393
316.160940618
317.637396404
319.093502727
320.527933419
321.939473223
323.327013744
324.689548977
326.026170853
327.336064484
328.618503533
329.872845394
331.098526608
332.295058186
333.462021274
334.5990628
335.705891556
336.782274315
337.828032455
338.843038637
339.827214018
340.780525511
341.70298356
342.594639903
343.455585812
344.285950206
345.085898183
345.855629292
346.595376144
347.30540264
347.986002472
348.637497126
349.260234121
349.854584679
350.420941617
350.959716646
351.471337897
351.956246891
352.414895742
352.847743889
353.255255071
353.637893939
353.996122927
354.330398887
354.641169973
354.928872429
355.193927609
355.43673902
355.657689568
355.85713895
356.035421263
356.192842754
356.329680215
356.446179468
356.542553258
356.618982128
356.675611998
356.712466331
356.730371912
269.709417361
269.809837687
270.015370932
270.328555127
270.746423158
271.265756188
271.882732228
272.593041105
273.392005677
274.274696985
275.236036992
276.270886227
277.374114806
278.540657195
279.765551929
281.043968497
282.371223674
283.742789797
285.15429714
286.601532388
288.080434734
289.587090915
291.117730079
292.668719148
294.23655911
295.817882378
297.409451311
299.008157678
300.611022954
302.215199087
303.817969105
305.416748466
307.009086137
308.592664914
310.165301135
311.724943994
313.269674392
314.797703048
316.307368206
317.797132638
319.265580326
320.711412551
322.133443777
323.530597053
324.901899361
326.246476593
327.56354862
328.852424104
330.112495531
331.343234101
332.544184955
333.71496236
334.855245348
335.964773377
337.043342549
338.090801897
339.107050293
340.092033411
341.045741348
341.96820624
342.859500505
343.719734971
344.549057571
345.34765177
346.11573546
346.85355944
347.56140626
348.239588514
348.888447414
349.50835073
350.099690943
350.662882752
351.198360757
351.706576534
352.187995879
352.643095533
353.072360082
353.476278459
353.855340642
354.210034088
354.54084038
354.848231744
355.132667803
355.394592308
355.634430122
355.852584265
356.049433232
356.225328465
356.380592201
356.515515397
356.630356017
356.725339098
356.800653873
356.856450158
356.892760667
356.910402766
268.765360258
268.871097173
269.087409621
269.416768377
269.85576269
270.400658105
271.04705221
271.790023141
272.624281219
273.544309544
274.544485892
275.61918284
276.762845334
277.970046718
279.23552598
280.554209324
281.921219743
283.331877748
284.781696301
286.26637221
287.781775998
289.32394154
290.889056555
292.473454545
294.073608579
295.686127002
297.307750973
298.935353567
300.565940029
302.196648866
303.824752563
305.447659662
307.062916251
308.668206236
310.261351259
311.840310198
313.403177809
314.948182869
316.473685487
317.978173999
319.460261139
320.918679925
322.352278947
323.760017538
325.140960482
326.494272759
327.819213971
329.115132945
330.381462148
331.617712413
332.823467598
333.998379675
335.142163865
336.25459432
337.33549992
338.38476072
339.402304546
340.388104281
341.342175285
342.264573483
343.155393513
344.01476745
344.84286345
345.639884865
346.406069062
347.141686626
347.847040046
348.522462701
349.168317161
349.784993735
350.372908239
350.932499988
351.464229002
351.968573435
352.446026277
352.897092317
353.322284483
353.722120468
354.097118899
354.447795801
354.774660785
355.078213532
355.358940169
355.617309932
355.853771875
356.068751827
356.262649537
356.435836072
356.58865139
356.7214026
356.834362312
356.927766117
357.001813498
357.056665176
357.092356709
357.10969572
267.705920647
267.817946632
268.04699358
268.395419313
268.859246014
269.43408158
270.114791693
270.895692837
271.770743881
272.733718683
273.77835067
274.898446608
276.087969502
277.341093644
278.652236016
280.016069292
281.427521247
282.881765179
284.374204883
285.900457186
287.456334071
289.037825968
290.641087168
292.26242398
293.898285902
295.545259751
297.20006652
298.859560415
300.520729573
302.180697732
303.836725593
305.486213637
307.126704612
308.755883431
310.371577731
311.971757282
313.554532745
315.118153466
316.661004709
318.181604022
319.678597187
321.150753466
322.596960606
324.016219296
325.40763758
326.770424875
328.103886116
329.40741565
330.680491409
331.922668967
333.133576018
334.312906864
335.460417465
336.575920605
337.659281756
338.710415123
339.729280486
340.715880228
341.670257196
342.592492665
343.482705105
344.341048881
345.167713642
345.96292344
346.726936363
347.460043671
348.162569296
348.834868633
349.477327573
350.090360709
350.674409701
351.229940799
351.75744248
352.257422318
352.730403968
353.176923516
353.597525966
353.992761263
354.363180498
354.709331819
355.031756576
355.330985339
355.607534186
355.861901009
356.094562107
356.305968912
356.496545004
356.666683355
356.81674398
356.947051658
357.057894042
357.149521742
357.222144943
357.275929631
357.310923352
357.327923002
266.524257239
266.643733186
266.887838472
267.258753235
267.751767025
268.361644074
269.082322404
269.907167645
270.82921661
271.841389779
272.936662358
274.108191565
275.349402478
276.654037676
278.016178106
279.430242437
280.890972078
282.393407451
283.932860263
285.504884889
287.105251328
288.729921033
290.375026695
292.036856307
293.711841746
295.396551607
297.0876878
298.782085176
300.476713206
302.168678904
303.855229202
305.533755021
307.201794773
308.857034183
310.497307334
312.120596311
313.725029716
315.308880422
316.870562293
318.408626319
319.921755889
321.408761697
322.868575966
324.300246537
325.702930463
327.075887668
328.418474283
329.730136221
331.010402573
332.2588794
333.475243488
334.659236654
335.810660157
336.92936981
338.015271339
339.068316551
340.088499842
341.07585557
342.030455767
342.952408684
343.841857553
344.698980072
345.523987877
346.317126556
347.078675347
347.808947204
348.508288231
349.177077343
349.815725044
350.424672373
351.004388823
351.555370423
352.078136781
352.573228338
353.041202656
353.48263099
353.898094056
354.288178133
354.653470588
354.994555759
355.312010509
355.606400146
355.878274246
356.12816282
356.356572591
356.563983557
356.750845838
356.917576789
357.064558357
357.192135182
357.300612821
357.390254868
357.461284061
357.513879655
357.54809359
357.564711178
265.212271998
265.340603573
265.602573487
266.000084456
266.527471782
267.178407756
267.945647767
268.821365991
269.797466914
270.865847014
272.018595241
273.248132229
274.547293724
275.909368161
277.328099447
278.797666063
280.3126457
281.867973025
283.458895722
285.080932551
286.729835465
288.40155716
290.092224637
291.798119099
293.51566212
295.241407659
296.97203919
298.704370707
300.435350393
302.162065255
303.881745543
305.591770508
307.289672686
308.973137969
310.6400074
312.288276702
313.916094843
315.521761317
317.103722636
318.660567756
320.191022963
321.693945929
323.168319477
324.613244763
326.02793441
327.411705264
328.763971306
330.084236358
331.372087111
332.627186089
333.849265103
335.038118792
336.193598849
337.315608483
338.404097756
339.459059294
340.480525013
341.468563258
342.423277017
343.344802452
344.233308446
345.088996229
345.912099836
346.702886305
347.461656461
348.188745056
348.884521265
349.549388211
350.183782669
350.788173629
351.363060934
351.908972768
352.426463196
352.91610867
353.378504614
353.814261178
354.223999124
354.608345129
354.967927277
355.303370235
355.615290676
355.904292617
356.170963065
356.415867764
356.639547277
356.842513301
357.025245319
357.188187567
357.331746475
357.456288184
357.562136501
357.64957307
357.718833607
357.77010415
357.803451128
357.819646812
263.760345406
263.899265013
264.182540029
264.61165059
265.179672415
265.878851924
266.700426003
267.635069795
268.673296269
269.805777234
271.023574867
272.31828745
273.68212141
275.107905733
276.58906623
278.119574847
279.693886752
281.306873979
282.95376178
284.630070889
286.331567625
288.054222325
289.794176494
291.547718521
293.31126786
295.081367035
296.85468036
298.62799772
300.398241464
302.162473142
303.917902426
305.661894188
307.391972203
309.105821836
310.80129136
312.476391755
314.129294876
315.758330533
317.36198225
318.938882258
320.487805458
322.007662929
323.497494683
324.956462266
326.383840871
327.77901157
329.14145324
330.470734809
331.766507342
333.028496599
334.256495597
335.450357819
336.609990628
337.735349552
338.826432978
339.883277916
340.905956347
341.894572729
342.849262137
343.770189507
344.657549376
345.511566522
346.332496763
347.120628351
347.876283066
348.599817581
349.291624051
349.952130756
350.581801576
351.181135455
351.750664495
352.290952097
352.802589704
353.286193725
353.742401187
354.171865681
354.575252302
354.953232949
355.306480946
355.635666076
355.941449268
356.224477722
356.485379994
356.724761509
356.943200282
357.141243004
357.319401525
357.478149661
357.617920343
357.739103561
357.842044525
357.927040502
357.994342184
358.044151211
358.076539844
358.092266174
262.156987964
262.308665286
262.617535135
263.084433158
263.70075239
264.456857231
265.342020622
266.345023954
267.454669951
268.660173345
269.951420921
271.31911305
272.754808487
274.250899254
275.800540914
277.397559975
279.036354075
280.711795677
282.419144922
284.153974426
285.91210639
287.68956178
289.482520968
291.287295568
293.100311218
294.918100681
296.737305829
298.554686013
300.367130068
302.171667106
303.965479821
305.745913849
307.510481762
309.256866986
310.982925391
312.686684836
314.366343166
316.020264533
317.646974666
319.245154873
320.813635369
322.351387638
323.85751649
325.33125149
326.771938408
328.179030341
329.552079067
330.890726251
332.194695021
333.463781523
334.697847008
335.896810088
337.060639765
338.18934888
339.282988643
340.341643806
341.365429186
342.354486941
343.308985299
344.229117958
345.115104843
345.967193171
346.785659603
347.570812138
348.322992679
349.042578756
349.729985493
350.385666256
351.010113264
351.603856643
352.167463343
352.701534512
353.206702768
353.683628123
354.132993892
354.555501565
354.951865768
355.322808521
355.669053713
355.991321213
356.290321297
356.566749048
356.821279144
357.054560871
357.267213563
357.459822427
357.632934777
357.787056738
357.922650462
358.040131524
358.139866759
358.222174608
358.287321049
358.335516024
358.366848608
358.38206091
260.388370625
260.555575699
260.895479629
261.407939911
262.082066683
262.905713784
263.865594862
264.948090426
266.139904115
267.428530682
268.802535169
270.251669236
271.766863636
273.34013834
274.964467963
276.633631029
278.342062862
280.08472291
281.856981471
283.654526024
285.473285744
287.309371716
289.159031525
291.018617456
292.884568609
294.753406619
296.621743173
298.486295883
300.343907918
302.191565362
304.026415208
305.845778169
307.647151974
309.428216655
311.186835944
312.921056734
314.629106313
316.309388082
317.960475739
319.581106548
321.170173408
322.726716373
324.24991335
325.739070697
327.193613384
328.613075406
329.997089985
331.345380174
332.65774934
333.934072151
335.174285554
336.378380476
337.546393806
338.678401414
339.774511833
340.834861328
341.859609947
342.84893916
343.803050618
344.722166453
345.606530534
346.456410913
347.272102746
348.053931846
348.802257996
349.517478316
350.200029634
350.850390537
351.469081838
352.056666681
352.613748774
353.140970458
353.639008914
354.108572469
354.55039526
354.96523221
355.35385273
355.717034855
356.055558562
356.3701996
356.661722965
356.930876933
357.178387166
357.404951366
357.61123432
357.79786342
357.965424763
358.114459662
358.245461629
358.358874251
358.455089347
358.534443658
358.597220526
358.643647672
358.673821426
358.688466518
258.4376868
258.624024159
259.001988747
259.569940908
260.31384682
261.218173157
262.266275428
263.441483149
264.727932858
266.11111444
267.578146157
269.117829518
270.720548875
272.378080641
274.083364891
275.830277097
277.613421904
279.427959165
281.269463365
283.133813063
285.01710455
286.915584795
288.825600442
290.743562559
292.665928485
294.589201997
296.50994979
298.424829056
300.330618694
302.224246196
304.102812419
305.963605722
307.804105019
309.621985265
311.415118751
313.181573937
314.91961197
316.627681081
318.304409863
319.94859921
321.559213397
323.135370061
324.676329839
326.181485433
327.650350856
329.08255052
330.47780875
331.835939219
333.15683481
334.440457409
335.686828204
336.896018133
338.068139172
339.203336216
340.30178029
341.36366282
342.389191701
343.378588698
344.33208888
345.249941336
346.132411786
346.979785963
347.792374406
348.570517128
349.314588968
350.02500382
350.702218839
351.346736728
351.959107593
352.539928558
353.089842898
353.609537058
354.099737345
354.561204877
354.994730405
355.401127837
355.781227827
356.135870529
356.465898582
356.772149745
357.055449911
357.31660623
357.556400737
357.775584441
357.974871967
358.154936841
358.316407293
358.459862741
358.58583088
358.694785043
358.787142066
358.863262879
358.923448306
358.967935805
358.996840674
359.010868088
256.284264117
256.494530084
256.919810623
257.556156299
258.385129138
259.386577492
260.539424575
261.82312118
263.218686982
264.709320618
266.280624613
267.920536571
269.619073921
271.367989701
273.160413161
274.990520809
276.853260581
278.74413415
280.659032259
282.594112055
284.545704934
286.510244939
288.48421299
290.464097032
292.446373019
294.427511627
296.404008541
298.372430771
300.329463908
302.271956888
304.19695197
306.101696118
307.983645714
309.840469429
311.670049115
313.470478372
315.240057515
316.9772865
318.680856659
320.349641629
321.982686796
323.579197948
325.138529091
326.660170256
328.14373514
329.588949326
330.995638541
332.363717478
333.693178458
334.984080515
336.236538315
337.450711712
338.626795568
339.765010784
340.865596284
341.928802834
342.954888452
343.944116082
344.896753199
345.81307366
346.693361329
347.537915393
348.347056702
349.121134806
349.860534853
350.565684105
351.237057075
351.875179602
352.480630652
353.0540431
353.5961019
354.107541765
354.589142353
355.041723492
355.466138302
355.863266667
356.234007155
356.579269444
356.8999658
357.197003179
357.471275016
357.723653753
357.954983625
358.166074234
358.357694775
358.530568945
358.685370702
358.822720555
358.943182529
359.047262098
359.135404527
359.20799157
359.265343574
359.307717657
359.33523776
359.34858782
253.902307353
254.143039001
254.628092422
255.349897553
256.283743174
257.40312011
258.681079666
260.092154452
261.613626725
263.226159006
264.913883572
266.664108502
268.466812543
270.314075107
272.199538786
274.117956207
276.064837611
278.036193925
280.028357484
282.037858637
284.061336612
286.095468599
288.136908819
290.182240466
292.227952008
294.270452444
296.306122882
298.331392479
300.342813715
302.33712856
304.311305212
306.262543642
308.188275013
310.086160763
311.954094063
313.790198323
315.592820073
317.360519059
319.092058676
320.786395605
322.442667858
324.06018125
325.638395541
327.176910154
328.675450524
330.13385488
331.552061852
332.930098193
334.268066863
335.566134784
336.824520773
338.043483402
339.223309581
340.364303882
341.466779486
342.531050788
343.557428456
344.5462168
345.497714078
346.412215176
347.290017089
348.131426031
348.936766515
349.706390585
350.440687697
351.140093
351.805094979
352.43624014
353.034136441
353.59945337
354.132920959
354.635325894
355.10750704
355.550348752
355.964773961
356.35173572
356.712208762
357.047180135
357.357640053
357.644572438
357.908945931
358.151705252
358.373763272
358.57599392
358.759225906
358.924237454
359.071751759
359.202433407
359.316885517
359.415647295
359.499192131
359.567928624
359.622196453
359.662263689
359.688275078
359.700890712
251.259068863
251.539431655
252.101420315
252.931685454
253.996427237
255.260325824
256.688649841
258.249738871
259.916485211
261.666891277
263.483876207
265.354592373
267.269529103
269.221618616
271.205466868
273.216756542
275.251821578
277.307366537
279.380293868
281.467599889
283.566304687
285.673389051
287.785726578
289.900017029
292.012746688
294.120214118
296.21861443
298.30416426
300.373223632
302.422392189
304.448551262
306.448853668
308.420705707
310.361761099
312.26992619
314.143360997
315.98046751
317.779875127
319.540429662
321.261182973
322.941378851
324.580437161
326.17793735
327.733602087
329.247281534
330.718939272
332.148638895
333.536531442
334.882842479
336.187859086
337.451916031
338.675382153
339.858646728
341.002107168
342.106157978
343.171182271
344.197545713
345.185593917
346.135653018
347.048033842
347.923039182
348.760973777
349.562156277
350.326932079
351.055686223
351.748854984
352.406935425
353.03049229
353.620161467
354.17665113
354.700739189
355.193269847
355.655146846
356.087326863
356.490810262
356.866632325
357.215852688
357.539545297
357.838787333
358.114648823
358.368182032
358.600411853
358.812326837
359.004871381
359.178939052
359.33536693
359.474931173
359.598343345
359.706247616
359.79921906
359.877762438
359.942309221
359.993220269
360.030784642
360.055156966
360.066971434
248.312115376
248.645386404
249.308581497
250.278906604
251.509194091
252.951892223
254.562002842
256.300169025
258.134295441
260.039861188
261.99919707
264.000150767
266.03458999
268.097059148
270.183725262
272.291633243
274.418230146
276.561096196
278.717815961
280.885928064
283.062899045
285.246080228
287.432626062
289.619386089
291.802819784
293.979035141
296.143924596
298.293372972
300.423461081
302.530606117
304.611599342
306.663561707
308.683880878
310.670200205
312.620439785
314.532806318
316.405770773
318.238043505
320.028563977
321.776492945
323.481195791
325.142222574
326.759288873
328.332255986
329.861113229
331.345962754
332.787006111
334.184531307
335.53889985
336.8505324
338.119893499
339.347475411
340.533782228
341.67931479
342.784557565
343.849968059
344.87596971
345.862948643
346.811254903
347.721207971
348.593106709
349.427242556
350.223915755
350.983452357
351.706221749
352.392651748
353.043241661
353.658570408
354.239301631
354.786183536
355.300046739
355.781798248
356.232414699
356.65293302
357.044440834
357.408065231
357.744961483
358.05630077
358.343258038
358.606999522
358.848670853
359.069385848
359.270216482