/*--------------------------------*- C++ -*----------------------------------*\
| =========                 |                                                 |
| \\      /  F ield         | OpenFOAM: The Open Source CFD Toolbox           |
|  \\    /   O peration     | Version:  v1906                                 |
|   \\  /    A nd           | Web:      www.OpenFOAM.com                      |
|    \\/     M anipulation  |                                                 |
\*---------------------------------------------------------------------------*/
FoamFile
{
    version     2.0;
    format      ascii;
    class       volScalarField;
    location    "284";
    object      p;
}
// * * * * * * * * * * * * * * * * * * * * * * * * * * * * * * * * * * * * * //

dimensions      [0 2 -2 0 0 0 0];


internalField   nonuniform List<scalar> 
9216
(
273.932565584
274.01255949
274.178083952
274.430553975
274.768550496
275.190493626
275.694418783
276.278025936
276.938708097
277.673602912
278.479617502
279.353481585
280.291768103
281.290945307
282.347390726
283.45743995
284.617392713
285.823557413
287.072249375
288.359831162
289.682703918
291.037344122
292.420289363
293.828172314
295.257702333
296.705697363
298.169062623
299.64482086
301.130089153
302.622107721
304.118215696
305.615878189
307.112661292
308.606258204
310.094464633
311.575201899
313.046492875
314.506483277
315.953418479
317.385662228
318.801674848
320.200029188
321.579390633
322.938530144
324.276306437
325.591676051
326.883678024
328.151440973
329.394170515
330.611153445
331.801748049
332.965385514
334.10156318
335.2098434
336.289849642
337.341263066
338.363821277
339.357312932
340.321578816
341.256504842
342.162025014
343.038113197
343.884787469
344.702101042
345.490147455
346.249051042
346.978972405
347.68009881
348.352649417
348.996865954
349.613017272
350.201390578
350.762295008
351.296053641
351.803005889
352.283500463
352.737896516
353.166557643
353.569851835
353.948146539
354.30180759
354.631195283
354.936662547
355.218551971
355.477193551
355.712902676
355.925977987
356.116700671
356.285333792
356.432125204
356.557314179
356.661151245
356.743957932
356.80663886
356.84721273
356.862032175
273.852618688
273.932973733
274.098839273
274.3523076
274.691735986
275.115468169
275.621496488
276.207481761
276.870783072
277.60850046
278.41750859
279.294501065
280.236021745
281.238506494
282.298308947
283.411737344
284.575073387
285.784603384
287.036630193
288.32749899
289.653603171
291.011405644
292.397439916
293.808327963
295.24077776
296.691598646
298.157696367
299.636086598
301.123888292
302.618335747
304.116770769
305.616653584
307.115554497
308.611163019
310.101278799
311.583820154
313.056814667
314.518406048
315.966844736
317.400493368
318.817817528
320.217389788
321.597880829
322.958062081
324.296797436
325.613044549
326.905847357
328.17433613
329.417720975
330.635290762
331.826407746
332.990505506
334.127084761
335.235710474
336.316008878
337.367663884
338.390415267
339.38405452
340.348424074
341.283412727
342.188955715
343.065029822
343.911654074
344.728884641
345.516815877
346.275575113
347.005323779
347.706252176
348.378580434
349.022553348
349.638440968
350.226533585
350.787141816
351.320591806
351.827224739
352.307392335
352.761455775
353.189781555
353.592739886
353.970700946
354.324032878
354.653098478
354.958252933
355.239840981
355.498194595
355.733630665
355.946448859
356.136929933
356.305333998
356.451899219
356.576839178
356.680336251
356.762518009
356.823417418
356.862066721
356.876863582
273.686342304
273.767844595
273.935238924
274.191005628
274.533470677
274.960932336
275.471322399
276.062233064
276.730952802
277.474508018
278.28970235
279.173158709
280.121356258
281.130668616
282.197395143
283.317793001
284.488101431
285.704567118
286.963461626
288.261100679
289.593855767
290.958168507
292.350557758
293.767630318
295.20608481
296.662719794
298.134435436
299.618239801
301.111248995
302.610692107
304.11391025
305.618360406
307.121613713
308.621358125
310.115395891
311.601645437
313.078138205
314.543019481
315.994544728
317.431079483
318.851095302
320.253168782
321.635977277
322.998297134
324.338999339
325.657047103
326.9514916
328.221469036
329.466196632
330.684969331
331.877156155
333.042196678
334.17959787
335.288930451
336.369826279
337.421974688
338.445120426
339.439060042
340.403640335
341.338754825
342.244342628
343.120385003
343.966904532
344.783961732
345.571654379
346.330114155
347.059505965
347.760024577
348.431893806
349.075363115
349.690706554
350.27821932
350.838216387
351.37102903
351.87700313
352.356495695
352.809872863
353.237506472
353.639771818
354.017044339
354.369697221
354.69809826
355.002607421
355.283573945
355.541333976
355.776207948
355.98849833
356.178487193
356.346433717
356.492570869
356.617099997
356.720180105
356.801903348
356.862248967
356.900791996
356.917409487
273.430704361
273.513490886
273.683276372
273.942637783
274.289839998
274.723105417
275.24027217
275.838827296
276.515948265
277.26854764
278.093316939
278.986770285
279.945284934
280.965139672
282.04254859
283.173692054
284.354742632
285.581888424
286.851351674
288.159405467
289.502386368
290.876706006
292.2788593
293.705432412
295.153107956
296.618670508
298.099009829
299.59112474
301.092125008
302.599234044
304.109789807
305.621246485
307.131174616
308.637261926
310.137312597
311.629247218
313.111101316
314.581024471
316.03727817
317.478234127
318.902371554
320.308274789
321.694630104
323.060222763
324.403933531
325.7247353
327.021689457
328.293942239
329.540721115
330.761331025
331.955150918
333.121630009
334.260284597
335.370694448
336.452499973
337.505398822
338.529143455
339.523537982
340.488436124
341.423738296
342.329389889
343.205378564
344.051732764
344.868519137
345.655841169
346.413836649
347.142676291
347.842561171
348.513721225
349.156412585
349.770915873
350.357533397
350.9165872
351.448416106
351.953373517
352.431824338
352.88414255
353.310708071
353.711904165
354.088114317
354.439719555
354.767095415
355.07060928
355.350617498
355.60746281
355.84147165
356.052951638
356.242188907
356.409445262
356.554954657
356.678918397
356.781498105
356.862805184
356.922890107
356.961648125
356.979876439
273.084627774
273.169059087
273.342125624
273.606427781
273.960137149
274.401365242
274.927818191
275.536836368
276.225442374
276.990391032
277.82821843
278.735289245
279.707840686
280.742022674
281.833933281
282.979649797
284.175254987
285.416859373
286.700619387
288.022752439
289.379548835
290.76738159
292.182714018
293.622106062
295.082219125
296.559820235
298.051785192
299.55510138
301.066869836
302.584307128
304.104746599
305.625639336
307.144554738
308.659180846
310.167324009
311.666908274
313.155974306
314.632678005
316.09528867
317.542186852
318.971861848
320.382908894
321.774026125
323.144011244
324.491758097
325.816252983
327.116571011
328.391872222
329.641397896
330.86446665
332.060470841
333.228872791
334.369201422
335.48104871
336.564066654
337.617964041
338.642503786
339.637500044
340.602815919
341.538360908
342.444088919
343.319995986
344.166118509
344.982531136
345.769345104
346.526706184
347.254792992
347.95381488
348.624010123
349.265643661
349.879005076
350.464406136
351.022178526
351.552671176
352.056247746
352.533283763
352.984163907
353.409279007
353.8090232
354.183790867
354.533973748
354.859957913
355.162120918
355.44082889
355.696433793
355.92927065
356.139654914
356.327879723
356.494213142
356.638895067
356.762133846
356.864102683
356.944936992
357.004735978
357.043495127
357.062124733
272.646334319
272.732852154
272.91014374
273.180816403
273.542912583
273.994392877
274.532786774
275.155240238
275.858571675
276.639329283
277.49384658
278.418294886
279.408731265
280.461141239
281.571475773
282.735682672
283.949732555
285.209640043
286.511480615
287.851403949
289.225644221
290.630528138
292.062481049
293.518031783
294.993816366
296.486581103
297.993185026
299.510602022
301.035922542
302.566355087
304.099227325
305.6319868
307.162201508
308.687560191
310.205871891
311.715065263
313.213187446
314.698402577
316.168989844
317.623341225
319.059958818
320.477451904
321.874533698
323.250017881
324.602814938
325.931928345
327.236450666
328.51555958
329.768513923
330.994649726
332.193376376
333.364172816
334.506583967
335.620217216
336.704739208
337.759872702
338.78539378
339.781129111
340.746953571
341.68278789
342.588596626
343.464386107
344.310202666
345.126130755
345.912291303
346.668839867
347.395964972
348.093886171
348.762852237
349.403139038
350.015047483
350.598901153
351.155043966
351.683837538
352.185658577
352.660896011
353.109948143
353.533219619
353.931118431
354.304052803
354.652428143
354.97664395
355.27709081
355.554147412
355.808177668
356.039527892
356.248524069
356.435469185
356.600640601
356.744287496
356.866628484
356.967850002
357.048106366
357.107522837
357.146123453
357.164812744
272.113552473
272.202654845
272.38519801
272.663789075
273.036301602
273.500498829
274.053681408
274.69274527
275.41424804
276.214475969
277.089507717
278.035273362
279.047607117
280.122293036
281.255103481
282.441830633
283.678311642
284.96044819
286.284221347
287.645702601
289.041061893
290.466573385
291.918619606
293.393694466
294.888405551
296.399475952
297.923745849
299.458173903
300.999838548
302.545939105
304.093796764
305.640855069
307.18468053
308.722962917
310.253514678
311.774270191
313.283284609
314.778732213
316.258904397
317.722207194
319.167158484
320.592384806
321.996617945
323.378691197
324.737535516
326.072175429
327.381724939
328.665383298
329.922430863
331.152224911
332.354195642
333.527842208
334.67272901
335.788482091
336.874785834
337.931379814
338.958055961
339.954655899
340.921068576
341.857228049
342.763111517
343.638737461
344.484163948
345.299486985
346.084838941
346.840386944
347.566331254
348.262903558
348.930365142
349.569004962
350.179137527
350.761100659
351.31525305
351.841971696
352.34164914
352.81469061
353.261511007
353.682531824
354.078177978
354.448874602
354.795043838
355.11710162
355.415454535
355.690496709
355.942606828
356.172145216
356.379451079
356.564839842
356.728600689
356.870994295
356.992251016
357.092569867
357.172118983
357.231037105
357.269355052
357.287955795
271.483466447
271.575710121
271.764638371
272.052850927
272.43800489
272.917610752
273.488677865
274.147786282
274.891166778
275.71478016
276.614391417
277.58563672
278.624081687
279.725270317
280.884764663
282.098175945
283.361188054
284.669574684
286.019211269
287.406082935
288.82628947
290.276048274
291.751695949
293.249689179
294.766605229
296.299142429
297.844120692
299.398482227
300.959292328
302.523740246
304.089139983
305.652930731
307.212677451
308.76607135
310.31092902
311.845191791
313.366924432
314.874313452
316.365664875
317.839401639
319.294060533
320.728288832
322.140840553
323.530572526
324.896440179
326.237493249
327.552871333
328.841799456
330.103583601
331.337606356
332.543322622
333.720255526
334.86799249
335.986181559
337.074527962
338.132790958
339.160780963
340.158356951
341.12542414
342.061931907
342.967871953
343.843276614
344.68821736
345.502803325
346.287179951
347.041527543
347.766059852
348.461022477
349.126691215
349.763370168
350.371389743
350.951104387
351.502890187
352.027142217
352.524271758
352.994703299
353.438871447
353.857217678
354.250187039
354.618224773
354.961772947
355.281267085
355.577132848
355.849782808
356.099613301
356.327001449
356.532302296
356.715846179
356.877936279
357.018846525
357.138819877
357.238067426
357.316768299
357.37506941
357.413003781
357.431435722
270.752653925
270.848665807
271.045249935
271.344986223
271.745257085
272.243251963
272.835612843
273.518524572
274.287812799
275.139039096
276.067587988
277.068743496
278.13775361
279.269882378
280.460450185
281.704863471
282.99863547
284.337399673
285.716917717
287.13308318
288.581922631
290.059594976
291.562389977
293.086726514
294.629151085
296.1863367
297.755082368
299.332313061
300.915080139
302.500562007
304.086064866
305.669023164
307.247000373
308.817689476
310.378912053
311.92861763
313.464882368
314.985907177
316.490015377
317.975649819
319.441369626
320.885846479
322.307860629
323.706296568
325.080138553
326.428465907
327.750448302
329.045340939
330.312479827
331.55127709
332.761216462
333.941848923
335.092788621
336.213709005
337.304339322
338.364461377
339.393906677
340.392553868
341.360326521
342.297191191
343.203155758
344.07826796
344.922614105
345.736317881
346.519539196
347.272473027
347.995348154
348.68842582
349.351998155
349.986386483
350.591939309
351.169030164
351.718055121
352.239430163
352.733588247
353.200976253
353.642051692
354.05727934
354.447127715
354.812065545
355.152558175
355.469064015
355.762031041
356.031893371
356.279068004
356.503951669
356.706917912
356.888314359
357.048460293
357.187644488
357.306123515
357.404120543
357.481824775
357.539390045
357.576852071
357.595060553
269.917010242
270.017505842
270.223191044
270.536607201
270.954787981
271.474516191
272.091971958
272.80284801
273.602470949
274.48591652
275.448112442
276.483926069
277.588235466
278.755984115
279.982220622
281.262125515
282.591027512
283.964411696
285.377921811
286.82735863
288.308675971
289.817975639
291.351502186
292.905638204
294.476900482
296.061937304
297.657526811
299.260576411
300.868122908
302.47733321
304.085504877
305.69006734
307.288582634
308.878745746
310.458384075
312.025456732
313.578053109
315.114390923
316.632813609
318.131787256
319.609896967
321.065842879
322.498435729
323.906592212
325.28933003
326.645762872
327.975095221
329.276617227
330.549699555
331.793788408
333.008400657
334.193119257
335.347588885
336.471511945
337.564644894
338.626794975
339.657817325
340.657612498
341.626124357
342.563338314
343.469279901
344.344013559
345.187641656
346.000303577
346.782174906
347.533466519
348.25442364
348.945324663
349.606479841
350.238229644
350.840942918
351.41501468
351.960863696
352.478929709
352.969670465
353.433558457
353.871077506
354.282719151
354.668978938
355.030352636
355.367332414
355.680403063
355.970038257
356.236696953
356.480819905
356.702826399
356.903111162
357.082041568
357.239955077
357.377157034
357.493918773
357.59047627
357.667029058
357.723738167
357.760643894
357.778583712
268.971653286
269.077460421
269.293915198
269.623490392
270.062776185
270.608039186
271.254878766
271.998375543
272.833243256
273.753969489
274.754937651
275.830527201
276.975191186
278.183512296
279.450240007
280.770312103
282.138864126
283.551230023
285.002936949
286.489696585
288.007394893
289.552081666
291.119960928
292.707382772
294.310837045
295.926948947
297.55247647
299.184309363
300.819469316
302.455110887
304.088522274
305.717127212
307.338486109
308.950296255
310.550391715
312.136742564
313.707453459
315.260761465
316.795033278
318.308761779
319.800562113
321.269167214
322.713423018
324.132283285
325.524804254
326.890139075
328.227532236
329.536313907
330.815894437
332.065758901
333.285461939
334.474622778
335.632920659
336.760090572
337.855919475
338.920242912
339.952942156
340.953941769
341.923207675
342.860745601
343.766599935
344.640852848
345.483623662
346.295068342
347.075379018
347.82478349
348.543544541
349.231959125
349.890357179
350.519100252
351.118579652
351.689214384
352.231448598
352.745748828
353.232600801
353.692506077
354.125978345
354.533539627
354.915716259
355.27303485
355.606018171
355.915181097
356.201026615
356.464041957
356.704694929
356.923430407
357.120667135
357.296794732
357.452171064
357.587119856
357.701928717
357.796847477
357.872086897
357.927816292
357.964082328
357.981711074
267.91080186
268.022893401
268.25207206
268.600698095
269.064793689
269.639967454
270.321086197
271.102468361
271.978075779
272.94168645
273.987039296
275.107947961
276.298383781
277.55253074
278.864816843
280.229926962
281.642802156
283.098629932
284.592829125
286.121032306
287.67906781
289.262942939
290.868829274
292.493050754
294.132074718
295.782505957
297.441083421
299.104679182
300.770298989
302.435083901
304.096311583
305.751399106
307.397904809
309.033528458
310.65611153
312.263636564
313.854225607
315.426137913
316.977766818
318.507635989
320.014394993
321.496814422
322.953780505
324.384289469
325.78744157
327.162435058
328.508559984
329.825192113
331.111786829
332.367873311
333.593048853
334.786973586
335.949365506
337.079996013
338.178685899
339.245301913
340.279753857
341.281992282
342.252006707
343.189824358
344.095509364
344.969162279
345.810919926
346.620955319
347.399477705
348.14673244
348.863000792
349.548599359
350.203879273
350.829224886
351.425052162
351.991806521
352.529960361
353.040010092
353.522472862
353.977882899
354.406787618
354.809743468
355.187311632
355.540053633
355.868526894
356.17328035
356.454850134
356.713755448
356.950494588
357.165541275
357.359341191
357.532308886
357.684824935
357.817233479
357.92984002
358.022909693
358.096665704
358.151286812
358.186827726
358.204103032
266.727619843
266.847156024
267.091382851
267.462481276
267.955740753
268.565925279
269.286973303
270.112251649
271.03479945
272.047540899
273.143456435
274.315710193
275.557735796
276.863285998
278.226453371
279.641669565
281.103690102
282.607570543
284.148638572
285.722465295
287.324838065
288.951736257
290.599310939
292.263868862
293.941860938
295.62987494
297.324632007
299.022986107
300.721925656
302.418576307
304.110203413
305.794215858
307.468169162
309.129765422
310.776854261
312.407432185
314.019641001
315.611765212
317.182228607
318.729589989
320.252538291
321.749887057
323.220568513
324.663627225
326.078213572
327.463576993
328.819059267
330.144087731
331.438168712
332.700881066
333.931870083
335.130841681
336.297557123
337.431828171
338.53351292
339.602512185
340.638766647
341.642254603
342.612990459
343.551023768
344.456438877
345.329354951
346.169926365
346.978343235
347.754831993
348.499655876
349.213115123
349.895546916
350.547324773
351.168857593
351.760588031
352.322990506
352.856568532
353.361851733
353.839392253
354.289760926
354.713542981
355.111333596
355.483733173
355.83134256
356.15475821
356.454567391
356.731343529
356.985641703
357.217994425
357.428907644
357.618857136
357.78828515
357.937597482
358.067160799
358.177300392
358.268298219
358.340391297
358.393769147
358.42849595
358.44537407
265.414013928
265.542401232
265.804482187
266.202160577
266.729770238
267.380982417
268.148551764
269.024652641
270.001191001
271.070066386
272.223372689
273.453537433
274.753405243
276.116275279
277.535903879
279.006483405
280.522606697
282.079224598
283.671601856
285.295275035
286.94601455
288.619792146
290.312754382
292.021202465
293.741578285
295.47045634
297.204540676
298.940665815
300.675800238
302.407051138
304.13166868
305.847051493
307.550750852
309.240470803
310.914069691
312.569559639
314.205104748
315.819018252
317.409758578
318.975924605
320.516250072
322.029597453
323.514951226
324.971410884
326.398183575
327.794576726
329.159990509
330.493910484
331.795900267
333.065594552
334.302692333
335.506950661
336.678178809
337.816233139
338.921012577
339.992454924
341.030533927
342.035257208
343.006664987
343.944829565
344.84985548
345.72188017
346.561075067
347.367646825
348.141838661
348.883931442
349.594244574
350.273136315
350.921003683
351.538281606
352.125441573
352.682989514
353.211463182
353.711428856
354.18347761
354.628221056
355.046286744
355.438313223
355.804944897
356.146826748
356.464599014
356.758891958
357.030320743
357.279480582
357.50694212
357.71324721
357.898904994
358.064388422
358.210131091
358.336524517
358.443915688
358.532605107
358.602845058
358.654837049
358.688656019
358.705091093
263.960369658
264.099340266
264.382717281
264.811979878
265.3802017
266.079626521
266.9014891
267.836463354
268.875062518
270.007960651
271.22622441
272.521459005
273.885880124
275.312328255
276.794242611
278.32561019
279.900902505
281.515009011
283.163173213
284.840934845
286.544079857
288.268598844
290.010654137
291.766555463
293.532744029
295.305784351
297.082362833
298.859291345
300.633514002
302.40211436
304.162323345
305.911526511
307.6472685
309.367254569
311.069352359
312.751591322
314.412160768
316.049406507
317.661826417
319.248064937
320.806906812
322.337270055
323.838198472
325.30885371
326.748507157
328.15653163
329.532393144
330.875642682
332.185908221
333.462886935
334.706337848
335.916074862
337.091960461
338.233900028
339.341837069
340.415749243
341.455645477
342.461563975
343.43357133
344.371762458
345.276261452
346.147223004
346.984834366
347.789317508
348.560931297
349.299973488
350.006782242
350.681737155
351.325259456
351.937811604
352.519895901
353.072052532
353.594856653
354.088915016
354.554861782
354.99335398
355.405066345
355.790685945
356.15090642
356.486422168
356.797922446
357.086085567
357.351573309
357.595025558
357.817055371
358.018244351
358.199138551
358.360244706
358.502027006
358.624904161
358.729246964
358.815376179
358.883560811
358.9340156
358.966827517
358.982771079
262.355201535
262.506926671
262.815890439
263.2829274
263.899426381
264.655747448
265.541159317
266.54444024
267.654391617
268.860229256
270.151843903
271.519942855
272.956094752
274.452704094
276.002941178
277.600648987
279.240243007
280.916614531
282.625043314
284.361122222
286.120694324
287.899802089
289.694648047
291.501566607
293.317006709
295.137524766
296.959786367
298.780574503
300.596801373
302.405519402
304.203934288
305.989414282
307.759494298
309.511879788
311.244448147
312.955248173
314.642497639
316.304579426
317.940036259
319.547564465
321.126006708
322.674344088
324.191687567
325.677269124
327.130432579
328.550624444
329.937384697
331.290337791
332.609183741
333.893689625
335.143681339
336.359035998
337.539674862
338.685557185
339.796674905
340.873048513
341.914724016
342.921771189
343.894283009
344.83237626
345.736193158
346.605903772
347.441709077
348.243844202
349.012581791
349.748234926
350.451159652
351.121756576
351.760471734
352.367796321
352.944265601
353.49045672
354.006985784
354.494504022
354.953693344
355.3852612
355.789934966
356.168455867
356.521572613
356.850034865
357.154586647
357.435959924
357.694868363
357.932001518
358.148019378
358.343547485
358.519172463
358.675438167
358.812842198
358.931832988
359.032807199
359.116107657
359.182021593
359.2307782
359.262477556
359.2778781
260.584684221
260.751934576
261.091927636
261.604517179
262.278807534
263.102645408
264.062737538
265.145458658
266.337508847
267.626382444
269.000647696
270.450063363
271.9655709
273.539204202
275.16395433
276.833618176
278.542650712
280.286031904
282.059153122
283.857723422
285.677694054
287.515198857
289.366508931
291.228000909
293.096138954
294.967470182
296.838631867
298.706366957
300.567543659
302.419172827
304.258426171
306.082648541
307.889361936
309.676270523
311.441262052
313.18240696
314.897955414
316.586332494
318.246132093
319.876109557
321.475173446
323.04237638
324.576905401
326.078071863
327.545301248
328.978122865
330.376159739
331.739118572
333.066780011
334.358989131
335.615646386
336.836699029
338.02213332
339.171967559
340.286246317
341.365035857
342.408421083
343.416503867
344.389403034
345.327255631
346.230219637
347.098477544
347.932240809
348.731754525
349.497302143
350.229209744
350.927849548
351.593642501
352.227059557
352.828621916
353.398899813
353.938510422
354.448114474
354.928412216
355.380138324
355.804056331
356.200952233
356.571627775
356.916893213
357.237559998
357.534433346
357.808305018
358.059946423
358.290102133
358.499484036
358.688765966
358.858579095
359.009507755
359.142085986
359.25679442
359.35405778
359.434242748
359.497656214
359.544542936
359.575017387
359.589820141
258.632012712
258.81839564
259.196447976
259.764525518
260.508585153
261.413083096
262.461364071
263.636748175
264.923365379
266.306703059
267.773881847
269.313710616
270.91658577
272.574299625
274.279811121
276.027016518
277.810542401
279.625571067
281.467699691
283.332829667
285.217080495
287.11672301
289.028128719
290.947734708
292.872025357
294.797532125
296.720849374
298.638661528
300.547774169
302.44514117
304.327889182
306.193332436
308.038975979
309.862521261
311.661867181
313.435108799
315.180533331
316.896614224
318.582003757
320.235524617
321.856160267
323.443044548
324.995450549
326.512779259
327.994547997
329.440379066
330.849988467
332.22317496
333.559809225
334.859823437
336.123201062
337.349967328
338.540180314
339.693923194
340.811297616
341.892418756
342.93741196
343.946411351
344.919560243
345.857013413
346.758940982
347.625533593
348.45700855
349.253616296
350.015646938
350.74343604
351.437369594
352.097887462
352.7254855
353.320715888
353.884186151
354.416556624
354.918536895
355.390881093
355.834382383
356.24986658
356.638185108
357.000207313
357.336812335
357.648880749
357.937286133
358.202886938
358.44651869
358.668986907
358.871060606
359.053466667
359.216884836
359.361943537
359.489216205
359.599218299
359.69240471
359.769167713
359.829835332
359.87466911
359.903798801
359.917945288
256.476514705
256.686828831
257.11220236
257.748677736
258.577804297
259.579414928
260.732416865
262.016246425
263.411912471
264.902608389
266.47393798
268.113846909
269.812366657
271.561269144
273.35370578
275.183877139
277.046755937
278.9378686
280.853130184
282.788721829
284.740998934
286.706420291
288.68149285
290.662732358
292.646644215
294.629729446
296.608513983
298.579593994
300.539683971
302.485659772
304.414590121
306.323749864
308.210623333
310.072908026
311.90851538
313.715568889
315.492398728
317.237533958
318.949693776
320.627777687
322.27085452
323.878150299
325.44903558
326.983012398
328.479701356
329.938828913
331.360215099
332.743761437
334.089439172
335.397277616
336.667352847
337.899776796
339.094687185
340.252238488
341.372594462
342.455922394
343.502389564
344.512161856
345.485404909
346.422287367
347.322986434
348.187694881
349.016629464
349.810039652
350.568216414
351.291500066
351.98028682
352.635033568
353.256260524
353.844552036
354.400555216
354.924977271
355.418581178
355.882180551
356.316633297
356.722834603
357.101708894
357.45420122
357.781267894
358.083866949
358.362948453
358.619445199
358.854263984
359.068277624
359.262318012
359.437169952
359.593566092
359.732182487
359.853635089
359.958476656
360.047194373
360.120207878
360.177867632
360.22045288
360.248110005
360.261537978
254.092391024
254.333178503
254.81833804
255.540289461
256.474303057
257.593847813
258.871951696
260.283125701
261.80463539
263.417134187
265.104754475
266.854813651
268.657307788
270.504339499
272.389578255
274.307805117
276.254558788
278.22587757
280.21811976
282.227840416
284.251703066
286.286409861
288.328641915
290.375012111
292.422041357
294.46617271
296.50382083
298.53144655
300.545631929
302.543146695
304.520986433
306.476379524
308.406786953
310.309901642
312.183649523
314.026187781
315.835897032
317.611370775
319.351404884
321.054986744
322.721282499
324.349623049
325.939489306
327.490497313
329.002383558
330.47499105
331.908255843
333.302194092
334.656889149
335.972478817
337.24914253
338.487089008
339.686544462
340.847742168
341.970913556
343.056281646
344.104056869
345.114435891
346.087603293
347.0237363
347.923012132
348.785617575
349.61176014
350.401679785
351.155660609
351.874041215
352.557223445
353.205678427
353.819950167
354.400656223
354.94848621
355.46419822
355.948613947
356.402612617
356.827124035
357.223120618
357.591608484
357.933617554
358.250190867
358.542373452
358.811201097
359.057689646
359.282825
359.487554339
359.672778428
359.839345245
359.988044619
360.119603945
360.234684609
360.3338792
360.417709178
360.486623057
360.540995082
360.581123356
360.607171547
360.61981449
251.446886204
251.727317759
252.289438226
253.119883194
254.184827929
255.448921694
256.877399605
258.438569476
260.105298406
261.855574456
263.672315555
265.5426859
267.457197262
269.408811595
271.392168423
273.402984869
275.437627984
277.492832787
279.5655291
281.652738033
283.751503076
285.85882918
287.971616847
290.086597448
292.20029391
294.309044213
296.409081741
298.49665754
300.568161933
302.62022148
304.649744288
306.653911887
308.630162232
310.576183299
312.489917875
314.36956408
316.213563095
318.020583323
319.789508506
321.519426501
323.209614745
324.859523562
326.468759099
328.03706592
329.564310448
331.050465636
332.495596674
333.899847164
335.26342542
336.586590371
337.869637201
339.112882962
340.316652812
341.481267475
342.607032682
343.694231138
344.743117707
345.753918021
346.726831051
347.662035253
348.559698504
349.419990628
350.243098338
351.029240694
351.778684626
352.49175862
353.168863984
353.810482767
354.417181807
354.989613545
355.528513372
356.034695247
356.509045495
356.952515985
357.366116302
357.750905036
358.107979782
358.438465966
358.743504352
359.024238044
359.281799219
359.517296577
359.731803983
359.926350512
360.10191232
360.259405813
360.399682449
360.523524429
360.631641512
360.724668347
360.803162506
360.867602964
360.918388771
360.955837513
360.980131505
360.991918732
248.497551806
248.830913487
249.494281799
250.464844154
251.695398721
253.138351033
254.748654945
256.48690699
258.320974253
260.226313944
262.185254532
264.185660059
266.219429011
268.281145343
270.367019265
272.47413826
274.599988528
276.742184251
278.898338398
281.066013112
283.242695735
285.42575874
287.612381998
289.799448412
291.983460129
294.160573596
296.326726518
298.477842207
300.610030212
302.719731131
304.803761121
306.859269025
308.88367602
310.874663018
312.830190603
314.74850873
316.628133582
318.46782089
320.266554074
322.023535952
323.738171555
325.410047704
327.038912904
328.624656787
330.167291006
331.666932939
333.123790751
334.53814935
335.910356031
337.240805209
338.529922009
339.778145496
340.985912083
342.153640436
343.281718386
344.370493163
345.420265235
346.431286804
347.403764918
348.337869703
349.233747092
350.091535537
350.911385514
351.693480163
352.438055704
353.145419447
353.815964516
354.450179582
355.0486538
355.612076592
356.141233745
356.637000898
357.100335984
357.532271255
357.933904872
358.306391513
358.650931482
358.968757929
359.261122335
359.529278877
359.774468516
359.997904155