/*--------------------------------*- C++ -*----------------------------------*\
| =========                 |                                                 |
| \\      /  F ield         | OpenFOAM: The Open Source CFD Toolbox           |
|  \\    /   O peration     | Version:  v1906                                 |
|   \\  /    A nd           | Web:      www.OpenFOAM.com                      |
|    \\/     M anipulation  |                                                 |
\*---------------------------------------------------------------------------*/
FoamFile
{
    version     2.0;
    format      ascii;
    class       volScalarField;
    location    "671";
    object      p;
}
// * * * * * * * * * * * * * * * * * * * * * * * * * * * * * * * * * * * * * //

dimensions      [0 2 -2 0 0 0 0];


internalField   nonuniform List<scalar> 
9216
(
273.747188502
273.826945203
273.991979746
274.243696124
274.580675255
275.001329076
275.503691166
276.085449958
276.743995323
277.476449992
278.279716627
279.150506728
280.085387532
281.080805942
282.133132662
283.238679054
284.393737121
285.594588516
286.837540193
288.118925887
289.435138086
290.782622902
292.157909371
293.557598867
294.978392767
296.417077478
297.870551309
299.335805982
300.809953307
302.290203821
303.773893662
305.25846027
306.741469561
308.220590524
309.693622183
311.158465526
312.613151032
314.055809106
315.484697645
316.898171007
318.294707615
319.672877705
321.03137091
322.368963073
323.68454377
324.977082478
326.245655978
327.489414184
328.707607403
329.899552107
331.064657982
332.202393933
333.312314882
334.394028232
335.447220329
336.471623618
337.467042668
338.433322203
339.370372549
340.278138693
341.156625019
342.005865493
342.825947528
343.616983378
344.379132971
345.112576583
345.817536462
346.49425084
347.142994225
347.764052791
348.357743209
348.924389489
349.464340266
349.977947153
350.465580421
350.927608939
351.364414236
351.776372094
352.163864981
352.527265393
352.86694667
353.183268159
353.476584451
353.747232442
353.99553903
354.221810178
354.426337154
354.609387761
354.771211431
354.912033245
355.0320594
355.131477316
355.210470545
355.269260936
355.308620082
355.325086537
273.667483458
273.747602634
273.912980997
274.165699541
274.504114293
274.926563088
275.431033991
276.015179108
276.676351237
277.411638951
278.217908652
279.091839795
280.029966085
281.028706696
282.084403376
283.193345367
284.351800984
285.556035546
286.802337341
288.087028973
289.406488474
290.757155078
292.135546594
293.538260781
294.961990098
296.403519755
297.859740737
299.32764536
300.804339202
302.287034712
303.773062347
305.259862903
306.744998145
308.226141092
309.701086456
311.167740191
312.624129226
314.068389786
315.498776747
316.913650998
318.311488388
319.690866265
321.050472064
322.389089189
323.705605305
324.998997752
326.268341599
327.51279479
328.731606029
329.924099841
331.08968435
332.227836428
333.338109411
334.420118485
335.473548353
336.498138993
337.493693272
338.460063147
339.3971572
340.304927348
341.183376223
342.032544426
342.852517669
343.643414566
344.405393461
345.138640742
345.843377248
346.519847106
347.168323638
347.789098704
348.38248805
348.948821165
349.488446031
350.001719514
350.489011497
350.950695853
351.387153964
351.798766318
352.18591545
352.548978214
352.888328184
353.204328668
353.497334606
353.767686391
354.015711316
354.241718271
354.445998789
354.628822696
354.790438808
354.931071481
355.050920564
355.150157116
355.228916895
355.287271707
355.325114884
355.341555667
273.501706209
273.582973771
273.74988488
274.004908424
274.346368241
274.77255763
275.281403038
275.870489149
276.537096799
277.278242365
278.090719576
278.971138863
279.915967293
280.921563682
281.98421327
283.100156311
284.265616151
285.47682077
286.730024396
288.021522638
289.347668624
290.704882915
292.089665458
293.498601594
294.928371034
296.375751079
297.837623588
299.310976224
300.792908053
302.280629334
303.771466111
305.262858896
306.752366488
308.23766347
309.716543325
311.186915134
312.646805924
314.094356472
315.527823008
316.945572236
318.346082449
319.727937874
321.089829276
322.430547768
323.748985012
325.044126631
326.315052129
327.560928054
328.781007759
329.974624466
331.14119096
332.280192697
333.391187528
334.473798956
335.527715944
336.552686414
337.548517183
338.515067737
339.452250299
340.360023909
341.238394582
342.087409686
342.907158145
343.697765067
344.459391939
345.192231456
345.896507632
346.572470796
347.220397552
347.840585912
348.433355059
348.9990406
349.53799412
350.050578552
350.537167522
350.998140868
351.433883793
351.844782574
352.231223566
352.593589143
352.932256602
353.247594398
353.53996099
353.809701427
354.057146189
354.282608166
354.486381526
354.668739103
354.829931238
354.970183365
355.08969426
355.188632459
355.267131074
355.325273451
355.363010572
355.380863851
273.246829199
273.329383802
273.498692395
273.757320483
274.103530608
274.535540458
275.051182499
275.647936616
276.322972205
277.073192218
277.895277694
278.785730724
279.740915762
280.757097254
281.830474333
282.957210929
284.133462746
285.355399659
286.619225488
287.921193691
289.257621274
290.6248993
292.019502485
293.437996025
294.877042246
296.33340495
297.803954143
299.285668721
300.7756399
302.271072729
303.769288549
305.267725481
306.763940124
308.255607301
309.740520826
311.216592343
312.681851387
314.134443427
315.572629194
316.99478198
318.399386305
319.785034578
321.150425201
322.494358712
323.81573546
325.11355136
326.386895275
327.634944539
328.856962177
330.052292334
331.220357459
332.360653773
333.472748521
334.556275576
335.610932844
336.636478083
337.632726501
338.599546827
339.536859121
340.444631101
341.322876135
342.171649799
342.991048013
343.781203766
344.542285336
345.274493122
345.978057874
346.65323758
347.300315645
347.919597787
348.511410123
349.076096047
349.614014218
350.125535416
350.611040432
351.070916934
351.505557288
351.91535547
352.300704862
352.661995267
352.999610727
353.313926693
353.605307929
353.874105884
354.120656721
354.345278943
354.548271564
354.729911981
354.890454243
355.030126995
355.149131506
355.247639251
355.325789014
355.383681906
355.421306274
355.439436959
272.901771411
272.985974923
273.15857304
273.422155051
273.774890053
274.214884971
274.739840167
275.347088966
276.033645749
276.796255801
277.631444511
278.535564539
279.504839978
280.535406362
281.623346382
282.764720782
283.955594939
285.19206098
286.470256292
287.786378436
289.13669745
290.517565513
291.925424949
293.356814417
294.808374176
296.276850117
297.759097364
299.252082971
300.752888452
302.258711556
303.766867993
305.274792274
306.780038789
308.280282183
309.773317357
311.257058875
312.729540346
314.188913028
315.633444443
317.06151623
318.471622063
319.862364849
321.232454064
322.580702428
323.906022779
325.207424381
326.484009493
327.734969446
328.959581067
330.15720267
331.327270469
332.469294616
333.582855718
334.667601034
335.723241175
336.74954654
337.746344259
338.713514885
339.650989607
340.558747197
341.436811459
342.285248401
343.104163862
343.893700842
344.654037235
345.385383248
346.08797916
346.762092751
347.40801703
348.026067622
348.616580414
349.179908877
349.716421613
350.226499612
350.710533718
351.168921838
351.60206636
352.010371368
352.394240063
352.754072026
353.090260708
353.403190805
353.693235864
353.960755827
354.206094805
354.42957883
354.631513823
354.812183562
354.971847825
355.110740536
355.229068002
355.327007246
355.404704776
355.462274939
355.49972258
355.517873638
272.464750165
272.551045345
272.727879283
272.997848298
273.358992411
273.809267641
274.346197727
274.966921608
275.668249425
276.446719806
277.298655438
278.220215508
279.207443718
280.256310987
281.362752536
282.522699305
283.732104053
284.986962585
286.283330769
287.617337923
288.9851973
290.383214178
291.807792185
293.255438197
294.72276629
296.206500894
297.703479493
299.210654841
300.725096928
302.243994574
303.764656811
305.284513683
306.801117135
308.312141565
309.8153835
311.30876113
312.790313474
314.258199053
315.71069426
317.146191245
318.563195561
319.960323366
321.336298456
322.689948925
324.020203731
325.326088975
326.606724163
327.861318269
329.08916585
330.28964305
331.462203724
332.606375514
333.721756112
334.808009525
335.864862573
336.892101414
337.889568332
338.857158571
339.794817422
340.702537344
341.58035533
342.42835027
343.246640517
344.035381423
344.794763019
345.525007624
346.226367551
346.899122711
347.543578266
348.160062159
348.74892267
349.310525842
349.84525292
350.353497678
350.835663754
351.292161907
351.723407301
352.129816732
352.511805916
352.869786756
353.204164698
353.515336101
353.80368572
354.069584239
354.313385935
354.535426424
354.736020539
354.915460319
355.074013135
355.211919935
355.329393666
355.42661812
355.503747077
355.560903134
355.598098543
355.61616317
271.933488263
272.022374294
272.204472649
272.482379918
272.853967172
273.316993174
273.868752843
274.506135125
275.225689365
276.023692194
276.896211323
277.839164529
278.848372411
279.919604119
281.048615877
282.231182564
283.463122948
284.740319333
286.058732538
287.414413023
288.80350906
290.222272623
291.667063673
293.13435332
294.620726267
296.122882797
297.637640527
299.161935975
300.692826024
302.227489234
303.763226961
305.297464101
306.827749919
308.351758623
309.867288881
311.372263372
312.864727851
314.342849767
315.804916475
317.249333034
318.674619641
320.079408712
321.462441663
322.822565433
324.158728781
325.469978415
326.755454991
328.014389029
329.246096787
330.449976129
331.625502446
332.772224627
333.889761157
334.97779632
336.036076577
337.06440709
338.062648438
339.030713496
339.968564503
340.876210278
341.753703606
342.601138727
343.418648952
344.206404334
344.964609402
345.693500912
346.393345588
347.064437837
347.707097424
348.321667073
348.908510011
349.468007426
350.000555865
350.506564548
350.986452646
351.44064649
351.869576774
352.273675723
352.653374286
353.009099341
353.341270943
353.650299636
353.936583835
354.200507302
354.44243673
354.662719429
354.861681161
355.039624097
355.196824933
355.333533206
355.449969804
355.546325822
355.622761942
355.679406997
355.716277186
355.734195869
271.305163112
271.397197681
271.585696197
271.873248059
272.257508028
272.735982171
273.305674216
273.963157282
274.704653877
275.526115152
276.423295028
277.391817186
278.427233348
279.525072243
280.680879339
281.890248019
283.148843186
284.452418482
285.796828347
287.178036074
288.592118924
290.035271189
291.50380594
292.994156032
294.502874783
296.02663659
297.562237644
299.106596793
300.656756535
302.209884072
303.763272126
305.314339901
306.860633819
308.399827954
309.929723672
311.4482491
312.953458124
314.443528915
315.916762011
317.371577943
318.806514485
320.220223512
321.611467561
322.979116093
324.322141555
325.63961524
326.930703052
328.19466116
329.430831657
330.638638202
331.817581741
332.967236311
334.087244976
335.177315917
336.237218715
337.266780813
338.265884209
339.234462337
340.172497173
341.080016516
341.957091454
342.803833968
343.620394658
344.406960543
345.163752919
345.891025223
346.589060887
347.258171137
347.898692742
348.510985659
349.095430603
349.652426508
350.182387897
350.685742165
351.16292679
351.614386476
352.040570265
352.441928619
352.818910512
353.171960533
353.50151604
353.808004366
354.091840111
354.353422527
354.593133019
354.811332764
355.00836048
355.184530344
355.34013009
355.475419295
355.590627894
355.685955139
355.761568645
355.81760255
355.854077097
355.871807363
270.576344414
270.672155548
270.868326955
271.167428879
271.566841375
272.06374965
272.654790181
273.336141
274.103619544
274.952777709
275.878988848
276.877524282
277.943617793
279.072517738
280.259527394
281.500034749
282.789533338
284.123635818
285.498081966
286.908742604
288.351620777
289.822851232
291.318699076
292.835558197
294.369949902
295.918521994
297.478048407
299.04542937
300.617691997
302.19199117
303.765610183
305.335961951
306.900589818
308.457167901
310.003500831
311.537523206
313.057298531
314.56101764
316.046996616
317.513674236
318.959608978
320.383475634
321.784061576
323.160262744
324.511079385
325.835611632
327.133054949
328.402695516
329.64390559
330.856138909
332.038926161
333.191870587
334.314643734
335.406981402
336.468679812
337.499592011
338.499624519
339.468734238
340.406925592
341.314247904
342.190792966
343.036692782
343.85211744
344.637273081
345.392399901
346.117770177
346.813686241
347.480478407
348.118502786
348.728139009
349.30978781
349.863868494
350.390816274
350.891079508
351.365116825
351.813394188
352.236381894
352.634551551
353.008373043
353.358311518
353.684824417
353.988358568
354.269347363
354.52820804
354.765339086
354.981117772
355.175897847
355.350007396
355.503746882
355.637387414
355.751169221
355.845300404
355.919956058
355.975276223
356.011285436
356.028790241
269.742918483
269.843222506
270.048514105
270.361325264
270.778687563
271.297379745
271.913576665
272.622964411
273.420861492
274.302334001
275.262298393
276.295609111
277.39712966
278.561787355
279.784613093
281.060768235
282.385560989
283.754454699
285.163070265
286.607184648
288.082727012
289.585773805
291.112543666
292.659392857
294.222811592
295.799421478
297.385974079
298.979350473
300.57656159
302.174749091
303.771186002
305.363278286
306.948565963
308.524723306
310.089558796
311.641014588
313.177165398
314.696216809
316.196503016
317.676484034
319.134742439
320.569979661
321.981011932
323.366765908
324.726274069
326.058669921
327.36318311
328.639134443
329.885930946
331.103060943
332.290089265
333.446652592
334.572455003
335.667263741
336.730905268
337.763261572
338.764266801
339.733904177
340.672203211
341.579237177
342.455120837
343.300008349
344.114091342
344.897597067
345.650786617
346.373953126
347.067419917
347.731538563
348.366686811
348.97326637
349.551700528
350.102431614
350.625918299
351.122632758
351.593057712
352.03768337
352.457004305
352.851516294
353.221713137
353.568083506
353.891107828
354.191255239
354.468980637
354.724721837
354.958896861
355.171901377
355.364106298
355.535855567
355.687464139
355.819216159
355.931363364
356.024123905
356.097681086
356.152181128
356.187654294
356.2048982
268.799993077
268.905618828
269.121700811
269.4507033
269.889214494
270.433497309
271.079146147
271.821235277
272.654470546
273.573329973
274.572185647
275.645403891
276.787422815
277.992808397
279.256291712
280.572790562
281.937419044
283.345488337
284.792501641
286.274145632
287.786280351
289.324928899
290.88626797
292.466619844
294.062446229
295.670344029
297.287042952
298.909404671
300.53442317
302.159225875
303.781074536
305.397367326
307.005640558
308.603568688
310.188964608
311.759779164
313.314099991
314.85014969
316.366283354
317.860985512
319.332866524
320.780658526
322.203210966
323.599485825
324.968552587
326.309583037
327.621845941
328.904701696
330.157596983
331.380059517
332.571692905
333.73217172
334.861236784
335.958690748
337.024393979
338.058260791
339.060256036
340.030392053
340.968725957
341.875357273
342.750425821
343.594109866
344.406624412
345.188219632
345.939179315
346.659819312
347.350485887
348.011553944
348.643425084
349.246525473
349.821303488
350.368227176
350.887781495
351.380465392
351.846788725
352.287269066
352.702428421
353.0927899
353.458874373
353.801197139
354.120264647
354.416571292
354.690596309
354.942800793
355.173624856
355.383484953
355.572771376
355.741845947
355.891039907
356.020652052
356.130947061
356.22215407
356.294465591
356.348035248
356.382899492
356.399846374
267.741775981
267.853696957
268.082525423
268.430613622
268.893982238
269.468236597
270.148239036
270.928302072
271.802379971
272.764241344
273.807613778
274.926297568
276.114248685
277.365633784
278.674861674
280.036596302
281.445756218
282.897504995
284.387236263
285.910556256
287.46326599
289.041344587
290.64093474
292.258330925
293.889970622
295.532428518
297.182413411
298.836767348
300.492466376
302.146622309
303.796484247
305.439441425
307.073025812
308.694911906
310.302917523
311.895003371
313.469271849
315.023965047
316.557462026
318.068275417
319.555047431
321.016545357
322.451656635
323.85938359
325.238837911
326.589234957
327.909887974
329.200202265
330.459669429
331.687861677
332.884426335
334.049080556
335.18160633
336.281845815
337.349697052
338.385110089
339.388083537
340.358661554
341.296931261
342.203020528
343.077096122
343.919362109
344.730058477
345.509459865
346.257874341
346.975642121
347.663134191
348.320750734
348.948919344
349.548092983
350.11874767
350.661379907
351.176503863
351.664648322
352.126353468
352.562167504
352.972643191
353.358334311
353.719792117
354.057561813
354.372179067
354.664166628
354.934031045
355.182259524
355.409316938
355.615643025
355.801649757
355.967718937
356.114200001
356.241408039
356.349622047
356.439083598
356.509995392
356.562518905
356.596698277
356.613311071
266.5614191
266.680796334
266.924696777
267.295294513
267.787877867
268.397208262
269.117220337
269.941275621
270.862406177
271.873527102
272.967607558
274.137798118
275.377516564
276.680497605
278.040813696
279.452874466
280.911411714
282.411455746
283.948307644
285.517510712
287.114823438
288.736195399
290.37774706
292.035753912
293.7066351
295.386946319
297.073376496
298.762747457
300.452015728
302.138275392
303.818760847
305.490850878
307.152072
308.800098386
310.432753193
312.048008222
313.643982628
315.218940726
316.771288934
318.299571975
319.802468402
321.278785581
322.727454196
324.147522428
325.538149849
326.898601181
328.228239942
329.52652212
330.79298988
332.027265434
333.229045084
334.39809356
335.534238667
336.637366354
337.707416205
338.744377447
339.748285462
340.719218832
341.657296886
342.56267773
343.435556668
344.27616498
345.084768914
345.861668826
346.607198341
347.321723451
348.005641433
348.659379544
349.283393413
349.878165108
350.444200855
350.982028431
351.492194238
351.975260121
352.431799941
352.862395999
353.267635325
353.648105911
354.00439292
354.337074919
354.646720182
354.933883084
355.199100622
355.44288909
355.66574093
355.86812177
356.050467675
356.213182623
356.356636199
356.481161561
356.587053623
356.674567459
356.74391712
356.795273314
356.828688212
356.844927834
265.250816549
265.379056792
265.640836315
266.038052811
266.565039857
267.215466997
267.982086059
268.857067011
269.83230946
270.89970432
272.051334342
273.279613283
274.577369382
275.937882904
277.35488898
278.822556678
280.335453708
281.88850417
283.47694466
285.096282331
286.742257063
288.410809045
290.098052383
291.800255051
293.513825105
295.235302784
296.961357685
298.688789887
300.414533697
302.135661872
303.849391343
305.553088451
307.244272246
308.920615985
310.579948505
312.220253982
313.839670538
315.436487752
317.009143206
318.556218167
320.076432552
321.568639264
323.031818065
324.465069063
325.867605964
327.238749167
328.577918806
329.884627808
331.158475045
332.39913865
333.606369571
334.779985435
335.919864804
337.025941893
338.098201832
339.136676504
340.141441029
341.112610864
342.050339545
342.954816986
343.826268297
344.664952984
345.471164447
346.245229612
346.987508598
347.69839425
348.378311464
349.027716184
349.647094011
350.236958389
350.797848357
351.330325873
351.834972759
352.312387313
352.763180652
353.187972862
353.587389002
353.962055052
354.312593835
354.639620979
354.943740957
355.225543237
355.485598583
355.724455524
355.942637015
356.140637323
356.318919127
356.477910871
356.618004371
356.73955265
356.842868042
356.92822074
356.995837216
357.045897849
357.078464383
357.09429006
263.800340679
263.939176453
264.22227726
264.651117733
265.218772144
265.91748391
266.738486305
267.672450135
268.709883337
269.841452029
271.058211985
272.35175443
273.714278017
275.13860331
276.618146994
278.146871263
279.719220868
281.330056838
282.974592812
284.648337374
286.347044153
288.066670319
289.803343755
291.553338832
293.313060647
295.079037089
296.847917644
298.616477247
300.381623271
302.140402243
303.890009217
305.62779472
307.351268091
309.058100663
310.746127172
312.413345572
314.057915425
315.678155028
317.272537418
318.839685446
320.378366021
321.887483718
323.36607385
324.8132952
326.228422489
327.610838749
328.960027651
330.2755659
331.55711574
332.804417662
334.017283375
335.195589135
336.339269518
337.448311747
338.522750633
339.56266425
340.568170338
341.539423516
342.476613226
343.379962417
344.249726809
345.086194684
345.889686974
346.660557556
347.399193513
348.106015256
348.781476309
349.426062702
350.04029182
350.624710734
351.179893955
351.706440667
352.204971478
352.676124783
353.12055279
353.538917342
353.931885573
354.30012551
354.644301664
354.965070674
355.26307705
355.538949049
355.793294723
356.026698159
356.239715945
356.432873867
356.606663867
356.761541259
356.897922215
357.016181552
357.116650768
357.199616312
357.265318326
357.313948334
357.34557791
357.360946217
262.198492724
262.350094855
262.658807506
263.125461944
263.741449216
264.497130765
265.381775748
266.384161099
267.493084405
268.697754534
269.988051736
271.354669093
272.789157382
274.283899887
275.832042744
277.427402298
279.064365367
280.737792903
282.44293292
284.175345283
285.93083887
287.705420769
289.495256959
291.296644195
293.105992834
294.919820028
296.734751768
298.547531379
300.355031535
302.154265341
303.942399511
305.716764117
307.474855959
309.214343063
310.933066236
312.629038797
314.300444616
315.94563467
317.563122379
319.151577893
320.709821506
322.236816347
323.731660554
325.193579076
326.621915278
328.016122471
329.375755467
330.700462222
331.989975635
333.244105562
334.462731128
335.645793416
336.793288686
337.905262187
338.981802755
340.023038216
341.029131753
342.000279185
342.936707227
343.838672596
344.7064619
345.540392111
346.34081147
347.108100552
347.842673339
348.544978022
349.215497406
349.854748739
350.46328288
351.041682754
351.590561102
352.110557558
352.602335145
353.06657629
353.503978464
353.91524958
354.301103234
354.662253892
354.999412098
355.313279747
355.6045455
355.873880347
356.121933376
356.349327764
356.556657021
356.744481494
356.913325162
357.063672714
357.195966943
357.310606403
357.407943366
357.488282275
357.551878066
357.598933815
357.629532564
357.64439791
260.431434153
260.598572782
260.938338314
261.450583402
262.124416448
262.94768806
263.907108047
264.98905235
266.180219338
267.46809781
268.841246092
270.289408411
271.803507277
273.375553673
274.998512415
276.6661515
278.372894951
280.113690229
281.883894924
283.679183175
285.495470143
287.328852308
289.175562035
291.031935847
292.894396579
294.759449173
296.623688318
298.483814415
300.336653205
302.179173511
304.008505309
305.821952216
307.616994836
309.391296264
311.142703624
312.869247544
314.569139598
316.240768092
317.88269251
319.493636874
321.072482129
322.618257772
324.130132928
325.607407091
327.04950072
328.455945845
329.82637676
331.160520863
332.458189677
333.719270098
334.943715936
336.131539882
337.282806008
338.397623008
339.476138284
340.51853308
341.525018708
342.495833976
343.431243769
344.331538738
345.197035928
346.028080174
346.825045978
347.588339621
348.318401194
349.015706314
349.680767249
350.314133315
350.91639038
351.48815947
352.030094452
352.542878893
353.027222188
353.483855124
353.913525016
354.316990581
354.695016669
355.048368966
355.377808752
355.684087764
355.967943232
356.230093104
356.471231503
356.692024447
356.893105852
357.075073826
357.2384873
357.383862964
357.511672532
357.622340364
357.716241371
357.793699175
357.854984814
357.90031447
357.929782863
357.944096493
258.482347677
258.668628526
259.04647438
259.614241913
260.357894983
261.26189705
262.309599613
263.484327524
264.770211994
266.152736838
267.619013527
269.157835944
270.759580021
272.416012865
274.120064441
275.865599252
277.647210196
279.460044587
281.299663654
283.16193196
285.04293111
286.938892683
288.846147255
290.761089168
292.680158415
294.599840921
296.51668513
298.427329846
300.328534737
302.217209158
304.090436041
305.945484686
307.779815478
309.591084928
311.377146988
313.136052082
314.866043665
316.565552875
318.233191895
319.867746191
321.468165704
323.033555182
324.563163963
326.056375462
327.512696619
328.931747476
330.313250967
331.657022899
332.962962163
334.231041118
335.461296279
336.653819387
337.808749077
338.926263341
340.006573022
341.049916515
342.05655586
343.026774274
343.96087517
344.859182536
345.722042537
346.549826039
347.342931774
348.101789738
348.826864492
349.518657975
350.177711566
350.804607135
351.399966966
351.964452475
352.498761779
353.003626204
353.479805924
353.928084909
354.349265416
354.744162204
355.113596652
355.458390897
355.779362068
356.077316707
356.353045373
356.607317502
356.840876529
357.054435303
357.248671832
357.424225366
357.581692835
357.721625655
357.844526903
357.950848814
358.040990628
358.115296982
358.174056164
358.21749783
358.245730113
358.259440678
256.330550084
256.540769587
256.965952892
257.60214646
258.43091017
259.43208886
260.584601663
261.867894648
263.262982102
264.753056603
266.323713792
267.962883569
269.66057471
271.40853071
273.199870317
275.028758662
276.890131412
278.779477184
280.692672845
282.62586093
284.575357421
286.537580211
288.508993251
290.486066746
292.465258144
294.443018932
296.415825153
298.380223901
300.332880545
302.270624322
304.190478023
306.089668297
307.965631493
309.816016131
311.638683977
313.431708608
315.193370595
316.922150527
318.616721025
320.275937787
321.898829357
323.48458591
325.032547464
326.542191877
328.013122976
329.445059039
330.837821644
332.191324821
333.505564403
334.780607521
336.016582268
337.213667731
338.372084585
339.492086598
340.573953302
341.617984153
342.624494367
343.593812593
344.526280415
345.422253637
346.282105072
347.106228558
347.895043725
348.649001082
349.368586897
350.054327437
350.706792159
351.326595589
351.914397689
352.47090268
352.99685637
353.493042171
353.960276029
354.399400565
354.811278714
355.196787135
355.556809577
355.892230364
356.203928059
356.492769376
356.759603345
357.005255757
357.230523929
357.436171791
357.622925353
357.791468556
357.942439529
358.076427254
358.193968627
358.295545942
358.381584719
358.452451803
358.50845407
358.549836263
358.576720091
358.589772583
253.950234005
254.190930469
254.675909105
255.397596904
256.331279831
257.450445123
258.728139837
260.138891828
261.659978041
263.272054972
264.959248075
266.708857625
268.510853598
270.357305548
272.241845212
274.159213343
276.104907421
278.074924713
280.065583103
282.073397652
284.094991521
286.127024944
288.1661343
290.208883986
292.251742675
294.291098694
296.323311878
298.344789821
300.352063633
302.341853958
304.311108081
306.257004456
308.176952598
310.068592128
311.929794198
313.758660157
315.553514482
317.312895172
319.0355443
320.720397978
322.366574499
323.97336118
325.540200661
327.066677072
328.552502647
329.997505064
331.401615422
332.764856629
334.087331969
335.369213626
336.610731208
337.812160469
338.973812573
340.096024309
341.179149709
342.223553412
343.229606153
344.197682508
345.12816103
346.021426603
346.877874793
347.69791773
348.481990987
349.230560799
349.944130998
350.623249041
351.268510639
351.880562609
352.460103759
353.007883739
353.524699988
354.011393
354.468840286
354.897949412
355.299650543
355.674888827
356.02461688
356.349787528
356.651346851
356.930227563
357.187342702
357.423579652
357.639794501
357.836806792
358.015394677
358.176290525
358.320176995
358.447683564
358.559383529
358.655791396
358.737360689
358.804482336
358.85748294
358.896622626
358.922038493
358.934374893
251.308639543
251.58897861
252.150916876
252.981101576
254.045730014
255.309478353
256.73761087
258.298462442
259.964920217
261.714980823
263.531556698
265.401792469
267.316168524
269.26760696
271.250702431
273.26112526
275.295196013
277.349605018
279.421239628
281.507080299
283.604130337
285.709352901
287.81960285
289.931560094
292.041689787
294.14626799
296.24146669
298.323479009
300.388641948
302.433532886
304.455010721
306.450205479
308.416500321
310.35152537
312.253163018
314.119548968
315.949060729
317.740303264
319.492098331
321.203474257
322.873652102
324.502029933
326.088166734
327.631766247
329.13266179
330.590802519
332.006240708
333.379119634
334.709661491
335.998154955
337.244942348
338.450406741
339.614959465
340.739028649
341.823049365
342.867455932
343.872676818
344.839132452
345.76723604
346.657397313
347.510028827
348.325554285
349.104418116
349.847095497
350.554101905
351.22600145
351.86341328
352.467015642
353.037547304
353.575806352
354.082646497
354.558971274
355.005726618
355.423892421
355.814473628
356.17849135
356.516974316
356.830950795
357.121441004
357.389449957
357.635960676
357.861927758
358.068271315
358.255871325
358.425562467
358.578129465
358.714302974
358.83475599
358.94010077
359.03088627
359.107595978
359.170646051
359.220384119
359.257087313
359.280908214
359.292466372
248.363319739
248.696579848
249.359750154
250.330034229
251.560260656
253.002873334
254.612869551
256.35088783
258.184828114
260.090164146
262.049220407
264.049836915
266.083872366
268.145860695
270.231957155
272.339193651
274.465003245
276.606951246
278.762606551
280.929491284
283.105054687
285.286629764
287.4713515
289.656048648
291.837158074
294.010763068
296.172730609
298.31891894
300.445385023
302.548523258
304.625100332
306.672213638
308.687226247
310.667756173
312.611697485
314.517230248
316.38279819
318.20708437
319.989001142
321.727682664
323.422468214
325.072882589
326.678617091
328.239510169
329.755530041
331.226760154
332.653386205
334.035683989
335.374007075
336.668773381
337.920450748
339.129541911
340.296569705
341.422063325
342.506546492
343.550528228
344.554496918
345.518918036
346.444235799
347.330878601
348.179267849
348.989829419
349.763006797
350.49927471
351.199152117
351.863213465
352.492097357
353.086512035
353.647237408
354.175123597
354.671086282
355.136099322
355.571185398
355.977405516
356.355848211
356.707619073
357.033831009
357.335595323
357.614013533
357.870169739
358.105123373
358.319902296