/*--------------------------------*- C++ -*----------------------------------*\
| =========                 |                                                 |
| \\      /  F ield         | OpenFOAM: The Open Source CFD Toolbox           |
|  \\    /   O peration     | Version:  v1906                                 |
|   \\  /    A nd           | Web:      www.OpenFOAM.com                      |
|    \\/     M anipulation  |                                                 |
\*---------------------------------------------------------------------------*/
FoamFile
{
    version     2.0;
    format      ascii;
    class       volVectorField;
    location    "240";
    object      Ua;
}
// * * * * * * * * * * * * * * * * * * * * * * * * * * * * * * * * * * * * * //

dimensions      [0 1 -1 0 0 0 0];


internalField   nonuniform List<vector> 
9216
(
(-0.00419360446219 0.00418738874956 0)
(-0.00351478369927 0.0110240390864 -4.63461375102e-28)
(-0.00357478598154 0.0187357883898 -2.56637558081e-31)
(-0.00355706621844 0.02614321832 0)
(-0.0034983966235 0.0334725333406 0)
(-0.00341787344818 0.0406409583414 0)
(-0.00331895888326 0.0476085221157 0)
(-0.00320693900184 0.0543404504913 0)
(-0.00308125965658 0.0608086247877 0)
(-0.00294650093583 0.0669874488096 0)
(-0.00280121604355 0.0728565791388 0)
(-0.00265026360243 0.0783978597722 0)
(-0.00249162569404 0.0835979703708 0)
(-0.0023304321435 0.0884456371947 0)
(-0.0021641099157 0.092933917155 0)
(-0.00199796589812 0.0970576541114 0)
(-0.00182888028014 0.100815386612 0)
(-0.00166225294455 0.10420713247 0)
(-0.00149447064159 0.107235911862 0)
(-0.00133097801036 0.109905907545 0)
(-0.00116774350199 0.112223632882 0)
(-0.0010102186256 0.114196522003 0)
(-0.000854052359465 0.115833731589 0)
(-0.000704679640253 0.117145157065 0)
(-0.000557520595828 0.118141890968 0)
(-0.00041795946391 0.118835668107 0)
(-0.000281277268468 0.11923896848 0)
(-0.000152776580951 0.119364844269 0)
(-2.76611756299e-05 0.119226719566 0)
(8.89016362044e-05 0.118838527959 0)
(0.000201709831387 0.118214221114 0)
(0.000305756898679 0.117368258437 0)
(0.00040580446622 0.116314798103 0)
(0.000497053200304 0.115068478018 0)
(0.000584179815193 0.113643364627 0)
(0.00066261719731 0.112053958483 0)
(0.000736922312891 0.110313960978 0)
(0.000802783917098 0.108437473259 0)
(0.000864603767258 0.106437610115 0)
(0.000918336823081 0.104327838542 0)
(0.000968206053642 0.102120495702 0)
(0.00101044110126 0.0998282364582 0)
(0.00104906279364 0.0974624812815 0)
(0.00108057313871 0.0950349251798 0)
(0.00110877832996 0.0925559632444 0)
(0.00113044966842 0.0900362355342 0)
(0.00114916659029 0.0874850494237 0)
(0.00116195836891 0.0849119224893 0)
(0.00117217467344 0.0823250382954 0)
(0.00117709182534 0.0797327693288 0)
(0.00117982681486 0.077142177617 0)
(0.00117788636776 0.0745604899667 0)
(0.00117415931042 0.0719936689125 0)
(0.0011663677776 0.069447829742 0)
(0.00115717675662 0.0669278857099 0)
(0.0011445053242 0.0644388884403 0)
(0.00113080477857 0.0619847630958 0)
(0.00111417522659 0.0595695683432 0)
(0.00109686370432 0.0571963193431 0)
(0.00107713349615 0.0548681570702 0)
(0.00105704087686 0.0525872670793 0)
(0.00103499729419 0.0503559603123 0)
(0.00101288012964 0.0481756810507 0)
(0.000989232804773 0.046047996191 0)
(0.000965767822414 0.0439736944877 0)
(0.000941146971058 0.0419536917947 0)
(0.000916929013515 0.0399882117678 0)
(0.000891879470908 0.0380776105394 0)
(0.000867414498675 0.036221636637 0)
(0.000842390466656 0.0344201876132 0)
(0.000818087426767 0.0326726375791 0)
(0.000793437807625 0.0309785350726 0)
(0.000769589170087 0.0293369945014 0)
(0.000745534408457 0.0277473520945 0)
(0.000722284290776 0.0262086126761 0)
(0.00069887056283 0.024720078376 0)
(0.00067615400577 0.0232808533615 0)
(0.000653174367363 0.0218904690537 0)
(0.000630610040012 0.0205484527453 0)
(0.000607452863763 0.0192549761305 0)
(0.000584123723194 0.0180105258267 0)
(0.00055942555686 0.0168166486592 0)
(0.000533254634197 0.0156758922698 0)
(0.000503581725658 0.0145930940364 0)
(0.000468264800601 0.0135761005614 0)
(0.000417431337781 0.0126567989974 0)
(0.000329939469628 0.0116810670547 0)
(0.000302439352971 0.0109796415746 0)
(0.000376815937252 0.0104999146594 0)
(0.000442089714697 0.00964935897178 0)
(0.000488532707991 0.00874514043267 0)
(0.00054710956265 0.0076922128515 0)
(0.000650611735489 0.00648690625216 0)
(0.000790658746115 0.00510447409623 0)
(0.000988627027613 0.0033287465432 0)
(0.00117855839056 0.00115974003942 0)
(-0.01107714225 0.00354592112725 0)
(-0.0115400261123 0.0116093333196 0)
(-0.0115596564955 0.019805441578 4.76752538634e-28)
(-0.0114166100255 0.0278121984524 0)
(-0.0111918567107 0.0356497437399 0)
(-0.0109045085633 0.0432955753264 0)
(-0.0105612446237 0.0507184202206 0)
(-0.0101724885421 0.0578859575389 0)
(-0.00974059836933 0.0647691455307 0)
(-0.009275512306 0.0713417839959 0)
(-0.0087784313507 0.0775820287127 0)
(-0.00825964822555 0.0834712383409 0)
(-0.00771937040513 0.0889950367102 0)
(-0.00716800966741 0.094142078174 0)
(-0.00660461408653 0.0989048586977 0)
(-0.006039429604 0.10327851957 0)
(-0.00547025740327 0.107261461784 0)
(-0.0049069983668 0.110854260482 0)
(-0.00434625973249 0.114060118834 0)
(-0.00379753664902 0.116883947918 0)
(-0.00325639333519 0.119332689847 0)
(-0.00273192491802 0.121414596087 0)
(-0.00221886182187 0.123139429957 0)
(-0.00172593607002 0.1245179522 0)
(-0.0012472511568 0.125562007066 0)
(-0.000791196205567 0.126284206507 0)
(-0.000351433256637 0.126697891252 0)
(6.39902361924e-05 0.126816997084 0)
(0.000461715963028 0.126655872136 0)
(0.00083407591619 0.126229343953 0)
(0.00118789039184 0.125552394645 0)
(0.00151589048053 0.12464032678 0)
(0.00182498954974 0.123508373668 0)
(0.00210835988219 0.122171972199 0)
(0.00237292177721 0.120646279889 0)
(0.00261230698194 0.118946547741 0)
(0.00283336952857 0.117087566563 0)
(0.0030302114344 0.115084124181 0)
(0.00320955028844 0.112950397131 0)
(0.00336595321502 0.110700473732 0)
(0.00350594431581 0.108347712224 0)
(0.00362454549136 0.1059053141 0)
(0.00372803594118 0.103385661734 0)
(0.00381187093992 0.100800924675 0)
(0.00388204699946 0.0981623937883 0)
(0.0039344293481 0.0954811071909 0)
(0.00397469990922 0.0927671904586 0)
(0.00399910302897 0.090030488251 0)
(0.00401298607702 0.0872799232189 0)
(0.00401294202671 0.0845241234006 0)
(0.00400396890385 0.0817708056201 0)
(0.0039829739289 0.0790273883526 0)
(0.00395460129285 0.0763004077347 0)
(0.00391604093448 0.0735961091706 0)
(0.00387158327764 0.0709198981413 0)
(0.00381866866723 0.0682769036254 0)
(0.0037612423412 0.0656714678948 0)
(0.00369696715096 0.0631076779987 0)
(0.0036294548822 0.060588893996 0)
(0.00355656370553 0.0581182448161 0)
(0.00348158942712 0.0556981963135 0)
(0.00340256262109 0.0533310106869 0)
(0.00332248111974 0.0510183521096 0)
(0.0032395254203 0.0487617091813 0)
(0.00315641537059 0.0465620377509 0)
(0.003071461607 0.0444201484965 0)
(0.00298712289284 0.0423363837508 0)
(0.00290181894609 0.0403109727968 0)
(0.00281776159281 0.0383437413843 0)
(0.00273345811756 0.036434439819 0)
(0.00265087924531 0.0345824819841 0)
(0.00256859266402 0.0327872520469 0)
(0.0024883236128 0.0310478724622 0)
(0.00240866461176 0.0293634978317 0)
(0.00233107218649 0.0277331118337 0)
(0.00225410915396 0.0261558186947 0)
(0.00217891204983 0.0246306746004 0)
(0.00210392677835 0.0231569921378 0)
(0.00202986727911 0.0217342163327 0)
(0.00195490772465 0.0203622577079 0)
(0.00187913285521 0.0190414265443 0)
(0.00180011538422 0.0177728018895 0)
(0.00171677440437 0.0165581858798 0)
(0.00162501929676 0.0154003543304 0)
(0.00152032959767 0.0143018282045 0)
(0.00139155275362 0.0132715381385 0)
(0.00121171700551 0.0122140260925 0)
(0.00107707216545 0.0110296982074 0)
(0.00116989288857 0.0103787144812 0)
(0.0013316279323 0.00958334829647 0)
(0.00149598145093 0.0086968877846 0)
(0.00170138802948 0.00758152358898 0)
(0.00196458188526 0.00629882266053 0)
(0.00251448403281 0.00500801999053 0)
(0.00327265142071 0.00326696611262 0)
(0.00326920141426 0.000964244057265 0)
(-0.0189579910119 0.00367741582236 0)
(-0.0198307748183 0.0118753334384 0)
(-0.0196522981586 0.0200378322622 4.74736486971e-28)
(-0.0193487622294 0.0281325247904 0)
(-0.0189468450505 0.0360605450997 0)
(-0.0184517400929 0.043792208385 0)
(-0.0178696915115 0.0512933293614 0)
(-0.0172107897707 0.0585313652005 0)
(-0.0164826613481 0.0654769466096 0)
(-0.0156963959779 0.0721040695329 0)
(-0.0148595533124 0.078390765746 0)
(-0.0139833329969 0.0843187627822 0)
(-0.0130745498929 0.0898737864869 0)
(-0.0121438674678 0.0950450379736 0)
(-0.0111968585249 0.0998253023837 0)
(-0.0102432118496 0.104210364058 0)
(-0.00928700475269 0.108199010634 0)
(-0.00833675847792 0.111792466334 0)
(-0.00739504253873 0.114994340265 0)
(-0.0064692257615 0.117810126593 0)
(-0.00556052980219 0.120247139686 0)
(-0.00467531209711 0.122314114758 0)
(-0.00381369139827 0.124021137455 0)
(-0.00298119504589 0.125379347504 0)
(-0.00217708386691 0.126400867388 0)
(-0.00140620828278 0.127098602342 0)
(-0.000667168619098 0.127486148159 0)
(3.57635163601e-05 0.127577668725 0)
(0.000704514052854 0.127387776347 0)
(0.00133533961918 0.126931464551 0)
(0.00193059585304 0.126223959824 0)
(0.00248704602015 0.125280708065 0)
(0.00300740634093 0.124117190624 0)
(0.00348892818555 0.122748955112 0)
(0.0039346222781 0.121191404531 0)
(0.00434220216826 0.119459866509 0)
(0.00471490636244 0.117569367904 0)
(0.00505087549405 0.115534741215 0)
(0.00535350683041 0.113370385643 0)
(0.00562132442565 0.111090402713 0)
(0.00585781859392 0.108708355845 0)
(0.00606185013972 0.106237432312 0)
(0.00623694033504 0.103690200758 0)
(0.00638223775727 0.101078791219 0)
(0.00650123969017 0.098414660041 0)
(0.00659333453755 0.0957087849889 0)
(0.00666194615135 0.0929714362962 0)
(0.00670665522333 0.0902123798704 0)
(0.00673077034601 0.0874406618054 0)
(0.00673402009675 0.0846648173397 0)
(0.00671956224564 0.0818926668119 0)
(0.00668723186169 0.0791315246102 0)
(0.00664000870449 0.0763880115641 0)
(0.00657779856663 0.0736682620489 0)
(0.00650338326734 0.0709777498436 0)
(0.00641670885888 0.0683214887403 0)
(0.00632034778614 0.0657038748798 0)
(0.0062142626231 0.063128879695 0)
(0.00610081157503 0.060599905288 0)
(0.00597995529264 0.0581199664595 0)
(0.00585383921628 0.0556915609634 0)
(0.00572240879064 0.0533168405554 0)
(0.00558760161267 0.0509974928696 0)
(0.00544933735163 0.0487348999416 0)
(0.00530935273019 0.0465300330928 0)
(0.0051675324988 0.0443836002571 0)
(0.0050254179337 0.042295951205 0)
(0.00488284786807 0.0402672139819 0)
(0.00474116944865 0.0382972119448 0)
(0.00460015997028 0.036385592265 0)
(0.00446096453135 0.0345317531874 0)
(0.00432327305296 0.0327349670832 0)
(0.0041880056249 0.0309943205118 0)
(0.00405472129443 0.0293088372362 0)
(0.00392406622633 0.0276774325256 0)
(0.00379539353765 0.0260990425905 0)
(0.00366898381495 0.0245726004731 0)
(0.00354385530027 0.0230971828864 0)
(0.00341975869216 0.0216720165032 0)
(0.00329515572912 0.020296650307 0)
(0.00316898313292 0.0189709976487 0)
(0.00303877444504 0.0176955270392 0)
(0.00290219766951 0.0164712681401 0)
(0.00275532684937 0.0152998793148 0)
(0.00259415778427 0.0141825484701 0)
(0.00241361266179 0.0131285444507 0)
(0.00221573237676 0.0120380056132 0)
(0.00205439474328 0.0109246750422 0)
(0.00202578629993 0.0100529896319 0)
(0.00220447594054 0.00925198688174 0)
(0.00256172671685 0.00837850340108 0)
(0.00289474860105 0.00709834676276 0)
(0.00347020579376 0.00586510158781 0)
(0.00422543459457 0.0042727412241 0)
(0.0049331884177 0.00253479672195 0)
(0.00510032134681 0.000807069192983 0)
(-0.0267337565419 0.00376749701896 0)
(-0.0281415549371 0.0121046430899 0)
(-0.0278831248511 0.0203575430862 -4.74675004474e-28)
(-0.0274389515338 0.0285673960846 0)
(-0.0268563671803 0.0366091396194 0)
(-0.0261432700714 0.0444484323976 0)
(-0.0253090680852 0.0520480582257 0)
(-0.0243659406298 0.0593742223846 0)
(-0.0233261252826 0.0663968298892 0)
(-0.0222034863177 0.0730897007499 0)
(-0.0210108076352 0.0794308415919 0)
(-0.0197619592713 0.0854023228596 0)
(-0.0184689677936 0.0909902784202 0)
(-0.0171446436571 0.0961845844719 0)
(-0.0157994337367 0.100978697602 0)
(-0.014444463572 0.105369245788 0)
(-0.0130882007188 0.109355793976 0)
(-0.0117398586923 0.112940425894 0)
(-0.0104058931813 0.116127502125 0)
(-0.00909369192873 0.118923290056 0)
(-0.00780791598353 0.121335754892 0)
(-0.00655439551876 0.123374265348 0)
(-0.00533633152319 0.125049431634 0)
(-0.00415831462705 0.126372891156 0)
(-0.00302240930839 0.127357185638 0)
(-0.00193223127053 0.128015609503 0)
(-0.000888953795461 0.128362105522 0)
(0.00010460831789 0.128411158618 0)
(0.00104802490736 0.128177692305 0)
(0.00193918768609 0.127676971552 0)
(0.00277831102873 0.126924507652 0)
(0.00356393697342 0.125935990026 0)
(0.00429686272916 0.124727166716 0)
(0.00497623363448 0.123313795863 0)
(0.00560336173402 0.12171152375 0)
(0.00617793808639 0.119935855623 0)
(0.00670171499968 0.118002035389 0)
(0.00717486140387 0.115925035331 0)
(0.00759948645849 0.113719440412 0)
(0.00797616132524 0.111399456515 0)
(0.0083072694821 0.108978802253 0)
(0.00859370844993 0.106470733091 0)
(0.00883805485446 0.103887941127 0)
(0.00904145793871 0.101242593172 0)
(0.00920661342866 0.0985462399798 0)
(0.00933485224405 0.0958098655526 0)
(0.00942891966512 0.0930438057871 0)
(0.00949026200737 0.0902578073427 0)
(0.00952161283382 0.0874609566826 0)
(0.0095244740355 0.084661746185 0)
(0.00950151262097 0.0818680129724 0)
(0.00945423273691 0.0790870105749 0)
(0.00938519033857 0.0763253575762 0)
(0.00929584781193 0.0735891124703 0)
(0.00918861447975 0.0708837307211 0)
(0.00906487599139 0.0682141410155 0)
(0.00892687089575 0.0655847099796 0)
(0.00877588336688 0.0629993176889 0)
(0.00861396581071 0.0604613283631 0)
(0.00844228448423 0.0579736637521 0)
(0.00826269929332 0.0555387789918 0)
(0.00807624952108 0.053158732504 0)
(0.00788460113937 0.0508351657378 0)
(0.00768866138468 0.0485693691272 0)
(0.00748990430179 0.0463622653837 0)
(0.00728910163423 0.044214471256 0)
(0.00708753596969 0.0421262838418 0)
(0.0068858372828 0.040097738794 0)
(0.00668509260825 0.0381286000801 0)
(0.00648577692878 0.036218415621 0)
(0.00628876618598 0.0343665109444 0)
(0.00609435288982 0.0325720442421 0)
(0.00590316763271 0.0308340056015 0)
(0.00571526879769 0.029151274347 0)
(0.00553097428508 0.0275226264938 0)
(0.00535001474465 0.0259467992914 0)
(0.00517227355674 0.0244225124732 0)
(0.00499698976591 0.0229485477577 0)
(0.00482339903399 0.0215237928518 0)
(0.00464997123617 0.0201473445339 0)
(0.00447494597788 0.0188185857331 0)
(0.00429560586754 0.0175373292987 0)
(0.00410875896084 0.0163039223645 0)
(0.00391021316683 0.0151194740058 0)
(0.00369577857567 0.0139852977529 0)
(0.00346239644825 0.0129141593254 0)
(0.00322415449425 0.0117980150674 0)
(0.00299619715465 0.0106455590704 0)
(0.00304770447565 0.00995066221224 0)
(0.00322255744266 0.00880361739797 0)
(0.00360489200047 0.00764160281747 0)
(0.00435417738838 0.00667157096582 0)
(0.00494584926884 0.00501334745287 0)
(0.00575249878746 0.00346822843886 0)
(0.00644834313065 0.00203561708733 0)
(0.00660878780751 0.000664742667355 0)
(-0.0347132606361 0.00385427475877 0)
(-0.036581825502 0.0123804854466 0)
(-0.0362461777946 0.0207914088776 0)
(-0.0356601107765 0.0291622099959 0)
(-0.0348907604139 0.037358086054 0)
(-0.0339505012851 0.0453417179997 0)
(-0.0328527487253 0.0530732552867 0)
(-0.0316132359398 0.0605172813787 0)
(-0.0302487101271 0.0676427387163 0)
(-0.0287769438395 0.0744230752388 0)
(-0.027215481053 0.0808363150756 0)
(-0.0255819613613 0.0868649417826 0)
(-0.0238929320331 0.0924957393339 0)
(-0.022164444134 0.0977194877077 0)
(-0.0204109241408 0.102530656053 0)
(-0.0186460181967 0.106927007717 0)
(-0.0168815168031 0.110909241984 0)
(-0.0151284088789 0.114480595056 0)
(-0.0133958372565 0.117646501863 0)
(-0.0116923072036 0.120414251627 0)
(-0.0100246399597 0.122792716638 0)
(-0.00839927195956 0.124792092767 0)
(-0.0068211716254 0.126423705762 0)
(-0.00529516992945 0.127699832556 0)
(-0.00382481971305 0.128633571252 0)
(-0.00241371837738 0.129238719017 0)
(-0.00106431172872 0.129529673282 0)
(0.000220805842068 0.129521340219 0)
(0.00144012608452 0.129229042543 0)
(0.00259193942965 0.128668417031 0)
(0.00367557293668 0.127855342012 0)
(0.00469013479926 0.126805846932 0)
(0.00563572685952 0.125536017343 0)
(0.00651221166948 0.124061916352 0)
(0.00732039024749 0.122399493572 0)
(0.00806080032881 0.120564517518 0)
(0.00873485012376 0.118572493791 0)
(0.00934365701898 0.116438612328 0)
(0.00988913253645 0.1141776754 0)
(0.0103728705696 0.111804059401 0)
(0.0107971799622 0.109331654907 0)
(0.0111640282744 0.106773842853 0)
(0.0114760191977 0.104143444356 0)
(0.0117353959622 0.101452709028 0)
(0.0119449613085 0.0987132755894 0)
(0.012107142165 0.0959361717908 0)
(0.0122248512414 0.0931317839082 0)
(0.0123006139895 0.0903098665209 0)
(0.0123373720608 0.0874795218829 0)
(0.0123376721738 0.0846492190302 0)
(0.0123044129771 0.0818267810808 0)
(0.0122400951513 0.0790194116775 0)
(0.0121475139136 0.0762336903499 0)
(0.0120290684255 0.0734756051075 0)
(0.0118874027304 0.0707505533938 0)
(0.0117247721507 0.0680633784503 0)
(0.0115436355174 0.0654183752825 0)
(0.0113460751261 0.0628193293632 0)
(0.011134343179 0.0602695251556 0)
(0.0109103316293 0.0577717851023 0)
(0.010676075554 0.0553284802091 0)
(0.0104332685151 0.052941568399 0)
(0.010183725495 0.0506126054303 0)
(0.00992893950154 0.0483427814792 0)
(0.0096705064177 0.0461329324934 0)
(0.00940971827582 0.0439835749856 0)
(0.00914795213132 0.0418949170358 0)
(0.00888629568235 0.0398668911438 0)
(0.00862590170877 0.0378991657147 0)
(0.00836764143191 0.0359911768095 0)
(0.00811242525426 0.0341421402118 0)
(0.00786087909849 0.0323510829102 0)
(0.0076136307239 0.0306168573237 0)
(0.0073710030978 0.0289381744828 0)
(0.00713326325336 0.0273136218942 0)
(0.00690032471672 0.0257417012029 0)
(0.00667195195893 0.0242208538183 0)
(0.00644745962556 0.0227495086943 0)
(0.00622585990248 0.0213261233319 0)
(0.00600554081946 0.0199492506768 0)
(0.00578433926157 0.018617616791 0)
(0.0055591825813 0.0173302587712 0)
(0.00532608768838 0.0160867315685 0)
(0.00507980133928 0.0148876917386 0)
(0.00481385747511 0.0137353463409 0)
(0.0045207304892 0.0126536538864 0)
(0.00420322361657 0.0114524964881 0)
(0.00412620433314 0.0106508089734 0)
(0.0041175994669 0.00938192869257 0)
(0.00436630945123 0.00822741675645 0)
(0.00481776936172 0.00698282183184 0)
(0.00555015122667 0.00568743516344 0)
(0.00665219704835 0.00448522125641 0)
(0.00714487213443 0.00292041310917 0)
(0.00759732715373 0.00168918361894 0)
(0.00773378934399 0.000556844958527 0)
(-0.0428965287096 0.00395530805894 0)
(-0.0452159879047 0.012719909331 0)
(-0.044797785765 0.0213441390272 0)
(-0.044062481072 0.0299247574361 0)
(-0.0430958527167 0.0383187841306 0)
(-0.0419151310356 0.0464864255374 0)
(-0.0405383158244 0.0543853114448 0)
(-0.0389856730005 0.0619782602967 0)
(-0.0372788575042 0.0692331355059 0)
(-0.0354403618659 0.0761229596344 0)
(-0.0334926463293 0.0826258714395 0)
(-0.0314577980385 0.0887249373744 0)
(-0.0293568321335 0.0944078790836 0)
(-0.0272095970913 0.0996666930394 0)
(-0.0250342572194 0.104497240269 0)
(-0.0228474303485 0.108898784486 0)
(-0.0206638291429 0.112873547671 0)
(-0.0184965910217 0.116426261218 0)
(-0.0163570344822 0.119563769378 0)
(-0.014255119554 0.122294661267 0)
(-0.0121992589863 0.124628971046 0)
(-0.0101968377964 0.126577920423 0)
(-0.00825401706284 0.128153725228 0)
(-0.00637624618827 0.129369438614 0)
(-0.00456801458152 0.130238836025 0)
(-0.00283332046821 0.130776319042 0)
(-0.00117536173852 0.130996833503 0)
(0.000403040621404 0.130915802014 0)
(0.00189979713208 0.130549028537 0)
(0.00331314186675 0.129912619435 0)
(0.00464199909334 0.12902290243 0)
(0.00588559601374 0.127896341769 0)
(0.00704381466807 0.126549439919 0)
(0.00811680569392 0.124998654144 0)
(0.00910532328134 0.123260305944 0)
(0.010010343037 0.121350507675 0)
(0.0108333786606 0.119285082913 0)
(0.0115761087891 0.117079507154 0)
(0.0122406767385 0.114748841875 0)
(0.0128293325459 0.112307690183 0)
(0.0133447175036 0.109770144361 0)
(0.0137895241747 0.10714975463 0)
(0.0141667655536 0.104459488767 0)
(0.0144794550606 0.10171171255 0)
(0.014730860052 0.0989181604494 0)
(0.0149242016069 0.0960899263683 0)
(0.0150628918726 0.0932374447555 0)
(0.0151502544241 0.0903704911641 0)
(0.015189746106 0.0874981733619 0)
(0.0151846977918 0.0846289406935 0)
(0.0151385215337 0.0817705842966 0)
(0.0150544724121 0.0789302542577 0)
(0.0149358424534 0.0761144676986 0)
(0.0147857430816 0.0733291319429 0)
(0.0146072868283 0.0705795586818 0)
(0.0144033901866 0.067870491402 0)
(0.0141769441829 0.0652061237721 0)
(0.0139306361486 0.0625901292586 0)
(0.0136671095354 0.0600256818063 0)
(0.0133888032721 0.0575154860659 0)
(0.0130981011476 0.055061798843 0)
(0.0127971864617 0.0526664584932 0)
(0.0124881807719 0.0503309059638 0)
(0.0121730119 0.0480562126159 0)
(0.0118535419157 0.0458431002332 0)
(0.0115314459436 0.0436919667568 0)
(0.0112083288453 0.0416029049931 0)
(0.010885612659 0.0395757263399 0)
(0.0105646413122 0.0376099783183 0)
(0.0102465738479 0.035704966488 0)
(0.00993247572493 0.0338597711044 0)
(0.00962321476993 0.032073267729 0)
(0.00931953662061 0.0303441435143 0)
(0.00902195865897 0.0286709170676 0)
(0.00873082484069 0.0270519549842 0)
(0.00844619045795 0.025485491954 0)
(0.00816784760424 0.0239696488426 0)
(0.00789518783847 0.0225024550787 0)
(0.00762718164908 0.0210818717553 0)
(0.00736219560615 0.0197058203767 0)
(0.00709789412081 0.0183722231497 0)
(0.00683096471504 0.0170790729075 0)
(0.00655686964096 0.0158245356793 0)
(0.00626934463188 0.0146072283757 0)
(0.0059596591232 0.0134258779634 0)
(0.0056154048886 0.0122921951591 0)
(0.00521934745098 0.0110576193919 0)
(0.00511888295193 0.00999011192851 0)
(0.0053801814197 0.008992062886 0)
(0.005814818664 0.00789298904567 0)
(0.0061821237528 0.0063671501756 0)
(0.00688072344004 0.00499693796049 0)
(0.00782872255091 0.00383006960979 0)
(0.00840237699061 0.00262690551076 0)
(0.00867266162453 0.00150294635567 0)
(0.00879419144958 0.000495730754713 0)
(-0.0513257432101 0.00407647910357 0)
(-0.0540997346423 0.0131339731241 0)
(-0.0535899733341 0.0220250656139 -4.64300045215e-28)
(-0.0526935125356 0.0308664890292 0)
(-0.0515146105537 0.0395054068158 0)
(-0.0500755967549 0.0478991447543 0)
(-0.0483996197997 0.0560025972973 0)
(-0.0465123024059 0.0637766247703 0)
(-0.0444408556183 0.0711879402529 0)
(-0.042213240875 0.0782091854441 0)
(-0.039857300097 0.084818788843 0)
(-0.0374001293596 0.0910006781328 0)
(-0.0348674540346 0.096743875043 0)
(-0.0322832827963 0.102042009666 0)
(-0.0296695475101 0.106892781241 0)
(-0.0270460241291 0.111297404423 0)
(-0.0244302037321 0.115260058727 0)
(-0.0218374290986 0.118787374501 0)
(-0.0192809345309 0.121887964138 0)
(-0.0167721230173 0.124572022761 0)
(-0.0143206920887 0.126850997857 0)
(-0.0119349601773 0.128737337172 0)
(-0.0096219883265 0.130244302268 0)
(-0.00738787156411 0.131385841933 0)
(-0.00523779146311 0.132176505621 0)
(-0.00317622984158 0.132631382146 0)
(-0.00120693890916 0.13276604578 0)
(0.000666913498493 0.13259651312 0)
(0.00244282709385 0.132139153939 0)
(0.0041188442834 0.131410628078 0)
(0.00569365203992 0.130427804742 0)
(0.00716646581941 0.129207671072 0)
(0.00853711560862 0.12776723606 0)
(0.00980591977044 0.126123434915 0)
(0.0109737569674 0.124293042184 0)
(0.0120419309387 0.122292585815 0)
(0.0130122312222 0.120138274379 0)
(0.013886795355 0.117845927334 0)
(0.0146681639305 0.115430918288 0)
(0.0153591463878 0.112908121513 0)
(0.0159628738821 0.110291870048 0)
(0.0164826717365 0.107595916436 0)
(0.0169221109705 0.104833402598 0)
(0.0172848880441 0.102016832426 0)
(0.0175748742978 0.0991580522615 0)
(0.0177960027468 0.0962682345838 0)
(0.0179523150495 0.0933578681422 0)
(0.0180478556335 0.0904367521747 0)
(0.0180867164691 0.0875139962316 0)
(0.0180729392471 0.0845980245361 0)
(0.0180105589427 0.0816965844298 0)
(0.0179035150335 0.078816759534 0)
(0.0177556948327 0.0759649857536 0)
(0.017570854417 0.0731470716247 0)
(0.0173526625544 0.0703682197022 0)
(0.0171046315531 0.0676330517587 0)
(0.0168301619959 0.0649456336873 0)
(0.0165324830019 0.0623095034279 0)
(0.0162146974994 0.0597276970984 0)
(0.0158797308569 0.0572027775294 0)
(0.015530375873 0.054736860139 0)
(0.0151692482484 0.0523316406664 0)
(0.0147988302718 0.0499884194471 0)
(0.0144214314373 0.0477081272015 0)
(0.0140392295835 0.0454913472328 0)
(0.0136542348317 0.0433383388797 0)
(0.0132683269014 0.0412490571748 0)
(0.0128832204946 0.0392231737105 0)
(0.0125004972846 0.0372600939319 0)
(0.0121215705788 0.0353589754564 0)
(0.011747710074 0.0335187428761 0)
(0.0113800030841 0.0317381033779 0)
(0.0110193691387 0.0300155589593 0)
(0.0106665137347 0.0283494189842 0)
(0.0103219279191 0.0267378088809 0)
(0.00998582781911 0.0251786784471 0)
(0.0096581301644 0.0236698053684 0)
(0.00933836489596 0.0222087969922 0)
(0.00902560852585 0.020793085835 0)
(0.00871834344988 0.0194199187829 0)
(0.00841430989877 0.018086342763 0)
(0.00811025337851 0.0167891927592 0)
(0.00780160539921 0.0155250713529 0)
(0.0074820013819 0.0142904327469 0)
(0.00714265625434 0.013081017703 0)
(0.00677220340052 0.0119020404429 0)
(0.00636294951595 0.0106352423523 0)
(0.00622212924164 0.00943282680349 0)
(0.00650483701159 0.0083542337307 0)
(0.00698824363799 0.00710541306495 0)
(0.00765290078507 0.00586773544801 0)
(0.00819327241429 0.00449001568432 0)
(0.00876202954669 0.00331574467146 0)
(0.00946010612778 0.00237739295291 0)
(0.00965568435307 0.00136987008067 0)
(0.00975417955362 0.000451449689209 0)
(-0.0600510914145 0.00422151212568 0)
(-0.0632893730246 0.0136320813479 0)
(-0.0626770622077 0.0228462687271 4.64229714784e-28)
(-0.0616037566992 0.0320029185187 0)
(-0.0601929841724 0.0409366532801 0)
(-0.0584727627145 0.0496012718769 0)
(-0.0564721803336 0.0579484540768 0)
(-0.0542231339029 0.0659368744213 0)
(-0.0517592510268 0.0735320541996 0)
(-0.0491147889783 0.0807063838047 0)
(-0.0463236320302 0.0874388659955 0)
(-0.0434184704518 0.093714682448 0)
(-0.0404301268162 0.0995246410186 0)
(-0.0373870903731 0.104864530735 0)
(-0.0343151852679 0.109734444652 0)
(-0.0312374344009 0.114138086847 0)
(-0.0281740192806 0.118082112278 0)
(-0.0251424066833 0.121575509116 0)
(-0.02215752102 0.124629061529 0)
(-0.0192320396822 0.127254895616 0)
(-0.0163766710857 0.129466130349 0)
(-0.013600499463 0.131276624187 0)
(-0.010911246575 0.132700816621 0)
(-0.00831555096075 0.133753640508 0)
(-0.00581912324403 0.134450484717 0)
(-0.00342690528685 0.134807180332 0)
(-0.00114310796157 0.134839986018 0)
(0.00102872776001 0.134565579323 0)
(0.00308575370926 0.134000967372 0)
(0.00502578119637 0.133163451641 0)
(0.00684732125527 0.132070531042 0)
(0.00854954619969 0.130739812781 0)
(0.01013230533 0.12918890222 0)
(0.0115960677529 0.127435305255 0)
(0.012941916628 0.125496328709 0)
(0.0141714774745 0.123388995734 0)
(0.0152868990083 0.121129963621 0)
(0.0162907765138 0.118735458829 0)
(0.0171861286405 0.116221214649 0)
(0.0179763239411 0.113602424643 0)
(0.0186650593096 0.110893696894 0)
(0.0192562924388 0.108109021392 0)
(0.0197542227271 0.105261736978 0)
(0.0201632291584 0.102364509667 0)
(0.0204878526214 0.0994293104265 0)
(0.0207327378373 0.0964674034205 0)
(0.0209026164479 0.093489334473 0)
(0.021002253046 0.0905049294116 0)
(0.0210364297515 0.0875232932576 0)
(0.0210098971374 0.0845528183524 0)
(0.0209273615874 0.081601193627 0)
(0.0207934425374 0.0786754215232 0)
(0.0206126640723 0.0757818357918 0)
(0.0203894194135 0.0729261252472 0)
(0.0201279676413 0.0701133578546 0)
(0.0198324059463 0.0673480089675 0)
(0.0195066717126 0.0646339891218 0)
(0.019154522043 0.061974674186 0)
(0.0187795405547 0.0593729344205 0)
(0.0183851231337 0.0568311643883 0)
(0.0179744882647 0.0543513113009 0)
(0.0175506673511 0.0519349030511 0)
(0.0171165169745 0.0495830744462 0)
(0.0166747120692 0.0472965924416 0)
(0.0162277584779 0.0450758795023 0)
(0.015777987106 0.042921035491 0)
(0.0153275650798 0.0408318578416 0)
(0.0148784891334 0.038807859935 0)
(0.0144325936654 0.0368482879367 0)
(0.0139915413831 0.0349521354608 0)
(0.0135568261924 0.0331181567916 0)
(0.0131297587938 0.031344877351 0)
(0.0127114616924 0.0296306024953 0)
(0.0123028463077 0.0279734223665 0)
(0.0119045957645 0.0263712142009 0)
(0.0115171279296 0.0248216383822 0)
(0.0111405581951 0.023322129602 0)
(0.0107746374076 0.0218698770565 0)
(0.0104186784002 0.0204617943043 0)
(0.0100714437051 0.0190944665371 0)
(0.00973099635967 0.0177640790453 0)
(0.00939447125175 0.0164663158585 0)
(0.00905773663525 0.0151962326404 0)
(0.00871486226624 0.0139482177883 0)
(0.00835725045699 0.0127156585483 0)
(0.00797284266157 0.0115017613897 0)
(0.00755084153982 0.0101984068623 0)
(0.00745654764807 0.00899402115419 0)
(0.00792137212951 0.00797509583413 0)
(0.00822417873628 0.00651951743036 0)
(0.00884191525356 0.00531466008213 0)
(0.00942427302317 0.00413696706047 0)
(0.00978354513272 0.00301483321897 0)
(0.0104156800084 0.00215569193504 0)
(0.0105636984837 0.0012769218635 0)
(0.0106284786243 0.000416297879156 0)
(-0.0691299270255 0.00439352915907 0)
(-0.0728456893778 0.014224307971 0)
(-0.072117490898 0.023822903283 0)
(-0.0708475760538 0.0333538285594 0)
(-0.0691801665785 0.0426363296925 0)
(-0.0671499664205 0.0516197618482 0)
(-0.0647931036966 0.0602520308077 0)
(-0.062148909903 0.0684893616858 0)
(-0.0592585176684 0.0762961029693 0)
(-0.0561634753496 0.0836446379209 0)
(-0.0529045284275 0.0905149602029 0)
(-0.0495206310135 0.0968940574132 0)
(-0.046048175754 0.102775150739 0)
(-0.0425204593858 0.108156867459 0)
(-0.0389673480759 0.11304237229 0)
(-0.035415143943 0.117438522012 0)
(-0.0318866113949 0.121355052058 0)
(-0.0284011587005 0.124803849914 0)
(-0.02497512846 0.127798317561 0)
(-0.0216221817105 0.130352866416 0)
(-0.0183537189354 0.132482537468 0)
(-0.0151793120332 0.134202765459 0)
(-0.0121070889226 0.135529257969 0)
(-0.00914405427749 0.136477975213 0)
(-0.00629631067781 0.137065163578 0)