/*--------------------------------*- C++ -*----------------------------------*\
| =========                 |                                                 |
| \\      /  F ield         | OpenFOAM: The Open Source CFD Toolbox           |
|  \\    /   O peration     | Version:  v1906                                 |
|   \\  /    A nd           | Web:      www.OpenFOAM.com                      |
|    \\/     M anipulation  |                                                 |
\*---------------------------------------------------------------------------*/
FoamFile
{
    version     2.0;
    format      ascii;
    class       volScalarField;
    location    "70";
    object      pa;
}
// * * * * * * * * * * * * * * * * * * * * * * * * * * * * * * * * * * * * * //

dimensions      [0 2 -2 0 0 0 0];


internalField   nonuniform List<scalar> 
9216
(
-160.588922943
-160.836894371
-161.406440421
-162.245278513
-163.361039446
-164.745605004
-166.396416048
-168.300875883
-170.454704181
-172.842397084
-175.458679548
-178.285635585
-181.31748458
-184.534413101
-187.930555278
-191.48656171
-195.197339672
-199.042689557
-203.017098708
-207.100306591
-211.288017361
-215.558871164
-219.909446166
-224.321268942
-228.791140144
-233.300450328
-237.846971703
-242.411994317
-246.993714838
-251.574721078
-256.153549378
-260.712104156
-265.250228496
-269.752750117
-274.21673549
-278.626784125
-282.981616652
-287.264723585
-291.475064623
-295.598276806
-299.633156054
-303.565913698
-307.395770863
-311.110325926
-314.709412774
-318.182427381
-321.530242682
-324.743891882
-327.824857482
-330.765962008
-333.570378794
-336.233634527
-338.75977017
-341.146309779
-343.399051494
-345.517626517
-347.50859893
-349.373258523
-351.119607049
-352.75032848
-354.273286429
-355.692537944
-357.017165505
-358.251956512
-359.405401122
-360.481854151
-361.489794893
-362.43313478
-363.319022453
-364.151577234
-364.936808685
-365.675380185
-366.371988221
-367.029226106
-367.651534542
-368.237382514
-368.787541213
-369.301562909
-369.782766739
-370.222598328
-370.617115839
-370.972329383
-371.297436097
-371.592276378
-371.855608498
-372.091405773
-372.304068116
-372.488735148
-372.634916781
-372.743519403
-372.821322243
-372.875528417
-372.913437
-372.937071936
-372.948939584
-372.952657502
-160.348115743
-160.598106049
-161.152110378
-161.991335523
-163.110578461
-164.502051269
-166.159938907
-168.074067281
-170.236964483
-172.636199525
-175.26276363
-178.102569538
-181.14553305
-184.375900723
-187.783582611
-191.353309037
-195.07546216
-198.934359862
-202.919312859
-207.015235686
-211.213226774
-215.496710841
-219.857248979
-224.28103001
-228.759658744
-233.279726647
-237.834130912
-242.409621283
-246.999544927
-251.5910069
-256.177042126
-260.745827098
-265.291871883
-269.803473224
-274.274499666
-278.693520722
-283.05470326
-287.346156031
-291.562374699
-295.693560202
-299.733836783
-303.673391361
-307.507959886
-311.228944412
-314.832022707
-318.309575347
-321.659837988
-324.876942472
-327.959063023
-330.901831639
-333.705884791
-336.369328025
-338.893342054
-341.277777427
-343.526736449
-345.642039104
-347.62803051
-349.487896434
-351.228436572
-352.853809448
-354.3702405
-355.783404251
-357.101217858
-358.329640697
-359.476603443
-360.547857049
-361.549855779
-362.487521586
-363.367742897
-364.196551016
-364.978382935
-365.714394859
-366.407955472
-367.062886095
-367.682988713
-368.267320945
-368.814390282
-369.325228422
-369.802946883
-370.241561504
-370.635507743
-370.987914651
-371.309482749
-371.602125313
-371.865332883
-372.101832659
-372.313320536
-372.493428295
-372.639946094
-372.751027472
-372.827937739
-372.881792114
-372.920287632
-372.942568377
-372.952684417
-372.956680563
-159.792914908
-160.063606118
-160.622970554
-161.470212934
-162.599710542
-164.004551607
-165.6777325
-167.609902307
-169.791940445
-172.21257293
-174.860925628
-177.724084482
-180.790353612
-184.045832951
-187.477923975
-191.072780845
-194.818888755
-198.702126873
-202.710362258
-206.829956565
-211.049595298
-215.35573909
-219.737701436
-224.182822374
-228.681306884
-233.221709659
-237.794409657
-242.388564373
-246.995620797
-251.605473094
-256.209051479
-260.796417392
-265.359377804
-269.887958755
-274.375077039
-278.810809554
-283.187140816
-287.494395152
-291.725336501
-295.871301175
-299.925070713
-303.878475215
-307.72477855
-311.457131642
-315.070225148
-318.55677299
-321.913954235
-325.138001528
-328.224200018
-331.169322186
-333.973928399
-336.636567907
-339.15774992
-341.538434531
-343.781371484
-345.889216932
-347.866126066
-349.716369752
-351.445840091
-353.059701941
-354.563714825
-355.964149822
-357.268943898
-358.484933814
-359.619209608
-360.678261604
-361.668881484
-362.596737703
-363.468063461
-364.288399961
-365.062093087
-365.791061266
-366.477827484
-367.127851981
-367.745195318
-368.32747535
-368.871980875
-369.380216172
-369.852513444
-370.283019646
-370.668247952
-371.016510972
-371.334809885
-371.624056282
-371.887458674
-372.125541008
-372.330352758
-372.501841343
-372.648190252
-372.761474813
-372.839301442
-372.894755339
-372.931188769
-372.951657146
-372.962889164
-372.968729365
-158.96595101
-159.245429847
-159.814015686
-160.674279819
-161.82061549
-163.246219982
-164.943480722
-166.903089952
-169.115016268
-171.567928042
-174.250259464
-177.149149419
-180.2518952
-183.544530564
-187.013905249
-190.646777434
-194.430116811
-198.350307981
-202.394561344
-206.549707931
-210.803776453
-215.143923428
-219.55790879
-224.034653266
-228.563517177
-233.13337934
-237.73452574
-242.357282409
-246.991969539
-251.628619736
-256.258787807
-260.872800938
-265.461777919
-270.0164793
-274.528812381
-278.989856847
-283.390162611
-287.720807905
-291.974485118
-296.143185077
-300.217935428
-304.190467002
-308.05436478
-311.803184849
-315.431244779
-318.931835446
-322.300798656
-325.533679671
-328.626936791
-331.577027029
-334.382954137
-337.04459351
-339.561800295
-341.936187594
-344.170116868
-346.266667596
-348.230056987
-350.064946919
-351.777110224
-353.372837927
-354.857798809
-356.238387285
-357.523080284
-358.719229349
-359.833761782
-360.874110589
-361.847340752
-362.759286205
-363.615812139
-364.422642325
-365.184432368
-365.903829971
-366.583058534
-367.225613081
-367.83614124
-368.412564608
-368.950707542
-369.452312431
-369.917485606
-370.34109607
-370.723149479
-371.067212951
-371.376314065
-371.659868458
-371.922321368
-372.157856146
-372.356755914
-372.524750363
-372.664178612
-372.774273364
-372.858072421
-372.913273394
-372.949098725
-372.970311054
-372.982122574
-372.988022894
-157.854018581
-158.141325334
-158.722322712
-159.600537033
-160.770140246
-162.224227278
-163.954570291
-165.951460114
-168.204207338
-170.701127647
-173.429813627
-176.37711374
-179.529096255
-182.871911153
-186.39218655
-190.075955979
-193.909631516
-197.879495155
-201.972517507
-206.175270445
-210.475241661
-214.860419362
-219.318281957
-223.837194786
-228.406088527
-233.015400299
-237.655300185
-242.315529337
-246.987234881
-251.660713758
-256.326811645
-260.9765693
-265.600352871
-270.189080626
-274.735125775
-279.229242845
-283.662356984
-288.025615313
-292.309527618
-296.505618834
-300.60731953
-304.607028636
-308.49670715
-312.270067987
-315.919283838
-319.438127744
-322.82285986
-326.068316712
-329.170449882
-332.126529671
-334.935624227
-337.595901467
-340.107425084
-342.473120754
-344.694930215
-346.776108509
-348.721395134
-350.535027844
-352.22361915
-353.794517653
-355.252849685
-356.606004896
-357.863087973
-359.031241326
-360.118363352
-361.133021319
-362.082610744
-362.972787381
-363.809107755
-364.598273348
-365.3447199
-366.049968436
-366.71691014
-367.350703179
-367.953065057
-368.519770077
-369.046975035
-369.540315121
-369.999664426
-370.416424022
-370.791503163
-371.129364873
-371.433565544
-371.717072008
-371.977537951
-372.206125587
-372.397089525
-372.553075051
-372.688507005
-372.801328086
-372.883716613
-372.941831684
-372.977919438
-372.99919563
-373.011190169
-373.017549038
-156.450050145
-156.745863481
-157.342526943
-158.243787781
-159.443380667
-160.934041884
-162.706876488
-164.751528844
-167.056631947
-169.609734163
-172.397682547
-175.40630115
-178.62121384
-182.028030195
-185.612743136
-189.360789897
-193.258232646
-197.290738743
-201.44474713
-205.7074118
-210.066013401
-214.507505711
-219.019461508
-223.590585868
-228.210108273
-232.868809304
-237.557212393
-242.265216965
-246.983359806
-251.702698955
-256.413459832
-261.106587288
-265.773905515
-270.406063729
-274.994985393
-279.531407259
-284.004220323
-288.404778745
-292.726359987
-296.960736127
-301.099728459
-305.13408657
-309.055714537
-312.858614954
-316.534979791
-320.078285911
-323.483812462
-326.745327036
-329.858886107
-332.822372411
-335.634411218
-338.292693727
-340.797548609
-343.152556771
-345.358479817
-347.419762693
-349.34061286
-351.12657308
-352.785919437
-354.324599892
-355.747922968
-357.064675927
-358.284986795
-359.417036609
-360.469691928
-361.452111584
-362.372587425
-363.235179517
-364.046541396
-364.813417276
-365.539406977
-366.227336186
-366.880279971
-367.502085299
-368.093223425
-368.649242727
-369.166256547
-369.649066528
-370.098903267
-370.506962981
-370.874221595
-371.202452939
-371.505727812
-371.788543749
-372.041753172
-372.26306741
-372.444621702
-372.601242918
-372.737270056
-372.841093638
-372.921236106
-372.98035229
-373.015571263
-373.040879941
-373.054000355
-373.060794282
-154.745748178
-155.051645578
-155.667412267
-156.597162442
-157.833948252
-159.369903192
-161.195309666
-163.298934111
-165.668562191
-168.290809523
-171.151589517
-174.235446747
-177.52732344
-181.01242065
-184.675795057
-188.50204138
-192.476391821
-196.584814551
-200.81319756
-205.148233585
-209.577184729
-214.086322045
-218.662760315
-223.29626458
-227.97713636
-232.695869422
-237.442521068
-242.207592619
-246.980993652
-251.75391479
-256.518161536
-261.2645712
-265.984559529
-270.668131204
-275.307478531
-279.892658079
-284.412846297
-288.861825272
-293.231877742
-297.512217497
-301.694534221
-305.771286292
-309.733551355
-313.573851787
-317.283528541
-320.855760863
-324.28573473
-327.567432716
-330.695977223
-333.668258277
-336.483563334
-339.139317543
-341.636202142
-343.976697091
-346.162729183
-348.199058897
-350.090025589
-351.843047348
-353.467179266
-354.962410006
-356.338366849
-357.609441113
-358.784883617
-359.873144818
-360.886100421
-361.831409057
-362.715416986
-363.543759798
-364.325279181
-365.065325657
-365.767027763
-366.434076248
-367.069764156
-367.676208813
-368.252722239
-368.795600671
-369.300559679
-369.772668498
-370.211913722
-370.608558994
-370.966746659
-371.293530267
-371.598224025
-371.874079634
-372.120179088
-372.327316259
-372.504380163
-372.664225673
-372.79622141
-372.897306681
-372.976647733
-373.033208485
-373.070377155
-373.09626772
-373.110745673
-373.117490449
-152.73126747
-153.049074223
-153.68792703
-154.652123591
-155.933797597
-157.524489418
-159.413480032
-161.588275341
-164.035515848
-166.740782459
-169.688669987
-172.862780717
-176.246792083
-179.825012422
-183.581307711
-187.500170016
-191.565989186
-195.763951926
-200.079732745
-204.49982344
-209.010507025
-213.598117469
-218.2501337
-222.957072643
-227.709791917
-232.498086725
-237.312454445
-242.142755591
-246.979983159
-251.816331353
-256.64296216
-261.451232447
-266.231687092
-270.974653519
-275.671841746
-280.313689503
-284.892033016
-289.399471509
-293.825093334
-298.159548006
-302.39542977
-306.523684631
-310.533465318
-314.416693158
-318.16634025
-321.775157769
-325.234771487
-328.539556269
-331.686090946
-334.669712093
-337.488359509
-340.14076289
-342.627355846
-344.950281008
-347.112681844
-349.119707403
-350.976259933
-352.688381985
-354.258585898
-355.696072397
-357.019596743
-358.238594284
-359.361890021
-360.401533798
-361.366322779
-362.26592335
-363.106774502
-363.896583098
-364.643186957
-365.350500912
-366.02327793
-366.666082024
-367.281282914
-367.869439536
-368.429055874
-368.957421084
-369.450106016
-369.909882545
-370.335167022
-370.720765895
-371.073257239
-371.400331279
-371.699324064
-371.966130549
-372.202498835
-372.406640319
-372.588207331
-372.744794499
-372.86733165
-372.968312211
-373.047780818
-373.103533707
-373.143164073
-373.16503042
-373.182299697
-373.189162433
-150.39465279
-150.726728823
-151.392957673
-152.398188019
-153.733472852
-155.389233178
-157.353709188
-159.613020817
-162.152260189
-164.955728327
-168.006208392
-171.286302563
-174.778274992
-178.465284652
-182.330417998
-186.356963948
-190.528719155
-194.830232564
-199.246736511
-203.764398206
-208.368481724
-213.045492349
-217.784516834
-222.575850487
-227.410127467
-232.277501428
-237.167824514
-242.072130769
-246.98258761
-251.890793355
-256.788457577
-261.666167632
-266.514520167
-271.324900274
-276.088473051
-280.79742486
-285.443999288
-290.017183977
-294.507459845
-298.906538478
-303.204910155
-307.391751896
-311.456986456
-315.392952612
-319.190522912
-322.840461355
-326.335314348
-329.668504101
-332.83562416
-335.831639793
-338.654927028
-341.303179509
-343.777483312
-346.080691554
-348.215643385
-350.18906317
-351.997086228
-353.647503071
-355.154771485
-356.53449029
-357.798333906
-358.954957103
-360.01743501
-360.997132755
-361.90523834
-362.751123339
-363.543137447
-364.28833739
-364.993285038
-365.664434603
-366.30499806
-366.918884303
-367.510609134
-368.078123392
-368.618847287
-369.131415451
-369.612185623
-370.056533247
-370.468446546
-370.849339231
-371.197108825
-371.517827685
-371.808661074
-372.067521633
-372.300457671
-372.504605324
-372.683757791
-372.832920756
-372.95312788
-373.054893319
-373.132588347
-373.190890719
-373.228729169
-373.25017766
-373.269816753
-373.27693328
-147.721765206
-148.070713687
-148.769421076
-149.823000769
-151.221604459
-152.954145564
-155.007421647
-157.365863649
-160.012814861
-162.930815901
-166.100970223
-169.503969071
-173.121109878
-176.933763884
-180.924047123
-185.074123637
-189.366991682
-193.786505178
-198.317565906
-202.945196835
-207.654321612
-212.432095457
-217.269050949
-222.155227028
-227.080785083
-232.035525941
-237.010539491
-241.99817932
-246.989972641
-251.978396903
-256.954530414
-261.908937722
-266.83342063
-271.71915975
-276.558990554
-281.345525396
-286.067710347
-290.716011943
-295.282429177
-299.754761632
-304.123182165
-308.378572121
-312.510605887
-316.507147796
-320.358793132
-324.057649017
-327.593915571
-330.959990032
-334.151191913
-337.162621805
-339.991170582
-342.635455587
-345.09583629
-347.374924354
-349.479756291
-351.399496649
-353.140415065
-354.72722791
-356.171038689
-357.482375443
-358.673012728
-359.756347662
-360.746055624
-361.656078032
-362.49786586
-363.282752429
-364.018409719
-364.713198033
-365.372377122
-366.001793817
-366.606893204
-367.190938276
-367.755403362
-368.299614886
-368.820012499
-369.315554473
-369.78225372
-370.21449261
-370.614876508
-370.986347063
-371.329709817
-371.646306711
-371.9304548
-372.187085063
-372.41714614
-372.615187613
-372.787940568
-372.932729304
-373.055235957
-373.155820607
-373.23394336
-373.293452047
-373.333885673
-373.359805527
-373.375158211
-373.38438504
-144.69608989
-145.064966997
-145.80178075
-146.912236552
-148.385042837
-150.207482199
-152.364480158
-154.838422382
-157.61051798
-160.661086804
-163.96951152
-167.514037277
-171.274471708
-175.23097456
-179.363818199
-183.654102667
-188.083869343
-192.636277864
-197.295674794
-202.045494762
-206.871537015
-211.762639525
-216.708226104
-221.698883548
-226.724022713
-231.774797798
-236.843705961
-241.922854958
-247.003559614
-252.078971936
-257.140854499
-262.179870149
-267.188233876
-272.158739661
-277.085041862
-281.95642444
-286.763556587
-291.498532789
-296.148971064
-300.704148398
-305.154870509
-309.48982806
-313.696333563
-317.762911623
-321.678646772
-325.433775439
-329.017546311
-332.422238417
-335.642431422
-338.671941507
-341.507274346
-344.146689485
-346.590649011
-348.844514333
-350.893403565
-352.744989226
-354.422639592
-355.941856037
-357.31034578
-358.538585572
-359.642938194
-360.639105673
-361.543834066
-362.37216809
-363.137691712
-363.853334393
-364.525678046
-365.164189301
-365.772314419
-366.359899075
-366.926075839
-367.475018683
-368.010726146
-368.53126385
-369.030041044
-369.508330352
-369.960698705
-370.381570775
-370.770868388
-371.136257951
-371.476973077
-371.78625203
-372.06510328
-372.319562354
-372.543082793
-372.737240357
-372.908113897
-373.053899776
-373.176409096
-373.275030664
-373.351634549
-373.412134305
-373.461543448
-373.489396576
-373.502844377
-373.514426868
-141.298159885
-141.690326262
-142.471832489
-143.648860757
-145.208420592
-147.135710648
-149.413375579
-152.021285239
-154.938174898
-158.141480315
-161.608212226
-165.314787728
-169.23863249
-173.358204042
-177.652135761
-182.100193464
-186.683401454
-191.384345183
-196.185446997
-201.070546414
-206.025979549
-211.0411597
-216.106192287
-221.209927363
-226.343298236
-231.499113003
-236.669679315
-241.846722484
-247.023199055
-252.193858567
-257.348203082
-262.479087233
-267.580595772
-272.645102225
-277.664623392
-282.629960517
-287.533613327
-292.363325891
-297.10833253
-301.759465596
-306.302528659
-310.725976742
-315.018791852
-319.165799018
-323.155364023
-326.975715014
-330.615920673
-334.066228478
-337.319155322
-340.37059066
-343.21399369
-345.848232705
-348.275562012
-350.476644963
-352.459746988
-354.249944571
-355.857845517
-357.296363048
-358.574042679
-359.70485179
-360.706930176
-361.600315015
-362.404601184
-363.138522789
-363.819523693
-364.455742091
-365.059538516
-365.634765664
-366.190761891
-366.729453954
-367.253855569
-367.76785767
-368.272487402
-368.766359886
-369.243886734
-369.705988185
-370.145526919
-370.555468041
-370.937783122
-371.295650743
-371.630634632
-371.939229695
-372.215193026
-372.46190128
-372.683692738
-372.878185509
-373.047192422
-373.191026642
-373.312744505
-373.411464505
-373.488458818
-373.551426897
-373.601237179
-373.637137708
-373.649998418
-373.661581411
-137.504359185
-137.92405315
-138.758227917
-140.013132348
-141.67396898
-143.723348054
-146.141046504
-148.903882515
-151.987455431
-155.366219422
-159.014054601
-162.904930395
-167.013930788
-171.317452726
-175.792277309
-180.416699142
-185.170619713
-190.035540949
-194.992431801
-200.026203827
-205.123762371
-210.273918847
-215.467310224
-220.693281778
-225.943519091
-231.211878859
-236.490192917
-241.771923636
-247.051985528
-252.323180001
-257.577320299
-262.807784257
-268.009689857
-273.175353153
-278.296848862
-283.367441942
-288.375439397
-293.310426827
-298.163371244
-302.919568965
-307.566318707
-312.093192042
-316.483196115
-320.722486931
-324.79699226
-328.693435369
-332.398958546
-335.902013877
-339.195854567
-342.271490032
-345.124773611
-347.756396143
-350.139823267
-352.279794739
-354.205842519
-355.925052643
-357.449203796
-358.794063392
-359.9672067
-360.982795781
-361.863446796
-362.634517558
-363.321204666
-363.948360751
-364.531445563
-365.08221458
-365.609055216
-366.117148471
-366.615529808
-367.100138455
-367.581576834
-368.055795183
-368.526890665
-368.997458159
-369.46056999
-369.909922762
-370.334559065
-370.732358549
-371.108350675
-371.4660627
-371.803206262
-372.106452166
-372.373858496
-372.620419988
-372.84124618
-373.032312784
-373.198959227
-373.343104157
-373.465187031
-373.563064444
-373.642383648
-373.706481968
-373.755388275
-373.793193056
-373.807871501
-373.82077773
-133.287563021
-133.739508102
-134.635633466
-135.982070197
-137.761255989
-139.952775487
-142.532883228
-145.474661262
-148.749830593
-152.329328957
-156.183626707
-160.283598774
-164.601623858
-169.111737063
-173.78874015
-178.609247139
-183.551604924
-188.596471167
-193.724449639
-198.919955225
-204.171510406
-209.467470845
-214.797872609
-220.153838232
-225.529015478
-230.915784321
-236.308207749
-241.70193312
-247.09054407
-252.467828188
-257.827501071
-263.164924777
-268.474170949
-273.748471995
-278.982462469
-284.165483394
-289.28800562
-294.341667165
-299.312053816
-304.185899215
-308.951781013
-313.593224799
-318.094552416
-322.439503546
-326.612199601
-330.596851398
-334.378950283
-337.944949966
-341.284269985
-344.388821682
-347.255245454
-349.863341786
-352.195002114
-354.282698206
-356.13930129
-357.774501089
-359.200299451
-360.440993394
-361.497726277
-362.376844421
-363.110974107
-363.734211045
-364.284879318
-364.787371774
-365.261632766
-365.718148599
-366.159280428
-366.59649088
-367.02659445
-367.457184544
-367.889940589
-368.326253404
-368.774290461
-369.230961574
-369.677073462
-370.107760915
-370.522497127
-370.919100963
-371.296631846
-371.654226791
-371.984072841
-372.279314335
-372.54770704
-372.793435263
-373.010336848
-373.200546482
-373.368801983
-373.512473542
-373.632142903
-373.728951159
-373.81039352
-373.874791371
-373.923876509
-373.958293788
-373.981357151
-373.992005291
-128.616367382
-129.106538376
-130.075057447
-131.529216475
-133.446911078
-135.804080524
-138.572632274
-141.721170982
-145.216234326
-149.025156333
-153.114316714
-157.450879762
-162.004107332
-166.745459822
-171.647623616
-176.684835855
-181.834900758
-187.076200174
-192.389998941
-197.760840002
-203.177047985
-208.628401994
-214.104734675
-219.59879063
-225.104124194
-230.615024689
-236.128121118
-241.637806063
-247.138559373
-252.627611612
-258.1002337
-263.549688949
-268.972396219
-274.36460344
-279.717139964
-285.021889099
-290.271781576
-295.453330797
-300.554439906
-305.560874815
-310.457550746
-315.229613675
-319.857792846
-324.324215081
-328.610049627
-332.697388908
-336.568610284
-340.207981596
-343.601674229
-346.739606062
-349.615746119
-352.188603951
-354.474843009
-356.496536205
-358.271944957
-359.809880659
-361.116345226
-362.244314798
-363.175620951
-363.896137601
-364.450799828
-364.892745277
-365.277861211
-365.634914537
-365.988963631
-366.342683064
-366.692928039
-367.042887795
-367.401917146
-367.774697192
-368.165638165
-368.580864566
-369.01319683
-369.451603629
-369.88401628
-370.310453699
-370.722626354
-371.118495624
-371.495507742
-371.850188292
-372.176500775
-372.471103601
-372.738384616
-372.981823923
-373.19790874
-373.390494961
-373.556227928
-373.696164479
-373.814161361
-373.909911431
-373.993268939
-374.058885372
-374.107011029
-374.141887953
-374.168705509
-374.174999034
-123.452939847
-123.988172636
-125.042699632
-126.623399304
-128.704059207
-131.254780869
-134.242257742
-137.62988935
-141.378003075
-145.448591721
-149.804303845
-154.408028561
-159.225247568
-164.224545615
-169.376031646
-174.652397138
-180.029471397
-185.485024988
-190.999878623
-196.559159294
-202.151384036
-207.766203271
-213.395233392
-219.033480776
-224.674759738
-230.315381233
-235.952271617
-241.580591917
-247.198956653
-252.804063277
-258.392619772
-263.960451884
-269.504054711
-275.01862678
-280.497588973
-285.935708223
-291.321086011
-296.64297911
-301.888180351
-307.041837829
-312.086998037
-317.005164615
-321.778308296
-326.384040446
-330.800931087
-335.007601782
-338.983675751
-342.709362649
-346.168160855
-349.350639015
-352.214260706
-354.752180986
-356.99517858
-358.933672118
-360.618601557
-362.049241707
-363.195675826
-364.211847015
-365.02467018
-365.555911346
-365.878131075
-366.084757702
-366.270109738
-366.460722391
-366.689608774
-366.930444531
-367.171866555
-367.428299288
-367.715908466
-368.0456908
-368.419122976
-368.816569678
-369.227604329
-369.658621635
-370.094007595
-370.521884409
-370.933897873
-371.331014667
-371.708433934
-372.063389475
-372.388078427
-372.679917422
-372.947396363
-373.189289468
-373.406594744
-373.597195304
-373.759101105
-373.895964853
-374.009781354
-374.106593426
-374.188863752
-374.25471826
-374.304083237
-374.338351024
-374.364667879
-374.36927907
-117.752739156
-118.341320698
-119.498062908
-121.228818598
-123.501638068
-126.279746705
-129.522257445
-133.186241779
-137.225569265
-141.595404208
-146.253214898
-151.158032503
-156.27094378
-161.557499762
-166.984495722
-172.523391291
-178.148277232
-183.835244518
-189.566014792
-195.326496794
-201.104478872
-206.891250345
-212.679908537
-218.466219725
-224.246971372
-230.020387658
-235.782831483
-241.533971524
-247.272556321
-252.996990607
-258.705243665
-264.394991239
-270.063245787
-275.706298303
-281.321616651
-286.899566568
-292.43155182
-297.906233354
-303.31024016
-308.627214002
-313.838814635
-318.923907145
-323.86033341
-328.627072593
-333.195470136
-337.541917346
-341.641393291
-345.470016287
-349.008610612
-352.215367064
-355.063066982
-357.589003669
-359.785759519
-361.607443839
-363.181640242
-364.517624211
-365.415365764
-366.440996363
-367.284381756
-367.518036697
-367.457640336
-367.316384482
-367.227821523
-367.221213006
-367.348942144
-367.48899305
-367.61558409
-367.764386249
-367.983717363
-368.295139666
-368.642455922
-369.028498663
-369.432793783
-369.867410395
-370.314205751
-370.742699642
-371.151850023
-371.551243724
-371.929236124
-372.284649758
-372.608655226
-372.906493828
-373.176401776
-373.417702433
-373.634071866
-373.822395509
-373.978676954
-374.10949337
-374.223534616
-374.320124559
-374.39841075
-374.461649421
-374.512559267
-374.547087414
-374.570895411
-374.576419251
-111.462150752
-112.11528455
-113.394010103
-115.303736045
-117.804146756
-120.850441968
-124.391445982
-128.375819805
-132.750068696
-137.462131165
-142.462546004
-147.705794947
-153.14933256
-158.754402067
-164.485660004
-170.312055049
-176.206017272
-182.143213526
-188.104877202
-194.077782128
-200.05026492
-206.015215627
-211.967654547
-217.905229815
-223.827254536
-229.73405446
-235.625396529
-241.499935119
-247.360172098
-253.205487119
-259.035644508
-264.849725665
-270.64590541
-276.424698174
-282.180432275
-287.907185823
-293.596351848
-299.237110942
-304.815352338
-310.313881787
-315.711872787
-320.985212186
-326.111941941
-331.061502853
-335.805603751
-340.315450926
-344.562003333
-348.515244039
-352.138378866
-355.356609113
-358.205462662
-360.728653842
-362.887102887
-364.498945727
-365.97077287
-367.507706508
-367.744989052
-368.250603267
-368.332889292
-368.116145838
-367.820228063
-367.548681701
-367.372655887
-367.345981496
-367.533264215
-367.676749368
-367.757881827
-367.865359822
-368.102570498
-368.482954912
-368.835169507
-369.234703264
-369.621760126
-370.068594489
-370.520564898
-370.954763371
-371.373786724
-371.780156519
-372.16201422
-372.52313185
-372.855210864
-373.155469948
-373.424488804
-373.666596609
-373.883669293
-374.068136757
-374.216402222
-374.35259705
-374.463798431
-374.554016561
-374.626009072
-374.684483916
-374.732683816
-374.768904701
-374.790414388
-374.798160757
-104.517159971
-105.249049075
-106.675564972
-108.800039997
-111.57192104
-114.935304816
-118.827507978
-123.184583733
-127.944399101
-133.047062278
-138.436086631
-144.059800248
-149.872102654
-155.829742357
-161.895141706
-168.035084876
-174.220298868
-180.426509456
-186.634103296
-192.829952619
-199.004432384
-205.151925892
-211.270958921
-217.360085198
-223.423307093
-229.463756296
-235.481489537
-241.480174391
-247.461994574
-253.428476271
-259.380993953
-265.320875034
-271.248490992
-277.163463281
-283.066063936
-288.949497263
-294.806594437
-300.626730246
-306.396284303
-312.096272528
-317.704154265
-323.192997729
-328.533309567
-333.69465864
-338.642180416
-343.3448093
-347.768908937
-351.875437891
-355.574926929
-358.807177639
-361.653505706
-364.218895448
-366.583060063
-367.748250738
-368.97103182
-368.780744693
-368.398891994
-368.253202016
-368.164220745
-368.015533988
-367.836818527
-367.688269755
-367.610224289
-367.621420355
-367.663576532
-367.610401433
-367.51644939
-367.570800869
-367.888829459
-368.38672132
-368.79772323
-369.353060665
-369.755976735
-370.243153139
-370.738686088
-371.17288523
-371.600103671
-372.028994325
-372.414406584
-372.781773547
-373.118245209
-373.422572232
-373.686349141
-373.93067603
-374.155608938
-374.335949047
-374.48441131
-374.618300084
-374.718805316
-374.802571643
-374.869996973
-374.924021562
-374.967530491
-375.00407626
-375.025438901
-375.034811614
-96.8408077889
-97.6694884579
-99.276801493
-101.66220757
-104.760625974
-108.500965839
-112.806601714
-117.598897495
-122.803688484
-128.352230057
-134.180642653
-140.231244369
-146.453540009
-152.801534442
-159.233618337
-165.71471666
-172.214009684
-178.707328396
-185.175605127
-191.603758694
-197.985265915
-204.317140783
-210.600969892
-216.841013952
-223.042150367
-229.212652631
-235.356779879
-241.476744689
-247.578397276
-253.664183192
-259.737727374
-265.802374429
-271.861350268
-277.916486641
-283.967676229
-290.015225521
-296.050206302
-302.063384154
-308.042040245
-313.965873334
-319.809271264
-325.542418649
-331.129795967
-336.532887327
-341.716021906
-346.645456809
-351.28218794
-355.552863637
-359.363551396
-362.599929921
-365.361533532
-368.19712701
-369.185568436
-369.013430702
-368.739225217
-368.479765022
-368.174255067
-367.984157691
-367.852809174
-367.728219244
-367.609684289
-367.519139823
-367.478742421
-367.497065246
-367.545972048
-367.587535137
-367.662071016
-367.786835112
-367.923928391
-368.041320317
-368.513324612
-369.24151824
-369.653993756
-370.3070267
-370.915036859
-371.438159707
-371.876998358
-372.284615696
-372.673923158
-373.057636971
-373.398530648
-373.702996328
-373.980257878
-374.231419007
-374.453846212
-374.630057984
-374.773661991
-374.900493866
-374.991942447
-375.069096624
-375.132118916
-375.182444754
-375.221475586
-375.253266187
-375.276125654
-375.286230491
-88.3376069743
-89.2872505265
-91.1190990423
-93.8249933464
-97.3198248542
-101.512225722
-106.306407909
-111.607038576
-117.325878922
-123.383538423
-129.708151015
-136.236590235
-142.913542316
-149.690426622
-156.524160961
-163.376218429
-170.215029311
-177.013791218
-183.754347119
-190.423973969
-197.014935008
-203.529793334
-209.974526729
-216.357347405
-222.691606501
-228.987936037
-235.251949952
-241.491036442
-247.709228262
-253.910791799
-260.101469817
-266.287672508
-272.475554799
-278.670350201
-284.87468989
-291.089834913