/*--------------------------------*- C++ -*----------------------------------*\
| =========                 |                                                 |
| \\      /  F ield         | OpenFOAM: The Open Source CFD Toolbox           |
|  \\    /   O peration     | Version:  v1906                                 |
|   \\  /    A nd           | Web:      www.OpenFOAM.com                      |
|    \\/     M anipulation  |                                                 |
\*---------------------------------------------------------------------------*/
FoamFile
{
    version     2.0;
    format      ascii;
    class       volVectorField;
    location    "536";
    object      Ua;
}
// * * * * * * * * * * * * * * * * * * * * * * * * * * * * * * * * * * * * * //

dimensions      [0 1 -1 0 0 0 0];


internalField   nonuniform List<vector> 
9216
(
(-0.00663153099834 0.00663514505478 0)
(-0.00681716333566 0.0206925798944 2.38236176347e-27)
(-0.00680281900374 0.0348290008995 -4.59058464366e-31)
(-0.00675434757871 0.0489558062806 0)
(-0.00668663763464 0.0629362640268 0)
(-0.00660108066286 0.0767350694091 0)
(-0.0064992532845 0.0903126455539 0)
(-0.00638199760976 0.103632390879 0)
(-0.00625043368045 0.116659949316 0)
(-0.00610531326569 0.129363483154 0)
(-0.00594782168798 0.141713529425 0)
(-0.00577871404343 0.153683258012 0)
(-0.00559921779006 0.165248287689 0)
(-0.00541003135247 0.176386840365 0)
(-0.0052123455813 0.187079475971 0)
(-0.00500672619597 0.197309136455 0)
(-0.00479425066694 0.207060808311 0)
(-0.00457528831086 0.216321471402 0)
(-0.0043507440207 0.225079716662 0)
(-0.0041207506513 0.233325629889 0)
(-0.00388601051061 0.241050398153 0)
(-0.0036464126463 0.248246162694 0)
(-0.00340245931759 0.254905654324 0)
(-0.00315382121697 0.261022052987 0)
(-0.00290083549419 0.266588685626 0)
(-0.00264300973093 0.271598921052 0)
(-0.00238057545781 0.276045959153 0)
(-0.00211295346982 0.279922784329 0)
(-0.00184034880551 0.28322206371 0)
(-0.00156219108405 0.285936162012 0)
(-0.00127874583848 0.288057212986 0)
(-0.000989529551702 0.289577122663 0)
(-0.000694968494193 0.290487769495 0)
(-0.000394808710759 0.290781207382 0)
(-8.97341062379e-05 0.290449920376 0)
(0.000220203734814 0.289487092721 0)
(0.000533983153597 0.287886979429 0)
(0.000851170200248 0.285645226657 0)
(0.00117035536861 0.282759313007 0)
(0.0014906882909 0.279228885059 0)
(0.00181036350562 0.275056220385 0)
(0.00212812057907 0.270246538597 0)
(0.00244178209921 0.264808450905 0)
(0.00274970248476 0.258754237491 0)
(0.00304935111661 0.252100281183 0)
(0.00333869582256 0.244867351876 0)
(0.00361482138262 0.237081068096 0)
(0.00387525061309 0.228772276252 0)
(0.0041165948454 0.219977580047 0)
(0.00433585868422 0.210739865587 0)
(0.00452914049797 0.201108821785 0)
(0.00469302250185 0.191141482336 0)
(0.00482334580026 0.180902391399 0)
(0.00491681588763 0.170463724459 0)
(0.00496982123031 0.159904486378 0)
(0.00498030977249 0.149309618011 0)
(0.00494646862912 0.138767728741 0)
(0.00486879272053 0.128368950767 0)
(0.00474838290314 0.118201422551 0)
(0.00458910999312 0.108348291021 0)
(0.00439538709458 0.0988838049278 0)
(0.00417420306064 0.0898704486552 0)
(0.00393213766219 0.0813563216643 0)
(0.00367697681007 0.0733745397944 0)
(0.00341441391665 0.0659441374897 0)
(0.00315022060102 0.059072322368 0)
(0.00288782571432 0.0527571257349 0)
(0.00263118218958 0.0469890761742 0)
(0.00238272642645 0.0417525717358 0)
(0.00214573769666 0.0370259958044 0)
(0.00192210130435 0.0327827604245 0)
(0.00171408938396 0.0289917345266 0)
(0.00152239859745 0.0256190824282 0)
(0.00134777905239 0.0226292996485 0)
(0.0011896383081 0.0199871044725 0)
(0.00104758058852 0.0176581311746 0)
(0.000920344008666 0.0156100450409 0)
(0.000807038504776 0.0138126297043 0)
(0.000706203275118 0.0122383266461 0)
(0.000616756959878 0.0108620921058 0)
(0.000537111868951 0.00966175053673 0)
(0.000465723328797 0.00861806974234 0)
(0.000399453931302 0.00771736442403 0)
(0.000330457101026 0.00693885710804 0)
(0.000265883701506 0.00623870867425 0)
(0.000249889846269 0.00579517361618 0)
(0.000238826060132 0.00526093651532 0)
(0.000210485019313 0.00481137589051 0)
(0.00021471626065 0.00442479065892 0)
(0.000234987413297 0.00397237809625 0)
(0.000237392429857 0.00351390084104 0)
(0.000242863225783 0.00302114927812 0)
(0.000277067389456 0.002482403707 0)
(0.000315695131732 0.00188989550423 0)
(0.000357477408857 0.00117004737931 0)
(0.000384536682226 0.000375080154738 0)
(-0.0207212137274 0.00685788862254 0)
(-0.0218762093693 0.0219796222847 0)
(-0.0218021247783 0.0370136555733 -2.44882804302e-27)
(-0.0216156458352 0.0520502425956 0)
(-0.0213619165227 0.0669192245015 0)
(-0.0210458857399 0.0815909843171 0)
(-0.0206713854614 0.0960251475737 0)
(-0.0202416867208 0.110183266531 0)
(-0.0197607042065 0.124028974866 0)
(-0.0192319736019 0.137528420651 0)
(-0.018659758614 0.150650350581 0)
(-0.0180477402849 0.163366273318 0)
(-0.0174002762969 0.175650411473 0)
(-0.0167208952413 0.187479735051 0)
(-0.0160137336213 0.198833803838 0)
(-0.0152818702208 0.209694687685 0)
(-0.0145289404641 0.220046717425 0)
(-0.0137573361832 0.229876313809 0)
(-0.0129699895836 0.239171675545 0)
(-0.0121684625291 0.247922549584 0)
(-0.0113548887775 0.256119894063 0)
(-0.010529972582 0.263755630089 0)
(-0.00969507052779 0.270822321864 0)
(-0.0088501158228 0.277312950377 0)
(-0.00799581651292 0.283220648514 0)
(-0.00713151738693 0.288538529736 0)
(-0.00625748727838 0.29325950676 0)
(-0.00537273204745 0.297376197776 0)
(-0.00447734617897 0.300880845658 0)
(-0.00357029284235 0.303765318489 0)
(-0.00265179654832 0.306021116837 0)
(-0.00172107767106 0.307639554211 0)
(-0.000778795200264 0.308611850634 0)
(0.000175205725533 0.308929340225 0)
(0.00113950670018 0.308583759533 0)
(0.00211335649144 0.307567555072 0)
(0.00309432011266 0.305874262895 0)
(0.00408051483144 0.303498890315 0)
(0.00506833344551 0.300438358269 0)
(0.00605466653595 0.296691909436 0)
(0.00703471528395 0.292261560711 0)
(0.00800417826692 0.287152488598 0)
(0.0089571465741 0.281373448937 0)
(0.00988821376052 0.274937119247 0)
(0.0107904203571 0.267860486286 0)
(0.011657242446 0.260165186221 0)
(0.0124805505263 0.25187792457 0)
(0.0132524731017 0.243030914771 0)
(0.0139633783781 0.233662418505 0)
(0.0146037236705 0.22381735998 0)
(0.0151621655394 0.213547963202 0)
(0.0156276652832 0.202914412355 0)
(0.0159879086319 0.191985248111 0)
(0.0162320007933 0.180837550631 0)
(0.0163492389943 0.169556365072 0)
(0.016332452274 0.158233618822 0)
(0.0161766888711 0.146965906724 0)
(0.0158827466585 0.135851827875 0)
(0.0154550917627 0.12498834399 0)
(0.0149052548667 0.114467061711 0)
(0.014248568423 0.104369940535 0)
(0.0135067698935 0.0947654669325 0)
(0.0127025577874 0.0857054262858 0)
(0.0118601472099 0.0772239462832 0)
(0.0109988910319 0.0693390344418 0)
(0.0101356831662 0.0620559034024 0)
(0.00928186578878 0.0553705191594 0)
(0.00844836432256 0.049271779675 0)
(0.00764354958162 0.0437424367304 0)
(0.00687677418978 0.0387590005271 0)
(0.00615486052165 0.0342922338889 0)
(0.00548420243529 0.0303078858302 0)
(0.00486759822496 0.0267684879494 0)
(0.00430653478411 0.0236350451769 0)
(0.00379942512442 0.0208689536918 0)
(0.00334418950449 0.0184330821338 0)
(0.0029370809706 0.0162926399156 0)
(0.00257467138113 0.0144153915195 0)
(0.00225262561454 0.0127719270577 0)
(0.00196716226514 0.0113355647036 0)
(0.00171386205165 0.0100822848195 0)
(0.00148854401241 0.00899022849668 0)
(0.00128552573378 0.0080386886838 0)
(0.00109489372029 0.00720699648575 0)
(0.000921780205093 0.00640433750383 0)
(0.000824350919023 0.00572082621108 0)
(0.000727366617184 0.00515973758141 0)
(0.000638023918046 0.0047196895785 0)
(0.000634067316604 0.0042626220449 0)
(0.000683490164961 0.00389157234247 0)
(0.00071082478948 0.00349550297483 0)
(0.0007531682819 0.00297798567608 0)
(0.000830746490076 0.0024252607358 0)
(0.00102561762972 0.00192243003762 0)
(0.00125473531013 0.00122950927976 0)
(0.00113499073084 0.000336563663077 0)
(-0.0350171036123 0.00691325193964 0)
(-0.036990478933 0.0221623876194 0)
(-0.0368387918462 0.0372886689416 -2.45218126019e-27)
(-0.0365179918068 0.0524348156449 0)
(-0.0360901672129 0.0674112724298 0)
(-0.0355603739185 0.0821870322478 0)
(-0.0349334135601 0.0967207491908 0)
(-0.0342145884526 0.110973443094 0)
(-0.0334099259107 0.124908365469 0)
(-0.0325256412266 0.138491353096 0)
(-0.0315684328953 0.151690971527 0)
(-0.0305448773897 0.164478630364 0)
(-0.0294617899294 0.17682859005 0)
(-0.0283255535114 0.188717941528 0)
(-0.0271425543521 0.200126490964 0)
(-0.0259184668787 0.211036623052 0)
(-0.0246587747563 0.221433082976 0)
(-0.0233680329736 0.231302746966 0)
(-0.0220504827707 0.240634331762 0)
(-0.0207093094751 0.249418108022 0)
(-0.0193473543139 0.257645577388 0)
(-0.0179663795667 0.265309172367 0)
(-0.0165678706924 0.272401947131 0)
(-0.0151523111024 0.278917308363 0)
(-0.0137200585446 0.284848759836 0)
(-0.0122706245001 0.29018969879 0)
(-0.0108036043174 0.294933243357 0)
(-0.00931795639655 0.299072116625 0)
(-0.00781296846792 0.302598573312 0)
(-0.00628753479726 0.305504379913 0)
(-0.00474116324445 0.307780870408 0)
(-0.00317322486701 0.309419021029 0)
(-0.00158397180103 0.310409608418 0)
(2.61805795584e-05 0.310743435622 0)
(0.00165566874804 0.310411609514 0)
(0.00330251522217 0.309405869829 0)
(0.00496338587927 0.307718977317 0)
(0.00663435714613 0.305345129997 0)
(0.00831004743895 0.302280416285 0)
(0.00998442939681 0.298523263294 0)
(0.0116500457665 0.294074890697 0)
(0.01329884966 0.288939726325 0)
(0.014921475693 0.283125803646 0)
(0.0165080496182 0.276645109028 0)
(0.0180474431715 0.269513917228 0)
(0.0195279712153 0.261753111357 0)
(0.0209365563553 0.253388544077 0)
(0.0222592804045 0.244451466995 0)
(0.0234804782863 0.234979075206 0)
(0.0245832826225 0.225015197589 0)
(0.0255488813506 0.214611103551 0)
(0.0263574669655 0.20382639257 0)
(0.0269881143171 0.192729759838 0)
(0.0274206815489 0.18139948096 0)
(0.0276366023616 0.169923206275 0)
(0.0276217612334 0.158396926868 0)
(0.0273675462998 0.146922757493 0)
(0.0268736222011 0.135605884512 0)
(0.0261480075772 0.124550696508 0)
(0.0252092631169 0.11385641296 0)
(0.0240852352213 0.103612139515 0)
(0.0228136194632 0.0938916346229 0)
(0.0214369977277 0.0847484709335 0)
(0.0199978459887 0.0762144601161 0)
(0.0185313558689 0.0683024615699 0)
(0.0170644433062 0.061012077465 0)
(0.0156159431807 0.0543352075173 0)
(0.0142019850577 0.0482587946447 0)
(0.0128374468746 0.0427646752518 0)
(0.0115375687429 0.0378283308678 0)
(0.010315503611 0.0334185475649 0)
(0.0091817794456 0.0294982237034 0)
(0.00814200903682 0.0260264973677 0)
(0.00719764452451 0.0229612631219 0)
(0.00634601580571 0.020261471667 0)
(0.00558244561586 0.0178884620048 0)
(0.00490070690196 0.0158065421841 0)
(0.00429430774491 0.01398303528 0)
(0.00375624192692 0.0123883199494 0)
(0.00327979701145 0.0109957157841 0)
(0.00285830730401 0.00978126539674 0)
(0.00248576589517 0.00872326032151 0)
(0.00215670277529 0.00780121872673 0)
(0.00186738458776 0.00700022444537 0)
(0.00162348044681 0.00622097343491 0)
(0.00144459478755 0.00558296709305 0)
(0.00128981644481 0.00513442426461 0)
(0.00112351434763 0.00451128378358 0)
(0.00102664173983 0.00397199768347 0)
(0.00106707393569 0.00364096860187 0)
(0.00122112260784 0.00336966393043 0)
(0.00125598122745 0.00269292861437 0)
(0.00143016515107 0.00221831688076 0)
(0.00166999848748 0.00161611571006 0)
(0.00187921870805 0.000970907269785 0)
(0.00182795972803 0.000299223939428 0)
(-0.0495102318393 0.00697073660588 0)
(-0.0523239476114 0.0223662730326 0)
(-0.0521069907626 0.0376165612252 2.45185678013e-27)
(-0.0516490502705 0.0528919459144 0)
(-0.0510390094797 0.0679940159669 0)
(-0.0502845160199 0.0828905498519 0)
(-0.0493922487424 0.0975390407167 0)
(-0.0483698330419 0.111899692074 0)
(-0.0472257708295 0.125935158753 0)
(-0.045969109582 0.139610857227 0)
(-0.044609348603 0.152895116799 0)
(-0.0431560989444 0.165759277604 0)
(-0.0416190139473 0.178177708533 0)
(-0.0400074406898 0.190127766068 0)
(-0.0383303858289 0.201589680665 0)
(-0.0365961780563 0.212546391287 0)
(-0.0348124881438 0.222983318944 0)
(-0.0329860250399 0.232888101357 0)
(-0.031122629107 0.242250284806 0)
(-0.029227022365 0.251060997042 0)
(-0.0273029875645 0.259312602365 0)
(-0.025353182334 0.266998362591 0)
(-0.0233794025089 0.274112107021 0)
(-0.0213824547556 0.280647931422 0)
(-0.0193624876113 0.286599928074 0)
(-0.0173189050139 0.291961960359 0)
(-0.0152507419852 0.296727481352 0)
(-0.0131566023071 0.300889403723 0)
(-0.0110350620854 0.30444002099 0)
(-0.00888462338485 0.307370973875 0)
(-0.00670415323415 0.309673315032 0)
(-0.00449281466962 0.311337559852 0)
(-0.0022505307098 0.312353853892 0)
(2.20465930797e-05 0.312712207082 0)
(0.0023231159024 0.31240277954 0)
(0.00464977969287 0.311416233953 0)
(0.00699767273307 0.309744149092 0)
(0.00936108018788 0.30737947611 0)
(0.0117326595537 0.304317026894 0)
(0.0141036533915 0.300553967198 0)
(0.0164637194441 0.296090298053 0)
(0.0188012240459 0.290929297056 0)
(0.021103134732 0.285077908278 0)
(0.023355309571 0.278547068995 0)
(0.0255423344876 0.271351985433 0)
(0.0276476697742 0.263512383473 0)
(0.0296532958042 0.255052783486 0)
(0.0315396242894 0.246002869149 0)
(0.0332849469159 0.236398021425 0)
(0.0348652629347 0.226280097806 0)
(0.0362538792447 0.215698474674 0)
(0.0374217529031 0.204711329246 0)
(0.0383380630703 0.193386987508 0)
(0.0389719934608 0.181805022597 0)
(0.0392950267271 0.17005665299 0)
(0.0392843206993 0.15824391959 0)
(0.0389257564714 0.14647736411 0)
(0.0382168627355 0.13487238687 0)
(0.0371681214185 0.123545012967 0)
(0.0358054489804 0.112606835533 0)
(0.0341700186246 0.102159090908 0)
(0.0323195018488 0.0922851217431 0)
(0.0303220733788 0.0830415876444 0)
(0.0282441330789 0.0744552911154 0)
(0.0261387613302 0.0665287157642 0)
(0.0240418547573 0.0592507290561 0)
(0.0219760430314 0.0526065028285 0)
(0.019960455109 0.046580956531 0)
(0.0180158301426 0.0411559203471 0)
(0.0161645906232 0.0363061378961 0)
(0.0144274907697 0.0319976096343 0)
(0.0128205490941 0.0281884863215 0)
(0.0113522007718 0.0248321600794 0)
(0.010023244356 0.0218812861224 0)
(0.00882850500949 0.0192910644706 0)
(0.00775972278658 0.0170207421965 0)
(0.00680733856043 0.0150336533755 0)
(0.00596152786044 0.0132967270486 0)
(0.00521218565857 0.0117802814271 0)
(0.00454950889642 0.0104579285899 0)
(0.00396424551172 0.00930631277704 0)
(0.00344822731571 0.00830473215264 0)
(0.00299494792428 0.00743465222063 0)
(0.00260383378441 0.00668423710127 0)
(0.00225775869535 0.00591340351217 0)
(0.00203623806519 0.00540531302698 0)
(0.00182730577224 0.00486151156895 0)
(0.00162965110659 0.0042443290868 0)
(0.00154757227613 0.00382085591974 0)
(0.00149161397806 0.00326586052656 0)
(0.00159317063306 0.00279968075904 0)
(0.00186906855666 0.00247303613871 0)
(0.00195828702239 0.00179359092797 0)
(0.00220656742903 0.00124893884696 0)
(0.00245748917521 0.000757453434985 0)
(0.00244385347308 0.000247648127241 0)
(-0.0641503141425 0.00704497845736 0)
(-0.0678007347924 0.022635684183 0)
(-0.0675170836373 0.0380580243224 0)
(-0.066918747183 0.0535079076608 0)
(-0.0661216972192 0.0687788556558 0)
(-0.0651363691643 0.0838374377849 0)
(-0.0639716663636 0.0986397606795 0)
(-0.0626377401278 0.113144941189 0)
(-0.0611458357486 0.127314803892 0)
(-0.0595079856222 0.141114184923 0)
(-0.0577367535126 0.154511082567 0)
(-0.055844921283 0.167476748444 0)
(-0.0538452423492 0.179985702972 0)
(-0.0517501377255 0.19201567995 0)
(-0.0495714773688 0.203547500387 0)
(-0.0473203088186 0.214564881731 0)
(-0.0450066921707 0.225054186212 0)
(-0.0426394900644 0.235004118234 0)
(-0.0402262848425 0.244405379644 0)
(-0.0377732570904 0.253250297274 0)
(-0.0352852058132 0.261532436018 0)
(-0.032765528385 0.269246214421 0)
(-0.0302163442747 0.276386536913 0)
(-0.0276385654571 0.282948456914 0)
(-0.025032100693 0.288926880453 0)
(-0.0223959870861 0.294316317875 0)
(-0.0197286426528 0.299110687097 0)
(-0.0170280314055 0.303303169789 0)
(-0.0142919434742 0.306886122286 0)
(-0.0115181831922 0.30985102734 0)
(-0.0087048885971 0.312188561725 0)
(-0.00585070113653 0.313888624519 0)
(-0.00295512558075 0.314940509282 0)
(-1.87463832823e-05 0.315333143567 0)
(0.00295645894191 0.315055388713 0)
(0.00596692732218 0.314096420443 0)
(0.00900725663668 0.312446182164 0)
(0.0120701063994 0.310095894651 0)
(0.0151460710392 0.307038603859 0)
(0.0182237270133 0.30326973739 0)
(0.0212896635466 0.298787639105 0)
(0.0243286692548 0.293594047219 0)
(0.0273238633078 0.287694487794 0)
(0.0302569053388 0.281098566749 0)
(0.0331080513319 0.273820162599 0)
(0.0358561654702 0.265877554832 0)
(0.0384784632798 0.257293549851 0)
(0.0409501268637 0.248095713211 0)
(0.0432436457866 0.238316830353 0)
(0.0453281533641 0.227995748152 0)
(0.0471687811814 0.217178696319 0)
(0.0487265640362 0.205921148659 0)
(0.049959060343 0.194290028556 0)
(0.0508224846951 0.182365916397 0)
(0.0512751441783 0.17024443811 0)
(0.0512824931951 0.158035985636 0)
(0.0508221424849 0.145863048348 0)
(0.0498878246482 0.133855418364 0)
(0.0484905303383 0.122145877235 0)
(0.0466631357935 0.110864341376 0)
(0.0444600885273 0.100131676382 0)
(0.0419649930229 0.0900486482322 0)
(0.0392828937554 0.080677565704 0)
(0.0365144305571 0.0720351534904 0)
(0.0337343335603 0.0641037719469 0)
(0.0309837792514 0.0568525719501 0)
(0.0282809884732 0.0502566809215 0)
(0.0256433054794 0.0443011458044 0)
(0.0230971242969 0.0389710926711 0)
(0.0206747444172 0.0342420164328 0)
(0.0184074628975 0.030076298929 0)
(0.0163192018582 0.0264245194591 0)
(0.0144215138237 0.023230595293 0)
(0.0127129561098 0.0204388089345 0)
(0.0111833440152 0.0179990498338 0)
(0.00981897748158 0.0158682700412 0)
(0.00860596651664 0.0140092109943 0)
(0.00753092241925 0.0123886483743 0)
(0.0065802116116 0.0109769810251 0)
(0.00574058195586 0.00974838031369 0)
(0.00499968602793 0.00868052238261 0)
(0.00434633740097 0.00775443772448 0)
(0.00377097116217 0.00695709333146 0)
(0.00327231192163 0.00625967662911 0)
(0.00285657966295 0.00558733375486 0)
(0.00263361064276 0.0051591401094 0)
(0.00244490903026 0.00462704591417 0)
(0.00222541610966 0.00402814262367 0)
(0.00200475480465 0.00334229598754 0)
(0.00199361187016 0.00289163162029 0)
(0.00201683003068 0.0023295385389 0)
(0.00230386309476 0.00198591812027 0)
(0.00262533063394 0.00155421833108 0)
(0.00269786167649 0.000983912629047 0)
(0.00283598227761 0.000570620207458 0)
(0.00281851634224 0.000188744817998 0)
(-0.0789873322035 0.0071375508567 0)
(-0.0834813612215 0.0229760042341 0)
(-0.0831277533686 0.0386184613581 0)
(-0.0823836766236 0.0542904548393 0)
(-0.0813925013288 0.0697758458289 0)
(-0.0801675926428 0.085039820548 0)
(-0.0787203515356 0.100036828501 0)
(-0.0770637185851 0.114724630158 0)
(-0.0752119806214 0.129063995237 0)
(-0.0731804208465 0.143019019563 0)
(-0.0709849686181 0.156557280034 0)
(-0.0686418343626 0.169649923683 0)
(-0.0661671619733 0.182271676588 0)
(-0.0635766775538 0.194400775096 0)
(-0.0608853708403 0.206018819799 0)
(-0.0581071867903 0.217110556595 0)
(-0.0552547690591 0.22766358893 0)
(-0.0523392317753 0.237668030305 0)
(-0.0493700046073 0.247116107532 0)
(-0.0463547231129 0.256001730583 0)
(-0.0432992068475 0.26432004618 0)
(-0.0402074875289 0.272066995144 0)
(-0.037081922288 0.279238891837 0)
(-0.0339233431746 0.285832042536 0)
(-0.0307312716234 0.291842414291 0)
(-0.0275041440582 0.297265361196 0)
(-0.0242395793574 0.302095409443 0)
(-0.0209346394463 0.306326099664 0)
(-0.0175861226135 0.309949885414 0)
(-0.0141908487087 0.312958067851 0)
(-0.0107459990504 0.31534086274 0)
(-0.00724938796191 0.317087397429 0)
(-0.00369986449976 0.318185885361 0)
(-9.76480746557e-05 0.318623866689 0)
(0.00355531311749 0.318388523379 0)
(0.00725502536864 0.317467093919 0)
(0.0109951615225 0.315847380099 0)
(0.0147668658558 0.313518330051 0)
(0.0185586370832 0.31047067304 0)
(0.022356343457 0.306697570031 0)
(0.0261433377583 0.302195234649 0)
(0.0299006945686 0.2969634749 0)
(0.0336074979255 0.291006106428 0)
(0.0372411515486 0.284331204017 0)
(0.0407775918652 0.276951179353 0)
(0.0441913348015 0.268882718994 0)
(0.0474552250978 0.260146662587 0)
(0.0505398403375 0.25076796929 0)
(0.0534125121949 0.240775972589 0)
(0.0560360617118 0.230205172805 0)
(0.0583675172585 0.21909684769 0)
(0.0603571950867 0.207501599861 0)
(0.0619490139046 0.195482932151 0)
(0.0630826456604 0.183121162168 0)
(0.063698556977 0.170516743568 0)
(0.0637456113942 0.157791017264 0)
(0.0631894089684 0.14508280178 0)
(0.0620180573511 0.132540877667 0)
(0.0602392724269 0.120320413897 0)
(0.057891824198 0.108576461893 0)
(0.0550386809304 0.0974609849354 0)
(0.0517979984738 0.0871079244997 0)
(0.0483343708062 0.0775909841011 0)
(0.0448022352351 0.0689066624446 0)
(0.0413048738007 0.0609979869232 0)
(0.0378790019179 0.0537973148986 0)
(0.034519780486 0.0472659775534 0)
(0.0312337117417 0.0413970581472 0)
(0.028054825744 0.0361873365741 0)
(0.0250312435968 0.0316164587537 0)
(0.0222107236152 0.0276420503757 0)
(0.0196296039037 0.0242025213234 0)
(0.0173032701855 0.0212259013353 0)
(0.0152244282078 0.0186431084118 0)
(0.0133730985241 0.0163970836016 0)
(0.0117269249827 0.0144433670358 0)
(0.0102667430151 0.0127456034902 0)
(0.00897596731059 0.0112709788084 0)
(0.00783703455412 0.00998994842047 0)
(0.00683271832841 0.00887741084849 0)
(0.00594726059486 0.00791207454705 0)
(0.00516582752139 0.00707596692915 0)
(0.00447467600794 0.00635871537622 0)
(0.0038682035819 0.00570698334235 0)
(0.00341076239498 0.00511629331785 0)
(0.00316411363702 0.00467010274961 0)
(0.00289972117041 0.00406208885752 0)
(0.00275971513219 0.00359913667276 0)
(0.00266185181554 0.00310279710207 0)
(0.00264224876066 0.00261397484088 0)
(0.00248392222792 0.00194323725 0)
(0.0026205905498 0.0014897686379 0)
(0.00302275090374 0.00121166559849 0)
(0.00315297638495 0.000817810460315 0)
(0.00318191169341 0.000456508720842 0)
(0.00316795650516 0.000150885949049 0)
(-0.0940674060286 0.00725002524188 0)
(-0.0994159974657 0.0233913864272 0)
(-0.0989878833055 0.0393032741439 2.46969401002e-27)
(-0.0980909259548 0.055246869895 0)
(-0.0968963665294 0.070994092779 0)
(-0.0954206819249 0.0865084462055 0)
(-0.0936780472701 0.101742362859 0)
(-0.0916845091907 0.116651949103 0)
(-0.089457743286 0.131196681712 0)
(-0.087016633452 0.145339751297 0)
(-0.084380836047 0.159048224934 0)
(-0.0815703381384 0.172293135088 0)
(-0.0786050217293 0.185049481664 0)
(-0.0755042372917 0.197296147921 0)
(-0.0722863988313 0.209015731715 0)
(-0.0689686060582 0.22019429285 0)
(-0.0655663103014 0.230821021309 0)
(-0.0620930334267 0.240887833061 0)
(-0.0585601587676 0.250388906709 0)
(-0.0549768015393 0.259320177901 0)
(-0.0513497718875 0.267678814497 0)
(-0.0476836270583 0.275462696909 0)
(-0.0439808119137 0.282669928912 0)
(-0.0402418692094 0.289298399455 0)
(-0.0364657067833 0.295345410134 0)
(-0.032649896842 0.300807373867 0)
(-0.0287909964929 0.305679583135 0)
(-0.0248848746283 0.309956040324 0)
(-0.0209270492137 0.313629344287 0)
(-0.0169130348073 0.316690604287 0)
(-0.0128387343709 0.319129502217 0)
(-0.00870078106869 0.320934244898 0)
(-0.00449702315515 0.322091735217 0)
(-0.000226959611399 0.322587804033 0)
(0.00410780486362 0.32240753894 0)
(0.00850312728612 0.321535737225 0)
(0.0129519480434 0.319957480827 0)
(0.0174440083688 0.317658816936 0)
(0.0219656969834 0.314627516016 0)
(0.0265000597447 0.310853860243 0)
(0.0310269840059 0.306331400314 0)
(0.0355235525758 0.301057606234 0)
(0.0399645212051 0.295034333839 0)
(0.0443228418878 0.288268042258 0)
(0.0485701031187 0.280769723327 0)
(0.0526767380235 0.272554566315 0)
(0.0566118161272 0.263641441112 0)
(0.0603422791133 0.254052402268 0)
(0.0638314955565 0.243812480679 0)
(0.0670372139959 0.232950221333 0)
(0.0699090586546 0.221499349328 0)
(0.0723862984655 0.209502227006 0)
(0.0743967653428 0.197015129204 0)
(0.0758587310304 0.184115177642 0)
(0.0766875536134 0.170907182264 0)
(0.0768076268422 0.15752666242 0)
(0.0761676957233 0.144135350521 0)
(0.0747500659627 0.130905156629 0)
(0.0725516919146 0.118019524315 0)
(0.0696173700723 0.105663626549 0)
(0.0659967709109 0.0940377060825 0)
(0.061854671169 0.0833441522185 0)
(0.0574623311676 0.0736815698121 0)
(0.0530664126102 0.0650053918205 0)
(0.0488117872396 0.0571802730574 0)
(0.0447073861762 0.0500672442249 0)
(0.0406812938251 0.0436112031609 0)
(0.0367141379201 0.0378360476447 0)
(0.032857080222 0.0327685120615 0)
(0.0291868632595 0.0283978182852 0)
(0.0257784814136 0.0246745702866 0)
(0.0226890672895 0.0215169823722 0)
(0.0199396875578 0.0188253450995 0)
(0.0175088119729 0.0165085762914 0)
(0.015357247669 0.0145015002866 0)
(0.0134485546147 0.0127618804696 0)
(0.0117582512977 0.0112582276266 0)
(0.0102690702172 0.00995891964422 0)
(0.0089589783447 0.00883371582889 0)
(0.00780579178169 0.0078585933507 0)
(0.00679059894692 0.0070136175552 0)
(0.00589489244184 0.00628171839397 0)
(0.0051012269506 0.00565529369012 0)
(0.00440166507551 0.00505895158371 0)
(0.00396309022008 0.00458694881698 0)
(0.00368911844659 0.00411846343462 0)
(0.00344241219305 0.00360990287482 0)
(0.00322112600953 0.00307696139582 0)
(0.0031647737713 0.00263488071774 0)
(0.00306487813225 0.00210091671794 0)
(0.00312064004098 0.00169235359378 0)
(0.00302154313957 0.0011687208096 0)
(0.00319472100755 0.000863718209551 0)
(0.00346485555026 0.000641291662524 0)
(0.0034570780145 0.000358059339288 0)
(0.00344315428212 0.000118333082289 0)
(-0.109440027057 0.00738361443627 0)
(-0.115657107235 0.0238863212488 0)
(-0.11514889172 0.0401192503329 -2.46931457267e-27)
(-0.114090113583 0.0563863314807 0)
(-0.112680597164 0.0724450077605 0)
(-0.110940206938 0.0882566976613 0)
(-0.108886233748 0.10377139816 0)
(-0.10653821853 0.118943220476 0)
(-0.103917645718 0.133730090412 0)
(-0.101047432803 0.14809411884 0)
(-0.0979514030098 0.162001774062 0)
(-0.0946537537667 0.175423971295 0)
(-0.0911785304459 0.188336066855 0)
(-0.0875491107273 0.200717759001 0)
(-0.0837877092055 0.212552893612 0)
(-0.0799149117433 0.223829174591 0)
(-0.0759492567725 0.234537779451 0)
(-0.07190688056 0.244672886787 0)
(-0.0678012491564 0.25423112795 0)
(-0.0636429937799 0.263210984656 0)
(-0.059439864993 0.271612160676 0)
(-0.0551968070297 0.27943496158 0)
(-0.0509161463115 0.286679715952 0)
(-0.0465978720411 0.293346266999 0)
(-0.0422399829197 0.29943355233 0)
(-0.0378388675074 0.304939276846 0)
(-0.0333896953196 0.309859670175 0)
(-0.0288868032912 0.314189312264 0)
(-0.0243240805218 0.317921011529 0)
(-0.0196953620238 0.321045695175 0)
(-0.0149948749951 0.323552459231 0)
(-0.0102176406873 0.325428457347 0)
(-0.00536006068358 0.326659055664 0)
(-0.000420460624913 0.327228039626 0)
(0.00460032346023 0.327117947813 0)
(0.00969837163692 0.326310564421 0)
(0.0148661663502 0.324787576109 0)
(0.0200921945833 0.322531379988 0)
(0.0253607215099 0.319526010567 0)
(0.030651788923 0.315758128026 0)
(0.0359414718395 0.311217983496 0)
(0.0412023998241 0.305900253958 0)
(0.0464044995461 0.299804624932 0)
(0.0515158594364 0.292936004886 0)
(0.0565035470138 0.285304287984 0)
(0.0613341463946 0.276923643706 0)
(0.0659737413118 0.267811422764 0)
(0.0703870560343 0.257986886373 0)
(0.0745355292993 0.247470178032 0)
(0.0783741605476 0.236282056334 0)
(0.0818472863305 0.224445320476 0)
(0.084883813981 0.211988779004 0)
(0.0873933376721 0.198954931778 0)
(0.0892661467661 0.185411612447 0)
(0.0903806593099 0.171465383948 0)
(0.0906236965685 0.157270963309 0)
(0.0899195752726 0.143025082447 0)
(0.088254949611 0.128924739455 0)
(0.0855968644448 0.115187590728 0)
(0.0820123258437 0.10202142261 0)
(0.0774587878783 0.0896981464206 0)
(0.0721637629413 0.0785732767898 0)
(0.0666101329419 0.0688024284397 0)
(0.0612119137917 0.0602557502257 0)
(0.0561835297933 0.0526385774056 0)
(0.0514520069378 0.0456664892725 0)
(0.0467711053745 0.0392724791311 0)
(0.042077285918 0.0335726704123 0)
(0.0374710435693 0.0286599370531 0)
(0.0330836759367 0.0245377553054 0)
(0.029033911084 0.021144150599 0)
(0.025415472621 0.0183636205693 0)
(0.0222605649073 0.0160455456139 0)
(0.0195134746681 0.0140605858612 0)
(0.0170967209024 0.0123367657602 0)
(0.0149508326736 0.0108443287693 0)
(0.0130493120361 0.00956608838472 0)
(0.01138296942 0.00847168105173 0)
(0.00992349546966 0.00752664958367 0)
(0.00864072481784 0.00670901479151 0)
(0.0075142236572 0.00600115519839 0)
(0.00652192771742 0.00538635917562 0)
(0.00564319232081 0.00485803810066 0)
(0.00486488713277 0.00432299350772 0)
(0.00446777310951 0.00395429901527 0)
(0.00415240151853 0.00349239386577 0)
(0.00396408118469 0.00308780375624 0)
(0.00376730463118 0.00261169694447 0)
(0.00362899884206 0.00214800571115 0)
(0.0034787300019 0.00166673683464 0)
(0.00343674788786 0.00127847584912 0)
(0.00350153569194 0.000962388015027 0)
(0.0034248996588 0.000630042965946 0)
(0.00370852913526 0.000461373336275 0)
(0.00366952165094 0.000273515340439 0)
(0.00364339663731 8.68712599961e-05 0)
(-0.125157876592 0.0075396358122 0)
(-0.132260017794 0.024466070176 0)
(-0.131664916596 0.0410746718623 0)
(-0.130433398783 0.0577201530419 0)
(-0.128794779594 0.0741426360443 0)
(-0.126772689056 0.0903010150165 0)
(-0.124387962549 0.106142362845 0)
(-0.121664113739 0.121618418625 0)
(-0.118626944975 0.136685274079 0)
(-0.115303931936 0.151303775173 0)
(-0.111723593656 0.165439701681 0)
(-0.107914862868 0.179063855718 0)
(-0.10390646201 0.192152048641 0)
(-0.0997262899534 0.204684986682 0)
(-0.0954008246356 0.216648052614 0)
(-0.0909545543421 0.228030976637 0)
(-0.0864094555477 0.238827393775 0)
(-0.0817845446259 0.249034288987 0)
(-0.077095532452 0.258651343557 0)
(-0.0723546124337 0.267680207097 0)
(-0.0675704024329 0.276123733567 0)
(-0.0627480495857 0.283985227096 0)
(-0.0578894859826 0.291267746355 0)
(-0.0529938067152 0.297973508056 0)
(-0.0480577250555 0.304103414568 0)
(-0.0430760578025 0.309656708172 0)
(-0.0380421998812 0.314630733176 0)
(-0.0329485697646 0.319020772614 0)
(-0.0277870298747 0.322819927891 0)
(-0.0225493094226 0.326018983064 0)
(-0.017227490423 0.328606431524 0)
(-0.0118144627724 0.330568272954 0)