/*--------------------------------*- C++ -*----------------------------------*\
| =========                 |                                                 |
| \\      /  F ield         | OpenFOAM: The Open Source CFD Toolbox           |
|  \\    /   O peration     | Version:  v1906                                 |
|   \\  /    A nd           | Web:      www.OpenFOAM.com                      |
|    \\/     M anipulation  |                                                 |
\*---------------------------------------------------------------------------*/
FoamFile
{
    version     2.0;
    format      ascii;
    class       volScalarField;
    location    "685";
    object      pa;
}
// * * * * * * * * * * * * * * * * * * * * * * * * * * * * * * * * * * * * * //

dimensions      [0 2 -2 0 0 0 0];


internalField   nonuniform List<scalar> 
9216
(
915.26505114
914.959581468
914.327643319
913.363746774
912.073302024
910.462369115
908.538494112
906.310585709
903.788778607
900.984305095
897.909357204
894.576954244
891.000801327
887.195159402
883.174709029
878.954431422
874.549484784
869.975102316
865.246485502
860.378722025
855.386697542
850.285033835
845.088018367
839.809561167
834.463140105
829.061774072
823.617981435
818.143766926
812.65059087
807.149367426
801.65044227
796.163602121
790.69805958
785.262466595
779.864906559
774.512917193
769.213485922
763.973077135
758.797631371
753.692596624
748.662930195
743.713132943
738.847252986
734.068921942
729.381359765
724.7874121
720.289555607
715.889935618
711.590371369
707.392393189
703.297247129
699.30593101
695.419198
691.637590946
687.961444588
684.390917728
680.925993895
677.566511077
674.312160811
671.16251537
668.117025408
665.175044652
662.335826375
659.598545779
656.962295656
654.426106741
651.988942984
649.649720193
647.407301328
645.260513759
643.208144949
641.248958615
639.381691081
637.605066548
635.917794327
634.31858333
632.806140275
631.379183436
630.036441818
628.77666812
627.598638796
626.501166115
625.48309896
624.543333807
623.680816033
622.89454955
622.183598245
621.547093694
620.984235655
620.494295701
620.076611599
619.73057543
619.455590606
619.250922844
619.113959864
619.056486682
915.569530713
915.262332812
914.628746134
913.660492138
912.363841778
910.745139606
908.812100491
906.573776197
904.040443213
901.223477127
898.135216584
894.788826446
891.198156469
887.377606187
883.341989778
879.10641214
874.686147658
870.09653351
865.352866712
860.470317476
855.463845908
850.348135527
845.137528685
839.845978508
834.487000741
829.073641482
823.618442749
818.133423328
812.630055589
807.119257199
801.611377428
796.116196569
790.642920146
785.200188061
779.796073491
774.438096571
769.133229276
763.887914262
758.708073386
753.599130165
748.566021149
743.613221058
738.74475615
733.964231153
729.274843875
724.679413113
720.180393807
715.779905173
711.479745758
707.281421103
703.186158107
699.194931604
695.308477535
691.527317912
687.851772423
684.281981388
680.817915557
677.459396837
674.206106209
671.057602165
668.013326829
665.072622224
662.234734822
659.498829872
656.863994723
654.329251546
651.893559812
649.555827774
647.314914508
645.169640498
643.118789599
641.161119031
639.295361542
637.520235039
635.834445133
634.236694533
632.725686069
631.300131879
629.958756908
628.700307836
627.523556961
626.427310767
625.410414032
624.471757858
623.610283814
622.824991213
622.114941033
621.479262193
620.917155055
620.4278968
620.010845866
619.665452429
619.39128303
619.188116378
619.056338578
618.998964508
916.202938462
915.891011801
915.251663482
914.274705959
912.966509419
911.333555044
909.38375221
907.126372713
904.571931028
901.732051931
898.619330019
895.247186771
891.629725568
887.781591197
883.717832482
879.453774163
875.004895099
870.386718605
865.614710533
860.704190669
855.670251765
850.52769173
845.29095226
839.974069637
834.59063023
829.153736903
823.675978379
818.169408384
812.64552627
807.115266583
801.588988996
796.076476064
790.586931233
785.128984077
779.710693902
774.33956078
769.02253439
763.766029676
758.575939557
753.457654059
748.416075933
743.455642317
738.580342402
733.793740778
729.098996365
724.498886668
719.995827256
715.591896201
711.288853428
707.088164656
702.991020004
698.998356826
695.110877026
691.329068278
687.653219626
684.083440717
680.619675415
677.261718831
674.009228863
670.861740992
667.818677817
664.879361766
662.04302286
659.308809604
656.675795326
654.142987621
651.709333662
649.373728597
647.135020242
644.992016812
642.943491361
640.988189172
639.124832226
637.35212648
635.668766561
634.073443061
632.564847536
631.141679852
629.802653474
628.54650281
627.371988699
626.27790563
625.263087273
624.32641341
623.466815332
622.683282299
621.974866659
621.340689781
620.779947037
620.291913884
619.875952633
619.531523234
619.258201536
619.055726973
618.924288155
618.862096991
917.176704997
916.859332816
916.210981613
915.220427305
913.894235357
912.239118534
910.263280739
907.976331308
905.389153198
902.513759438
899.36314352
895.951127311
892.29220885
888.401414616
884.294157234
879.986102365
875.493044455
870.830794301
866.015076946
861.061442179
855.985185145
850.80127891
845.524315736
840.168458793
834.747400687
829.27433071
823.761907129
818.222236792
812.66685841
807.106732169
801.552232058
796.013143784
790.498665096
785.017409788
779.57741417
774.186147645
768.850523756
763.576915136
758.371168427
753.238622589
748.184126679
743.212060598
738.326354868
733.530512995
728.827632482
724.220428054
719.711253178
715.302123435
710.99473787
706.790501817
702.690547433
698.695755363
694.806773873
691.024038835
687.347791005
683.778093938
680.314849116
676.957811588
673.706602851
670.560724187
667.519567381
664.582425939
661.748503887
659.016925178
656.386740953
653.856937545
651.426442637
649.094132299
646.858836487
644.719345527
642.674415338
640.722773709
638.863125546
637.094159187
635.41455186
633.822976168
632.318105837
630.898622395
629.563221188
628.310618189
627.139556172
626.048811514
625.037200375
624.103585325
623.246881343
622.466062108
621.760165711
621.128300579
620.569651059
620.083483482
619.669152713
619.326109976
619.053912356
618.852238623
618.721150664
618.658023767
918.494864777
918.170488497
917.50983125
916.500656307
915.149828381
913.46439762
911.452977756
909.125645018
906.493791208
903.569965214
900.36771007
896.901398405
893.186069653
889.237272852
885.070917057
880.703132094
876.150140417
871.428141774
866.553210291
861.541204776
856.407690902
851.167875383
845.836550201
840.428046695
834.95619738
829.434305462
823.875120078
818.290817625
812.692987478
807.092622814
801.500115
795.925252525
790.377223407
784.864619143
779.395443516
773.97712372
768.616523096
763.31995652
758.093206896
752.941543774
747.869742593
742.882105633
737.982483183
733.174296027
728.460557797
723.843898271
719.326586187
714.910552645
710.597413681
706.388493082
702.284844041
698.28727073
694.396348434
690.612443314
686.935730532
683.366211794
679.903731145
676.547990078
673.298560888
670.15489935
667.116355731
664.182185234
661.35155697
658.623562524
655.997223306
653.471497704
651.0452873
648.71744311
646.486771138
644.352038159
642.311977043
640.365292446
638.510666222
636.746763277
635.072237265
633.485736739
631.985911197
630.571417546
629.240926454
627.99312905
626.826743459
625.740521575
624.733255609
623.803784747
622.951001518
622.173858161
621.471372669
620.84263479
620.286811763
619.803154068
619.39100108
619.049786308
618.779041524
618.57840134
618.447871175
618.384690259
920.164066257
919.830828732
919.154409321
918.121345587
916.738912351
915.014614445
912.95760666
910.578576913
907.889580751
904.903863876
901.635681661
898.10011852
894.3129112
890.290279603
886.048767709
881.60509685
876.976032575
872.178266128
867.228310577
862.14241153
856.936471441
851.62598661
846.225995214
840.75103515
835.215109914
829.631661547
824.013549279
818.37303344
812.721763767
807.070772109
801.430468923
795.81064377
790.220469783
784.668508227
779.162719751
773.710476586
768.318576904
762.993261295
757.740230692
752.564665912
747.471248187
742.464180899
737.547211935
732.723656886
727.996422504
723.368030667
718.840642251
714.416081144
710.095857816
705.881192672
701.773038609
697.772103008
693.878868618
690.093613582
686.416430104
682.847242061
679.385821106
676.031801629
672.784694192
669.643897842
666.608711015
663.678341442
660.851914862
658.128482955
655.507030339
652.98648107
650.565704484
648.243520814
646.018706428
643.889999072
641.856102967
639.91569409
638.067425471
636.309932778
634.64184002
633.061765559
631.568328278
630.160154025
628.835882174
627.594172397
626.433711472
625.353220197
624.351460243
623.427240987
622.579426192
621.806940555
621.108776014
620.483997844
619.931750456
619.451262889
619.041853839
618.702935544
618.43401616
618.234702597
618.104975551
618.042108716
922.192750291
921.848593316
921.152715711
920.090148418
918.668693633
916.896440697
914.783234016
912.34053667
909.581241346
906.519468937
903.17036581
899.549903105
895.674682611
891.561752973
887.228438951
882.692185877
877.970420571
873.080429482
868.039253997
862.863602421
857.569777377
852.173617111
846.690448669
841.135051034
835.521626215
829.863776779
824.174488529
818.46611767
812.750381937
807.038355585
801.340468192
795.666507063
790.025623586
784.426339372
778.876559894
773.383588221
767.954141147
762.594367169
757.309865942
752.1057091
746.986462124
741.956207201
737.018566787
732.176727841
727.433466425
722.79117265
718.251875646
713.817268504
709.488732892
705.267363252
701.153990286
697.149203662
693.253373648
689.466671639
685.789089341
682.220456617
678.760457823
675.40864672
672.164459854
669.027228552
665.996189518
663.070494215
660.249217076
657.531362782
654.91587267
652.401630523
649.987467822
647.672168696
645.454474638
643.333089196
641.306682676
639.373897015
637.53335085
635.783644868
634.123367425
632.551100506
631.065425943
629.664931946
628.34821984
627.113911019
625.96065402
624.887131684
623.892068316
622.974236808
622.132465615
621.365645584
620.672736506
620.052773398
619.504872392
619.028236166
618.622158741
618.286029071
618.019333246
617.821658277
617.692970705
617.630623638
924.591306839
924.233971462
923.514633747
922.416500482
920.948033842
919.118056153
916.937272356
914.418107817
911.57448919
908.421612918
904.975714922
901.253845314
897.273653229
893.05318558
888.610702595
883.96451209
879.132823735
874.133623806
868.984570225
863.702906933
858.305395935
852.808264789
847.227166868
841.577151686
835.872642725
830.127420775
824.354611392
818.566675788
812.77540496
806.991917097
801.226659171
795.48941068
789.789292441
784.134775339
778.533695819
772.993271871
767.52012115
762.120280771
756.799228472
751.561904963
746.41273726
741.355662883
736.394154751
731.531246652
726.769559122
722.111325586
717.558418563
713.112375782
708.774425973
704.545514153
700.426326181
696.417312384
692.518710057
688.730564662
685.052749573
681.484984276
678.02685092
674.677809216
671.437209676
668.304305265
665.278261542
662.358165425
659.543032733
656.831814676
654.223403481
651.716637349
649.31030492
647.003149451
644.793872844
642.681139705
640.663581523
638.739801109
636.908377337
635.16787027
633.51682666
631.95378587
630.477286166
629.085871371
627.778097815
626.552541542
625.407805692
624.342527993
623.35538828
622.445115968
621.610497407
620.850383027
620.16369422
619.549429867
619.006672431
618.534593516
618.132458763
617.799631548
617.535575755
617.339860787
617.212439767
617.150760077
927.372254851
926.999248313
926.252067333
925.111743876
923.587555879
921.689233492
919.428542382
916.819087609
913.876056031
910.615947327
907.056309884
903.215486011
899.112371847
894.766195863
890.196318612
885.422055616
880.4625244
875.336516103
870.062391119
864.657997509
859.140609851
853.526885499
847.83283457
842.073799931
836.264443731
830.418737925
824.549957214
818.670673926
812.792755065
806.927362073
801.084954968
795.275298003
789.507470639
783.789879414
778.130275859
772.535774988
767.012875735
761.567482852
756.20492997
750.930003677
745.74696845
740.659592359
735.671173411
730.784566439
726.002210391
721.326155869
716.758092741
712.299377641
707.951061128
703.713914291
699.588454554
695.574970444
691.6735451
687.884078315
684.206306941
680.639823527
677.184093094
673.838468038
670.602201151
667.474456854
664.454320741
661.540807598
658.73286808
656.029394249
653.42922421
650.93114606
648.53390138
646.236188473
644.036665563
641.933954087
639.926642261
638.013288996
636.192428272
634.462574002
632.822225411
631.269872945
629.804004648
628.423113004
627.12570215
625.910295404
624.775443027
623.71973012
622.741784579
621.840285009
621.013968505
620.261638221
619.582170631
618.974522408
618.437736825
617.970949576
617.573393947
617.244404941
616.983422535
616.789997504
616.664067213
616.603182616
930.550452049
930.158996484
929.379117201
928.18928223
926.599773416
924.621439007
922.267343933
919.552528905
916.493703996
913.108933244
909.417329745
905.43876602
901.193605149
896.702456206
891.985956398
887.064581415
881.958484927
876.687367447
871.270373948
865.726018492
860.072132917
854.325835374
848.503513712
842.620818409
836.692660363
830.733210117
824.755896856
818.773407096
812.79768415
806.839929731
800.910610279
795.019465033
789.175518494
783.387096775
777.661848129
772.006764393
766.428204101
760.931916744
755.523067929
750.206265315
744.985585261
739.86460014
734.846406256
729.933652288
725.128568136
720.432994044
715.848409802
711.37596385
707.016502035
702.77059577
698.638569318
694.620525937
690.716372595
686.92584303
683.248518941
679.683849149
676.231166637
672.889703427
669.658603319
666.536932598
663.523688821
660.61780791
657.818169748
655.123602559
652.532886313
650.044755457
647.65790121
645.370973693
643.182584098
641.091307107
639.095683707
637.194224521
635.38541375
633.667713763
632.039570356
630.499418663
629.045689679
627.676817336
626.391246056
625.187438683
624.063884705
623.019108659
622.051678599
621.160214543
620.343396781
619.599973936
618.928770705
618.328695173
617.798745608
617.338016673
616.94570498
616.621113587
616.363655858
616.172861779
616.048649337
615.988682162
934.14334983
933.730315203
932.912298316
931.664769163
929.999244767
927.927949105
925.465534665
922.628782766
919.436235209
915.907821983
912.064507788
907.927962151
903.520258068
898.863601966
893.980096584
888.891537888
883.619246764
878.183935824
872.605610676
866.903503755
861.096036884
855.200807012
849.23458805
843.213341319
837.152227881
831.065618189
824.967097271
818.869466327
812.784743294
806.724165192
800.698195892
794.71653709
788.788141713
782.921236347
777.123344696
771.401312558
765.761334012
760.208978302
754.74921721
749.38645294
744.124546524
738.96684682
733.916220079
728.975080061
724.145418587
719.428836406
714.826574207
710.339543552
705.968357484
701.713360514
697.574657665
693.55214225
689.645522043
685.854343561
682.178014194
678.615821992
675.166953002
671.830506092
668.605505334
665.49091002
662.485622525
659.588494234
656.798329821
654.113890184
651.533894369
649.057020806
646.681908172
644.407156172
642.231326513
640.152944269
638.170499831
636.282451575
634.487229315
632.783238614
631.16886592
629.642484537
628.202461337
626.84716416
625.574969787
624.38427238
623.273492268
622.241084959
621.285550238
620.405441246
619.599373408
618.866033097
618.204185934
617.612684625
617.090476253
616.636608928
616.250237766
615.930629923
615.677168747
615.489360326
615.367099908
615.308173252
938.171307841
937.733125634
936.870807233
935.556336463
933.802755374
931.623984162
929.036615982
926.059539632
922.713493084
919.020622089
915.004070045
910.687602795
906.095271854
901.251117074
896.178909128
890.901932182
885.442807574
879.823359165
874.064520345
868.186280755
862.207668255
856.146758645
850.020703212
843.845763077
837.637340539
831.410000919
825.177483256
818.952702542
812.747748712
806.573887746
800.44156968
794.360442871
788.339368461
782.386450757
776.509064188
770.713882588
765.006908909
759.393504907
753.878420787
748.465824984
743.159334307
737.962044614
732.876562084
727.905035086
723.049186573
718.310346876
713.689486723
709.187250271
704.803987852
700.539788103
696.394509102
692.367808097
688.459169436
684.667930316
680.993304037
677.434400546
673.990244096
670.659787996
667.441926506
664.335504008
661.339321694
658.452142059
655.672691544
652.999661724
650.431709405
647.967456065
645.605486987
643.34435044
641.182557225
639.118580817
637.150858323
635.277792387
633.497754127
631.809087144
630.21011258
628.699135193
627.274450348
625.934351831
624.677140357
623.501132634
622.404670843
621.386132372
620.443939681
619.576570121
618.782565603
618.06054196
617.409197914
616.827323523
616.313808027
615.86764703
615.487948961
615.173940481
614.924971126
614.740519976
614.620455803
614.562696113
942.657984264
942.190536805
941.276849093
939.884868477
938.029531311
935.726859021
932.995822914
929.857864282
926.336349662
922.456046878
918.242650506
913.722357725
908.921494666
903.866191281
898.58210285
893.094177723
887.426472299
881.602015252
875.642722216
869.569359992
863.401555219
857.15783773
850.85570429
844.511686251
838.141406034
831.759612953
825.38019706
819.016187302
812.679743961
806.382155262
800.133844382
793.944385707
787.82252423
781.77621462
775.812653134
769.938312211
764.158974157
758.479763711
752.905179796
747.439127012
742.084947352
736.845452484
731.722956728
726.719310751
721.835935928
717.07385923
712.433748487
707.915947793
703.520512725
699.247245003
695.095726112
691.065349385
687.155350052
683.364832766
679.692796228
676.138154607
672.69975559
669.376394993
666.166828029
663.069777408
660.083938562
657.207982356
654.440555732
651.780280733
649.225752408
646.775536064
644.428164332
642.182134443
640.03590609
637.987900156
636.03649853
634.180045171
632.416848482
630.745185039
629.163304614
627.669436438
626.261796567
624.938596245
623.698051075
622.538390857
621.457869898
620.454777639
619.5274494
618.674277101
617.893719783
617.184313798
616.544682528
615.973545545
615.469727091
615.032163819
614.659911761
614.352152276
614.108196902
613.927494051
613.809882724
613.753421604
947.630823214
947.129298277
946.15603768
944.674330075
942.701486058
940.256147668
937.360212462
934.038217331
930.316671304
926.223435033
921.787176209
917.036895754
912.00151882
906.709543316
901.188740835
895.465908382
889.566673073
883.515354156
877.33488677
871.046808715
864.671305573
858.227301419
851.732574498
845.20387236
838.657002481
832.106883444
825.56755644
819.052170175
812.572957797
806.141225244
799.767352086
793.460811986
787.230204684
781.083301506
775.027086448
769.067797122
763.210962742
757.461439312
751.823443009
746.300582916
740.895893998
735.611870831
730.450502258
725.413306975
720.501369968
715.71537967
711.055665706
706.522236981
702.114819774
697.832895373
693.67573669
689.642443196
685.731973547
681.943175282
678.274811105
674.725581365
671.294142533
667.979121617
664.779126612
661.692753246
658.718588369
655.855210476
653.101187866
650.455075044
647.91540794
645.480698537
643.149429448
640.920048938
638.790966811
636.760551496
634.82712858
632.988980938
631.244350537
629.591441902
628.028427192
626.55345275
625.164646994
623.86012947
622.638020862
621.496453768
620.433584033
619.447602417
618.536746413
617.699312003
616.93366519
616.238253132
615.611614738
615.052390618
614.55933227
614.131310461
613.767322738
613.466499774
613.228110675
613.051569706
612.936682297
612.881657404
953.121668533
952.580365828
951.537885617
949.952157183
947.843501081
945.233856654
942.148741112
938.616452554
934.667252102
930.332634764
925.644713967
920.635703234
915.337478225
909.78120367
903.997015068
898.01375256
891.858751286
885.557697492
879.134560575
872.611607543
866.009497182
859.347438123
852.643380545
845.91420126
839.175842235
832.44337766
825.731011468
819.052031871
812.418757621
805.84250886
799.333601655
792.90137597
786.554246684
780.299760124
774.144647633
768.094874209
762.155680756
756.331621075
750.626595805
745.043885534
739.586184523
734.255635681
729.053866874
723.982028478
719.040832005
714.230589697
709.551254985
705.002463607
700.583575034
696.293713659
692.131809013
688.096634207
684.186841719
680.400995766
676.737600605
673.19512429
669.772017634
666.466728314
663.277710283
660.20342878
657.242361446
654.392996104
651.653825884
649.023342403
646.500027728
644.082345827
641.768734181
639.557596124
637.447294426
635.436146492
633.52242145
631.70433928
629.980072045
628.347747167
626.80545265
625.351244088
623.983153239
622.699197968
621.497393292
620.375763317
619.332353778
618.365244973
617.472564829
616.65250189
615.903318005
615.223360556
614.611074046
614.065010936
613.583841629
613.166363505
612.811509004
612.518352551
612.286116047
612.114175569
612.00229956
611.948855801
959.167545663
958.579612053
957.456407614
955.749718939
953.483737805
950.684596266
947.382316393
943.609774033
939.40170062
934.793839627
929.822269501
924.522855941
918.930799494
913.080250237
907.003972875
900.733058661
894.296693012
887.721996389
881.03395934
874.25548807
867.407563736
860.509497027
853.579234025
846.633648091
839.688748969
832.759764178
825.861099113
819.006229353
812.207590309
805.476516224
798.82323359
792.256902321
785.785698547
779.416890831
773.156909733
767.011405376
760.985293106
755.082790268
749.307448665
743.662186628
738.149322814
732.770612246
727.527284371
722.420082701
717.449305752
712.6148492
707.916249265
703.352727226
698.923234726
694.626499213
690.461068588
686.425353965
682.517669406
678.736267599
675.079370638
671.545195322
668.131972654
664.837961508
661.661456659
658.600791623
655.654336899
652.820494362
650.097688635
647.484356334
644.978934065
642.579846053
640.285492189
638.094237212
636.004401598
634.0142546
632.122009737
630.325822868
628.623792884
627.0139649
625.494335799
624.062861876
622.717468332
621.456060331
620.276535343
619.176796464
618.154766432
617.208402047
616.33570872
615.534754884
614.803686039
614.140738214
613.544250683
613.012677794
612.544599799
612.138732637
611.793936623
611.509223782
611.283763801
611.116890734
611.008331991
610.956622177
965.811671647
965.168731821
963.950866104
962.102860398
959.653971748
956.635729375
953.08379798
949.036629741
944.534260557
939.617361782
934.32652915
928.701737602
922.781900962
916.604490484
910.205186721
903.617561363
896.87280555
889.99953636
883.02372026
875.968748393
868.855680075
861.703636881
854.530284033
847.352292336
840.185657577
833.045790642
825.947393173
818.904228478
811.928910168
805.032792033
798.225967211
791.517345946
784.914790784
778.425224129
772.054718464
765.808562984
759.691309952
753.706807135
747.858225083
742.148086041
736.578297146
731.15018765
725.864549068
720.721677194
715.721415445
710.863199608
706.146104279
701.56889113
697.130058741
692.827893198
688.660518253
684.625943503
680.722109088
676.946925499
673.298307428
669.774200919
666.372603452
663.091576957
659.929254069
656.883838173
653.953598057
651.136858086
648.43198495
645.837372076
643.351422821
640.972533464
638.699077008
636.529388613
634.461753352
632.494396804
630.62547879
628.853090375
627.175254104
625.589927287
624.095008079
622.688344029
621.367742766
620.130984468
618.975835777
617.900064813
616.901456938
615.97783095
615.127055364
614.347064496
613.635874052
612.991596013
612.41245261
611.896789247
611.443086266
611.049969487
610.716219507
610.440779636
610.222762008
610.061454211
609.956538954
609.906724958
973.104782565
972.396409131
971.066698398
969.05253018
966.389927243
963.117461913
959.277909627
954.916507612
950.079540114
944.813326436
939.163535426
933.174700661
926.889836503
920.350085085
913.59435855
906.658975051
899.577317838
892.37957092
885.092599291
877.740040767
870.342653625
862.918912579
855.485766554
848.059382748
840.655651268
833.290270237
825.97844216
818.734412513
811.571084078
804.499833417
797.53053843
790.671750628
783.930910184
777.314504107
770.828179844
764.476818184
758.264574283
752.194897776
746.27054855
740.49361965
734.865569775
729.387262558
724.05900976
718.880616176
713.851425377
708.970366836
704.236005342
699.646593317
695.200125934
690.894398096
686.727061533
682.695679927
678.797779902
675.030896056
671.392608598
667.880572727
664.49253931
661.226366964
658.080025954
655.051594695
652.139249868
649.341251351
646.655923255
644.081632426
641.616765762
639.25970763
637.008818569
634.862416296
632.818759825
630.876037296
629.032357829
627.285747489
625.634149235
624.075426549
622.607370364
621.227708858
619.934119677
618.724244153
617.595703149
616.54611409
615.57310883
614.674351923
613.847558961
613.090514573
612.401089822
611.777258683
611.217113435
610.718878779
610.280924595
609.901777297
609.580129771
609.314849699
609.104986106
608.949775921
608.848852801
608.801106216
981.10691322
980.319849394
978.856675823
976.645487616
973.731566879
970.162812626
965.991001078
961.269585912
956.052118115
950.391271012
944.338291254
937.942670616
931.25188633
924.311111588
917.162849825
909.846496876
902.397879401
894.848855331
887.227088665
879.556119937
871.8558309
864.143330205
856.434154165
848.743498212
841.087057518
833.481078215
825.941678382
818.483946145
811.121253969
803.864979036
796.724629165
789.708211132
782.822582912
776.073681791
769.466655693
763.005933734
756.69525073
750.53764016
744.535427776
738.690245463
733.003064879
727.474241401
722.103562401
716.890295918
711.833238436
706.93076361
702.18087416
697.58125835
693.129351342
688.822400191
684.657529942
680.631807748
676.742301991
672.98613391
669.360519948
665.862803742
662.490477383
659.241192101
656.112759081
653.103141393
650.210438423
647.432864243
644.76872161
642.216373206
639.77421182
637.440630997
635.213997646
633.092627796
631.074766511
629.158572618
627.342108593
625.623335612
624.000113484
622.470205013
621.031284199
619.680947703
618.416729023
617.236114887
616.136563394
615.115523491
614.170455295
613.298850861
612.498254882
611.766284967
611.10065107
610.499173801
609.959801372
609.48062502
609.059892824
608.696021858
608.387608731
608.133438471
607.932491146
607.783948234
607.687390425
607.641893775
989.889837666
989.006828428
987.38236157
984.935057775
981.723245133
977.807355289
973.250566624
968.116171209
962.465989274
956.359635741
949.854296668
943.004705918
935.863107111
928.479073315
920.899130084
913.166196615
905.318920359
897.391034111
889.410911528
881.401528406
873.381030277
865.3640214
857.363482438
849.392873761
841.4676359
833.605149261
825.823260757
818.138548684
810.565122241
803.11426151
795.794792765
788.613849089
781.577476871
774.690926329
767.958771811
761.384962777
754.972814744
748.724947504
742.643238615
736.728826888
730.982154399
725.403020947
719.990641221
714.743698483
709.660393023
704.738490524
699.975375127
695.368109849
690.913505376
686.608195464
682.448714988
678.431575979
674.553337322
670.810664781
667.20037911
663.719491096
660.365223204
657.135018268
654.026536161
651.037639894
648.166372828
645.410928916
642.769617971
640.240828033
637.822986825
635.514524236
633.313837584
631.219261172
629.229041314
627.34131764
625.554110988
623.865317793
622.272710474
620.773943058
619.366561249
618.048016103
616.815680664
615.666868974
614.598856986
613.6089049
612.69428043
611.852282471
611.080264626
610.375658085
609.735993422
609.158920952
608.642229404
608.183862739
607.781935047
607.434743528
607.140779602
606.898738075
606.707524076
606.566259199
606.474466585
606.431414018
999.540497325
998.538502739
996.715953538
993.981846342
990.413550685
986.088554108
981.084379904
975.475836067
969.333808903
962.725143115
955.713038624
948.357544561
940.715870763
932.842371008
924.788140951
916.600264314
908.320816517
899.985806844
891.624316742
883.258169393
874.902511058
866.567622354
858.261990649
849.996015742
841.784908111
833.648446704
825.607775472
817.682095248
809.886623496
802.232223771
794.7263941
787.374824796
780.182440779
773.153665851
766.292445147
759.602254206
753.086038992
746.746045121
740.583699912
734.599611829
728.793641439
723.164977288
717.712208162
712.433383276
707.326057445
702.387334763
697.613920196
693.002183087
688.54823505
684.248019468
680.097405915
676.09228231
672.228638501
668.502636905
664.910667614
661.449386816
658.115738473
654.906960036
651.820573628
648.854364592
646.006349627
643.274736871
640.657880442
638.154231893
635.762291058
633.480558607
631.307492488
629.241470092
627.280757629
625.423487657
623.66764509
622.011061392
620.451416111
618.986244604
617.612950714
616.328823366
615.131056217
614.016769796
612.983035651
612.026902063
611.145420761
610.335674048
609.594801619
608.920026509
608.308679586
607.758222221
607.266266836
606.830595207
606.449174454
606.120170772
605.841961004
605.613142199
605.432538401
605.299206387
605.21260773
605.172206268
1010.16593259
1009.01337439
1006.94262769
1003.85419666
999.854502535
995.044396138
989.519042636
983.366149451
976.665906283
969.492087359
961.913485129
953.99519932
945.799448923
937.385775045
928.810582084
920.12608034
911.378777448
902.607749397
893.843036083
885.104664616
876.40297633
867.740999963
859.119333044
850.542835768
842.02670553
833.595827554
825.277645163
817.095928115
809.06740852
801.201687208
793.503605822
785.976426156
778.623606387
771.448673966
764.454937691
757.645462589
751.022968933
744.589432888
738.345838937
732.292206295
726.427741666
720.750952119
715.259740891
709.951475728
704.823020381
699.870764813
695.090670859
690.478336854
686.029087179
681.738081916
677.600434511
673.611326136
669.766107515
666.060382866
662.490073207
659.051458282
655.741197527
652.556331437
649.494265374
646.552738407
643.729779975
641.023657386
638.432817111
635.955822924
633.591293787
631.337844361
629.194030769
627.158303939
625.2289724
623.404175694
621.681868792
620.059816882
618.535599172
617.106619857
615.770124501
614.523220341
613.362899592
612.286065191
611.289558666
610.370189754
609.524767211
608.750130011
608.043178103