/*--------------------------------*- C++ -*----------------------------------*\
| =========                 |                                                 |
| \\      /  F ield         | OpenFOAM: The Open Source CFD Toolbox           |
|  \\    /   O peration     | Version:  v1906                                 |
|   \\  /    A nd           | Web:      www.OpenFOAM.com                      |
|    \\/     M anipulation  |                                                 |
\*---------------------------------------------------------------------------*/
FoamFile
{
    version     2.0;
    format      ascii;
    class       volScalarField;
    location    "119";
    object      alpha;
}
// * * * * * * * * * * * * * * * * * * * * * * * * * * * * * * * * * * * * * //

dimensions      [0 0 -1 0 0 0 0];


internalField   nonuniform List<scalar> 
9216
(
138.335221051
199.99786608
199.998029977
199.998029977
199.998029977
199.998165008
199.998165008
199.998165008
199.998165008
199.998165008
199.998032263
199.997760889
199.997796214
199.997478573
199.997478573
199.997478573
199.997760889
199.997989565
199.997989565
199.997989565
199.997989565
199.997484679
199.997373624
199.997373624
199.997373624
199.997373624
199.996984339
199.996807751
199.996659008
199.99636942
199.996289246
199.995427012
199.99569687
199.996555975
199.99663436
199.997086646
199.997112465
199.997112465
199.997112465
199.997112465
199.997112465
199.996846041
199.996379359
199.996335775
199.99668217
199.99668217
199.99668217
199.99668217
199.99668217
199.996660604
199.996767375
199.996880004
199.997004402
199.997112465
199.997112465
199.997039776
199.996794596
199.996479629
199.995962282
199.995205506
199.994542408
199.993946459
199.993488407
199.992930029
199.991885432
199.990350282
199.988931617
199.988457538
199.986841492
199.984804528
199.982931628
199.980660757
199.978672783
199.976744809
199.973265014
199.967276891
199.960511034
199.953183947
199.941296716
199.919348438
199.86080194
199.272068003
191.142134408
175.502947829
159.415831943
147.108171646
133.850916203
114.147302994
90.4375388331
70.5476892751
52.8331037204
39.2360205767
28.6048084792
18.8251732545
11.4237222822
1.27317782885
199.997731881
199.998150982
199.998165008
199.998165008
199.998165008
199.998165008
199.998165008
199.998029977
199.998029977
199.998029977
199.998029977
199.998029977
199.997775892
199.997493576
199.997493576
199.997493576
199.997596871
199.997609188
199.997609188
199.997485495
199.997879943
199.997713238
199.997459153
199.99718275
199.997071888
199.997071888
199.997071888
199.997071888
199.997067138
199.996641593
199.996293055
199.996293055
199.996293055
199.996293055
199.996293055
199.996293055
199.996293055
199.99597937
199.99597937
199.995697053
199.995697053
199.995697053
199.995697053
199.995218948
199.995218948
199.995218948
199.995218948
199.995218948
199.995218948
199.995218948
199.995218948
199.995218948
199.995218948
199.994811027
199.99449024
199.994445624
199.994123143
199.993578466
199.991901155
199.990417455
199.989221444
199.98822991
199.987300204
199.986859003
199.985728459
199.983406981
199.980880243
199.980013842
199.980191142
199.980827144
199.979991828
199.977201586
199.973898287
199.970288855
199.965798157
199.959342393
199.95335588
199.952841985
199.954667754
199.942251225
199.919144878
199.812541422
198.948962622
188.962269931
175.092592643
160.773166984
148.112576173
127.110917843
107.55765467
83.4983233901
62.8338246643
50.4885094198
40.6105770209
25.9352696223
17.177507436
13.9075449315
199.998029977
199.998182203
199.998124878
199.998215205
199.998029977
199.998029977
199.998029977
199.998029977
199.998029977
199.998029977
199.997879943
199.997879943
199.997879943
199.997879943
199.997176837
199.997459153
199.997459153
199.997459153
199.997459153
199.997459153
199.997459153
199.997459153
199.997459153
199.997071888
199.997071888
199.996699382
199.996359277
199.996010738
199.996010738
199.996010738
199.995697053
199.995697053
199.995218948
199.995218948
199.995218948
199.995218948
199.995218948
199.995218948
199.995218948
199.995218948
199.995218948
199.995218948
199.99468772
199.99468772
199.993959012
199.993959012
199.993303175
199.993303175
199.992712922
199.991903247
199.991903247
199.991903247
199.991903247
199.991903247
199.991903247
199.991903247
199.991903247
199.99157604
199.990685632
199.989004495
199.98746858
199.986242071
199.985102742
199.983714393
199.981492943
199.978351271
199.974967634
199.972169633
199.96903324
199.964615248
199.959830782
199.958964428
199.952662419
199.955073189
199.947774784
199.937204447
199.929104586
199.920994054
199.908944196
199.89835492
199.879400949
199.665800488
197.049206695
186.100655516
172.948667169
157.90963015
137.911227554
128.46512653
114.598481584
86.7656568182
59.9887164452
55.044606108
39.6771361297
30.4405411784
26.9390375244
17.9808704168
199.998165008
199.998215205
199.998215205
199.998215205
199.998029977
199.998029977
199.998029977
199.998029977
199.997879943
199.997879943
199.997879943
199.997879943
199.997879943
199.997459153
199.997459153
199.997459153
199.997459153
199.997459153
199.997459153
199.997459153
199.997459153
199.997176837
199.997176837
199.996789572
199.996359277
199.996010738
199.995697053
199.995697053
199.995218948
199.995218948
199.995218948
199.995218948
199.995218948
199.995218948
199.995218948
199.995218948
199.99468772
199.99468772
199.99468772
199.99468772
199.993368759
199.992712922
199.991903247
199.991903247
199.991903247
199.991903247
199.991903247
199.991903247
199.991903247
199.991903247
199.991003608
199.991003608
199.991003608
199.991003608
199.991003608
199.991003608
199.991003608
199.991003608
199.990921886
199.989672009
199.988000227
199.986473612
199.984825602
199.983326245
199.981165578
199.978013717
199.974334797
199.971132376
199.968127143
199.963970724
199.95943135
199.953736149
199.946997911
199.945028407
199.934410743
199.923442989
199.914356935
199.905256337
199.893236155
199.871848378
199.679770983
196.523256042
187.079102812
177.904520202
167.235920471
151.004741943
136.599374545
127.63452968
107.187279605
92.9896023438
75.1492852364
51.9598048546
48.3539360206
39.6843442738
33.3045544369
21.6667617086
199.998165008
199.998215205
199.998215205
199.998121577
199.998029977
199.998029977
199.998029977
199.997879943
199.997879943
199.997879943
199.997879943
199.997879943
199.997459153
199.997459153
199.997459153
199.997459153
199.997459153
199.997459153
199.997459153
199.997176837
199.997176837
199.997176837
199.996789572
199.996359277
199.995697053
199.995697053
199.995218948
199.995218948
199.995218948
199.995218948
199.995218948
199.995218948
199.99468772
199.99468772
199.99468772
199.99468772
199.99468772
199.994097467
199.992712922
199.991903247
199.991903247
199.991903247
199.991903247
199.991903247
199.991003608
199.991003608
199.991003608
199.991003608
199.991003608
199.991003608
199.991003608
199.991003608
199.990004008
199.990004008
199.990004008
199.990004008
199.990004008
199.990004008
199.990004008
199.988304949
199.986731302
199.984440118
199.981930858
199.980043241
199.977817861
199.973995351
199.971329554
199.969409169
199.96572334
199.961277707
199.957167118
199.954135106
199.947353268
199.938343738
199.925683522
199.915242379
199.913587776
199.905364036
199.893511325
199.871704699
199.660898288
196.376088816
186.845864398
173.271083179
158.521995477
141.827645815
127.531670551
120.166699083
116.252077758
95.37833657
82.8881712127
62.2210404299
47.7791928733
47.6854013555
43.8479415792
31.9602047474
199.998165008
199.998215205
199.998215205
199.998029977
199.998029977
199.998029977
199.997879943
199.997879943
199.997879943
199.997879943
199.997879943
199.997713238
199.997459153
199.997459153
199.997459153
199.997459153
199.997459153
199.997176837
199.997176837
199.997176837
199.997176837
199.996789572
199.996359277
199.995697053
199.995218948
199.995218948
199.995218948
199.995218948
199.995218948
199.995218948
199.99468772
199.99468772
199.99468772
199.99468772
199.99468772
199.994097467
199.992712922
199.992712922
199.991903247
199.991903247
199.991903247
199.991903247
199.991003608
199.991003608
199.991003608
199.991003608
199.991003608
199.990004008
199.990004008
199.990004008
199.990004008
199.990004008
199.988893343
199.988893343
199.988893343
199.98765927
199.98765927
199.986288077
199.986288077
199.984673849
199.978429136
199.973810083
199.970455212
199.968180883
199.966488053
199.964960827
199.96067459
199.960051896
199.957540208
199.953927719
199.950013795
199.94383699
199.935774156
199.924495046
199.916038991
199.915073082
199.907482677
199.891855892
199.882315195
199.869870016
199.671212155
193.802658455
180.444867599
171.125683416
157.098628722
141.624836361
135.249329338
120.548446151
104.082456432
88.0032886465
89.0850043177
77.3644234385
57.4857196638
54.0390304693
53.3803417496
40.8698426297
199.998165008
199.998215205
199.998215205
199.998029977
199.998029977
199.997879943
199.997879943
199.997879943
199.997879943
199.997879943
199.997879943
199.997459153
199.997459153
199.997459153
199.997176837
199.997176837
199.997176837
199.997176837
199.997176837
199.997176837
199.997176837
199.996359277
199.995697053
199.995218948
199.995218948
199.995218948
199.995218948
199.995218948
199.99468772
199.99468772
199.99468772
199.99468772
199.99468772
199.994097467
199.994097467
199.992712922
199.991903247
199.991903247
199.991903247
199.991903247
199.991003608
199.991003608
199.991003608
199.991003608
199.990004008
199.990004008
199.990004008
199.990004008
199.990004008
199.988893343
199.988893343
199.988893343
199.98765927
199.98765927
199.986288077
199.986288077
199.98476453
199.98476453
199.978824552
199.968577967
199.966488053
199.96067459
199.96067459
199.96067459
199.9563051
199.9563051
199.9563051
199.9563051
199.951450111
199.951437028
199.949377567
199.943432179
199.935796536
199.926489065
199.916745407
199.91457479
199.901789446
199.889089276
199.883800218
199.84110927
199.010217277
191.267396003
176.010178835
165.022880927
153.881040002
141.177876367
130.808434802
120.871482365
103.723852792
97.6361356923
84.6253492612
85.2954820113
75.2168264237
62.5739406428
62.6032247696
49.53986876
199.998165008
199.998215205
199.998215205
199.998029977
199.998029977
199.99806517
199.99806517
199.997879943
199.997879943
199.997879943
199.997625858
199.997459153
199.997459153
199.997176837
199.997176837
199.997176837
199.997176837
199.997176837
199.997176837
199.997176837
199.996789572
199.996010738
199.995218948
199.995218948
199.995218948
199.995218948
199.995218948
199.99468772
199.99468772
199.99468772
199.99468772
199.99468772
199.994097467
199.994097467
199.992712922
199.991903247
199.991903247
199.991903247
199.991003608
199.991003608
199.991003608
199.991003608
199.991003608
199.990004008
199.990004008
199.990004008
199.990004008
199.988893343
199.988893343
199.988893343
199.98765927
199.98765927
199.986288077
199.986288077
199.98476453
199.98476453
199.9830717
199.969325935
199.964607131
199.96067459
199.96067459
199.9563051
199.9563051
199.951450111
199.951450111
199.946055679
199.946055679
199.940061865
199.940061865
199.940061865
199.933402073
199.933313385
199.928224152
199.920181839
199.910537973
199.90203402
199.895685974
199.885174752
199.881098824
199.814481808
199.105996708
187.942867126
175.946592799
165.950032808
151.615387635
141.315393519
126.333419411
115.65039537
106.354434242
102.20828341
94.6198742493
84.931385611
86.2127296674
70.5105817146
71.4313592823
58.4643893319
199.998243828
199.998215205
199.998215205
199.998215205
199.99806517
199.99806517
199.99806517
199.997879943
199.997879943
199.997879943
199.997625858
199.997459153
199.997176837
199.997176837
199.997176837
199.997176837
199.997176837
199.997176837
199.997176837
199.997176837
199.996359277
199.995697053
199.995218948
199.995218948
199.995218948
199.995218948
199.99468772
199.99468772
199.99468772
199.99468772
199.99468772
199.994097467
199.994097467
199.992712922
199.991903247
199.991903247
199.991903247
199.991003608
199.991003608
199.991003608
199.991003608
199.990004008
199.990004008
199.990004008
199.990004008
199.988893343
199.988893343
199.988893343
199.98765927
199.98765927
199.986288077
199.986288077
199.98476453
199.98476453
199.9830717
199.977624738
199.964607131
199.96067459
199.96067459
199.9563051
199.9563051
199.951450111
199.951450111
199.946055679
199.940061865
199.940061865
199.933402073
199.933402073
199.926002303
199.926002303
199.926002303
199.917780337
199.917780337
199.913716481
199.904835622
199.896234427
199.885424931
199.885746892
199.871765455
199.733208797
198.410621407
184.662140482
174.496483126
163.608485769
153.528410236
143.329858112
131.177568563
116.912160216
107.525502784
95.9435325012
100.587490081
94.9739108674
88.3308139337
83.0845978996
78.5820962261
66.4346671156
199.998350236
199.998215205
199.998215205
199.998215205
199.99806517
199.99806517
199.99806517
199.997879943
199.997879943
199.997879943
199.997625858
199.997459153
199.997176837
199.997176837
199.997176837
199.997176837
199.997176837
199.997176837
199.997176837
199.996789572
199.995697053
199.995218948
199.995218948
199.995218948
199.995218948
199.99468772
199.99468772
199.99468772
199.99468772
199.99468772
199.994097467
199.99344163
199.992712922
199.991903247
199.991903247
199.991903247
199.991003608
199.991003608
199.991003608
199.991003608
199.990004008
199.990004008
199.990004008
199.990004008
199.988893343
199.988893343
199.98765927
199.98765927
199.986288077
199.986288077
199.986288077
199.98476453
199.98476453
199.9830717
199.972558457
199.964607131
199.96067459
199.9563051
199.9563051
199.951450111
199.951450111
199.946055679
199.940061865
199.933402073
199.933402073
199.926002303
199.926002303
199.917780337
199.917780337
199.908644819
199.908644819
199.908644819
199.908644819
199.898494243
199.895013839
199.89030269
199.88395775
199.884030643
199.865725685
199.637507814
194.923082933
184.185530414
172.302627825
162.050491595
153.878497951
143.56903366
130.664245535
119.615599052
110.612890962
103.979671395
97.9780050478
100.60387635
95.9536275916
93.6417022843
85.6635277387
75.4008813707
199.998350236
199.998215205
199.998215205
199.998215205
199.99806517
199.99806517
199.99806517
199.997879943
199.997879943
199.997625858
199.997459153
199.997176837
199.997176837
199.997176837
199.997176837
199.997176837
199.997176837
199.997176837
199.997176837
199.996045592
199.995697053
199.995218948
199.995218948
199.995218948
199.99468772
199.99468772
199.99468772
199.99468772
199.994097467
199.994097467
199.994097467
199.992712922
199.992712922
199.991903247
199.991903247
199.991003608
199.991003608
199.991003608
199.990004008
199.990004008
199.990004008
199.990004008
199.988893343
199.988893343
199.988893343
199.98765927
199.98765927
199.986288077
199.986288077
199.98476453
199.98476453
199.9830717
199.9830717
199.972558457
199.96067459
199.96067459
199.9563051
199.9563051
199.951450111
199.946055679
199.940061865
199.933402073
199.933402073
199.926002303
199.917780337
199.917780337
199.908644819
199.908644819
199.898494243
199.898494243
199.898494243
199.887215825
199.887215825
199.887215825
199.887215825
199.887215825
199.885041742
199.874353699
199.84766796
199.435114016
193.601481784
184.273829086
172.749524696
163.564698956
154.188350413
140.185429181
129.66208573
121.662846589
117.616043204
111.404573707
106.78465505
99.2768682738
102.36130512
105.582106084
93.4135548498
82.2680003795
199.998350236
199.998215205
199.998215205
199.998215205
199.99806517
199.99806517
199.99806517
199.997879943
199.997879943
199.997625858
199.997459153
199.997176837
199.997176837
199.997176837
199.997176837
199.997176837
199.997176837
199.997176837
199.996863152
199.995697053
199.995218948
199.995218948
199.995218948
199.99468772
199.99468772
199.99468772
199.99468772
199.994097467
199.994097467
199.994097467
199.992712922
199.992712922
199.991903247
199.991903247
199.991003608
199.991003608
199.991003608
199.990004008
199.990004008
199.990004008
199.990004008
199.988893343
199.988893343
199.988893343
199.98765927
199.98765927
199.986288077
199.986288077
199.98476453
199.98476453
199.9830717
199.9830717
199.972558457
199.96067459
199.9563051
199.9563051
199.951450111
199.951450111
199.946055679
199.940061865
199.933402073
199.926002303
199.917780337
199.917780337
199.908644819
199.908644819
199.898494243
199.887215825
199.887215825
199.887215825
199.87468425
199.87468425
199.87468425
199.860760278
199.860760278
199.860760278
199.860760278
199.859894972
199.811708338
199.219554109
193.614466152
185.154100891
173.086981739
164.733490727
153.564321591
141.49968192
133.562771889
126.873288726
120.093922874
115.953159167
111.679388849
108.469312458
103.499849965
110.558581991
100.818672764
87.7582240401
199.998578912
199.998443881
199.998215205
199.998215205
199.99806517
199.99806517
199.99806517
199.997879943
199.997879943
199.997625858
199.997459153
199.997176837
199.997176837
199.997176837
199.997176837
199.997176837
199.997176837
199.996863152
199.996045592
199.995697053
199.995218948
199.995218948
199.995218948
199.99468772
199.99468772
199.99468772
199.994097467
199.994097467
199.994097467
199.99344163
199.992712922
199.991903247
199.991903247
199.991003608
199.991003608
199.991003608
199.990004008
199.990004008
199.990004008
199.988893343
199.988893343
199.988893343
199.98765927
199.98765927
199.98765927
199.986288077
199.986288077
199.98476453
199.98476453
199.9830717
199.9830717
199.978323956
199.96067459
199.9563051
199.9563051
199.951450111
199.946055679
199.940061865
199.940061865
199.932201986
199.926002303
199.917780337
199.908644819
199.898494243
199.898494243
199.887215825
199.887215825
199.87468425
199.87468425
199.860760278
199.860760278
199.845289198
199.845289198
199.845289198
199.845289198
199.845289198
199.845289198
199.81937774
199.772612166
199.487842729
194.651244305
182.120041578
172.692178599
166.21776068
154.165065622
146.365101022
138.445695819
130.723471057
123.889669965
119.689056345
115.257097267
112.03721666
110.289069532
113.724069019
107.346138878
93.0181999166
199.998578912
199.998443881
199.998443881
199.998215205
199.99806517
199.99806517
199.99806517
199.997879943
199.997879943
199.997625858
199.997459153
199.997176837
199.997176837
199.997176837
199.997176837
199.997176837
199.996863152
199.996863152
199.995697053
199.995697053
199.995218948
199.995218948
199.99468772
199.99468772
199.99468772
199.994097467
199.994097467
199.994097467
199.99344163
199.992712922
199.991903247
199.991903247
199.991003608
199.991003608
199.991003608
199.990004008
199.990004008
199.990004008
199.988893343
199.988893343
199.988893343
199.98765927
199.98765927
199.986288077
199.986288077
199.986288077
199.98476453
199.98476453
199.9830717
199.9830717
199.981190778
199.96067459
199.9563051
199.9563051
199.951450111
199.946055679
199.940061865
199.933402073
199.926002303
199.917780337
199.908644819
199.908644819
199.898494243
199.887215825
199.887215825
199.87468425
199.860760278
199.860760278
199.845289198
199.845289198
199.845289198
199.828099109
199.828099109
199.828099109
199.828099109
199.80899901
199.802741162
199.770635673
199.633265937
198.877452083
192.106993458
184.661632185
176.068925227
167.863520943
160.358188502
148.972911642
142.008488653
133.853868939
127.586129473
125.521384304
119.703775332
116.982171701
114.421967071
112.731663524
115.954780692
97.815981714
199.998578912
199.998443881
199.998443881
199.998443881
199.99806517
199.99806517
199.99806517
199.997879943
199.997879943
199.997459153
199.997459153
199.997176837
199.997176837
199.997176837
199.997176837
199.996863152
199.996863152
199.996475887
199.995697053
199.995218948
199.995218948
199.995218948
199.99468772
199.99468772
199.994097467
199.994097467
199.994097467
199.99344163
199.992712922
199.992712922
199.991903247
199.991903247
199.991003608
199.991003608
199.990004008
199.990004008
199.990004008
199.988893343
199.988893343
199.988893343
199.98765927
199.98765927
199.986288077
199.986288077
199.98476453
199.98476453
199.98476453
199.9830717
199.9830717
199.981190778
199.96067459
199.9563051
199.9563051
199.951450111
199.946055679
199.940061865
199.933402073
199.926002303
199.917780337
199.908644819
199.898494243
199.887215825
199.87468425
199.87468425
199.860760278
199.845289198
199.845289198
199.828099109
199.828099109
199.828099109
199.80899901
199.80899901
199.80899901
199.80899901
199.80899901
199.780421497
199.757479733
199.665446244
199.373897445
198.213468904
191.364708809
182.793828015
180.164136036
172.968215243
161.635381851
153.927737721
142.385697937
137.056499374
133.887110319
130.564034528
124.67701192
121.432086151
118.036103881
116.364576231
121.83034786
102.277984053
199.998578912
199.99864969
199.998443881
199.998443881
199.998293847
199.99806517
199.99806517
199.99806517
199.997625858
199.997459153
199.997459153
199.997176837
199.997176837
199.997176837
199.997176837
199.996863152
199.996863152
199.996127348
199.995697053
199.995218948
199.995218948
199.99468772
199.99468772
199.99468772
199.994097467
199.994097467
199.99344163
199.992712922
199.992712922
199.991903247
199.991903247
199.991003608
199.991003608
199.990004008
199.990004008
199.990004008
199.988893343
199.988893343
199.988893343
199.98765927
199.98765927
199.986288077
199.986288077
199.98476453
199.98476453
199.98476453
199.9830717
199.9830717
199.981190778
199.964607131
199.9563051
199.9563051
199.951450111
199.946055679
199.940061865
199.926002303
199.917780337
199.908644819
199.898494243
199.887215825
199.87468425
199.87468425
199.860760278
199.845289198
199.828099109
199.828099109
199.80899901
199.80899901
199.80899901
199.787776678
199.787776678
199.787776678
199.787776678
199.787390103
199.784287745
199.776315145
199.652388168
199.451047948
198.861395899
196.574660806
189.243690722
183.282929335
182.767521043
174.898630048
164.802157052
154.831417139
146.457537731
144.931530904
140.462553526
133.597368352
127.844777426
124.955344985
122.773197251
119.585042177
123.298638042
106.029410993
199.998578912
199.99864969
199.99864969
199.998443881
199.998293847
199.99806517
199.99806517
199.99806517
199.997625858
199.997459153
199.997176837
199.997176837
199.997176837
199.997176837
199.996863152
199.996863152
199.996514613
199.995697053
199.995697053
199.995218948
199.995218948
199.99468772
199.99468772
199.994097467
199.994097467
199.99344163
199.99344163
199.992712922
199.991903247
199.991903247
199.991003608
199.991003608
199.990004008
199.990004008
199.990004008
199.988893343
199.988893343
199.98765927
199.98765927
199.98765927
199.986288077
199.986288077
199.98476453
199.98476453
199.9830717
199.9830717
199.9830717
199.981190778
199.979100865
199.9563051
199.9563051
199.951450111
199.946055679
199.933402073
199.926002303
199.917780337
199.908644819
199.887215825
199.87468425
199.860760278
199.845289198
199.828099109
199.80899901
199.80899901
199.77244486
199.775250469
199.787776678
199.783216771
199.744981245
199.752871175
199.754597477
199.754734119
199.752281242
199.747093211
199.736027971
199.701631417
199.526604965
199.033208529
197.984169543
193.76507465
188.162578682
187.978097889
182.450429011
174.633433299
165.204411647
154.749998597
151.210795849
148.925767712
138.356870606
133.827486367
131.626569457
127.681541061
125.954740796
122.757333337
124.385391096
108.901840862
199.998784721
199.99864969
199.99864969
199.99864969
199.998499655
199.998293847
199.99806517
199.99806517
199.997625858
199.997459153
199.997176837
199.997176837
199.997176837
199.997176837
199.996863152
199.996863152
199.996127348
199.995697053
199.995218948
199.995218948
199.99468772
199.99468772
199.994097467
199.994097467
199.99344163
199.99344163
199.992712922
199.991903247
199.991903247
199.991003608
199.991003608
199.990004008
199.990004008
199.990004008
199.988893343
199.988893343
199.98765927
199.98765927
199.986288077
199.986288077
199.986288077
199.98476453
199.98476453
199.9830717
199.9830717
199.981190778
199.981190778
199.979100865
199.96067459
199.9563051
199.951450111
199.946055679
199.933402073
199.926002303
199.908644819
199.898494243
199.87468425
199.831685125
199.787776678
199.764196308
199.737995898
199.737995898
199.737995898
199.702492018
199.533436311
199.727317226
199.719391625
199.639695088
199.672278787
199.700600824
199.681290648
199.688611519
199.679005679
199.656301935
199.61686733
199.550912089
199.407623131
199.02169763
198.095115026
195.155072123
190.598904666
185.836571753
180.100894987
173.514603768
164.630264412
155.60292099
154.688939346
147.50077498
141.510577097
138.203630548
135.152947399
132.384608115
127.316318135
126.105056738
124.443815674
111.405781281
199.998784721
199.99864969
199.99864969
199.99864969
199.998499655
199.998499655
199.99806517
199.997879943
199.997459153
199.997459153
199.997176837
199.997176837
199.997176837
199.996863152
199.996863152
199.996514613
199.996127348
199.995697053
199.995218948
199.995218948
199.99468772
199.99468772
199.994097467
199.99344163
199.99344163
199.992712922
199.992712922
199.991903247
199.991003608
199.991003608
199.990004008
199.990004008
199.990004008
199.988893343
199.988893343
199.98765927
199.98765927
199.986288077
199.986288077
199.98476453
199.98476453
199.98476453
199.9830717
199.9830717
199.981190778
199.981190778
199.979100865
199.964607131
199.9563051
199.951450111
199.940061865
199.933402073
199.917780337
199.898494243
176.733553067
0
0
0
0
0
0
0
0
0
3.9484150754
12.9947523339
65.8960337311
168.020006973
199.62312065
199.592682568
199.419635421
199.498658041
199.355186801
199.367124899
199.415000361
199.288413385
198.973394676
197.046498724
196.401802135
192.269705095
187.777803605
182.800466837
177.889082452
172.331859568
164.595980745
158.147089256
159.643173004
151.629496222
146.992908066
143.223787316
139.4022736
134.991772709
130.664776087
128.598935506
125.177007166
114.170962379
199.998784721
199.99864969
199.99864969
199.99864969
199.998499655
199.998499655
199.998293847
199.997879943
199.997459153
199.997459153
199.997176837
199.997176837
199.997176837
199.996863152
199.996514613
199.996127348
199.995697053
199.995697053
199.995218948
199.99468772
199.99468772
199.994097467
199.994097467
199.99344163
199.992712922
199.992712922
199.991903247
199.991003608
199.991003608
199.990004008
199.990004008
199.990004008
199.988893343
199.988893343
199.98765927
199.98765927
199.986288077
199.986288077
199.98476453
199.98476453
199.9830717
199.9830717
199.9830717
199.981190778
199.981190778
199.979100865
199.976778739
199.9563051
199.951450111
199.940061865
199.933402073
199.908644819
0
0
0
0
0
0
0
0
0
0
0
0
0
0
0
2.98241008611
8.19334916486
36.3952816799
144.940436632
198.801245738
198.805727729
198.899314736
198.387478345
197.895872326
196.770637579
192.821806655
193.06794164
188.994651252
184.825602329
180.197855431
175.88503325
171.210739118
165.714485602
165.662289147
161.822672328
153.827271449
151.280684709
147.445266441
143.085964246
138.957075134
135.662783469
130.584428609
128.206148479
116.946342707
199.998784721
199.99864969
199.99864969
199.99864969
199.998499655
199.998499655
199.998293847
199.997879943
199.997459153
199.997459153
199.997176837
199.997176837
199.996863152
199.996863152
199.996514613
199.996127348
199.995697053
199.995218948
199.995218948
199.99468772
199.994097467
199.994097467
199.99344163
199.992712922
199.992712922
199.991903247
199.991003608
199.991003608
199.990004008
199.990004008
199.988893343
199.988893343
199.98765927
199.98765927
199.986288077
199.986288077
199.986288077
199.98476453
199.98476453
199.9830717
199.9830717
199.981190778
199.981190778
199.979100865
199.979100865
199.976778739
199.9563051
199.951450111
199.940061865
199.926002303
0.0419266273499
0
0
0
0
0
0
0
0
0
0
0
0
0
0
0
0
0
0
0.287449137045
4.63466189835
13.1205030633
58.7527172098
181.372854769
191.216272332
196.292521332
192.893650856
188.520908204
185.345088158
185.984117093
181.506766915
177.105498478
173.768569391
169.815534764
165.765618497
166.658409819
162.06265706
156.780892096
154.305954993
150.158763182
146.019272636
141.708184225
139.555388689
133.61254213
131.209114391
119.20848765
199.998784721
199.99864969
199.99864969
199.99864969
199.998499655
199.998499655
199.998293847
199.997713238
199.997459153
199.997459153
199.997176837
199.997176837
199.996863152
199.996514613
199.996127348
199.995697053
199.995697053
199.995218948
199.99468772
199.99468772
199.994097467
199.99344163
199.99344163
199.992712922
199.991903247
199.991003608
199.991003608
199.990004008
199.990004008
199.988893343
199.988893343
199.98765927
199.98765927
199.986288077
199.986288077
199.98476453
199.98476453
199.9830717
199.9830717
199.9830717
199.981190778
199.981190778
199.979100865
199.979100865
199.976778739
199.96067459
199.951450111
199.940061865
199.917780337
0
0
0
0
0
0
0
0
0
0
0
0
0
0
0
0
0
0
0
0
0
0
0
2.88032345034
8.47953701859
45.3852105177
160.595011221
178.661963901
182.980563064
180.805807872
177.678913638
173.661187634
174.763457486
171.658954058
167.763184499
164.333179116
166.150440374
161.59402605
161.047504301
152.669232817
149.805586098
147.424494065
143.159382723
141.047350798
136.654974415
132.520634293
120.062689437
199.998784721
199.99864969
199.99864969
199.99864969
199.998499655
199.998499655
199.998293847
199.997713238
199.997459153
199.997459153
199.997176837
199.997176837
199.996863152
199.996514613
199.996127348
199.995697053
199.995218948
199.99468772
199.99468772
199.994097467
199.99344163
199.99344163
199.992712922
199.991903247
199.991003608
199.991003608
199.990004008
199.990004008
199.988893343
199.988893343
199.98765927
199.986288077
199.986288077
199.986288077
199.98476453
199.98476453
199.9830717
199.9830717
199.981190778
199.981190778
199.979100865
199.979100865
199.976778739
199.974198598
199.968146418
199.951450111
199.940061865
199.908644819
0
0
0
0
0
0
0
0
0
0
0
0
0
0
0
0
0
0
0
0
0
0
0
0
0
0
2.22155036608
8.41310870979
40.2314859284
147.926848149