/*--------------------------------*- C++ -*----------------------------------*\
| =========                 |                                                 |
| \\      /  F ield         | OpenFOAM: The Open Source CFD Toolbox           |
|  \\    /   O peration     | Version:  v1906                                 |
|   \\  /    A nd           | Web:      www.OpenFOAM.com                      |
|    \\/     M anipulation  |                                                 |
\*---------------------------------------------------------------------------*/
FoamFile
{
    version     2.0;
    format      ascii;
    class       surfaceScalarField;
    location    "699";
    object      phi;
}
// * * * * * * * * * * * * * * * * * * * * * * * * * * * * * * * * * * * * * //

dimensions      [0 3 -1 0 0 0 0];
oriented        oriented;


internalField   nonuniform List<scalar> 
18240
(
-0.00019954690899
0.000199552050747
-0.000408543775441
0.000209001984845
-0.000616150241588
0.000207612208814
-0.000820736517574
0.000204591560506
-0.00102124831689
0.000200517893388
-0.00121675755334
0.000195514871836
-0.00140644017706
0.000189689035253
-0.00158957652433
0.000183142562129
-0.00176554894385
0.000175979130477
-0.00193384339639
0.000168301477117
-0.00209404617618
0.000160209727935
-0.00224583700332
0.000151798873745
-0.00238898607055
0.000143156142272
-0.00252333794517
0.000134361130525
-0.00264881315638
0.000125482240002
-0.00276538285168
0.000116580312773
-0.00287307926688
0.000107703183034
-0.00297196048292
9.8893303968e-05
-0.00306213351122
9.01792553746e-05
-0.00314370769345
8.1587797511e-05
-0.0032168334662
7.31311555831e-05
-0.00328164236816
6.4824040181e-05
-0.00333830388897
5.66656974827e-05
-0.0033869497962
4.86624978139e-05
-0.0034277510558
4.08038759677e-05
-0.0034608243234
3.30911607144e-05
-0.00348633043582
2.55067731432e-05
-0.00350436135414
1.80498813829e-05
-0.00351506138358
1.06983867744e-05
-0.003518493623
3.45193421617e-06
-0.00351478421126
-3.71372547426e-06
-0.00350396787161
-1.07963608442e-05
-0.00348615547564
-1.78196607364e-05
-0.00346136025653
-2.47755383355e-05
-0.00342968661798
-3.168412707e-05
-0.00339113876408
-3.85291730286e-05
-0.00334582846701
-4.53241501544e-05
-0.0032937695457
-5.20420565498e-05
-0.00323510017592
-5.86866771998e-05
-0.00316986753599
-6.52184531312e-05
-0.00309825884344
-7.16293520174e-05
-0.00302038123113
-7.786692037e-05
-0.002936494234
-8.39107640186e-05
-0.00284679041599
-8.96972576566e-05
-0.00275162147414
-9.51953400692e-05
-0.00265128511094
-0.000100334293184
-0.00254623716567
-0.000105076369308
-0.00243688979134
-0.000109349722644
-0.00232380384998
-0.000113115584538
-0.00220750235562
-0.000116307590624
-0.00208864054658
-0.000118891751797
-0.00196783702253
-0.00012081219146
-0.00184582326504
-0.000122043132012
-0.00172329317856
-0.000122539981586
-0.00160103689144
-0.000122284592658
-0.00147980525428
-0.000121241779768
-0.00136042906929
-0.000119403309665
-0.00124368728408
-0.000116751995957
-0.00113040708976
-0.000113306480189
-0.00102133256916
-0.000109085215524
-0.000917209597598
-0.000104148849081
-0.000818657899956
-9.85633862642e-05
-0.000726241513707
-9.24421232779e-05
-0.000640354236116
-8.58997988506e-05
-0.000561311110112
-7.90685286868e-05
-0.000489258456423
-7.20648769462e-05
-0.000424249243933
-6.50338227715e-05
-0.000366146397371
-5.81140884834e-05
-0.000314711575728
-5.14587556373e-05
-0.000269538574541
-4.51835939305e-05
-0.000230172396919
-3.93900286231e-05
-0.000196059254353
-3.4123713247e-05
-0.000166671701306
-2.94116805749e-05
-0.000141453106064
-2.52295672816e-05
-0.00011992990794
-2.15476972565e-05
-0.000101635584038
-1.83059585526e-05
-8.61940177018e-05
-1.54664157317e-05
-7.32213257588e-05
-1.29851222597e-05
-6.24015239258e-05
-1.08448705964e-05
-5.34061640853e-05
-9.00849359243e-06
-4.59795340905e-05
-7.45164878647e-06
-3.9863321135e-05
-6.12992612856e-06
-3.48763160442e-05
-5.01162108066e-06
-3.08591682433e-05
-4.03111675348e-06
-2.78247240928e-05
-3.05867854273e-06
-2.52928134615e-05
-2.54832975685e-06
-2.29865593641e-05
-2.33294533198e-06
-2.10058983665e-05
-2.00317362127e-06
-1.90772996344e-05
-1.96164161947e-06
-1.69890300538e-05
-2.12128208078e-06
-1.48471074374e-05
-2.18592294703e-06
-1.26245521879e-05
-2.2699508579e-06
-1.00737039711e-05
-2.6074413163e-06
-7.00113907176e-06
-3.13718795354e-06
-3.43309639903e-06
-3.64222242585e-06
-3.47101954505e-06
-0.000211116709548
0.000410674064794
-0.000434809617045
0.00043270021962
-0.000656286901451
0.000429095293112
-0.000874298423997
0.000422608797125
-0.00108784062951
0.000414066177389
-0.00129596507902
0.000403645418494
-0.0014978056898
0.000391536106911
-0.00169259951159
0.000377942993151
-0.00187969292255
0.000363079474841
-0.00205854378714
0.000347159596481
-0.00222871854865
0.000330391951423
-0.00238988563282
0.00031297396178
-0.00254180896267
0.000295087466084
-0.00268433526287
0.000276896249234
-0.00281738779833
0.000258543266969
-0.00294094938653
0.000240151555552
-0.00305505953954
0.000221822229613
-0.00315979415689
0.000203638384522
-0.00325526842934
0.000185662690618
-0.00334161328947
0.00016794384983
-0.00341898560542
0.000150512705243
-0.00348754077989
0.00013339100086
-0.00354745117766
0.000116585171775
-0.00359887391341
0.000100097424757
-0.0036419780854
8.39166781159e-05
-0.00367690674789
6.8032173095e-05
-0.00370381335332
5.24212560661e-05
-0.00372281710978
3.70658456362e-05
-0.00373404890286
2.19369455771e-05
-0.00373759952105
7.01425359002e-06
-0.0037335754168
-7.73254512122e-06
-0.00372204020011
-2.23208090295e-05
-0.00370307965141
-3.67768198453e-05
-0.00367673638158
-5.11094694429e-05
-0.00364308432489
-6.53351049901e-05
-0.00360215798508
-7.94481560737e-05
-0.00355403501669
-9.34487833691e-05
-0.00349876116232
-0.000107311131799
-0.003436439189
-0.000121013452824
-0.00336715098398
-0.000134505039633
-0.00329105018238
-0.000147738409813
-0.0032082828746
-0.000160636249964
-0.00311908044824
-0.000173125039917
-0.00302368025841
-0.000185103390132
-0.00292241479044
-0.000196476179336
-0.00281563351463
-0.000207125464317
-0.00270378461432
-0.000216943840547
-0.00258733923453
-0.000225808616652
-0.00246686306662
-0.000233612864993
-0.00234294419908
-0.000240242779017
-0.0022162537783
-0.000245604799449
-0.00208747894419
-0.000249604913769
-0.00195737478929
-0.000252170294637
-0.00182670475337
-0.000253228306947
-0.00169628861177
-0.000252723274701
-0.00156695077772
-0.000250597548919
-0.00143956277969
-0.000246813109369
-0.00131498673626
-0.000241345468001
-0.00119410021521
-0.000234214221292
-0.00107773421749
-0.000225468671699
-0.00096668669702
-0.000215217541745
-0.000861659353684
-0.000203608673985
-0.000763252051628
-0.000190870887509
-0.000671900825442
-0.000177269547392
-0.000587927693892
-0.000163063171748
-0.000511512456075
-0.000148498075754
-0.000442705380728
-0.000133861525608
-0.000381371582759
-0.000119464766126
-0.000327224428457
-0.000105625700225
-0.000279816049988
-9.2608297773e-05
-0.000238612468907
-8.0613191334e-05
-0.000203004275784
-6.97483386398e-05
-0.000172385319458
-6.00504912956e-05
-0.00014615633734
-5.14753556687e-05
-0.000123789305877
-4.39350177204e-05
-0.000104806303641
-3.73063928744e-05
-8.88049722548e-05
-3.14886192089e-05
-7.53998854259e-05
-2.64082657889e-05
-6.42414489792e-05
-2.20246013912e-05
-5.49904010513e-05
-1.8278105775e-05
-4.73587882571e-05
-1.51047542128e-05
-4.10784287847e-05
-1.24291607012e-05
-3.59222427089e-05
-1.01892118531e-05
-3.16532894712e-05
-8.31901888832e-06
-2.79470494687e-05
-6.78600255502e-06
-2.48183655654e-05
-5.69717255566e-06
-2.2367200931e-05
-4.80805521475e-06
-2.03642701219e-05
-4.03125706775e-06
-1.85447989649e-05
-3.8108887734e-06
-1.67030218399e-05
-3.99789901051e-06
-1.46560225444e-05
-4.27514026554e-06
-1.24389259598e-05
-4.53382609213e-06
-1.00191158677e-05
-5.08167135274e-06
-7.13359961083e-06
-6.08715361802e-06
-3.54355226702e-06
-7.30125643678e-06
-7.04725106535e-06
-0.000213976907341
0.000624656151088
-0.000439954772681
0.000658683665096
-0.000663899852898
0.000653045913676
-0.000884301518391
0.000643016192417
-0.00110007707897
0.000629847623915
-0.00131024071956
0.000613815134684
-0.0015139070225
0.000595208722866
-0.00171030278257
0.000574345324812
-0.00189877227559
0.00055155581227
-0.00207877779237
0.000527172299188
-0.00224989584636
0.000501517459709
-0.00241180972459
0.000474895719149
-0.00256430065738
0.000447586505033
-0.00270723578402
0.000419839986356
-0.00284055791375
0.000391874148321
-0.00296427163136
0.000363874606222
-0.00307843442861
0.00033599437449
-0.0031831426452
0.000308356599321
-0.00327852567429
0.000281055556627
-0.00336473238556
0.00025416111481
-0.00344192919141
0.00022771968777
-0.00351028684615
0.000201759602838
-0.00356998255169
0.00017629118435
-0.00362118663585
0.000151312637153
-0.0036640686184
0.000126808853348
-0.00369878319487
0.000102757794852
-0.00372548011645
7.91279528371e-05
-0.00374428903538
5.588541573e-05
-0.00375533315008
3.29900855475e-05
-0.00375871272003
1.04037131663e-05
-0.00375452248856
-1.19148970536e-05
-0.00374283391301
-3.40006754885e-05
-0.00372371651875
-5.58879052119e-05
-0.00369721920142
-7.75997401404e-05
-0.00366339545406
-9.91546021709e-05
-0.0036222842005
-0.000120554553412
-0.00357393874135
-0.000141792552193
-0.00351840756365
-0.000162840212217
-0.0034557662995
-0.000183656112359
-0.00338609876818
-0.000204173776
-0.00330953070283
-0.00022431139059
-0.00322621090465
-0.000243960985284
-0.00313634483011
-0.000262999829153
-0.00304017536417
-0.000281281741774
-0.00293801399111
-0.000298650119403
-0.00283022042373
-0.000314931842598
-0.00271722912905
-0.000329951356023
-0.00259952718103
-0.000343526932957
-0.00247767460089
-0.000355484664568
-0.00235228026488
-0.000365656124284
-0.00222401574154
-0.00037389037545
-0.0020935902388
-0.000380050836064
-0.00196176012899
-0.000384022021546
-0.00182930753862
-0.00038570154415
-0.00169705270046
-0.000384999409865
-0.00156584208798
-0.000381828221363
-0.00143656292233
-0.000376112752282
-0.00131012081063
-0.00036780682284
-0.00118742640235
-0.000356928587283
-0.00106936829518
-0.00034354549672
-0.000956789175991
-0.000327816673117
-0.000850463157672
-0.000309953766654
-0.000751025031305
-0.000290329432093
-0.00065891162897
-0.000269402968619
-0.000574441204407
-0.000247554128271
-0.000497827759316
-0.000225131026684
-0.000429142717272
-0.00020256606612
-0.000368252525414
-0.000180373269236
-0.000314821403219
-0.000159075404353
-0.000268336727768
-0.000139110693003
-0.000228177335557
-0.000120791081553
-0.000193659350254
-0.000104284109781
-0.00016410060403
-8.96280175064e-05
-0.000138854833731
-7.67392629789e-05
-0.00011736333088
-6.54457579002e-05
-9.91621710219e-05
-5.5526395429e-05
-8.38739070812e-05
-4.67967931001e-05
-7.11386908694e-05
-3.91629597386e-05
-6.05960983875e-05
-3.25875965676e-05
-5.19000451175e-05
-2.69940267953e-05
-4.47543526146e-05
-2.22710847441e-05
-3.88990235533e-05
-1.83044830791e-05
-3.4109164921e-05
-1.49996672804e-05
-3.01759670583e-05
-1.22720786526e-05
-2.68859092003e-05
-1.00966524738e-05
-2.4087658659e-05
-8.51698606576e-06
-2.15542423659e-05
-7.36568998482e-06
-1.9217308028e-05
-6.39412190342e-06
-1.73450481611e-05
-5.71290269161e-06
-1.58183804189e-05
-5.55985486378e-06
-1.38151385398e-05
-6.31959310711e-06
-1.1373480616e-05
-7.02231787978e-06
-8.78001857602e-06
-7.72891096266e-06
-5.89067777409e-06
-9.0331913054e-06
-3.0333719749e-06
-1.02164585427e-05
-1.01107183585e-05
-0.000217400998192
0.000842062166527
-0.000446736786501
0.000888024490156
-0.000673963183921
0.00088027773387
-0.000897470715649
0.000866529194515
-0.00111611157924
0.000848494188472
-0.00132885445363
0.000826563881785
-0.0015347854245
0.000801145822231
-0.0017331170288
0.000772683310135
-0.00192319187099
0.000741637341316
-0.00210448133496
0.000708468761628
-0.00227657970086
0.000673623166396
-0.00243919488604
0.00063751859632
-0.00259213694348
0.000600536607565
-0.00273530490391
0.000563016367317
-0.00286867364327
0.000525251647576
-0.00299228016997
0.000487490271194
-0.00310621169618
0.00044993533265
-0.00321059335099
0.000412748050521
-0.00330557892149
0.000376051144975
-0.00339134069927
0.000339933236722
-0.00346806326823
0.000304452715811
-0.003535935349
0.000269642414181
-0.0035951464158
0.000235512965874
-0.00364588002642
0.000202057154536
-0.00368831283339
0.000169252387387
-0.00372260884508
0.000137064630606
-0.00374892046199
0.000105450029352
-0.00376738327433
7.43586627538e-05
-0.00377811892189
4.37355852547e-05
-0.00378123028218
1.352475764e-05
-0.00377680616371
-1.6330154697e-05
-0.00376491698236
-4.58813412252e-05
-0.00374562153923
-7.51759318969e-05
-0.00371896351461
-0.00010425090088
-0.00368498056135
-0.000133132089057
-0.00364370199049
-0.000161828455454
-0.00359516037498
-0.000190331222149
-0.00353939068045
-0.000218608031271
-0.00347644418384
-0.00024660277292
-0.00340638894858
-0.000274230515923
-0.00332932528781
-0.000301378851815
-0.00324538692166
-0.000327904687668
-0.00315475655174
-0.000353637975104
-0.00305766642548
-0.000378381279693
-0.00295441205193
-0.000401916367265
-0.00284535057838
-0.000424006839413
-0.00273091055779
-0.000444407189874
-0.00261158676104
-0.000462867953097
-0.00248794452107
-0.00047914597386
-0.00236060993536
-0.000493010620942
-0.00223026821278
-0.000504253140795
-0.00209764922995
-0.000512691008234
-0.001963521861
-0.000518171056301
-0.00182868137718
-0.000520563381392
-0.00169395256882
-0.000519749514429
-0.00156019709517
-0.000515604289764
-0.00142833223562
-0.00050799773894
-0.00129932287933
-0.000496835829538
-0.00117413422312
-0.000482136098107
-0.00105373884294
-0.000463960276719
-0.000939047329416
-0.000442526936517
-0.000830970433207
-0.000418050102932
-0.000730215622807
-0.000391104041182
-0.000637167772022
-0.000362471354125
-0.000552128335262
-0.00033261416769
-0.000475381035886
-0.000301898142557
-0.000407066129649
-0.000270900483876
-0.00034705415775
-0.000240403764796
-0.000294931269102
-0.000211216759542
-0.000250063248786
-0.000183996865595
-0.000211689938107
-0.000159182632973
-0.000178998714787
-0.000136993674335
-0.000151189841612
-0.00011745537699
-0.000127530898449
-0.000100416805069
-0.000107419655805
-8.55760261817e-05
-9.04217728421e-05
-7.25437467524e-05
-7.62357643802e-05
-6.10026932993e-05
-6.45517580245e-05
-5.08670514915e-05
-5.49845085134e-05
-4.21751571309e-05
-4.71580368965e-05
-3.48410054229e-05
-4.07713905063e-05
-2.86781970699e-05
-3.55801059315e-05
-2.35161108526e-05
-3.13722038714e-05
-1.92278873902e-05
-2.79630444775e-05
-1.57014050833e-05
-2.52029875284e-05
-1.28772483679e-05
-2.25572961142e-05
-1.11852444095e-05
-2.01775401079e-05
-9.77044514974e-06
-1.81047049263e-05
-8.49404303928e-06
-1.60176963928e-05
-7.83006340679e-06
-1.38509582455e-05
-7.76051837523e-06
-1.21945355482e-05
-8.01555176533e-06
-9.87071559862e-06
-9.39200765283e-06
-7.10586915616e-06
-1.05420202156e-05
-4.71422467243e-06
-1.14751975723e-05
-2.45810816922e-06
-1.25245164006e-05
-1.25944605453e-05
-0.000221971718405
0.0010640385723
-0.000455981625664
0.00112203953472
-0.000687706861482
0.00111200796648
-0.000915442768223
0.00109427035737
-0.00113796688316
0.00107102368068
-0.00135419060421
0.00104279321912
-0.00156316281546
0.00101012387683
-0.00176407802889
0.000973604658918
-0.00195627850557
0.000933844243816
-0.0021392503406
0.000891447372062
-0.00231261474352
0.000846994673334
-0.00247611554699
0.000801026896041
-0.00262960463163
0.00075403353408
-0.00277302598391
0.000706445976173
-0.00290640004598
0.000658634304276
-0.00302980830304
0.000610907538399
-0.00314337965423
0.000563516001653
-0.00324727763794
0.000516655744006
-0.00334169010063
0.000470473567351
-0.0034268195744
0.000425073015363
-0.003502876248
0.000380519863524
-0.00357007108542
0.000336847998724
-0.00362861149333
0.000294064182446
-0.00367869643929
0.000252153088245
-0.00372051410194
0.000211080970908
-0.00375423830379
0.000170799812688
-0.00378002758428
0.000131250067864
-0.00379802249891
9.23642521739e-05
-0.00380834583813
5.40691980722e-05
-0.0038111006555
1.62895900192e-05
-0.00380637164166
-2.1049767832e-05
-0.00379422406403
-5.80199829e-05
-0.00377470663521
-9.46852849201e-05
-0.00374785176002
-0.000131098415198
-0.00371368033707
-0.000167297299607
-0.00367220383466
-0.000203299753514
-0.00362343144957
-0.000239099875197
-0.00356737436824
-0.000274662726762
-0.00350405533883
-0.00030992122758
-0.00343351502536
-0.000344771923254
-0.00335582341965
-0.000379073631219
-0.00327108746659
-0.000412645731535
-0.00317946285373
-0.000445269904537
-0.00308116126923
-0.000476692260826
-0.00297646034016
-0.000506628965373
-0.00286570832204
-0.000534772615734
-0.00274932988236
-0.00056080154306
-0.00262782615813
-0.000584389382001
-0.00250177466283
-0.000605216811394
-0.00237182296436
-0.000622982602693
-0.0022386813427
-0.000637415966162
-0.00210310783803
-0.000648285980488
-0.00196589309478
-0.00065540744399
-0.0018278441823
-0.000658633936872
-0.00168978295004
-0.000657831953589
-0.00155257324094
-0.000652834194143
-0.00141717171963
-0.000643419297571
-0.00128463695922
-0.000629388778868
-0.00115599915241
-0.000610793280349
-0.0010323573316
-0.000587619126819
-0.000914680965232
-0.00056022238106
-0.000804168740444
-0.00052858055251
-0.000701687104304
-0.000493605475754
-0.000607391407311
-0.000456787565593
-0.00052151801027
-0.000418507996407
-0.000444520709769
-0.000378915549737
-0.000376713140834
-0.000338727242329
-0.000317987805282
-0.000299147801214
-0.000267794305915
-0.00026142863239
-0.000225291695056
-0.000226517669
-0.000189506470263
-0.00019498636451
-0.000159432425645
-0.000167086030047
-0.000134096533923
-0.000142810027619
-0.000112623452599
-0.000121908472469
-9.43370150209e-05
-0.000103881877014
-7.88671504597e-05
-8.80333078762e-05
-6.61019444805e-05
-7.37883659038e-05
-5.58415416845e-05
-6.11478211393e-05
-4.76160506078e-05
-5.04216162581e-05
-4.0962760231e-05
-4.15150357373e-05
-3.55836196801e-05
-3.40782526801e-05
-3.12699601824e-05
-2.78500360424e-05
-2.78267077731e-05
-2.26915842379e-05
-2.50822543157e-05
-1.84659849388e-05
-2.29229074003e-05
-1.50576238133e-05
-2.08775479334e-05
-1.32542086928e-05
-1.88159092125e-05
-1.18578890648e-05
-1.64173236955e-05
-1.09203428597e-05
-1.4154725206e-05
-1.01228798908e-05
-1.20021220468e-05
-9.94740484174e-06
-1.01660971735e-05
-9.88872001417e-06
-8.480909882e-06
-1.11198259634e-05
-6.07967293757e-06
-1.29900327364e-05
-3.80441714021e-06
-1.37946810476e-05
-1.94008154339e-06
-1.44324337827e-05
-1.45572279252e-05
-0.000227832633848
0.00129187561655
-0.000467899326433
0.00136211054426
-0.00070543143532
0.00134954484837
-0.000938602453901
0.0013274461867
-0.00116609487204
0.00129852116135
-0.00138674860653
0.00126345220102
-0.00159956675067
0.00122294754113
-0.00180372370394
0.00117776740281
-0.00199856499981
0.00112869166401
-0.002183600052
0.00107648887549
-0.00235848909483
0.00102189055335
-0.00252302640414
0.000965571403296
-0.00267712122714
0.00090813597329
-0.00282077825824
0.000850110997642
-0.00295407852834
0.000791942994209
-0.00307716189922
0.00073399969349
-0.00319021133548
0.000676574637998
-0.00329343953171
0.000619893472873
-0.00338707757156
0.000564121518971
-0.00347136579867
0.000509371430123
-0.00354654636352
0.00045571093241
-0.0036128574483
0.000403169785343
-0.00367052864352
0.000351746311047
-0.00371977741969
0.000301412893412
-0.00376080630359
0.000252121004777
-0.00379380068917
0.000203805321148
-0.00381892708947
0.000156387578271
-0.00383633173439
0.000109779830031
-0.00384613955201
6.38877700354e-05
-0.00384845339903
1.86138360343e-05
-0.00384335382303
-2.6139324238e-05
-0.00383089918558
-7.04651736133e-05
-0.00381112666156
-0.000114448990723
-0.00378405377392
-0.000158163320352
-0.00374968131856
-0.000201662707638
-0.00370799704392
-0.000244978137101
-0.00365898120773
-0.000288111129393
-0.00360261296427
-0.0003310279182
-0.00353887890683
-0.000373653936365
-0.00346778222437
-0.000415869148196
-0.00338935380807
-0.000457504622668
-0.0033036632823
-0.000498340971914
-0.00321083116197
-0.000538109013969
-0.00311103961827
-0.000576493072482
-0.00300454306166
-0.000613137180576
-0.00289167584928
-0.000647653859655
-0.00277285811471
-0.00067963543868
-0.00264859820284
-0.000708667499277
-0.00251949144131
-0.000734343026669
-0.00238621534609
-0.000756279406893
-0.00224951842507
-0.00077413386699
-0.00211020197177
-0.000787623848806
-0.00196909179462
-0.000796538890543
-0.00182700622969
-0.000800740986115
-0.00168473998626
-0.000800118538317
-0.00154311992879
-0.000794474461935
-0.00140313998238
-0.00078341683917
-0.00126604330634
-0.000766504144934
-0.00113287850257
-0.000743973348105
-0.00100498683643
-0.000715529053997
-0.000883207172755
-0.000682018308097
-0.000769448383876
-0.000642357328279
-0.000664984341894
-0.000598087917276
-0.000569164580065
-0.000552627610829
-0.00048204865521
-0.000505643727602
-0.000404534722391
-0.000456449057103
-0.000337352378263
-0.000405928194022
-0.000280443375394
-0.000356075122437
-0.000232993741786
-0.000308896003885
-0.000193810795977
-0.000265719041861
-0.000161604854764
-0.00022721010557
-0.000135107293346
-0.000193602441642
-0.000113100760642
-0.000164834708305
-9.44766704836e-05
-0.000140551885835
-7.84014090759e-05
-0.000119976366262
-6.46270445073e-05
-0.000101828640436
-5.35022271389e-05
-8.49339597046e-05
-4.50934431351e-05
-6.95783529022e-05
-3.86479245912e-05
-5.68883971859e-05
-3.34769799767e-05
-4.67080334682e-05
-2.93241291128e-05
-3.82520961617e-05
-2.60827291827e-05
-3.11121727557e-05
-2.35633614164e-05
-2.52313873352e-05
-2.16285983238e-05
-2.04211551691e-05
-1.98241725343e-05
-1.68835918913e-05
-1.80844165276e-05
-1.50177748254e-05
-1.64713051199e-05
-1.34968582327e-05
-1.49149910992e-05
-1.25053095384e-05
-1.29443834033e-05
-1.21255880181e-05
-1.07570420305e-05
-1.21691373756e-05
-8.38807845766e-06
-1.229379275e-05
-6.73948298354e-06
-1.28070801762e-05
-5.25220427049e-06
-1.45178685655e-05
-3.29230489427e-06
-1.57951098148e-05
-1.66256844935e-06
-1.61018641305e-05
-1.6239409633e-05
-0.000235130291657
0.00152700981587
-0.000482750168035
0.00160973479513
-0.000727507097666
0.00159430593878
-0.000967413479634
0.00156735703099
-0.00120103064902
0.00153214291195
-0.00142710956023
0.00148953595578
-0.00164459918184
0.00144044224884
-0.0018526535903
0.00138582721298
-0.0020506286889
0.00132667247949
-0.00223806979604
0.00126393607751
-0.00241469278031
0.00119851999512
-0.00258036097225
0.0011312464785
-0.00273506047168
0.00106284274532
-0.0028788754217
0.000993933673584
-0.00301196507172
0.000925040764301
-0.00313454309928
0.000856586299997
-0.00324686015775
0.000788900652785
-0.00334918919503
0.000722231907413
-0.00344181398613
0.000656756044507
-0.00352501989483
0.000592587472984
-0.003599087165
0.000529788612279
-0.00366428555854
0.00046837892345
-0.00372087074167
0.000408342429913
-0.00376908121841
0.000349634553454
-0.0038091364092
0.0002921874651
-0.00384123471441
0.00023591503146
-0.00386555236347
0.000180716588457
-0.0038822419445
0.000126480768507
-0.00389143160839
7.30885886901e-05
-0.00389322390578
2.04171089684e-05
-0.00388769541933
-3.16572376883e-05
-0.00387489627733
-8.32541420387e-05
-0.00385485081591
-0.000134484935058
-0.00382755847754
-0.000185446824379
-0.00379299645718
-0.000236216878877
-0.00375112303997
-0.000286844752473
-0.00370188326961
-0.000337345496807
-0.0036452156477
-0.000387691620257
-0.00358106154008
-0.000437805976215
-0.00350937557745
-0.000487554939718
-0.00343013861337
-0.000536743634907
-0.00334337098538
-0.000585112875644
-0.00324914724587
-0.000632339473251
-0.00314760985122
-0.000678039680092
-0.00303898222341
-0.00072177666171
-0.00292357899965
-0.000763071284853
-0.0028018139946
-0.000801417335591
-0.00267420319154
-0.00083629646359
-0.00254136649148
-0.000867200099856
-0.00240402076712
-0.000893644901041
-0.00226297305194
-0.000915202791941
-0.00211909224668
-0.000931524649201
-0.00197326847437
-0.000942383469409
-0.00182633758827
-0.000947692152181
-0.00167901780292
-0.00094745858418
-0.00153198399945
-0.000941525160453
-0.00138624234548
-0.000929176331021
-0.00124347864395
-0.000909281674031
-0.00110453760772
-0.00088293140007
-0.000971369467123
-0.000848710720612
-0.000843820706015
-0.000809583664579
-0.000725713643803
-0.00076048016535
-0.00061959543169
-0.000704224977252
-0.00052210716023
-0.00065013444962
-0.000432983723494
-0.000594787235404
-0.000354332513345
-0.000535118330461
-0.00028784565438
-0.000472433672705
-0.000233513420083
-0.000410423962132
-0.000189952784644
-0.00035247496632
-0.000155352524347
-0.000300335701875
-0.000127984607119
-0.000254597041922
-0.000106263310196
-0.000215340641946
-8.86631634317e-05
-0.000182454587312
-7.36770140497e-05
-0.000155556068144
-6.00855567559e-05
-0.000133588943699
-4.77973883167e-05
-0.000114137559968
-3.83049154811e-05
-9.44492138055e-05
-3.23680302444e-05
-7.55373919973e-05
-2.83377292833e-05
-6.09420547928e-05
-2.49460346794e-05
-5.01222077654e-05
-2.21581326633e-05
-4.10622378537e-05
-2.01648677739e-05
-3.31261631885e-05
-1.87060994436e-05
-2.67108343013e-05
-1.77100839698e-05
-2.14380551854e-05
-1.65734556921e-05
-1.80423502789e-05
-1.55222479824e-05
-1.60935140091e-05
-1.42017514786e-05
-1.48441686319e-05
-1.27606303647e-05
-1.39759022552e-05
-1.1064764503e-05
-1.3853641327e-05
-9.43573289986e-06
-1.38319180829e-05
-7.44198121753e-06
-1.43228101823e-05
-5.4662709811e-06
-1.48184864285e-05
-4.36215162961e-06
-1.56590395671e-05
-2.8660431188e-06
-1.73279087903e-05
-1.44533160801e-06
-1.755791658e-05
-1.77034026746e-05
-0.000244038797895
0.00177105212748
-0.00050087321063
0.00186657248554
-0.000754418481697
0.00184785502661
-0.00100248061782
0.00181542300438
-0.00124346725947
0.00177313367301
-0.00147602086988
0.00172209388104
-0.00169902836496
0.00166345435549
-0.00191162657401
0.00159843032585
-0.00211319360065
0.0015282447746
-0.00230332920467
0.00145407730613
-0.00248182738747
0.00137702422881
-0.00264864504015
0.00129807057935
-0.00280386937066
0.00121807399358
-0.00294768695202
0.00113775859066
-0.00308035559244
0.00105771723283
-0.00320218048291
0.000978419435717
-0.00331349438436
0.000900223292385
-0.0034146423355
0.000823388991722
-0.00350596978395
0.000748093097507
-0.00358781425409
0.00067444189842
-0.00366049915107
0.000602483891636
-0.00372432988319
0.000532220323647
-0.00377959091176
0.000463614488
-0.00382654415732
0.000396599027474
-0.00386542747341
0.000331082282098
-0.00389645387774
0.000266953026983
-0.00391981034445
0.000204084804377
-0.00393565707233
0.000142339198524
-0.00394412611817
8.15693457227e-05
-0.00394532052336
2.16230050806e-05
-0.00393931290948
-3.76535475784e-05
-0.00392614494335
-9.64112520403e-05
-0.00390582667807
-0.000154792796354
-0.00387833729026
-0.000212926557294
-0.00384362647222
-0.000270918858507
-0.00380161787519
-0.000328845661431
-0.00375221405447
-0.000386742923835
-0.00369530401183
-0.000444596915552
-0.00363077291343
-0.000502334134884
-0.00355851455013
-0.000559812488504
-0.00347844599194
-0.000616813617438
-0.00339052423227
-0.000673038544435
-0.0032947639594
-0.000728106220253
-0.00319125532401
-0.000781557662301
-0.00308018012295
-0.00083286360304
-0.00296182665594
-0.000881440064354
-0.00283659709308
-0.000926663031937
-0.00270501795341
-0.000967895550019
-0.00256773489416
-0.00100450130726
-0.00242552083266
-0.00103587984797
-0.00227926072659
-0.00106148108988
-0.00212993966365
-0.00108086520162
-0.00197857085892
-0.00109377048474
-0.00182605432732
-0.00110022844817
-0.00167294263795
-0.00110058692623
-0.00151945835966
-0.00109502653951
-0.00136645547226
-0.00108219244267
-0.00121696854021
-0.00105878405125
-0.00107064628879
-0.00102926631991
-0.000931625125366
-0.000987747712218
-0.000795199502645
-0.000946024401622
-0.000670787721497
-0.000884909975819
-0.000565265286127
-0.00080976591584
-0.000466271474781
-0.000749147567235
-0.000373434616233
-0.000687645964511
-0.000292210718745
-0.000616360668978
-0.000226418845814
-0.0005382449331
-0.00017590895274
-0.000460951186965
-0.000137948931985
-0.000390452504822
-0.000109635830208
-0.000328667019903
-8.86918940266e-05
-0.000275558603565
-7.32712921271e-05
-0.000230780031742
-6.15210554308e-05
-0.000194223827231
-5.12663830372e-05
-0.000165829638125
-4.02476439757e-05
-0.000144629044233
-2.83341862972e-05
-0.000126072235108
-1.98897897099e-05
-0.000102915577052
-1.76699722562e-05
-7.77809156027e-05
-1.72007893676e-05
-6.14341957512e-05
-1.57741672494e-05
-5.15725108184e-05
-1.42453932644e-05
-4.26127295708e-05
-1.36910568488e-05
-3.37014892271e-05
-1.33863367739e-05
-2.70364520564e-05
-1.34103230997e-05
-2.14351656722e-05
-1.31723405517e-05
-1.83033748362e-05
-1.28347600561e-05
-1.64563817408e-05
-1.21589381572e-05
-1.55479625651e-05
-1.0981504964e-05
-1.5183881436e-05
-9.61105047451e-06
-1.52562003483e-05
-7.93813965514e-06
-1.55381901383e-05
-6.59927321088e-06
-1.56959092468e-05
-4.98634266715e-06
-1.64659572726e-05
-3.6306313955e-06
-1.70482599516e-05
-2.5883471786e-06
-1.84049629495e-05
-1.27902083867e-06
-1.89012733566e-05
-1.8999208326e-05
-0.000254779433297
0.00202583437914
-0.000522705100186
0.00213450143978
-0.000786791810356
0.0021119447317
-0.00104458168108
0.00207321621653
-0.00129429078711
0.00202284623956
-0.00153443088057
0.0019622377232
-0.00176382091374
0.00189284839946
-0.00198158835711
0.00181620212413
-0.00218715263291
0.00173381375029
-0.00238019454021
0.00164712432882
-0.00256061716133
0.00155745236711
-0.00272850285963
0.00146596226868
-0.00288407080853
0.00137364837166
-0.00302763770623
0.00128133243069
-0.00315958397963
0.00118967090284
-0.00328032586424
0.00109916924877
-0.00339029392321
0.00101019973002
-0.0034899169161
0.000923020892125
-0.00357961078693
0.000837796301351
-0.00365977113847
0.000754612087268
-0.00373076893353
0.000673491904808
-0.00379294782861
0.000594409895068
-0.00384662319874
0.000517300850052
-0.00389208148563
0.000442068696638
-0.00392958027379
0.000368592682298
-0.00395934792338
0.000296732586168
-0.00398158341597
0.000226332324526
-0.00399645538772
0.000157223371068
-0.00400410119956