/*--------------------------------*- C++ -*----------------------------------*\
| =========                 |                                                 |
| \\      /  F ield         | OpenFOAM: The Open Source CFD Toolbox           |
|  \\    /   O peration     | Version:  v1906                                 |
|   \\  /    A nd           | Web:      www.OpenFOAM.com                      |
|    \\/     M anipulation  |                                                 |
\*---------------------------------------------------------------------------*/
FoamFile
{
    version     2.0;
    format      ascii;
    class       volVectorField;
    location    "310";
    object      Ua;
}
// * * * * * * * * * * * * * * * * * * * * * * * * * * * * * * * * * * * * * //

dimensions      [0 1 -1 0 0 0 0];


internalField   nonuniform List<vector> 
9216
(
(-0.0103910892802 0.0104007730355 0)
(-0.010966172783 0.0335674764918 3.94060223236e-27)
(-0.0109636078524 0.057093642243 -7.09883910103e-31)
(-0.0108626958793 0.0806305130774 0)
(-0.0107188899885 0.103781170626 0)
(-0.0105359511775 0.12645247056 0)
(-0.0103188217982 0.148543677248 0)
(-0.0100702392321 0.169963625834 0)
(-0.00979359305911 0.190629958076 0)
(-0.00949122249744 0.210469998499 0)
(-0.00916665903616 0.229420139283 0)
(-0.00882215895094 0.247426758706 0)
(-0.00846137348492 0.264445329143 0)
(-0.0080863323718 0.280441075838 0)
(-0.00770065487635 0.295387747756 0)
(-0.00730599067309 0.309268059795 0)
(-0.00690581086492 0.322072220931 0)
(-0.00650128888587 0.333798242304 0)
(-0.00609568475997 0.344450346029 0)
(-0.00568965732532 0.354039228025 0)
(-0.00528624765452 0.362580449507 0)
(-0.00488561553857 0.370094710675 0)
(-0.00449060853526 0.376606312001 0)
(-0.00410093108192 0.382143476312 0)
(-0.00371928179507 0.386736922157 0)
(-0.00334496765214 0.390420229795 0)
(-0.00298057651308 0.393228554027 0)
(-0.00262506782925 0.395199022971 0)
(-0.00228094960475 0.396369587084 0)
(-0.0019468832785 0.39677942503 0)
(-0.00162532791575 0.396467903313 0)
(-0.00131463651295 0.395475126295 0)
(-0.00101711140081 0.393840779713 0)
(-0.000730896257598 0.391604385589 0)
(-0.000458331334638 0.388804978986 0)
(-0.000197345883621 0.385481187917 0)
(4.98104700082e-05 0.381670661455 0)
(0.000285403991174 0.377410302219 0)
(0.000507253042491 0.372735798859 0)
(0.000717782498689 0.367681808074 0)
(0.000914874288304 0.362281619058 0)
(0.00110107740005 0.356567264344 0)
(0.00127433857658 0.350569321798 0)
(0.0014372996492 0.344316956674 0)
(0.00158796808832 0.337837849979 0)
(0.00172904188373 0.331158161322 0)
(0.00185858802761 0.324302590677 0)
(0.00197932657008 0.317294267092 0)
(0.00208937775226 0.310154931977 0)
(0.00219144575227 0.30290474543 0)
(0.00228370181821 0.29556259533 0)
(0.00236880112828 0.288145826857 0)
(0.00244496120649 0.280670662097 0)
(0.00251475497463 0.273151845831 0)
(0.00257644786224 0.265603174435 0)
(0.00263250529474 0.258037063873 0)
(0.00268124254023 0.250465167929 0)
(0.00272499572836 0.242897864103 0)
(0.00276213934363 0.235344954195 0)
(0.00279486809224 0.227815076427 0)
(0.00282162597483 0.220316465381 0)
(0.00284445866403 0.212856291358 0)
(0.00286189560938 0.205441469437 0)
(0.00287583412259 0.19807793906 0)
(0.00288490380075 0.190771499756 0)
(0.00289085696393 0.18352703862 0)
(0.00289243968875 0.176349382783 0)
(0.002891267342 0.169242492299 0)
(0.00288621433418 0.162210310745 0)
(0.00287876677437 0.155255936072 0)
(0.00286793708563 0.14838246219 0)
(0.00285509084572 0.141592146629 0)
(0.00283938174082 0.134887229902 0)
(0.00282206104749 0.128269113103 0)
(0.00280242313276 0.121739151475 0)
(0.00278161017425 0.115297857666 0)
(0.00275905059069 0.108945661705 0)
(0.00273577964137 0.102682149485 0)
(0.00271134982368 0.0965067890973 0)
(0.00268668989701 0.0904182142448 0)
(0.00266146195296 0.0844149145926 0)
(0.00263648519042 0.0784945687682 0)
(0.0026115131525 0.0726547038881 0)
(0.00258724666376 0.0668920844159 0)
(0.00256350202358 0.0612033507966 0)
(0.00254083199509 0.0555844805688 0)
(0.00251904417801 0.0500314490396 0)
(0.00249841429995 0.0445398500677 0)
(0.00247843058897 0.0391057814317 0)
(0.0024583600183 0.033726110724 0)
(0.00243550134348 0.0284008297369 0)
(0.00240332898176 0.023137754624 0)
(0.00233801923066 0.0179834606414 0)
(0.00218454032622 0.0128062854862 0)
(0.00228463732949 0.00785917609342 0)
(0.00388442112785 0.00388502164482 0)
(-0.033637918928 0.0110614876401 0)
(-0.0371861274174 0.0374794991315 0)
(-0.0371028677447 0.0638272038702 -4.13668445451e-27)
(-0.0366052842933 0.0902111146709 0)
(-0.0359137681478 0.116127594935 0)
(-0.035054427852 0.141493027503 0)
(-0.0340425359339 0.166200553206 0)
(-0.0328915478608 0.190149723675 0)
(-0.0316168217837 0.21324898741 0)
(-0.0302327188863 0.235417105521 0)
(-0.028755655561 0.256583280959 0)
(-0.0272001982499 0.276687714251 0)
(-0.0255828059362 0.295681195229 0)
(-0.0239171682994 0.313525238452 0)
(-0.0222188086298 0.330191287474 0)
(-0.0204996837419 0.345660565888 0)
(-0.018773708759 0.359923030122 0)
(-0.017050595184 0.372977058555 0)
(-0.0153423138535 0.384828283642 0)
(-0.013656145972 0.395489227844 0)
(-0.0120020761932 0.404978126977 0)
(-0.0103850325414 0.413318595998 0)
(-0.00881317383804 0.420538524381 0)
(-0.00728931033816 0.426669817706 0)
(-0.00582003911249 0.431747406307 0)
(-0.00440635177004 0.435809073078 0)
(-0.0030535592631 0.438894585277 0)
(-0.00176112204891 0.441045593625 0)
(-0.000533309836649 0.442304876158 0)
(0.000631691910533 0.442716280758 0)
(0.00173044332108 0.442324087957 0)
(0.002765834276 0.441172848461 0)
(0.00373519005519 0.439307064188 0)
(0.00464230561658 0.436771301697 0)
(0.00548497150506 0.433609336618 0)
(0.00626766020919 0.42986433735 0)
(0.00698860870928 0.425578469327 0)
(0.00765284754946 0.420792919296 0)
(0.00825893692958 0.415547600845 0)
(0.00881231600529 0.409881168915 0)
(0.00931177280021 0.403830805249 0)
(0.00976302163185 0.397432223747 0)
(0.0101650012315 0.390719536248 0)
(0.0105235825766 0.383725245415 0)
(0.0108377855803 0.376480186604 0)
(0.0111135254249 0.369013504819 0)
(0.0113498451274 0.36135267243 0)
(0.0115526026117 0.353523448421 0)
(0.0117208109707 0.345549967376 0)
(0.011860175504 0.337454678216 0)
(0.0119696385346 0.329258502709 0)
(0.0120546715968 0.320980751723 0)
(0.0121141144805 0.312639345781 0)
(0.0121531361606 0.304250704887 0)
(0.0121704595199 0.295830025596 0)
(0.0121709030849 0.287391141457 0)
(0.0121530728596 0.278946845238 0)
(0.0121214074282 0.270508715612 0)
(0.0120744157719 0.262087475711 0)
(0.0120161503853 0.253692784032 0)
(0.0119450567424 0.245333616252 0)
(0.0118648123982 0.23701801843 0)
(0.0117738469818 0.228753503009 0)
(0.011675491518 0.22054676621 0)
(0.0115682123111 0.212404086971 0)
(0.0114550306111 0.204331011483 0)
(0.0113345041308 0.196332748883 0)
(0.0112093866951 0.18841382981 0)
(0.0110783752018 0.18057849178 0)
(0.0109439955654 0.172830319199 0)
(0.0108051226795 0.165172616171 0)
(0.0106640893256 0.157608037905 0)
(0.0105199725806 0.150138947943 0)
(0.0103749370647 0.142767049859 0)
(0.0102282725754 0.13549372957 0)
(0.0100819913867 0.128319696715 0)
(0.00993559142976 0.121245311615 0)
(0.00979093762611 0.114270243345 0)
(0.00964771941399 0.107393783459 0)
(0.00950765030217 0.100614527097 0)
(0.00937058253632 0.0939306746458 0)
(0.00923806314671 0.0873397396992 0)
(0.00911006596242 0.0808388423736 0)
(0.00898793932036 0.0744244480949 0)
(0.0088717097098 0.0680926571787 0)
(0.00876244363862 0.0618389791508 0)
(0.0086600533771 0.0556586268229 0)
(0.00856503442783 0.0495463275736 0)
(0.00847656722945 0.043496588657 0)
(0.00839326925019 0.0375033767265 0)
(0.00831060407128 0.0315597366827 0)
(0.0082183310526 0.0256551387718 0)
(0.00809063510344 0.0197694878459 0)
(0.00784967447378 0.01379441001 0)
(0.00760850469607 0.00759277617466 0)
(0.00784946061637 0.00227809607985 0)
(-0.0575859704401 0.0112077795372 0)
(-0.0637559441537 0.0380935604589 0)
(-0.0635443625885 0.0647712382855 -4.14042720957e-27)
(-0.0626817759522 0.0915366532048 0)
(-0.0615114356714 0.117823663212 0)
(-0.0600669662278 0.143543267363 0)
(-0.0583690196257 0.168584848953 0)
(-0.0564393872519 0.19284563561 0)
(-0.0543022831066 0.216232453808 0)
(-0.0519825130069 0.238662825108 0)
(-0.0495062845652 0.260065296373 0)
(-0.0468991193692 0.280379741476 0)
(-0.0441870714366 0.299557159405 0)
(-0.0413944225387 0.317559512001 0)
(-0.0385453731385 0.334359127276 0)
(-0.0356615360332 0.349938230529 0)
(-0.0327641317489 0.364288101073 0)
(-0.0298712695607 0.377408435349 0)
(-0.02700064625 0.389306395988 0)
(-0.0241665865607 0.399995931348 0)
(-0.021383217997 0.409496829756 0)
(-0.0186612315959 0.417834087157 0)
(-0.0160114855316 0.425037047098 0)
(-0.013441447303 0.431138869797 0)
(-0.0109591723042 0.436175790186 0)
(-0.00856940104696 0.440186696555 0)
(-0.00627786583282 0.443212507217 0)
(-0.0040870418544 0.445295842619 0)
(-0.00200074992146 0.446480497881 0)
(-1.95813666894e-05 0.446811181305 0)
(0.00185423303727 0.44633307391 0)
(0.00362167994517 0.445091615587 0)
(0.0052817946903 0.443132113115 0)
(0.00683682096272 0.440499616563 0)
(0.00828688955226 0.437238577608 0)
(0.00963530783956 0.433392720919 0)
(0.0108830320177 0.42900479109 0)
(0.0120341804276 0.424116455136 0)
(0.0130903501068 0.418768110745 0)
(0.0140562688422 0.412998814556 0)
(0.0149340004193 0.406846141403 0)
(0.0157286978022 0.400346132097 0)
(0.0164427367016 0.393533204127 0)
(0.0170815279719 0.386440117315 0)
(0.0176476182636 0.379097929684 0)
(0.0181465211752 0.371535976479 0)
(0.0185808257783 0.363781872971 0)
(0.0189560050249 0.355861506641 0)
(0.0192745726033 0.347799081095 0)
(0.0195418297244 0.339617117318 0)
(0.0197601122706 0.331336539309 0)
(0.0199344366519 0.322976682996 0)
(0.0200668776217 0.314555415445 0)
(0.020162076811 0.306089145404 0)
(0.020221791241 0.29759297319 0)
(0.0202502280358 0.289080698936 0)
(0.0202487998854 0.280564991939 0)
(0.020221252723 0.272057389034 0)
(0.020168661711 0.26356847781 0)
(0.0200943195065 0.25510788057 0)
(0.0199990005867 0.246684439734 0)
(0.0198855821781 0.238306181354 0)
(0.0197546003957 0.229980497813 0)
(0.0196085785798 0.221714089208 0)
(0.0194478920788 0.213513134864 0)
(0.0192747848582 0.205383211121 0)
(0.0190895549396 0.197329450434 0)
(0.018894244693 0.189356438557 0)
(0.0186891526347 0.1814683578 0)
(0.0184761899974 0.173668866986 0)
(0.0182557202881 0.165961231585 0)
(0.0180295800214 0.158348192855 0)
(0.0177982422135 0.150832085376 0)
(0.0175635058409 0.143414701092 0)
(0.0173259761372 0.136097398817 0)
(0.0170874316323 0.128880969941 0)
(0.0168486102474 0.121765741852 0)
(0.0166112673465 0.114751450318 0)
(0.0163762544465 0.107837341065 0)
(0.0161452836594 0.101022053514 0)
(0.0159192832235 0.0943037221444 0)
(0.0156998849491 0.0876798742029 0)
(0.0154880389682 0.0811475334 0)
(0.0152852380436 0.0747031326609 0)
(0.0150923691043 0.0683426183856 0)
(0.0149106794235 0.0620613724912 0)
(0.0147408283053 0.05585430305 0)
(0.0145835730585 0.049715734164 0)
(0.0144389440793 0.0436393798176 0)
(0.0143065854775 0.0376179412262 0)
(0.0141850019661 0.0316423399665 0)
(0.0140718872367 0.0256994954459 0)
(0.0139651146378 0.0197680793967 0)
(0.0138655485308 0.0137955484819 0)
(0.0137946739382 0.00779253204916 0)
(0.0127729405268 0.00217039535365 0)
(-0.0820903475903 0.0113357989799 0)
(-0.0909568407919 0.0386685408864 0)
(-0.0906461214827 0.0656889819878 4.1385002208e-27)
(-0.0894004212502 0.0928182632864 0)
(-0.0877129450714 0.119453309807 0)
(-0.0856333719194 0.145500146131 0)
(-0.0831910981999 0.170843890543 0)
(-0.0804177960322 0.195378796574 0)
(-0.0773481156876 0.219009670637 0)
(-0.0740183470756 0.241652775917 0)
(-0.070465990734 0.26323616093 0)
(-0.0667284103924 0.283699806755 0)
(-0.0628426851728 0.302995433612 0)
(-0.0588443451588 0.321086164979 0)
(-0.0547675523957 0.337945929368 0)
(-0.0506439406774 0.353558806201 0)
(-0.0465031429649 0.367918185284 0)
(-0.0423717256379 0.381025950601 0)
(-0.0382740462096 0.392891546162 0)
(-0.0342312463914 0.403531133486 0)
(-0.0302623952962 0.41296668757 0)
(-0.0263834818843 0.421225231622 0)
(-0.0226087758587 0.428338044348 0)
(-0.0189497522345 0.434340024842 0)
(-0.0154165997131 0.439269040152 0)
(-0.0120170215017 0.443165423853 0)
(-0.00875783982101 0.446071448617 0)
(-0.00564365103259 0.448030928702 0)
(-0.00267850646691 0.449088785189 0)
(0.000135571454547 0.449290721627 0)
(0.00279683538937 0.448682853895 0)
(0.00530541281548 0.447311473004 0)
(0.00766142954294 0.445222650587 0)
(0.00986675485167 0.442462089332 0)
(0.0119230953556 0.439074868695 0)
(0.0138337518385 0.435105242677 0)
(0.0156016531898 0.430596445925 0)
(0.0172312045103 0.425590557092 0)
(0.0187262725526 0.420128344886 0)
(0.0200920892944 0.414249167748 0)
(0.0213332024287 0.407990862414 0)
(0.0224554214051 0.401389674379 0)
(0.0234637459252 0.394480185002 0)
(0.0243643374803 0.387295268594 0)
(0.0251624376465 0.379866055235 0)
(0.0258643511378 0.372221912982 0)
(0.0264753681036 0.364390445157 0)
(0.0270017431215 0.356397495569 0)
(0.0274486357037 0.348267178306 0)
(0.0278220735242 0.340021904565 0)
(0.0281269276097 0.331682442844 0)
(0.0283688466067 0.323267963776 0)
(0.0285522822991 0.314796126152 0)
(0.0286823848862 0.306283135347 0)
(0.0287630950672 0.297743849601 0)
(0.0287989880297 0.289191845241 0)
(0.0287934457328 0.280639535111 0)
(0.028750439374 0.272098233431 0)
(0.0286727941966 0.263578278414 0)
(0.0285638976677 0.255089088928 0)
(0.0284260653716 0.246639282634 0)
(0.0282621641128 0.238236718117 0)
(0.0280740854176 0.229888602134 0)
(0.0278642713418 0.221601512464 0)
(0.0276342985985 0.213381489071 0)
(0.0273862978705 0.2052340358 0)
(0.027121650087 0.197164193791 0)
(0.0268422904641 0.189176522662 0)
(0.0265495161408 0.181275156199 0)
(0.0262451703212 0.173463766227 0)
(0.0259305599479 0.16574560359 0)
(0.0256075170405 0.158123449508 0)
(0.0252774238468 0.150599645467 0)
(0.0249421526367 0.143176037731 0)
(0.0246031956895 0.135854001049 0)
(0.0242624863862 0.128634381969 0)
(0.0239216305168 0.121517520453 0)
(0.0235826143574 0.114503196885 0)
(0.0232471335279 0.107590655651 0)
(0.0229171940923 0.100778559649 0)
(0.0225945341967 0.0940650182189 0)
(0.0222811249776 0.0874475512039 0)
(0.0219786792764 0.0809231222088 0)
(0.0216890572582 0.0744881114156 0)
(0.021413854272 0.0681383499711 0)
(0.021154713537 0.0618690921672 0)
(0.020912983409 0.0556750323377 0)
(0.0206899414388 0.0495502381691 0)
(0.0204865312678 0.0434880748065 0)
(0.0203035794959 0.0374809585238 0)
(0.020141854455 0.0315199837213 0)
(0.0200029772671 0.0255942057775 0)
(0.0198914598408 0.0196902229968 0)
(0.0198154083167 0.0137867446573 0)
(0.0197172162883 0.00796809460119 0)
(0.0178884713757 0.00230893436675 0)
(-0.106991285075 0.0115002316691 0)
(-0.118561442777 0.039422113047 0)
(-0.118145421285 0.0669167718849 0)
(-0.116501559009 0.0945338327686 0)
(-0.114275623851 0.121632781552 0)
(-0.111534444528 0.148114208787 0)
(-0.108317557176 0.173858049413 0)
(-0.104667507613 0.198754641147 0)
(-0.100630496664 0.222706062418 0)
(-0.0962550384472 0.245626944411 0)
(-0.0915908928215 0.26744472805 0)
(-0.0866877913426 0.288099680274 0)
(-0.0815946437775 0.307544609629 0)
(-0.0763585071379 0.325744375523 0)
(-0.0710241276969 0.342675187664 0)
(-0.0656331804499 0.35832379059 0)
(-0.0602241562248 0.372686525825 0)
(-0.0548318588313 0.385768364159 0)
(-0.0494876097165 0.397581895518 0)
(-0.0442189549782 0.408146362346 0)
(-0.039050123376 0.417486714012 0)
(-0.0340018618629 0.425632756174 0)
(-0.0290920532213 0.432618358252 0)
(-0.0243355806197 0.438480774593 0)
(-0.0197450068741 0.443260025971 0)
(-0.0153303850503 0.446998381853 0)
(-0.0110999350213 0.449739882514 0)
(-0.00705976436107 0.451529934737 0)
(-0.00321452703863 0.452414923079 0)
(0.000432936233322 0.45244187455 0)
(0.00388094257885 0.451658119023 0)
(0.00712939661512 0.450111058232 0)
(0.010179048836 0.447847742226 0)
(0.0130320286604 0.44491478045 0)
(0.015691131907 0.441358061035 0)
(0.0181603013918 0.437222544732 0)
(0.0204439235348 0.432552094521 0)
(0.0225473464665 0.427389329236 0)
(0.0244761695554 0.421775486907 0)
(0.0262367890889 0.415750318388 0)
(0.0278356836913 0.409351988649 0)
(0.0292799812294 0.402617002948 0)
(0.0305767417029 0.395580142542 0)
(0.0317335379748 0.388274420613 0)
(0.0327577384478 0.380731049107 0)
(0.033657095458 0.372979422295 0)
(0.0344390312552 0.365047114932 0)
(0.0351112291676 0.356959893248 0)
(0.035680928521 0.34874174248 0)
(0.0361555158059 0.340414903451 0)
(0.0365418354783 0.33199992861 0)
(0.0368467792991 0.323515741944 0)
(0.037076621019 0.314979718557 0)
(0.0372376030274 0.306407762455 0)
(0.0373353024888 0.29781440452 0)
(0.0373752135899 0.28921289161 0)
(0.037362151505 0.280615293801 0)
(0.0373008277033 0.272032595887 0)
(0.0371952957936 0.263474805788 0)
(0.0370495152487 0.254951040127 0)
(0.0368668407328 0.246469624107 0)
(0.0366505684029 0.238038163092 0)
(0.0364034678267 0.229663627627 0)
(0.0361283035428 0.221352405828 0)
(0.0358274068881 0.21311036809 0)
(0.0355031656388 0.204942897322 0)
(0.0351576320203 0.196854932532 0)
(0.0347929736212 0.188850977594 0)
(0.03441111376 0.180935124435 0)
(0.0340141387803 0.173111043169 0)
(0.0336039675589 0.16538198933 0)
(0.0331827121063 0.157750780564 0)
(0.0327523740232 0.15021979257 0)
(0.0323151578537 0.142790927994 0)
(0.0318731933781 0.13546560725 0)
(0.0314288028657 0.128244735498 0)
(0.0309842488586 0.121128693119 0)
(0.0305419581078 0.114117305559 0)
(0.0301042949208 0.10720983803 0)
(0.0296737450926 0.100404971923 0)
(0.0292527148125 0.0937008060894 0)
(0.0288436782246 0.0870948415164 0)
(0.0284490016267 0.080583989862 0)
(0.0280710579129 0.0741645652293 0)
(0.0277120758539 0.0678322956414 0)
(0.0273742262389 0.0615823143737 0)
(0.0270595012401 0.0554091621329 0)
(0.0267697907644 0.0493067564908 0)
(0.026506831295 0.0432683588491 0)
(0.026272368432 0.0372864947182 0)
(0.0260683750577 0.0313528981164 0)
(0.0258976778815 0.0254585592177 0)
(0.0257647401453 0.019594394695 0)
(0.0256706763777 0.0137474846679 0)
(0.0254977598201 0.00800811222335 0)
(0.0229347677345 0.00235432274906 0)
(-0.132427596437 0.0117053893502 0)
(-0.146743406884 0.0403818382729 0)
(-0.146209821229 0.0684891970626 0)
(-0.144144637784 0.0967324337146 0)
(-0.141349591858 0.124424969624 0)
(-0.137909757902 0.151460929889 0)
(-0.133876168215 0.177713960198 0)
(-0.129303547596 0.20306955833 0)
(-0.12425099726 0.22742643139 0)
(-0.118780416525 0.250697265774 0)
(-0.112954988836 0.272808880708 0)
(-0.10683771908 0.293702095972 0)
(-0.100490250231 0.313331296048 0)
(-0.0939717628313 0.331663759341 0)
(-0.0873381985628 0.348678790041 0)
(-0.0806415513271 0.364366718994 0)
(-0.0739295009894 0.378727805472 0)
(-0.0672450762045 0.391771103076 0)
(-0.0606266597626 0.403513315406 0)
(-0.0541079626606 0.413977699675 0)
(-0.0477183176404 0.423193033804 0)
(-0.0414828563809 0.431192691095 0)
(-0.035422963273 0.438013818238 0)
(-0.029556517418 0.443696638321 0)
(-0.023898371008 0.448283852222 0)
(-0.0184605393044 0.4518201398 0)
(-0.0132526182378 0.454351722127 0)
(-0.00828187770532 0.455925981845 0)
(-0.00355361030776 0.456591108862 0)
(0.000928850501363 0.456395777985 0)
(0.0051638167877 0.455388825115 0)
(0.00915129309314 0.45361904347 0)
(0.0128925522566 0.451134691786 0)
(0.0163903084462 0.447983522847 0)
(0.019648341292 0.444212424283 0)
(0.0226715540564 0.439867240705 0)
(0.0254656643874 0.43499261228 0)
(0.0280372757137 0.429631830924 0)
(0.0303935777471 0.423826713685 0)
(0.0325424379808 0.41761749857 0)
(0.034492110725 0.411042754078 0)
(0.0362513441867 0.404139307414 0)
(0.0378290953794 0.396942185132 0)
(0.0392346468521 0.389484570315 0)
(0.0404773251546 0.381797772735 0)
(0.0415666237063 0.373911214699 0)
(0.0425119251041 0.365852430767 0)
(0.043322628186 0.35764708226 0)
(0.0440078765505 0.349318986709 0)
(0.0445766910724 0.340890160912 0)
(0.0450377095544 0.332380878958 0)
(0.0453993269399 0.323809741281 0)
(0.0456694518949 0.315193757661 0)
(0.0458556584204 0.306548437428 0)
(0.0459649653861 0.297887891012 0)
(0.0460040016909 0.289224933312 0)
(0.0459788128637 0.280571194873 0)
(0.0458950406831 0.271937228915 0)
(0.0457577586805 0.263332622076 0)
(0.0455716637344 0.254766094829 0)
(0.0453409390512 0.246245601926 0)
(0.0450694532874 0.237778417363 0)
(0.0447606471856 0.229371216649 0)
(0.0444177331157 0.221030139784 0)
(0.0440435994635 0.212760850281 0)
(0.0436410031496 0.20456857325 0)
(0.0432124854218 0.196458129888 0)
(0.0427605496941 0.188433951194 0)
(0.0422875827336 0.180500089878 0)
(0.0417960121576 0.172660213524 0)
(0.0412882286708 0.164917598733 0)
(0.0407667193498 0.157275109564 0)
(0.040233988416 0.149735180056 0)
(0.0396926652822 0.142299784688 0)
(0.0391454234019 0.134970415897 0)
(0.0385950638001 0.12774805296 0)
(0.0380444328945 0.120633140235 0)
(0.0374964840045 0.113625559787 0)
(0.0369541959691 0.106724614928 0)
(0.0364206156179 0.0999290103172 0)
(0.035898779259 0.0932368434988 0)
(0.0353917396424 0.0866455942794 0)
(0.0349024926357 0.0801521248551 0)
(0.0344339925061 0.0737526777208 0)
(0.0339890872745 0.0674428817527 0)
(0.0335705292176 0.0612177544771 0)
(0.0331809289471 0.0550717091817 0)
(0.0328227809099 0.0489985577075 0)
(0.032498470743 0.042991520829 0)
(0.0322103780828 0.0370432524762 0)
(0.0319610312094 0.0311459523027 0)
(0.0317533741528 0.0252915917086 0)
(0.0315906409084 0.0194725431176 0)
(0.0314681912375 0.0136769568934 0)
(0.0312284975899 0.00799024090801 0)
(0.0280277222846 0.00236166354594 0)
(-0.158531957259 0.0119563918951 0)
(-0.175654080705 0.0415654082754 0)
(-0.174985743834 0.0704305197328 4.16204282489e-27)
(-0.172468165212 0.0994468402015 0)
(-0.169063745404 0.127870496829 0)
(-0.164877248165 0.155587601585 0)
(-0.159972788697 0.182464163503 0)
(-0.154418922035 0.208379862435 0)
(-0.148289315076 0.233229441169 0)
(-0.141660785434 0.2569234275 0)
(-0.134611368818 0.279388142581 0)
(-0.127218552727 0.300565380021 0)
(-0.119557779429 0.320411760146 0)
(-0.111701166504 0.338897833235 0)
(-0.103716522158 0.356006987961 0)
(-0.0956665726211 0.371734225925 0)
(-0.0876084808075 0.386084851964 0)
(-0.0795935517147 0.399073134436 0)
(-0.0716672068995 0.410720983335 0)
(-0.0638690956984 0.421056694887 0)
(-0.0562334222361 0.430113802299 0)
(-0.0487893238657 0.437930064388 0)
(-0.0415613799786 0.444546607892 0)
(-0.0345700669982 0.450007223761 0)
(-0.0278322597209 0.454357800515 0)
(-0.0213616006559 0.457645867216 0)
(-0.0151688808052 0.459920212232 0)
(-0.00926227126552 0.461230547813 0)
(-0.00364758921898 0.461627196416 0)
(0.00167156033097 0.461160788566 0)
(0.0066935662561 0.459881953631 0)
(0.0114187448582 0.4578411538 0)
(0.0158489577117 0.455088083069 0)
(0.0199877096786 0.451671866986 0)
(0.0238398240809 0.447640580392 0)
(0.027411360672 0.443041121406 0)
(0.0307094115246 0.437919052541 0)
(0.0337420185809 0.4323184641 0)
(0.0365179883745 0.426281857531 0)
(0.039046830993 0.419850047715 0)
(0.0413385904169 0.413062079738 0)
(0.0434037986561 0.405955161062 0)
(0.0452533154876 0.398564606773 0)
(0.0468982912211 0.390923799182 0)
(0.0483500114086 0.383064160689 0)
(0.0496198643427 0.375015141309 0)
(0.0507191892912 0.366804220904 0)
(0.0516592481211 0.358456926518 0)
(0.0524510791009 0.34999686523 0)
(0.0531054752378 0.341445771998 0)
(0.0536328484156 0.33282357327 0)
(0.0540432194287 0.324148463948 0)
(0.054346099115 0.315436998246 0)
(0.0545504960239 0.306704190538 0)
(0.0546648209538 0.297963626765 0)
(0.0546969170837 0.289227580704 0)
(0.054653992424 0.280507135558 0)
(0.0545426745933 0.27181230445 0)
(0.0543689722252 0.2631521507 0)
(0.0541383528947 0.254534900969 0)
(0.0538557308181 0.245968052557 0)
(0.0535255629444 0.237458468725 0)
(0.0531518568548 0.229012464038 0)
(0.0527382771924 0.220635874584 0)
(0.0522881655232 0.212334115571 0)
(0.0518046479977 0.20411222304 0)
(0.0512906582319 0.195974882694 0)
(0.0507490372876 0.187926444118 0)
(0.0501825516516 0.179970923571 0)
(0.0495939784585 0.172111995215 0)
(0.0489861128542 0.164352974095 0)
(0.0483618340468 0.156696791404 0)
(0.0477240992207 0.14914596516 0)
(0.047075989036 0.141702567208 0)
(0.0464206879524 0.134368189498 0)
(0.0457615102329 0.127143910072 0)
(0.0451018685719 0.120030261492 0)
(0.0444452833764 0.113027201511 0)
(0.0437953427401 0.10613408872 0)
(0.0431556985497 0.0993496618481 0)
(0.0425300213372 0.0926720255348 0)
(0.041921987205 0.0860986401975 0)
(0.0413352314559 0.0796263188843 0)
(0.0407733309338 0.0732512277351 0)
(0.040239761598 0.0669688926712 0)
(0.0397378835106 0.0607742094587 0)
(0.0392709121976 0.0546614608839 0)
(0.0388419210125 0.0486243394687 0)
(0.0384538472978 0.0426559918302 0)
(0.0381095383188 0.0367490877466 0)
(0.037811812165 0.0308959551986 0)
(0.0375635001232 0.0250888110385 0)
(0.0373668705199 0.0193201469193 0)
(0.0372135918312 0.0135772688027 0)
(0.0369138869946 0.00794012279028 0)
(0.033107102519 0.00235457435002 0)
(-0.185449115296 0.0122574208812 0)
(-0.205453614982 0.0429924211009 0)
(-0.204628751984 0.0727705577045 -4.15982299828e-27)
(-0.201619266691 0.102717424376 0)
(-0.197554455744 0.132018992015 0)
(-0.192560826105 0.160551508631 0)
(-0.186717624751 0.188171792614 0)
(-0.180109355111 0.21475268609 0)
(-0.17282633156 0.240184439088 0)
(-0.164962226516 0.264375342188 0)
(-0.156611675884 0.287251525897 0)
(-0.14786815444 0.308756385149 0)
(-0.138822171218 0.328849657755 0)
(-0.129559780559 0.347506242501 0)
(-0.120161419556 0.364714824926 0)
(-0.110701047194 0.380476375053 0)
(-0.101245594438 0.394802570966 0)
(-0.0918546918047 0.407714208362 0)
(-0.0825806799469 0.419239649684 0)
(-0.0734688479097 0.429413374419 0)
(-0.064557884826 0.438274678235 0)
(-0.0558804557761 0.445866565233 0)
(-0.0474638681777 0.452234848932 0)
(-0.0393307224135 0.457427462431 0)
(-0.031499526346 0.461493945278 0)
(-0.0239851921463 0.464485065143 0)
(-0.0167994462983 0.466452517768 0)
(-0.00995111657305 0.467448662152 0)
(-0.00344637193496 0.467526255995 0)
(0.00271110548545 0.466738178371 0)
(0.00851991832768 0.465137132575 0)
(0.0139808870916 0.46277552534 0)
(0.019096608844 0.459704712604 0)
(0.0238715544381 0.455975412265 0)
(0.0283117265495 0.451637070767 0)
(0.0324245127603 0.44673780109 0)
(0.0362184949817 0.44132422486 0)
(0.0397033053529 0.435441347695 0)
(0.0428894628549 0.429132454011 0)
(0.0457882555463 0.422439018528 0)
(0.0484115982842 0.415400630948 0)
(0.0507719318356 0.408054933618 0)
(0.0528820918968 0.400437570767 0)
(0.0547552160364 0.392582150705 0)
(0.0564046172474 0.384520220675 0)
(0.0578436941528 0.376281256271 0)
(0.0590858069642 0.367892665245 0)
(0.0601441905882 0.359379807624 0)
(0.0610318350059 0.350766031837 0)
(0.0617614052324 0.34207272815 0)
(0.0623451320618 0.333319398347 0)
(0.0627947458926 0.324523741823 0)
(0.0631213860593 0.315701756166 0)
(0.0633355570091 0.306867850816 0)
(0.0634470644797 0.298034971023 0)
(0.0634650009119 0.289214729165 0)
(0.0633977139909 0.280417540523 0)
(0.0632528247583 0.271652759292 0)
(0.0630372297847 0.262928812432 0)
(0.0627571504867 0.254253326397 0)
(0.0624181652576 0.245633245701 0)
(0.0620252839984 0.237074938107 0)
(0.0615830023962 0.228584287192 0)
(0.061095391882 0.220166767304 0)
(0.0605661654324 0.211827503788 0)
(0.0599987715376 0.203571314101 0)
(0.0593964602567 0.195402734595 0)
(0.0587623699728 0.18732602935 0)
(0.058099583735 0.179345187304 0)
(0.0574112000366 0.171463904811 0)
(0.0567003725199 0.163685560607 0)
(0.0559703594699 0.156013180809 0)
(0.0552245436506 0.148449400883 0)
(0.0544664591564 0.140996422525 0)
(0.0536997916632 0.133655971683 0)
(0.0529283843174 0.126429255754 0)
(0.0521562211436 0.1193169251 0)
(0.0513874157066 0.112319037039 0)
(0.0506261817643 0.1054350262 0)
(0.0498768092447 0.0986636795179 0)
(0.0491436266864 0.0920031185915 0)
(0.0484309694607 0.085450787841 0)
(0.0477431388034 0.0790034500534 0)
(0.0470843675795 0.0726571882408 0)
(0.0464587814922 0.0664074143683 0)
(0.0458703691159 0.0602488854134 0)
(0.0453229530532 0.0541757278511 0)
(0.0448201733348 0.0481814752558 0)
(0.0443654775613 0.0422591223458 0)
(0.043962122743 0.0364012057158 0)
(0.0436131717414 0.0305999439943 0)
(0.0433214258181 0.0248473743383 0)
(0.0430886681929 0.0191355273891 0)
(0.0429041953607 0.0134507026902 0)
(0.0425487009475 0.00786813791805 0)
(0.0381508833945 0.00233969371621 0)
(-0.213337565552 0.0126129942965 0)
(-0.236315404826 0.0446866015237 0)
(-0.235306760403 0.0755465705022 0)
(-0.231756074658 0.10659469988 0)
(-0.226967389233 0.136932346255 0)
(-0.221091724386 0.166423735788 0)
(-0.214226141922 0.194914792307 0)
(-0.206473798512 0.222270490267 0)
(-0.197944261557 0.248376173244 0)
(-0.188750446497 0.273138013124 0)
(-0.179005706978 0.296482503669 0)
(-0.168821307729 0.318355541092 0)
(-0.158304315178 0.338721144245 0)
(-0.147555887394 0.35755991742 0)
(-0.136669954906 0.374867331645 0)
(-0.125732266358 0.390651886817 0)
(-0.11481979775 0.40493321326 0)
(-0.104000505521 0.417740170759 0)
(-0.0933334191517 0.429109014999 0)
(-0.0828690328607 0.439081700007 0)
(-0.0726499559688 0.447704390311 0)
(-0.0627117345466 0.455026234071 0)
(-0.0530837610547 0.461098430037 0)
(-0.043790159267 0.465973575334 0)
(-0.0348505699093 0.46970525244 0)
(-0.0262807688345 0.472347776595 0)
(-0.0180931181898 0.473956024445 0)
(-0.010296862759 0.474585268759 0)
(-0.00289833618969 0.474290979669 0)
(0.00409888669491 0.473128558308 0)
(0.0106938069084 0.471153110844 0)
(0.0168878969393 0.468419135519 0)
(0.0226847189782 0.464980006989 0)
(0.0280898882394 0.460888200745 0)
(0.0331107657269 0.456194720005 0)
(0.037756247908 0.450949042129 0)
(0.0420365600395 0.445198973403 0)
(0.0459630787319 0.438990540344 0)
(0.0495481632252 0.432367899452 0)
(0.0528050125543 0.425373260646 0)
(0.055747523639 0.41804682091 0)
(0.0583901674442 0.410426707794 0)
(0.0607478587373 0.402548932472 0)
(0.0628358387722 0.394447353913 0)
(0.0646695478297 0.386153654981 0)
(0.0662645086628 0.377697332403 0)
(0.0676361990993 0.36910570188 0)
(0.0687999361292 0.360403919869 0)
(0.069770751204 0.351615023274 0)
(0.0705632799932 0.342759987681 0)