/*--------------------------------*- C++ -*----------------------------------*\
| =========                 |                                                 |
| \\      /  F ield         | OpenFOAM: The Open Source CFD Toolbox           |
|  \\    /   O peration     | Version:  v1906                                 |
|   \\  /    A nd           | Web:      www.OpenFOAM.com                      |
|    \\/     M anipulation  |                                                 |
\*---------------------------------------------------------------------------*/
FoamFile
{
    version     2.0;
    format      ascii;
    class       surfaceScalarField;
    location    "317";
    object      phi;
}
// * * * * * * * * * * * * * * * * * * * * * * * * * * * * * * * * * * * * * //

dimensions      [0 3 -1 0 0 0 0];
oriented        oriented;


internalField   nonuniform List<scalar> 
18240
(
-0.000352826169147
0.000352761794097
-0.00073916473346
0.000386264441935
-0.00112515908166
0.000385927817225
-0.00150620975361
0.000380974668475
-0.00188022209625
0.000373947702801
-0.00224548586048
0.000365186105037
-0.00260045486166
0.000354906369318
-0.00294381035384
0.000343276173082
-0.00327435129388
0.000330480431597
-0.00359111180511
0.000316679543928
-0.00389322728821
0.000302057293513
-0.00418007271189
0.000286762833179
-0.0044510963266
0.00027096791087
-0.00470597952629
0.000254799031244
-0.00494443930187
0.000238406807282
-0.00516641365258
0.000221888676383
-0.00537183452326
0.000205370844183
-0.00556084240378
0.000188920809043
-0.00573353093972
0.000172641752558
-0.00589019330283
0.000156574041631
-0.00603103856099
0.000140801955015
-0.00615647127989
0.000125343340974
-0.00626677926422
0.000110268499611
-0.00636244696629
9.55775043585e-05
-0.0064438136609
8.13312768551e-05
-0.00651142060055
6.7516209108e-05
-0.00656563896715
5.41873681162e-05
-0.00660705032595
4.13204244173e-05
-0.00663604375286
2.89670839432e-05
-0.00665322898073
1.7094467501e-05
-0.00665900325914
5.75293183813e-06
-0.00665399490565
-5.09852441341e-06
-0.0066385974508
-1.54136059545e-05
-0.00661344640087
-2.52401664914e-05
-0.00657892707933
-3.45299756036e-05
-0.00653567794725
-4.33367031636e-05
-0.00648406926561
-5.16137060719e-05
-0.00642473410469
-5.94206610499e-05
-0.00635802159927
-6.67116702781e-05
-0.00628455287219
-7.35516185389e-05
-0.00620465108054
-7.98950575487e-05
-0.00611891956723
-8.58112415416e-05
-0.00602765181707
-9.1254987584e-05
-0.00593142875395
-9.62990842668e-05
-0.00583051172426
-0.000100898317353
-0.00572545550056
-0.000105128002808
-0.00561648812658
-0.000108942709766
-0.00550413582709
-0.000112419342125
-0.0053885934104
-0.00011551201684
-0.00527035705009
-0.000118298211498
-0.00514958952102
-0.00012073153642
-0.00502675660321
-0.000122889192934
-0.00490199113191
-0.000124724244971
-0.00477572872223
-0.00012631278981
-0.00464807501629
-0.000127607532513
-0.00451943639658
-0.000128682875827
-0.00438989435963
-0.000129491401676
-0.00425982702981
-0.000130105309903
-0.00412929481836
-0.000130477518674
-0.00399864869382
-0.000130677766664
-0.00386793072213
-0.000130659791219
-0.00373746535022
-0.000130490681526
-0.00360727852723
-0.000130125627495
-0.00347766851752
-0.000129629062055
-0.00334864670315
-0.000128958198768
-0.00322048481838
-0.000128174796599
-0.00309318056843
-0.00012723869569
-0.00296697846616
-0.000126209030445
-0.00284186282467
-0.000125048711237
-0.00271804974391
-0.000123814198287
-0.00259551003337
-0.000122471851568
-0.00247443014704
-0.000121075388483
-0.00235476706955
-0.000119594797653
-0.00223667630874
-0.000118080856204
-0.00212010075687
-0.000116507272365
-0.00200516403779
-0.000114921648611
-0.00189179491158
-0.000113301336535
-0.00178008451757
-0.000111690432704
-0.00166994787175
-0.000110069798349
-0.00156144367146
-0.000108479671803
-0.00145447411308
-0.0001069041763
-0.00134906610836
-0.000105379259164
-0.00124511069014
-0.000103891977331
-0.00114260462857
-0.000102473417547
-0.00104143060116
-0.000101112905485
-0.000941558761559
-9.98354735764e-05
-0.000842869411471
-9.86306744676e-05
-0.000745316168616
-9.75132419894e-05
-0.000648796451778
-9.64635226539e-05
-0.000553289947682
-9.54636122883e-05
-0.000458808740141
-9.44285094266e-05
-0.000365600025199
-9.31645551157e-05
-0.000274478414982
-9.10756320441e-05
-0.000188203222396
-8.62325582621e-05
-0.000105292903651
-8.28543127557e-05
-0.000105260257818
-0.000389994611275
0.000742686799327
-0.000825411507099
0.00082160561429
-0.00125836343171
0.000818806022002
-0.00168502565517
0.000807560594502
-0.00210346759137
0.000792316466186
-0.00251192123494
0.000773563157717
-0.00290872206544
0.000751634663758
-0.00329239262854
0.000726869881986
-0.00366161883378
0.000699634844475
-0.00401530522073
0.000670288880096
-0.00435252042452
0.000639201553359
-0.00467254963164
0.000606714879162
-0.00497482004222
0.000573168381238
-0.00525895734779
0.000538859177357
-0.00552469559346
0.000504076265712
-0.00577194229977
0.000469058362071
-0.00600067596217
0.000434037083537
-0.00621102331363
0.000399191451988
-0.0064031464795
0.000364699064107
-0.00657733454134
0.000330685911154
-0.006733881168
0.000297284567614
-0.00687319145077
0.000264578191402
-0.00699564990572
0.000232665038225
-0.00710174266233
0.000201595862216
-0.0071919152301
0.000171444349259
-0.00726670962438
0.00014223754954
-0.00732661114194
0.000114032109665
-0.00737219975726
8.68376663636e-05
-0.00740398525121
6.06988796601e-05
-0.00742257205374
3.5611945399e-05
-0.00742848179008
1.16123697644e-05
-0.00742233241994
-1.13147863427e-05
-0.00740465140507
-3.31411427541e-05
-0.00737606417964
-5.38914389325e-05
-0.00733709250481
-7.35440724269e-05
-0.00728835720316
-9.21327958686e-05
-0.00723036711814
-0.000109641751602
-0.00716373201934
-0.000126112872967
-0.00708894130779
-0.000141535585186
-0.00700658690651
-0.000155959044735
-0.00691713292481
-0.000169377166661
-0.00682114754609
-0.000181845153708
-0.00671906490492
-0.000193360443604
-0.00661142474437
-0.000203982915857
-0.00649862785545
-0.000213712469572
-0.00638118213015
-0.000222612195702
-0.00625945306018
-0.000230683351724
-0.00613391463414
-0.000237990747776
-0.00600489644066
-0.000244535971038
-0.00587283776339
-0.000250384150039
-0.00573803293427
-0.000255536307306
-0.00560088686626
-0.00026005665133
-0.00546166028147
-0.000263944981495
-0.00532072490242
-0.000267263607516
-0.00517831022217
-0.000270010717686
-0.00503475654573
-0.000272246045818
-0.00489026488013
-0.000273966109344
-0.00474514608529
-0.000275227733697
-0.00459957545616
-0.000276026010846
-0.0044538363004
-0.000276414846054
-0.00430808065107
-0.000276388436861
-0.0041625657325
-0.000275998034687
-0.00401742221213
-0.000275237658863
-0.00387288213752
-0.000274156350918
-0.00372905598441
-0.000272748762959
-0.00358615082922
-0.000271062241708
-0.00344425741247
-0.000269092840506
-0.00330355744912
-0.000266886675793
-0.00316412176813
-0.000264441835312
-0.00302610583216
-0.000261803526594
-0.00288955996846
-0.000258972276698
-0.00275461228225
-0.00025599249933
-0.00262129183055
-0.000252867313004
-0.00248969824093
-0.000249640227011
-0.00235983862856
-0.000246316843891
-0.00223178330625
-0.000242939451149
-0.00210551708829
-0.000239515813281
-0.00198108056319
-0.00023608650775
-0.0018584363895
-0.000232660966289
-0.00173759564782
-0.000229277443923
-0.0016184996095
-0.000225946413879
-0.00150113074419
-0.00022270307059
-0.00138541044699
-0.000219558139367
-0.00127129433202
-0.000216542785576
-0.00115868633593
-0.000213666778469
-0.00104751807457
-0.000210955511624
-0.000937679683216
-0.000208415074666
-0.000829082878795
-0.000206060434554
-0.000721607176674
-0.000203885405762
-0.000615141485193
-0.000201878657858
-0.000509525861089
-0.000199992279686
-0.00040450498145
-0.000198136169713
-0.000299392342763
-0.000196138714014
-0.000191850019314
-0.000193728317144
-8.26124009177e-05
-0.00019204563403
-0.000187848537677
-0.000396953352555
0.0011395699623
-0.000838009626622
0.00126258688455
-0.00127721669503
0.00125793822817
-0.00171006096394
0.00124032944558
-0.0021344136667
0.00121659451634
-0.00254841262523
0.00118748672531
-0.00295035464987
0.00115350232341
-0.00333872833735
0.00111516826507
-0.0037122135025
0.00107304599012
-0.00406970272764
0.0010277029666
-0.00441028088755
0.000979706146811
-0.004733237077
0.000929596195932
-0.00503803070514
0.000877889005484
-0.00532430001512
0.000825054006323
-0.00559182004055
0.000771524010225
-0.00584051261618
0.000717677000819
-0.00607040010161
0.000663853174028
-0.00628162031163
0.00061033845649
-0.00647437842306
0.000557386891853
-0.00664896869148
0.000505203923172
-0.00680572546909
0.000453972396839
-0.00694505229072
0.000403833960734
-0.0070673719732
0.000354917398592
-0.00717316280201
0.000307317125159
-0.00726290704425
0.000261123175763
-0.00733713355625
0.000216396298881
-0.00739636395393
0.00017319934476
-0.00744116085221
0.000131568941651
-0.00747207094054
9.15483818295e-05
-0.00748967817634
5.31560636737e-05
-0.00749454343283
1.64200038431e-05
-0.0074872621879
-1.86562667176e-05
-0.00746840040157
-5.20572349542e-05
-0.00743855625414
-8.3792539992e-05
-0.00739829237134
-0.000113858539774
-0.00734820134864
-0.000142277101856
-0.0072888345506
-0.000169055066261
-0.00722077132351
-0.000194225316233
-0.00714454472631
-0.00021780423828
-0.00706071407459
-0.000239834469119
-0.00696978795345
-0.000260340565316
-0.00687229980547
-0.000279373263165
-0.00676872875194
-0.000296963648799
-0.00665957782963
-0.000313168662779
-0.00654529303793
-0.000328024037181
-0.00642634378879
-0.000341590837288
-0.00630314075031
-0.000353907531998
-0.00617611797094
-0.000365037258652
-0.00604564996206
-0.000375019349119
-0.00591213493941
-0.000383917067363
-0.00577591172444
-0.000391768993028
-0.00563734346554
-0.000398636879434
-0.00549673479063
-0.000404557237657
-0.00535441538546
-0.000409589035552
-0.00521065794888
-0.000413765879955
-0.00506576095691
-0.000417143188446
-0.00491996781529
-0.000419751289112
-0.00477354819334
-0.000421641774964
-0.00462671887674
-0.000422841867479
-0.00447972304821
-0.000423399586897
-0.00433275319667
-0.000423339633106
-0.00418602781872
-0.000422707088961
-0.00403971684934
-0.000421525081367
-0.00389401528734
-0.00041983667879
-0.00374907148517
-0.000417664507708
-0.00360505732066
-0.000415050602117
-0.00346209978641
-0.000412018161415
-0.00332034736781
-0.000408609082102
-0.00317990525329
-0.000404847976639
-0.00304089768563
-0.000400777225075
-0.00290340719122
-0.000396423392744
-0.00276753268893
-0.000391829632054
-0.00263333301211
-0.000387024588446
-0.00250088063392
-0.000382052083592
-0.00237020979775
-0.000376942613214
-0.00224136570898
-0.000371740236118
-0.00211435746639
-0.000366476724726
-0.00198920261851
-0.000361195659307
-0.00186588510985
-0.000355929291332
-0.00174439507765
-0.000350719821761
-0.00162469192471
-0.0003455989949
-0.0015067392632
-0.000340606572897
-0.00139047323512
-0.000335772654158
-0.00127583247164
-0.000331133298583
-0.00116273165085
-0.000326715487357
-0.00105108625749
-0.000322549787796
-0.000940791027347
-0.000318657723632
-0.000831738295947
-0.000315061198325
-0.000723798719136
-0.000311772047501
-0.000616826646845
-0.000308798565308
-0.000510626562982
-0.000306139881228
-0.000404910202147
-0.000303801954419
-0.000299170772267
-0.000301829978502
-0.000192487268463
-0.000300362586318
-8.5520321672e-05
-0.000298964259858
-0.000273346174649
-0.000403149213892
0.00154264898151
-0.000850312245476
0.00170967495242
-0.00129561110601
0.00170316207545
-0.00173430357629
0.00167894672745
-0.00216412678177
0.00164634278374
-0.00258312583551
0.0016064107145
-0.00298954258159
0.00155984429676
-0.00338183060203
0.00150738137906
-0.00375866029771
0.00144980115084
-0.00411892615875
0.00138789415196
-0.00446173570527
0.00132244147924
-0.00478640475148
0.00125419089526
-0.00509243521255
0.00118384569528
-0.00537950458302
0.00111204948382
-0.00564743856708
0.00103938479836
-0.00589620019494
0.000966365342624
-0.00612586175523
0.000893442295819
-0.00633659712547
0.000821001335379
-0.0065286555056
0.000749373787077
-0.00670235863773
0.000678835578522
-0.00685807717333
0.000609620652214
-0.00699623303472
0.000541919616126
-0.00711727810619
0.000475893656134
-0.00722170113801
0.000411671507504
-0.0073100079201
0.000349362925669
-0.00738273180138
0.00028905340528
-0.00744041436029
0.000230816971281
-0.00748361861451
0.000174708636243
-0.00751290938543
0.000120776686396
-0.00752886850797
6.90532094994e-05
-0.00753207440119
1.95662577458e-05
-0.0075231186727
-2.76710074225e-05
-0.00750258452954
-7.26477841172e-05
-0.00747106486161
-0.000115367854844
-0.00742913965105
-0.00015583654468
-0.00737739518753
-0.000194073455543
-0.00731640032186
-0.000230098710337
-0.00724672698055
-0.000263946396536
-0.00716892557577
-0.000295650035989
-0.00708354672598
-0.000325256526862
-0.00699111600859
-0.000352810907997
-0.00689215685099
-0.000378370732972
-0.00678716480865
-0.000401990220944
-0.00667663153432
-0.000423735024753
-0.0065610187714
-0.000443665916964
-0.00644078328122
-0.000461853900191
-0.0063163507115
-0.000478363565752
-0.00618814129958
-0.000493268498841
-0.00605654377381
-0.000506634482537
-0.00592194163172
-0.000518535126398
-0.00578468720438
-0.000529035066767
-0.00564512825698
-0.000538205747702
-0.00550358233873
-0.000546108793018
-0.00536036344776
-0.000552811845109
-0.0052157567632
-0.000558372252234
-0.00507004508281
-0.000562852868858
-0.00492348402419
-0.000566306208099
-0.00477632796194
-0.000568790079499
-0.00462880577199
-0.00057035231
-0.00448114599357
-0.000571046088095
-0.00433355319428
-0.000570915343838
-0.00418623213452
-0.000570009645324
-0.00403936484248
-0.00056837027767
-0.00389313359095
-0.000566044540776
-0.0037476987898
-0.000563072557015
-0.00360322065829
-0.000559500818944
-0.00345983806713
-0.000555369724822
-0.00331768882937
-0.000550726253485
-0.00317688963554
-0.000545612236304
-0.00303755494669
-0.000540076063505
-0.00289977817682
-0.000534161695747
-0.00276364918802
-0.000527919350661
-0.00262923685898
-0.000521395277606
-0.00249660520763
-0.000514641405678
-0.00236579747203
-0.000507705907137
-0.00223685087337
-0.000500641821061
-0.00210978229859
-0.000493498441299
-0.00198460171602
-0.000486328943331
-0.00186129952914
-0.000479182626073
-0.00173985863194
-0.000472111574931
-0.00162024345909
-0.000465163778756
-0.00150241065335
-0.000458388851827
-0.00138629980667
-0.000451832030888
-0.00127184265717
-0.000445538958698
-0.00115895539588
-0.000439550545154
-0.0010475461568
-0.000433906807056
-0.000937508446047
-0.000428642611262
-0.000828725996719
-0.000423790754527
-0.000721065594198
-0.000419379061474
-0.000614376366206
-0.000415434483463
-0.000508478451495
-0.000411985739447
-0.000403153258802
-0.000409076111702
-0.000298144781392
-0.000406787043727
-0.000193269040412
-0.000405189492113
-8.95803418125e-05
-0.000402604829121
-0.000362901893322
-0.000411136259644
0.00195371500307
-0.00086677459964
0.00216523859294
-0.00132032413353
0.00215663651262
-0.00176684987298
0.00212539738869
-0.00220395476031
0.00208337266107
-0.00262957777647
0.00203195874364
-0.00304188859271
0.00197208024924
-0.00343929800024
0.00190471594196
-0.00382046333115
0.00183089180736
-0.00418428839335
0.00175164458043
-0.00452991205256
0.00166799073781
-0.00485669456148
0.00158089907631
-0.00516419544478
0.00149127255429
-0.00545215358483
0.00139993372204
-0.00572046154247
0.00130761924871
-0.00596914567698
0.00121497615379
-0.00619834195767
0.00112256574917
-0.00640827989736
0.00103086671566
-0.00659926237569
0.000940284327408
-0.00677165480772
0.000851156437594
-0.00692586946686
0.000763764495186
-0.00706235969221
0.000678339511741
-0.00718160801797
0.000595072568061
-0.00728412439508
0.000514119089627
-0.00737043691434
0.000435607731592
-0.00744109277947
0.000359642331397
-0.00749665042033
0.000286308941756
-0.00753768210041
0.000215675581976
-0.00756476646046
0.000147797770219
-0.0075784919845
8.27165770022e-05
-0.0075794494321
2.04632144817e-05
-0.00756823557731
-3.89440467013e-05
-0.0075454454319
-9.54952404151e-05
-0.00751167627298
-0.000149192817884
-0.00746751942534
-0.000200047110764
-0.00741356471966
-0.000248080182056
-0.0073503918824
-0.000293321281571
-0.0072785754161
-0.000335810697503
-0.00719867589972
-0.000375594893796
-0.00711124534995
-0.000412730330982
-0.00701681854999
-0.000447278283161
-0.00691591894524
-0.000479308636161
-0.00680905013928
-0.000508894465985
-0.00669670233498
-0.000536115827557
-0.00657934406622
-0.000561054177405
-0.00645742916324
-0.000583796201153
-0.00633138879973
-0.000604428192005
-0.00620163891822
-0.00062303993632
-0.00606857260303
-0.000639719135363
-0.00593256788082
-0.00065455539084
-0.00579398044529
-0.000667634773926
-0.00565315171302
-0.000679043919643
-0.00551040185816
-0.000688864817843
-0.00536603799304
-0.000697179045198
-0.00522034748721
-0.000704062860006
-0.00507360611551
-0.000709591560229
-0.00492607157784
-0.000713834920895
-0.00477799146304
-0.000716861672069
-0.00462959691879
-0.000718735306438
-0.00448111027845
-0.000719518615218
-0.00433273880134
-0.000719269840737
-0.00418468184817
-0.000718047203831
-0.0040371246773
-0.000715905361458
-0.00389024508343
-0.000712899812041
-0.00374420723853
-0.000709083582493
-0.00359916776865
-0.000704511412837
-0.00345526970681
-0.000699236609266
-0.00331264801665
-0.000693314896958
-0.00317142372838
-0.000686801377601
-0.00303170896394
-0.000679753985947
-0.00289360138083
-0.000672230530476
-0.00275718875838
-0.000664291704638
-0.00262254384895
-0.000655998210078
-0.00248972859603
-0.000647413327848
-0.00235878950436
-0.000638600159487
-0.0022297615355
-0.000629623774573
-0.00210266405799
-0.000620548611093
-0.00197750445725
-0.000611440247864
-0.00185427471535
-0.000602363012926
-0.00173295473871
-0.000593381419642
-0.00161350956112
-0.000584558017368
-0.00149589237768
-0.000575954537799
-0.00138004233212
-0.00056763001322
-0.00126588719123
-0.000559641667377
-0.0011533415744
-0.000552043327614
-0.00104230910811
-0.000544886142288
-0.000932680826758
-0.000538217411556
-0.000824336297166
-0.000532081429336
-0.000717141913424
-0.00052651947196
-0.000610950734016
-0.000521571925681
-0.000505601028506
-0.000517281567776
-0.000400923167737
-0.00051370191888
-0.000296762022296
-0.000510899018191
-0.000193071981739
-0.000508828101658
-9.06264085832e-05
-0.000504999226189
-0.000453504590266
-0.000421291727821
0.00237493657708
-0.000887939570876
0.00263181158083
-0.00135215088432
0.00262077280372
-0.00180875005011
0.00258192147018
-0.00225517689356
0.00252972449427
-0.00268924237613
0.00246594924929
-0.00310902768346
0.00239179064011
-0.00351289410886
0.0023085075144
-0.00389948683238
0.00221740975873
-0.00426772884893
0.00211981192459
-0.00461680496964
0.00201699230246
-0.00494614015809
0.00191015985899
-0.00525537268658
0.0018004308468
-0.00554432653596
0.00168881354713
-0.00581298260963
0.00157620153408
-0.00606145269488
0.00146337274279
-0.0062899544871
0.00135099436976
-0.00649879109738
0.00123963054062
-0.00668833223125
0.00112975310468
-0.00685900024682
0.00102175259841
-0.00701125743168
0.000915950382703
-0.00714559780734
0.00081260922088
-0.00726253918623
0.000711943980946
-0.00736261914348
0.000614129861079
-0.00744639016389
0.000519310432908
-0.00751441811938
0.000427602907622
-0.00756727894894
0.000339103435679
-0.00760555829252
0.000253889706254
-0.00762984859214
0.000172024090281
-0.00764074903111
9.35543388821e-05
-0.00763886247299
1.85154223254e-05
-0.00762479509362
-5.30711574438e-05
-0.00759915330793
-0.000121195091432
-0.00756254321744
-0.000185859273541
-0.00751556696165
-0.000247077853209
-0.00745882246547
-0.000304877263645
-0.00739289952885
-0.000359294703737
-0.00731837977484
-0.000410378840166
-0.00723583277701
-0.000458187966751
-0.00714581634922
-0.000502790541396
-0.00704887285725
-0.000544263030923
-0.00694552995709
-0.000582690319491
-0.00683629718353
-0.000618163302061
-0.00672166719148
-0.000650779241339
-0.00660211268461
-0.000680639205855
-0.00647808817422
-0.00070784845297
-0.00635002726409
-0.000732513798786
-0.00621834489874
-0.000754744104985
-0.00608343500344
-0.000774647675216
-0.00594567316618
-0.000792332908022
-0.0058054145969
-0.000807905799799
-0.00566299715295
-0.000821470822106
-0.00551873956686
-0.000833128617428
-0.00537294470148
-0.000842977141435
-0.00522589796347
-0.000851109618103
-0.00507787064537
-0.000857615972221
-0.00492911842974
-0.000862581098131
-0.00477988466861
-0.000866086570213
-0.00463039887104
-0.000868209236134
-0.00448087977065
-0.000869023157131
-0.00433153370708
-0.000868598499954
-0.00418255736619
-0.000867003613818
-0.00403413599338
-0.00086430414587
-0.00388644573464
-0.00086056513481
-0.00373965166926
-0.000855850253346
-0.00359390974346
-0.000850223786021
-0.00344936465826
-0.000843749889446
-0.00330615143907
-0.000836494340865
-0.00316439325846
-0.000828523730185
-0.00302420273092
-0.000819906901079
-0.00288567977337
-0.000810714018291
-0.00274891272893
-0.000801017674861
-0.0026139763714
-0.000790891824388
-0.0024809329603
-0.00078041257299
-0.00234983047855
-0.000769656998653
-0.00222070369434
-0.000758703682062
-0.00209357269317
-0.000747631461618
-0.00196844399255
-0.000736519769247
-0.00184530939869
-0.000725447377018
-0.00172414718327
-0.00071449260198
-0.0016049212604
-0.000703732098429
-0.00148758240424
-0.000693240983784
-0.00137206770663
-0.000683091727912
-0.00125830177671
-0.000673354247014
-0.00114619638621
-0.000664094957201
-0.00103565155662
-0.000655376921993
-0.0009265553053
-0.000647259229322
-0.000818784579678
-0.000639797467123
-0.000712205235911
-0.000633043775187
-0.000606673543956
-0.00062704853301
-0.000502039468067
-0.000621862167888
-0.000398152564838
-0.000617536237543
-0.000294880042369
-0.000614118106356
-0.000192169983545
-0.00061148760341
-9.05859159704e-05
-0.000606533191963
-0.00054406467814
-0.000433879770938
0.0028087461374
-0.000914238541824
0.00311209573313
-0.00139170180423
0.00309816099585
-0.00186077832671
0.00305092295958
-0.0023187007647
0.00298757190658
-0.00276312262859
0.00291029612565
-0.00319201950711
0.00282061257526
-0.00360369855328
0.00272011165116
-0.00399679859494
0.00261043496441
-0.00437027710113
0.00249321564982
-0.00472338613335
0.00237002667012
-0.00505564151657
0.00224234066851
-0.00536678765238
0.00211150258023
-0.00565676186141
0.00197871349723
-0.00592565943076
0.00184502508883
-0.00617370217781
0.00171134168807
-0.00640121022019
0.00157842894333
-0.00660857880574
0.00144692596092
-0.00679625875368
0.00131736033011
-0.00696474183874
0.00119016337486
-0.00711454900059
0.00106568580458
-0.00724622259265
0.000944211620078
-0.00736032024077
0.000825971151318
-0.00745741163984
0.000711151481146
-0.0075380757529
0.000599905642037
-0.0076028999718
0.000492359093437
-0.00765247872397
0.000388615207282
-0.00768741335227
0.000288758410098
-0.00770831083304
0.000192856887077
-0.00771578343039
0.000100963513302
-0.00771044705388
1.311706637e-05
-0.00769291997896
-7.06587335199e-05
-0.00766382104784
-0.000150352868359
-0.00762376804344
-0.000225969424066
-0.0075733751006
-0.000297526076861
-0.00751325114631
-0.000365054578687
-0.00744399714966
-0.000428599987137
-0.00736620460763
-0.000488220523133
-0.00728045295132
-0.000543986479293
-0.00718730826765
-0.000595979714774
-0.00708732103169
-0.000644292271966
-0.00698102519204
-0.000689025582168
-0.0068689363452
-0.000730288897509
-0.00675155125114
-0.000768198304971
-0.00662934650007
-0.000802875087433
-0.00650277847465
-0.000834444653842
-0.00637228252744
-0.000863034943883
-0.00623827336897
-0.00088877536642
-0.00610114472951
-0.000911795342344
-0.00596127012576
-0.000932223343176
-0.00581900296167
-0.000950185662731
-0.00567467760043
-0.000965805636358
-0.00552860981595
-0.000979202716003
-0.00538109807242
-0.00099049195377
-0.00523242421441
-0.000999783445503
-0.00508285482952
-0.0010071821388
-0.00493264202499
-0.00101278767398
-0.00478202473578
-0.00101669454844
-0.00463122943426
-0.00101899234354
-0.00448047124764
-0.00101976621889
-0.00432995445067
-0.00101909745116
-0.00417987328757
-0.00101706418186
-0.00403041215084
-0.00101374214836
-0.0038817460516
-0.00100920555481
-0.00373404044132
-0.0010035278408
-0.00358745133999
-0.000996782529335
-0.00344212483881
-0.00098904388483
-0.00329819695209
-0.000980387596635
-0.00315579289013
-0.000970891207775
-0.00301502674329
-0.00096063453777
-0.00287600066052
-0.000949699824608
-0.00273880448408
-0.000938171840892
-0.00260351496739
-0.000926137750661
-0.0024701954671
-0.000913686934406
-0.00233889532091
-0.000900910616109
-0.0022096496688
-0.000887901449008
-0.00208247906652
-0.000874752993426
-0.00195738947454
-0.000861559140563
-0.00183437214365
-0.000848413526568
-0.00171340377486
-0.000835408868961
-0.00159444666629
-0.000822636387589
-0.00147744902733
-0.000810185125732
-0.00136234534064
-0.000798141434379
-0.00124905679719
-0.000786588346421
-0.00113749179753
-0.000775605182874
-0.00102754649518
-0.000765267079327
-0.000919105462074
-0.000755644819826
-0.000812042377206
-0.000746804667058
-0.00070622149008
-0.000738808753104
-0.000601499215719
-0.000731715191461
-0.000497726770542
-0.000725578660347
-0.000394757568097
-0.000720451468216
-0.000292455960535
-0.000716369130459
-0.000190732677695
-0.000713157275415
-9.00456655078e-05
-0.000707166695916
-0.00063408576635
-0.000449178690298
0.00325785472896
-0.000946208044462
0.00360905030194
-0.00143974936921
0.00359162735423
-0.00192390844656
0.00353500699171
-0.00239565641338
0.00345924486873
-0.00285245450736
0.00336701922803
-0.00329215536088
0.00326023844999
-0.00371301080771
0.00314089215415
-0.00411366579894
0.00301101502937
-0.00449313537571
0.00287261036545
-0.00485076917109
0.00272758564505
-0.00518620815839
0.00257770494467
-0.00549933829722
0.00242455808881
-0.0057902445223
0.00226954526005
-0.00605916805111
0.00211387429312
-0.00630646848116
0.00195856803888
-0.00653259189586
0.00180447849507
-0.00673804487547
0.00165230541829
-0.00692337449995
0.00150261674797
-0.00708915341268
0.00135586953831
-0.00723596955717
0.00121242963917
-0.00736441940749
0.00107258975294
-0.00747510422512
0.000936584835423
-0.00756862822893
0.000804605099102
-0.0076455982987
0.000676806077037
-0.00770662430648
0.000553316384676
-0.00775231984944
0.000434242968669
-0.00778330277811
0.000319674661905
-0.0078001954582
0.000209684027375
-0.00780362445593
0.000104328278019
-0.00779422014778
3.64987979509e-06
-0.00777261489192
-9.23253439408e-05
-0.0077394415097
-0.000183586016451
-0.00769533173333
-0.000270137228508
-0.00764091366004
-0.000352000360871
-0.0075768095547
-0.000429212939524
-0.00750363343615
-0.000501828307263
-0.00742198891009
-0.000569915077583
-0.0073324668643
-0.000633556262843
-0.00723564361924
-0.000692848307622
-0.00713207893759
-0.000747899775533
-0.00702231465437
-0.000798830091345
-0.00690687311015
-0.000845767919732
-0.00678625634054
-0.000888849765835
-0.00666094498103
-0.000928218186253
-0.00653139803753
-0.000964020386604
-0.00639805226047
-0.000996406386723
-0.00626132247564
-0.00102552773653
-0.0061216014017
-0.00105153574513
-0.00597926049045
-0.00107458041682
-0.00583465013416
-0.00109480884373
-0.00568810093276
-0.00111236445738
-0.00553992421479
-0.00112738568894
-0.00539041361274
-0.00114000562085
-0.00523984578203
-0.00115035101044
-0.00508848212606
-0.00115854240492
-0.00493656956872
-0.00116469360013
-0.00478434224362
-0.00116891223314
-0.00463202215577
-0.00117129969115
-0.00447982064901
-0.00117195212978
-0.00432793880723
-0.00117096077703
-0.00417656855018
-0.00116841325081
-0.0040258926693
-0.0011643941284
-0.00387608546911
-0.00115898638173
-0.00372731240569
-0.00115227203659
-0.00357973027891
-0.00114433352242
-0.00343348651981
-0.00113525423531
-0.00328871902045
-0.0011251196244
-0.00314555518271
-0.00111401750879
-0.00300411153175
-0.00110203878552
-0.00286449267324
-0.00108927741328
-0.00272679085526
-0.00107583071136
-0.00259108498152
-0.00106179899893
-0.00245744026916
-0.00104728553208
-0.00232590743283
-0.00103239584875
-0.00219652254058
-0.00101723744379
-0.00206930644043
-0.00100191890698
-0.00194426486232
-0.000986549451732
-0.00182138811202
-0.000971237942904
-0.00170065141995
-0.000956092382012
-0.00158201489234
-0.000941218913264
-0.00146542407621
-0.000926721341652
-0.00135081013335
-0.000912700195274
-0.00123809058016
-0.000899252331733
-0.00112716964833
-0.000886470132711
-0.0010179391935
-0.000874441250751
-0.000910279311965
-0.000863248025803
-0.000804059609268
-0.000852967455137
-0.000699140308434
-0.000843670763625
-0.000595374338758
-0.000835423803139
-0.000492610766948
-0.000828286774413
-0.000390696307693
-0.000822311268237
-0.000289480879757
-0.000817528586283
-0.000188851754656
-0.000813733924087
-8.92082042095e-05
-0.000806758218903
-0.000723266889657
-0.000467527553315
0.00372531213523
-0.000984530483571
0.00412597871423
-0.00149728290782
0.00410430478998
-0.00199938364488
0.00403703275774
-0.00248747803364
0.00394726426381
-0.00295879540545
0.00383826161245
-0.00341104925661
0.00371241731579
-0.0038424409542
0.00357220885589
-0.00425164344699
0.00342014254591
-0.00463776389524
0.00325865583535
-0.00500029161721
0.00309003843965
-0.00533903843938
0.00291637686227
-0.00565407708093
0.002739521923
-0.00594568259045
0.00256107602715
-0.00621427956822
0.00238239669043
-0.00646039747357
0.00220461149014
-0.00668463412639
0.00202864093976
-0.00688762783413
0.00185522512857
-0.00707003674684
0.00168495201528
-0.00723252511727
0.00151828458235
-0.00737575454414
0.00135558621853
-0.00750037983826
0.00119714265247
-0.00760704758283
0.00104318081277
-0.00769639725055
0.000893883610147
-0.00776906312968
0.00074940159352
-0.00782567719951
0.000609860882626
-0.00786687149184
0.000475368667875
-0.00789328038471
0.000346015949891
-0.00790554171725
0.000221878933298
-0.00790429744317
0.000103018785049
-0.00789019294689
-1.05184400175e-05
-0.00786387662752
-0.000118704040806
-0.00782599741709
-0.000221525981691
-0.00777720319529
-0.000318990522437
-0.00771813812721
-0.000411122653176
-0.00764944025525