/*--------------------------------*- C++ -*----------------------------------*\
| =========                 |                                                 |
| \\      /  F ield         | OpenFOAM: The Open Source CFD Toolbox           |
|  \\    /   O peration     | Version:  v1906                                 |
|   \\  /    A nd           | Web:      www.OpenFOAM.com                      |
|    \\/     M anipulation  |                                                 |
\*---------------------------------------------------------------------------*/
FoamFile
{
    version     2.0;
    format      ascii;
    class       volVectorField;
    location    "99";
    object      Ua;
}
// * * * * * * * * * * * * * * * * * * * * * * * * * * * * * * * * * * * * * //

dimensions      [0 1 -1 0 0 0 0];


internalField   nonuniform List<vector> 
9216
(
(-0.0955941043458 0.0959802908686 0)
(-0.0969367750173 0.298596477073 4.53140024058e-26)
(-0.0922412978161 0.503628014409 -6.02641087422e-30)
(-0.0849246644196 0.707439874099 0)
(-0.075269213621 0.908105490821 0)
(-0.0634585050106 1.10482450726 0)
(-0.0496966296105 1.29679200534 0)
(-0.0342045230939 1.48328443618 0)
(-0.0172184343486 1.66365510904 0)
(0.0010147668808 1.8373371489 0)
(0.0202431403609 2.00384505731 0)
(0.0402150153765 2.1627748242 0)
(0.0606840185368 2.31380245934 0)
(0.081413314202 2.4566810344 0)
(0.102179271627 2.59123654823 0)
(0.122774206442 2.71736283231 0)
(0.143008545839 2.83501583304 0)
(0.16271211232 2.94420747203 0)
(0.18173495601 3.04499936299 0)
(0.199947441082 3.13749652676 0)
(0.217240059945 3.22184130314 0)
(0.233522666457 3.2982075345 0)
(0.248723618336 3.36679514436 0)
(0.262788492325 3.42782513047 0)
(0.275678863075 3.48153503637 0)
(0.28737077622 3.52817488327 0)
(0.297853399887 3.56800358652 0)
(0.30712745197 3.60128582151 0)
(0.31520387407 3.6282893482 0)
(0.322102308106 3.64928277278 0)
(0.327849802771 3.66453380463 0)
(0.332479137658 3.67430822211 0)
(0.336026266024 3.67886976133 0)
(0.338521515637 3.67847829759 0)
(0.33995531732 3.67339180878 0)
(0.340448549705 3.66381776467 0)
(0.340060429895 3.64999805008 0)
(0.338843712726 3.63215908637 0)
(0.33685134704 3.61051945379 0)
(0.334136223473 3.58528937962 0)
(0.330750904675 3.55667087422 0)
(0.326747185577 3.52485776824 0)
(0.322175931692 3.49003579867 0)
(0.317086735623 3.45238273153 0)
(0.311527843044 3.4120685123 0)
(0.305545891095 3.36925544699 0)
(0.299185904395 3.32409839698 0)
(0.292491098146 3.27674499472 0)
(0.285502927078 3.22733586168 0)
(0.278260938164 3.1760048402 0)
(0.270802858135 3.12287921892 0)
(0.263164483695 3.06807996798 0)
(0.255379796204 3.01172196177 0)
(0.247480879845 2.95391420921 0)
(0.239498054454 2.89476006749 0)
(0.231459814378 2.83435746242 0)
(0.22339297255 2.77279908974 0)
(0.215322614503 2.71017262312 0)
(0.207272248337 2.64656090136 0)
(0.199263769823 2.58204212307 0)
(0.191317614273 2.51669001971 0)
(0.183452729694 2.45057403705 0)
(0.175686727491 2.38375949469 0)
(0.168035861514 2.3163077551 0)
(0.160515175359 2.24827637078 0)
(0.153138485721 2.17971924226 0)
(0.145918524544 2.11068675416 0)
(0.138866925627 2.04122592357 0)
(0.131994360364 1.97138052669 0)
(0.125310526821 1.90119123901 0)
(0.118824278086 1.83069575401 0)
(0.112543613329 1.7599289166 0)
(0.106475798051 1.68892283534 0)
(0.100627356782 1.61770701051 0)
(0.0950041846554 1.5463084412 0)
(0.0896115415509 1.47475174905 0)
(0.0844541545856 1.40305928154 0)
(0.0795362135599 1.33125123251 0)
(0.0748614640233 1.25934574256 0)
(0.0704332039428 1.18735901737 0)
(0.0662543670959 1.11530542614 0)
(0.0623275208298 1.04319761869 0)
(0.0586549395017 0.971046623053 0)
(0.0552386030581 0.898861962535 0)
(0.0520802598947 0.826651754547 0)
(0.0491814251134 0.754422830985 0)
(0.0465434300162 0.682180844834 0)
(0.0441674135828 0.609930408272 0)
(0.0420543416751 0.537675240401 0)
(0.0402049465822 0.465418404366 0)
(0.0386195881763 0.393162729423 0)
(0.0372977655101 0.320911766053 0)
(0.0362363367839 0.24867211677 0)
(0.0354303019447 0.17642293063 0)
(0.0348013407514 0.104679714876 0)
(0.0336029605582 0.0335632999157 0)
(-0.298109880089 0.100607184148 0)
(-0.317293640447 0.314539248869 0)
(-0.316643824183 0.532020526917 -4.58746358737e-26)
(-0.314841073784 0.747579297417 0)
(-0.312355857952 0.959725040095 0)
(-0.309274401787 1.16769053135 0)
(-0.3056459088 1.37066515294 0)
(-0.30151827719 1.56790189833 0)
(-0.296938539122 1.75872783052 0)
(-0.291953287505 1.94255046463 0)
(-0.286607874009 2.11886063478 0)
(-0.280945676617 2.28723302812 0)
(-0.275007263237 2.44732483643 0)
(-0.268829952706 2.59887282782 0)
(-0.262447371958 2.74168917814 0)
(-0.255889445461 2.87565633612 0)
(-0.249182322385 3.00072123324 0)
(-0.242348692123 3.11688907365 0)
(-0.235407946615 3.22421695402 0)
(-0.22837667349 3.32280748252 0)
(-0.221268913841 3.41280257096 0)
(-0.214096706682 3.49437749918 0)
(-0.206870337636 3.56773535534 0)
(-0.199598850678 3.63310189218 0)
(-0.192290228426 3.69072084787 0)
(-0.184951830748 3.74084972944 0)
(-0.177590487675 3.78375606888 0)
(-0.170212863238 3.81971412192 0)
(-0.162825483804 3.84900199003 0)
(-0.155435081229 3.87189910623 0)
(-0.148048653035 3.88868400906 0)
(-0.140673861122 3.89963213739 0)
(-0.133318533684 3.90501299993 0)
(-0.12598296213 3.90508761593 0)
(-0.118589560981 3.90010559476 0)
(-0.11123092959 3.89034984291 0)
(-0.103923800002 3.87606235658 0)
(-0.0966751145549 3.85748259808 0)
(-0.0894919165845 3.83484168308 0)
(-0.0823813330877 3.80836247478 0)
(-0.0753502896124 3.77825942094 0)
(-0.0684056009193 3.74473853894 0)
(-0.061553762093 3.70799745473 0)
(-0.0548010784393 3.66822549638 0)
(-0.0481534762571 3.62560382576 0)
(-0.0416166420932 3.58030560415 0)
(-0.0351958441512 3.53249617888 0)
(-0.0288960764765 3.48233329078 0)
(-0.0227218899011 3.4299672906 0)
(-0.0166775397661 3.37554136734 0)
(-0.0107668262508 3.31919177698 0)
(-0.00499324439977 3.26104807742 0)
(0.000640166399829 3.20123335806 0)
(0.00613067128346 3.13986447193 0)
(0.0114759815709 3.07705225877 0)
(0.0166741037929 3.0129017687 0)
(0.0217234728613 2.94751247456 0)
(0.0266228024165 2.8809784839 0)
(0.0313712098273 2.81338873856 0)
(0.0359680689969 2.74482721364 0)
(0.0404131275254 2.67537310362 0)
(0.0447063629549 2.60510100828 0)
(0.0488480923502 2.5340811057 0)
(0.0528388329193 2.46237932577 0)
(0.0566794042577 2.390057511 0)
(0.0603707941355 2.31717357877 0)
(0.0639142535785 2.24378167134 0)
(0.0673111685723 2.16993230809 0)
(0.0705631481445 2.0956725262 0)
(0.0736719026176 2.02104602447 0)
(0.076639324792 1.94609329603 0)
(0.0794673753536 1.8708517652 0)
(0.082158157249 1.79535591372 0)
(0.0847138087536 1.71963741198 0)
(0.0871365710823 1.64372524009 0)
(0.0894286895916 1.56764581467 0)
(0.0915924746683 1.49142310597 0)
(0.0936302114341 1.41507876139 0)
(0.0955442139137 1.3386322196 0)
(0.0973367435319 1.26210083166 0)
(0.0990100565253 1.18549997328 0)
(0.10056633131 1.1088431643 0)
(0.102007708879 1.03214217993 0)
(0.103336228643 0.955407169676 0)
(0.104553860664 0.878646768493 0)
(0.105662447704 0.801868216359 0)
(0.10666372401 0.725077470404 0)
(0.10755925223 0.648279324663 0)
(0.108350402254 0.571477515949 0)
(0.109038220623 0.494674808871 0)
(0.109623216514 0.417872998705 0)
(0.110104796684 0.341072490787 0)
(0.110479550304 0.264270390473 0)
(0.110732068802 0.187399837382 0)
(0.110616065602 0.111230337885 0)
(0.104820016296 0.0344453831872 0)
(-0.503246260295 0.105815722052 0)
(-0.534661434875 0.316801383877 0)
(-0.530572216618 0.538038123491 -4.55837824483e-26)
(-0.523526623608 0.755853502091 0)
(-0.514159648017 0.970267330604 0)
(-0.502647940712 1.18036724949 0)
(-0.489148946262 1.38532446606 0)
(-0.473846036737 1.584372497 0)
(-0.456937496528 1.77682560928 0)
(-0.438631379409 1.96208296721 0)
(-0.419140029068 2.1396315214 0)
(-0.398675213425 2.30904623058 0)
(-0.377443749406 2.46998826523 0)
(-0.355643906289 2.6222015322 0)
(-0.333462452863 2.76550789968 0)
(-0.311072537707 2.89980145928 0)
(-0.288632163134 3.02504215244 0)
(-0.266283390963 3.14124903575 0)
(-0.244151982619 3.24849343393 0)
(-0.222347602071 3.34689217107 0)
(-0.200964263724 3.43660104177 0)
(-0.18008117033 3.51780863117 0)
(-0.159763626048 3.59073056951 0)
(-0.14006419755 3.6556042654 0)
(-0.12102382085 3.71268414705 0)
(-0.102673056422 3.76223741109 0)
(-0.085033204035 3.80454027123 0)
(-0.0681175049075 3.8398746783 0)
(-0.0519321518584 3.86852547882 0)
(-0.0364773474913 3.89077796271 0)
(-0.0217481222094 3.90691573067 0)
(-0.00773516238984 3.9172186833 0)
(0.00557443756308 3.92196106186 0)
(0.0181939639768 3.92141223464 0)
(0.0301092310925 3.91584242197 0)
(0.04137247729 3.90550947655 0)
(0.0520089319801 3.89065955242 0)
(0.0620407479995 3.87153198164 0)
(0.0714907458374 3.84835839787 0)
(0.0803819971115 3.82136209377 0)
(0.088737681197 3.79075781127 0)
(0.0965808347631 3.75675170557 0)
(0.10393427187 3.71954140155 0)
(0.110820399362 3.67931610785 0)
(0.117261189148 3.63625677038 0)
(0.123278040275 3.59053625614 0)
(0.128891789681 3.54231955767 0)
(0.134122608815 3.49176401382 0)
(0.13899004152 3.43901953966 0)
(0.143512925454 3.38422886384 0)
(0.147709448128 3.32752776746 0)
(0.151597085656 3.26904532456 0)
(0.155192670091 3.20890413921 0)
(0.158512339971 3.1472205806 0)
(0.161571613874 3.08410501171 0)
(0.164385348764 3.019662014 0)
(0.166967816072 2.95399060386 0)
(0.169332665041 2.88718444429 0)
(0.171492998691 2.81933204753 0)
(0.173461340269 2.7505169727 0)
(0.175249707259 2.68081801433 0)
(0.176869579699 2.6103093862 0)
(0.178331970992 2.53906089634 0)
(0.179647397336 2.46713811787 0)
(0.180825944537 2.39460255164 0)
(0.181877238159 2.3215117855 0)
(0.182810505827 2.24791964592 0)
(0.183634547965 2.1738763471 0)
(0.184357795323 2.09942863319 0)
(0.18498828032 2.02461991891 0)
(0.185533689689 1.94949042381 0)
(0.186001336571 1.87407730583 0)
(0.186398208264 1.79841478922 0)
(0.186730939296 1.72253429241 0)
(0.187005854324 1.64646455088 0)
(0.187228942447 1.57023174067 0)
(0.187405895354 1.49385959731 0)
(0.187542083129 1.41736953608 0)
(0.187642587745 1.34078076816 0)
(0.187712180567 1.2641104184 0)
(0.187755351254 1.18737363957 0)
(0.187776287017 1.11058372855 0)
(0.187778896757 1.03375223918 0)
(0.187766791744 0.956889097442 0)
(0.187743304108 0.880002713125 0)
(0.187711467305 0.803100093356 0)
(0.18767402579 0.726186950996 0)
(0.187633409887 0.649267810261 0)
(0.187591727966 0.572346095521 0)
(0.187550725626 0.4954241874 0)
(0.187511762003 0.418503437646 0)
(0.187475841166 0.341583887757 0)
(0.187443439407 0.264664056877 0)
(0.187406592859 0.187671372435 0)
(0.187018362078 0.111673438002 0)
(0.176975444423 0.0340145920146 0)
(-0.712207076718 0.113320486067 0)
(-0.757075910157 0.318787972158 0)
(-0.751297861777 0.545256638104 4.52402414666e-26)
(-0.741387401814 0.765682324855 0)
(-0.728232232007 0.982730465381 0)
(-0.712099298892 1.19527310141 0)
(-0.69321576992 1.40246647406 0)
(-0.671845280645 1.60351964079 0)
(-0.648271456117 1.79773301949 0)
(-0.622790212424 1.98449858332 0)
(-0.595701650604 2.16330243147 0)
(-0.567302990768 2.33372420205 0)
(-0.537882474053 2.49543442194 0)
(-0.507714408703 2.64819011534 0)
(-0.477055316563 2.79182910547 0)
(-0.446141209706 2.92626339931 0)
(-0.415185839016 3.05147201335 0)
(-0.384379867176 3.16749354397 0)
(-0.353890752913 3.27441873771 0)
(-0.323863280409 3.37238325879 0)
(-0.294420516464 3.46156080599 0)
(-0.265665148495 3.54215668204 0)
(-0.237681009187 3.61440188442 0)
(-0.210534775923 3.67854775128 0)
(-0.184277682733 3.73486117419 0)
(-0.158947268922 3.78362036761 0)
(-0.134569031298 3.82511117286 0)
(-0.11115803305 3.85962386292 0)
(-0.0887203562327 3.88745041064 0)
(-0.0672544656262 3.90888218301 0)
(-0.0467523684316 3.9242080297 0)
(-0.0272006067693 3.93371273098 0)
(-0.008580850633 3.93767593934 0)
(0.00913022371008 3.9363721264 0)
(0.0259638194515 3.93006834831 0)
(0.0419351562264 3.91901620446 0)
(0.0570702037972 3.90346829486 0)
(0.0713967586772 3.88366589234 0)
(0.0849436223815 3.85984151783 0)
(0.0977400178453 3.83221877376 0)
(0.109815288605 3.80101243324 0)
(0.121198634216 3.76642849156 0)
(0.131918948155 3.72866427213 0)
(0.142004651302 3.68790857271 0)
(0.151483602964 3.64434184473 0)
(0.160382994178 3.59813639768 0)
(0.168729307733 3.54945662124 0)
(0.176548252787 3.49845922007 0)
(0.183864758472 3.44529345595 0)
(0.190702936817 3.39010139432 0)
(0.197086098652 3.33301815132 0)
(0.203036735286 3.27417213999 0)
(0.208576548446 3.21368531257 0)
(0.21372644376 3.15167339873 0)
(0.21850656873 3.08824613744 0)
(0.222936313123 3.02350750287 0)
(0.227034350761 2.95755592275 0)
(0.230818643381 2.89048448997 0)
(0.23430648332 2.82238116614 0)
(0.237514498579 2.75332897835 0)
(0.240458694449 2.68340620805 0)
(0.243154458302 2.61268657344 0)
(0.245616598911 2.54123940447 0)
(0.247859350106 2.46912981198 0)
(0.249896407058 2.39641885011 0)
(0.251740928333 2.3231636737 0)
(0.253405568768 2.24941768964 0)
(0.254902479772 2.1752307041 0)
(0.256243338671 2.1006490645 0)
(0.2574393473 2.02571579816 0)
(0.258501257845 1.9504707465 0)
(0.259439369918 1.87495069672 0)
(0.260263553051 1.79918950966 0)
(0.260983242493 1.72321824594 0)
(0.261607458567 1.64706528892 0)
(0.262144801497 1.57075646648 0)
(0.262603467856 1.4943151703 0)
(0.26299124472 1.41776247439 0)
(0.263315523428 1.34111725166 0)
(0.263583293323 1.26439629011 0)
(0.263801152998 1.18761440746 0)
(0.263975303763 1.11078456575 0)
(0.264111558395 1.0339179844 0)
(0.264215334248 0.957024253496 0)
(0.264291659187 0.880111445122 0)
(0.264345163849 0.80318622409 0)
(0.264380084116 0.726253954877 0)
(0.264400252476 0.649318803922 0)
(0.264409099578 0.572383830231 0)
(0.264409656171 0.495451055518 0)
(0.264404589764 0.41852155611 0)
(0.264396330753 0.341595303945 0)
(0.264386655307 0.264671952731 0)
(0.264363498613 0.187665225619 0)
(0.263831349033 0.111995892554 0)
(0.249560176363 0.033235335648 0)
(-0.924309682974 0.123486138014 0)
(-0.982698745066 0.32135408193 0)
(-0.975068925532 0.55500683247 0)
(-0.962050895792 0.778951132379 0)
(-0.944767071522 0.999554831484 0)
(-0.923582690705 1.21538680303 0)
(-0.898801491992 1.42558876602 0)
(-0.870775017442 1.62933679026 0)
(-0.83988040796 1.82591263884 0)
(-0.806510294941 2.01469866068 0)
(-0.77106191145 2.19518007037 0)
(-0.733927633629 2.36694320061 0)
(-0.695486923358 2.52967163127 0)
(-0.65609984004 2.68314050289 0)
(-0.616102104032 2.82720953621 0)
(-0.575801658944 2.96181521102 0)
(-0.535476570335 3.08696250612 0)
(-0.49537410758 3.20271653373 0)
(-0.45571078788 3.30919433398 0)
(-0.416673210115 3.40655702862 0)
(-0.378419464743 3.49500247482 0)
(-0.341080976705 3.5747585089 0)
(-0.30476460729 3.64607682879 0)
(-0.269554919375 3.70922753075 0)
(-0.235516479348 3.76449429183 0)
(-0.202696146621 3.81217017081 0)
(-0.171125265256 3.85255398933 0)
(-0.140821745227 3.88594724655 0)
(-0.111791977945 3.91265151785 0)
(-0.0840325985627 3.9329662917 0)
(-0.057532055465 3.94718719916 0)
(-0.0322720187531 3.95560451157 0)
(-0.00822876309716 3.95850181668 0)
(0.0146252234177 3.95615697163 0)
(0.0363208974504 3.94884078188 0)
(0.0568933325348 3.93680866059 0)
(0.0763787886185 3.9203132378 0)
(0.0948146201358 3.89959652729 0)
(0.112238959952 3.87489161632 0)
(0.128690333075 3.846422364 0)
(0.144207317138 3.81440350889 0)
(0.158828248421 3.77904077242 0)
(0.1725909993 3.74053101412 0)
(0.185532790287 3.69906241924 0)
(0.197690057356 3.65481471278 0)
(0.209098339541 3.60795939255 0)
(0.219792209199 3.55865997542 0)
(0.22980521214 3.5070722518 0)
(0.239169841148 3.45334454426 0)
(0.247917511802 3.39761796721 0)
(0.25607856478 3.34002668483 0)
(0.263682265036 3.28069816549 0)
(0.270756822334 3.21975343099 0)
(0.277329404828 3.1573072995 0)
(0.283426170235 3.0934686214 0)
(0.289072287479 3.02834050758 0)
(0.294291973135 2.96202054961 0)
(0.299108516745 2.89460103211 0)
(0.303544318849 2.82616913679 0)
(0.307620916991 2.75680713879 0)
(0.311359022919 2.6865925952 0)
(0.314778547342 2.61559852632 0)
(0.31789863477 2.54389358972 0)
(0.320737685866 2.47154224786 0)
(0.323313389032 2.39860492934 0)
(0.325642739751 2.32513818446 0)
(0.327742068472 2.25119483536 0)
(0.32962705673 2.17682412137 0)
(0.331312761214 2.10207183971 0)
(0.33281362668 2.02698048237 0)
(0.334143506323 1.9515893691 0)
(0.335315671678 1.87593477739 0)
(0.336342829528 1.80005006932 0)
(0.337237129112 1.72396581607 0)
(0.338010175877 1.64770992005 0)
(0.338673036357 1.57130773526 0)
(0.339236249124 1.49478218582 0)
(0.33970982771 1.41815388326 0)
(0.340103269101 1.3414412425 0)
(0.340425555064 1.26466059693 0)
(0.340685158497 1.18782631255 0)
(0.340890043453 1.11095090148 0)
(0.341047669593 1.03404513469 0)
(0.341164991159 0.957118154114 0)
(0.3412484598 0.880177583708 0)
(0.341304022968 0.80322963935 0)
(0.341337126175 0.726279236447 0)
(0.341352713486 0.649330094583 0)
(0.341355235625 0.572384837013 0)
(0.341348667111 0.495445082976 0)
(0.341336549172 0.418511609719 0)
(0.34132209177 0.341584193713 0)
(0.341307365239 0.264663104805 0)
(0.341275452626 0.187640709448 0)
(0.340582090475 0.11239408304 0)
(0.322133883278 0.0321742366935 0)
(-1.14060300862 0.136493875104 0)
(-1.21279186968 0.324595316176 0)
(-1.20315574802 0.567494171842 0)
(-1.18682913718 0.795928528028 0)
(-1.16515337936 1.02107506095 0)
(-1.13860585667 1.24109538136 0)
(-1.10757879094 1.45511725833 0)
(-1.07252459677 1.66227515086 0)
(-1.03392638805 1.86182814272 0)
(-0.992285029792 2.05314767766 0)
(-0.94810506078 2.23571952544 0)
(-0.901882590367 2.40914042236 0)
(-0.854095135089 2.57311250742 0)
(-0.805193576476 2.72743585859 0)
(-0.755596202672 2.87199978088 0)
(-0.705684705539 3.00677338148 0)
(-0.655801911718 3.13179589005 0)
(-0.60625099883 3.24716708891 0)
(-0.557295916325 3.35303812844 0)
(-0.509162752325 3.44960292093 0)
(-0.462041791147 3.53709023682 0)
(-0.416090051765 3.61575656928 0)
(-0.371434113341 3.68587978902 0)
(-0.328173084843 3.74775357764 0)
(-0.286381590487 3.80168260444 0)
(-0.246112689103 3.84797839642 0)
(-0.20740065311 3.88695584236 0)
(-0.170263571225 3.9189302675 0)
(-0.134705738599 3.9442150158 0)
(-0.100719828311 3.96311948669 0)
(-0.0682888227648 3.97594757259 0)
(-0.0373877137072 3.98299627758 0)
(-0.00798511651888 3.98455437434 0)
(0.0199554663515 3.98090510461 0)
(0.0464752213504 3.97232053032 0)
(0.0716160233634 3.95905914392 0)
(0.0954230464058 3.94137553897 0)
(0.117942975933 3.91951287032 0)
(0.13922331058 3.89370484676 0)
(0.159311881448 3.86417552847 0)
(0.178256447744 3.83113950887 0)
(0.19610436597 3.79480208363 0)
(0.212902328949 3.75535946342 0)
(0.22869615732 3.71299901063 0)
(0.24353064334 3.66789949475 0)
(0.25744943075 3.62023136016 0)
(0.270494932481 3.57015700119 0)
(0.282708271984 3.51783104036 0)
(0.294129251536 3.46340060657 0)
(0.304796334981 3.40700561047 0)
(0.314746649455 3.34877901512 0)
(0.324015994889 3.28884710035 0)
(0.332638866667 3.22732971966 0)
(0.340648481318 3.16434054904 0)
(0.348076811223 3.09998732694 0)
(0.35495461901 3.03437208547 0)
(0.361311498061 2.96759137238 0)
(0.367175910477 2.89973646423 0)
(0.372575229114 2.83089357066 0)
(0.377535775663 2.76114403021 0)
(0.382082861424 2.69056449801 0)
(0.386240823284 2.61922712572 0)
(0.390033061493 2.54719973411 0)
(0.393482072218 2.4745459789 0)
(0.396609481345 2.40132551018 0)
(0.399436072934 2.32759412604 0)
(0.401981818602 2.25340392069 0)
(0.404265901638 2.17880342784 0)
(0.406306741906 2.10383775947 0)
(0.408122015691 2.02854874073 0)
(0.409728676281 1.95297504117 0)
(0.411142969834 1.87715230287 0)
(0.412380451962 1.80111326568 0)
(0.413456000003 1.72488789012 0)
(0.414383826039 1.64850347807 0)
(0.415177486023 1.57198479168 0)
(0.415849889693 1.49535417074 0)
(0.416413307025 1.41863164875 0)
(0.416879375506 1.34183506783 0)
(0.417259104392 1.26498019288 0)
(0.417562879775 1.18808082478 0)
(0.417800467093 1.11114891317 0)
(0.417981014455 1.03419466849 0)
(0.418113053905 0.957226673515 0)
(0.41820450365 0.880251994264 0)
(0.418262669047 0.803276290059 0)
(0.418294245398 0.72630392261 0)
(0.418305321687 0.649338064149 0)
(0.41830138948 0.57238080477 0)
(0.41828735883 0.495433258823 0)
(0.418267584893 0.418495771139 0)
(0.418245922054 0.341567649541 0)
(0.41822455842 0.264649377329 0)
(0.418181983831 0.187604765766 0)
(0.41732569949 0.112882556731 0)
(0.394714873472 0.0308368967642 0)
(-1.36214122803 0.152563945536 0)
(-1.44852318589 0.328564774623 0)
(-1.43668468206 0.58292129254 4.44491878921e-26)
(-1.41679298874 0.81687334173 0)
(-1.39039099971 1.04761180935 0)
(-1.35808512692 1.27276859226 0)
(-1.32036944505 1.49145871328 0)
(-1.27781214512 1.70276585978 0)
(-1.23101676917 1.90592302183 0)
(-1.18060581526 2.10029054334 0)
(-1.12720293828 2.28535762445 0)
(-1.07141790208 2.46073673786 0)
(-1.01383417746 2.62615577155 0)
(-0.954999363936 2.78144819955 0)
(-0.895418332779 2.92654210934 0)
(-0.835548862764 3.06144872304 0)
(-0.775799445313 3.18625093553 0)
(-0.716528898756 3.30109226446 0)
(-0.658047419816 3.40616648994 0)
(-0.600618724624 3.50170816095 0)
(-0.544462961589 3.58798406287 0)
(-0.489760127604 3.66528567656 0)
(-0.43665376053 3.73392261283 0)
(-0.385254731707 3.79421697338 0)
(-0.335644998781 3.84649856916 0)
(-0.287881220991 3.89110091568 0)
(-0.241998164697 3.92835792074 0)
(-0.198011857403 3.95860118007 0)
(-0.155922463505 3.9821578012 0)
(-0.115716874728 3.99934869334 0)
(-0.0773710047083 4.01048725578 0)
(-0.0408517976598 4.01587813247 0)
(-0.00611909434128 4.01581595344 0)
(0.0268733438634 4.01059055489 0)
(0.0581754069344 4.00047465548 0)
(0.0878396378397 3.98573107617 0)
(0.115921137108 3.96661598583 0)
(0.142476606797 3.94337371895 0)
(0.167563449251 3.91623852996 0)
(0.191239253468 3.88543455475 0)
(0.213561339601 3.85117606863 0)
(0.234586396574 3.8136677339 0)
(0.254370194593 3.77310487828 0)
(0.272967360695 3.72967378805 0)
(0.290431209683 3.68355201105 0)
(0.306813619209 3.63490866426 0)
(0.322164943824 3.58390474187 0)
(0.336533958905 3.53069342078 0)
(0.349967831198 3.47542036088 0)
(0.362512108701 3.41822399835 0)
(0.374210728131 3.35923583053 0)
(0.385106034086 3.29858069139 0)
(0.395238809286 3.23637701698 0)
(0.404648311079 3.17273710056 0)
(0.413372314401 3.10776733704 0)
(0.421447157241 3.04156845717 0)
(0.42890778935 2.97423575127 0)
(0.435787820868 2.90585928305 0)
(0.442119572079 2.83652409376 0)
(0.44793412138 2.76631039728 0)
(0.453261352988 2.69529376642 0)
(0.45813000184 2.62354531121 0)
(0.462567697374 2.55113184948 0)
(0.466601003938 2.47811607048 0)
(0.470255459624 2.40455669196 0)
(0.473555611494 2.33050861136 0)
(0.476525049041 2.2560230515 0)
(0.479186434035 2.18114770145 0)
(0.481561528594 2.10592685299 0)
(0.483671219803 2.03040153307 0)
(0.485535542652 1.95460963288 0)
(0.487173699781 1.87858603374 0)
(0.488604079739 1.80236273041 0)
(0.489844272341 1.72596895201 0)
(0.490911082768 1.64943128097 0)
(0.491820543116 1.57277377031 0)
(0.492587922906 1.49601805945 0)
(0.493227737406 1.41918348893 0)
(0.493753755142 1.34228721411 0)
(0.494179003572 1.26534431812 0)
(0.494515774174 1.18836792417 0)
(0.494775626056 1.11136930741 0)
(0.494969389236 1.03435800634 0)
(0.495107166862 0.957341933875 0)
(0.495198337495 0.880327488102 0)
(0.495251557031 0.803319662766 0)
(0.495274761549 0.726322157632 0)
(0.495275171258 0.649337489243 0)
(0.495259297234 0.572367102659 0)
(0.495232951347 0.495411483265 0)
(0.495201256251 0.418470392944 0)
(0.49516866855 0.34154242914 0)
(0.495137525045 0.264628161508 0)
(0.495082134004 0.187555920705 0)
(0.494061932459 0.113464740772 0)
(0.467293800826 0.0292274509772 0)
(-1.59006401667 0.171968090607 0)
(-1.69112979376 0.333321392919 0)
(-1.67684137708 0.601545736552 -4.4085327841e-26)
(-1.65305770696 0.842115494915 0)
(-1.62150481713 1.07957162471 0)
(-1.58294097957 1.3108724069 0)
(-1.53797979664 1.53512262678 0)
(-1.48732462143 1.75134543816 0)
(-1.43171805796 1.95874516848 0)
(-1.37192134345 2.15667236417 0)
(-1.3086921396 2.34462451059 0)
(-1.24276617171 2.52223737759 0)
(-1.17484245813 2.68927408303 0)
(-1.10557226344 2.84561216277 0)
(-1.03555154962 2.9912297031 0)
(-0.965316548996 3.12619129145 0)
(-0.895341985954 3.25063437737 0)
(-0.826041444491 3.36475646032 0)
(-0.75776938908 3.46880337072 0)
(-0.690824389301 3.56305878722 0)
(-0.625453155019 3.64783503774 0)
(-0.56185505519 3.72346516286 0)
(-0.500186856418 3.79029617267 0)
(-0.440567479022 3.84868339969 0)
(-0.383082619846 3.89898583521 0)
(-0.327789137591 3.94156233164 0)
(-0.27471913157 3.97676855562 0)
(-0.223883675608 4.00495458314 0)
(-0.175276189669 4.02646303797 0)
(-0.128875448492 4.04162770188 0)
(-0.0846482273216 4.05077251228 0)
(-0.0425515995526 4.0542104998 0)
(-0.0025349571638 4.05224275191 0)
(0.0354596062755 4.04516667708 0)
(0.0714910143206 4.03325425752 0)
(0.105623583587 4.01677394926 0)
(0.137923114837 3.99598312749 0)
(0.168456995603 3.97112724829 0)
(0.197293081981 3.9424409336 0)
(0.224499170086 3.91014818136 0)
(0.250142502996 3.87446269894 0)
(0.274289387716 3.83558824135 0)
(0.297004893242 3.79371896283 0)
(0.318352619122 3.74903977291 0)
(0.338394523501 3.70172669207 0)
(0.35719080017 3.65194720328 0)
(0.374799796756 3.59986059642 0)
(0.391277966008 3.54561830342 0)
(0.406679844581 3.48936422271 0)
(0.421058053253 3.43123503182 0)
(0.434463314724 3.37136048744 0)
(0.446944484461 3.30986371269 0)
(0.458548592033 3.24686147151 0)
(0.469320889557 3.1824644302 0)
(0.479304905666 3.11677740637 0)
(0.48854250247 3.04989960591 0)
(0.497073934626 2.98192484813 0)
(0.504937908635 2.91294177993 0)
(0.512171641972 2.84303407937 0)
(0.518810920653 2.77228064946 0)
(0.524890155196 2.70075580269 0)
(0.53044243392 2.628529437 0)
(0.535499573803 2.55566720385 0)
(0.540092168087 2.48223066909 0)
(0.544249631024 2.40827746714 0)
(0.548000239129 2.33386144919 0)
(0.551371169452 2.25903282595 0)
(0.554388534371 2.18383830561 0)
(0.557077413467 2.10832122732 0)
(0.559461882097 2.03252169098 0)
(0.56156503726 1.95647668356 0)
(0.563409020418 1.88022020252 0)
(0.565015037908 1.80378337666 0)
(0.566403378636 1.72719458488 0)
(0.56759342968 1.65047957299 0)
(0.568603689543 1.57366156912 0)
(0.56945177965 1.49676139774 0)
(0.570154453861 1.41979759282 0)
(0.57072760656 1.34278651007 0)
(0.571186279134 1.26574243863 0)
(0.571544665354 1.18867771228 0)
(0.571816115513 1.11160282035 0)
(0.572013139816 1.03452651841 0)
(0.572147410952 0.957455938821 0)
(0.572229766351 0.880396701284 0)
(0.572270210193 0.80335302355 0)
(0.572277915751 0.726327832486 0)
(0.572261228273 0.64932287612 0)
(0.572227668902 0.572338837051 0)
(0.572183938985 0.495375444185 0)
(0.572135919031 0.418431734689 0)
(0.572088678565 0.341505400277 0)
(0.572044770097 0.26459714502 0)
(0.571974608199 0.18749276006 0)
(0.57078922334 0.114141448991 0)
(0.539865985654 0.0273473872917 0)
(-1.82562109537 0.195043136352 0)
(-1.94196311218 0.338937176174 0)
(-1.92491597277 0.623690379316 0)
(-1.89683100766 0.872069523181 0)
(-1.85959682147 1.11746365207 0)
(-1.81415372646 1.35598774409 0)
(-1.76125806774 1.58674097347 0)
(-1.70177333787 1.8086757827 0)
(-1.63660481799 2.02096665066 0)
(-1.56667379239 2.22295780621 0)
(-1.4928901099 2.4141626231 0)
(-1.41613012146 2.59425073098 0)
(-1.33721947002 2.7630329683 0)
(-1.25692075391 2.92044442914 0)
(-1.17592563279 3.06652694101 0)
(-1.09485078123 3.20141185846 0)
(-1.01423700796 3.32530382604 0)
(-0.934550851967 3.43846592989 0)
(-0.85618801184 3.54120646745 0)
(-0.77947804058 3.63386741777 0)
(-0.704689828082 3.71681458834 0)
(-0.632037486272 3.7904293429 0)
(-0.561686338484 3.85510177141 0)
(-0.493758792457 3.91122514199 0)
(-0.428339941374 3.95919146847 0)
(-0.365482791339 3.99938803186 0)
(-0.305213055529 4.03219470517 0)
(-0.247533488108 4.05798194512 0)
(-0.192427754257 4.07710933254 0)
(-0.139863847612 4.08992457739 0)
(-0.0897970742557 4.09676288133 0)
(-0.0421726448013 4.09794612011 0)
(0.00307221937788 4.09378227337 0)
(0.0460091372105 4.084577109 0)
(0.0867062637941 4.07060009861 0)
(0.125241376584 4.05212671207 0)
(0.161691840133 4.02941486411 0)
(0.196136454294 4.00271095303 0)
(0.228654129627 3.97224967354 0)
(0.259323358093 3.93825457283 0)
(0.288221697108 3.90093845449 0)
(0.315425379155 3.86050381851 0)
(0.341009008396 3.8171432925 0)
(0.365045333203 3.77104005584 0)
(0.387605081567 3.72236825201 0)
(0.408756848403 3.67129338703 0)
(0.428567025622 3.6179727124 0)
(0.447099766835 3.56255559163 0)
(0.464416980096 3.50518384983 0)
(0.480578342765 3.44599210633 0)
(0.495641333826 3.38510809037 0)
(0.509661279394 3.32265294026 0)
(0.522691408182 3.25874148656 0)
(0.534782913889 3.19348251984 0)
(0.545985022335 3.12697904375 0)
(0.556345061212 3.05932851426 0)
(0.565908531055 2.99062306573 0)
(0.574719175946 2.92094972476 0)
(0.582819053121 2.85039061259 0)
(0.59024860049 2.77902313697 0)
(0.597046701606 2.70692017416 0)
(0.603250747465 2.63415024205 0)
(0.608896694953 2.56077766503 0)
(0.614019121553 2.48686273145 0)
(0.618651276349 2.41246184429 0)
(0.622825127087 2.33762766584 0)
(0.626571403484 2.26240925694 0)
(0.629919636664 2.18685221137 0)
(0.632898194979 2.1109987861 0)
(0.635534316196 2.03488802768 0)
(0.637854136357 1.95855589557 0)
(0.639882715332 1.88203538258 0)
(0.641644059401 1.80535663297 0)
(0.643161140939 1.72854705862 0)
(0.644455915519 1.65163145347 0)
(0.645549336531 1.57463210675 0)
(0.64646136764 1.49756891501 0)
(0.647210993173 1.42045949341 0)
(0.647816226753 1.34331928643 0)
(0.648294118274 1.26616167808 0)
(0.648660759517 1.18899810189 0)
(0.648931288508 1.11183815078 0)
(0.649119892925 1.03468968687 0)
(0.64923981266 0.957558951466 0)
(0.649303341845 0.880450675238 0)
(0.649321830508 0.803368188791 0)
(0.649305686117 0.726313533913 0)
(0.64926437512 0.649287575916 0)
(0.649206424448 0.572290116913 0)
(0.64913942207 0.495320005048 0)
(0.649070009979 0.418375425301 0)
(0.64900389125 0.341452998883 0)
(0.648943883041 0.26455371075 0)
(0.648856693586 0.187413462747 0)
(0.647504385855 0.114912346462 0)
(0.61242721179 0.0251974507919 0)
(-2.07019590637 0.222204487642 0)
(-2.20251848415 0.345502474852 0)
(-2.18232832843 0.649756742209 0)
(-2.14943297683 0.907250802975 0)