/*--------------------------------*- C++ -*----------------------------------*\
| =========                 |                                                 |
| \\      /  F ield         | OpenFOAM: The Open Source CFD Toolbox           |
|  \\    /   O peration     | Version:  v1906                                 |
|   \\  /    A nd           | Web:      www.OpenFOAM.com                      |
|    \\/     M anipulation  |                                                 |
\*---------------------------------------------------------------------------*/
FoamFile
{
    version     2.0;
    format      ascii;
    class       volScalarField;
    location    "817";
    object      p;
}
// * * * * * * * * * * * * * * * * * * * * * * * * * * * * * * * * * * * * * //

dimensions      [0 2 -2 0 0 0 0];


internalField   nonuniform List<scalar> 
9216
(
273.688458108
273.768214022
273.933247657
274.184962468
274.521939892
274.942591122
275.44495048
276.026705408
276.685246729
277.417695938
278.220956872
279.091739543
280.026612603
281.022021215
282.074337751
283.179871581
284.334916639
285.535752336
286.77868783
288.060054366
289.376246914
290.723708853
292.098971978
293.498634691
294.919401402
296.358055321
297.811498045
299.276717889
300.750830194
302.231041893
303.714692875
305.199216796
306.68218352
308.161258098
309.634243681
311.099037183
312.553673358
313.996278429
315.425114686
316.838532219
318.235013933
319.613125738
320.971561803
322.309093615
323.624615314
324.917092014
326.185605056
327.429300012
328.647431717
329.839312347
331.004356052
332.142027515
333.251886033
334.333534882
335.386664668
336.411003827
337.406361052
338.372577196
339.30956655
340.217270388
341.095696881
341.944876462
342.764900134
343.555876805
344.317969793
345.051356227
345.756261526
346.432920991
347.081612074
347.702618236
348.296258864
348.862855477
349.402759193
349.91631936
350.403908496
350.865893436
351.302657716
351.714575311
352.102030464
352.465394083
352.805041047
353.121329336
353.414614835
353.685233278
353.933512602
354.159757773
354.364260796
354.547288546
354.709090704
354.849891105
354.969894887
355.069286026
355.148241201
355.206962652
355.246080045
355.262914369
273.608755189
273.68887365
273.854251027
274.106968129
274.445381119
274.867827513
275.372295617
275.956437116
276.617605116
277.352887665
278.159151551
279.033075603
279.971193998
280.969925189
282.025611487
283.134541322
284.292983679
285.497202975
286.743488275
288.0281612
289.347600675
290.69824487
292.076612599
293.479300484
294.903002105
296.344501462
297.800690767
299.268561063
300.745219258
302.227876463
303.71386456
305.200622947
306.685714895
308.166811981
309.641710497
311.108314918
312.564653816
314.008861904
315.439195751
316.854014706
318.25179635
319.631116475
320.99066427
322.329221577
323.645677827
324.939008797
326.20829132
327.452681787
328.671430654
329.863860912
331.029382409
332.167470512
333.277680243
334.359625316
335.412992079
336.437519078
337.433010767
338.399317725
339.336350056
340.244058354
341.122446708
341.971554452
342.791468682
343.582306816
344.344228498
345.077418993
345.782100356
346.458515668
347.106939379
347.727662383
348.321001465
348.887285228
349.426862604
349.940089654
350.427337123
350.888978159
351.325394916
351.736967241
352.124078346
352.487104527
352.826419942
353.142387418
353.43536238
353.705684808
353.953682373
354.179663595
354.383920253
354.566721801
354.728317114
354.868930122
354.988760572
355.087979508
355.166724342
355.225074372
355.262942644
355.279751427
273.442981926
273.524248857
273.69115901
273.946181233
274.287639353
274.713826526
275.222669229
275.81175196
276.47835559
277.219496271
278.031967781
278.912380285
279.85720092
280.862788208
281.925427487
283.04135869
284.206805299
285.417994954
286.671182061
287.962661875
289.288787746
290.645979874
292.030738476
293.439648521
294.869390041
296.31673996
297.778580504
299.251898953
300.733794783
302.221477866
303.712274697
305.203625393
306.69308923
308.178340399
309.657172899
311.127495417
312.587335526
314.034833605
315.468246451
316.885940372
318.286394242
319.668191891
321.030024678
322.370683321
323.68906008
324.984140186
326.255003741
327.500816906
328.720833628
329.914386746
331.080889628
332.219827358
333.330758356
334.413305757
335.467159079
336.492065888
337.487833534
338.454321158
339.391441494
340.299153248
341.177462924
342.026417571
342.846106574
343.636654741
344.398223989
345.131006733
345.835227389
346.511136024
347.159009616
347.779145932
348.371864504
348.937500715
349.476406466
349.98894449
350.475488699
350.936418751
351.372120107
351.782978887
352.169381673
352.531710702
352.870343468
353.185648309
353.477983846
353.747695025
353.995112453
354.220548921
354.424298683
354.606634489
354.767806754
354.908040945
355.0275362
355.126461943
355.20495365
355.263100525
355.300862736
355.318817151
273.188110738
273.270664776
273.439972488
273.698599397
274.044807975
274.476815829
274.992455378
275.589206399
276.264238229
277.014453685
277.836533744
278.726980342
279.68215787
280.698330611
281.771697643
282.898422728
284.074661532
285.296583766
286.560393232
287.862343233
289.198750784
290.566006805
291.96058605
293.379053585
294.818071803
296.274404394
297.744921456
299.226601789
300.716536729
302.211931237
303.710106802
305.208501463
306.704671978
308.196293103
309.681158841
311.157180781
312.622388663
314.074927911
315.513059472
316.935156597
318.339704034
319.725294156
321.090625601
322.434498875
323.755814565
325.053568557
326.326849954
327.574836065
328.79679015
329.99205633
331.160057288
332.30028922
333.412319596
334.495782266
335.550375355
336.575856593
337.572041401
338.538798479
339.47604809
340.38375792
341.261941531
342.110654469
342.929992833
343.720089585
344.48111317
345.213263961
345.916772863
346.591897841
347.238922443
347.858152366
348.449913858
349.014550297
349.55242046
350.063895113
350.549355157
351.009188249
351.443786853
351.853544938
352.238855977
352.600109765
352.937690425
353.251973406
353.543323542
353.812092282
354.05861585
354.283212756
354.486182079
354.667801261
354.828324488
354.967980631
355.086971448
355.185469376
355.263614968
355.321512325
355.359152487
355.37732013
272.843060561
272.927263571
273.099860927
273.363441937
273.716175617
274.156168819
274.681121839
275.288367904
275.974921311
276.737527226
277.57271094
278.476824982
279.446093339
280.476651412
281.564581787
282.705945077
283.896806569
285.133258268
286.411437487
287.727541682
289.077840838
290.45868705
291.866522615
293.297886128
294.749417847
296.21786362
297.700078594
299.193029801
300.693798801
302.19958334
303.707699194
305.215580876
306.720782848
308.220979784
309.713966684
311.197658153
312.670087916
314.129407282
315.573883896
317.001899457
318.411947771
319.802631813
321.172661196
322.520848709
323.846107335
325.147446409
326.423968333
327.674864513
328.899411917
330.096968936
331.26697192
332.408931094
333.5224272
334.607107564
335.66268293
336.688923759
337.685657303
338.652764179
339.590175688
340.497870661
341.375873009
342.224248793
343.043103952
343.832581535
344.59285953
345.324148189
346.026687876
346.700746414
347.346616892
347.964614973
348.555076619
349.118355335
349.654819794
350.16485102
350.648839918
351.107184427
351.540286997
351.948551741
352.332381915
352.69217713
353.02833089
353.341227922
353.631241822
353.898732568
354.144044325
354.367503172
354.569415108
354.750064006
354.909709809
355.0485867
355.166901425
355.264831685
355.342524986
355.400096833
355.437552164
355.455717011
272.406048639
272.492343401
272.669176726
272.939144967
273.300288049
273.750561921
274.287490241
274.908211853
275.609536793
276.388003573
277.23993476
278.161489411
279.1487111
280.197570613
281.304003048
282.463939213
283.673331756
284.928176368
286.224528819
287.558518333
288.926358092
290.324353303
291.748907547
293.196527653
294.663827675
296.147532026
297.644478191
299.151618926
300.666024248
302.184882999
303.705504259
305.225318096
306.741876507
308.252853943
309.756047015
311.249373981
312.730873954
314.198705535
315.651145218
317.086585245
318.503531276
319.900599568
321.27651403
322.630102856
323.960295124
325.266117037
326.546688223
327.801217756
329.029000315
330.229412144
331.401907216
332.54601327
333.661328113
334.747515846
335.804303394
336.831477006
337.828879068
338.796404906
339.733999906
340.641656607
341.519412087
342.36734531
343.185574711
343.974255709
344.73357841
345.463765194
346.165068445
346.837768131
347.482169478
348.098600482
348.687409483
349.248962572
349.783641051
350.291838736
350.773959319
351.230413603
351.661616798
352.067985743
352.4499362
352.807880114
353.142222976
353.453361189
353.741679555
354.007548808
354.251323281
354.473338656
354.673909852
354.853329016
355.011863677
355.149755006
355.267216263
355.364431663
355.441555444
355.498710443
355.535908326
355.5539776
271.874797679
271.963683385
272.145781323
272.423688096
272.795274685
273.258299772
273.810058189
274.447438777
275.166990765
275.964990658
276.837506032
277.780454521
278.789656585
279.860881227
280.989884533
282.172441242
283.404369996
284.681552979
285.999950903
287.355614129
288.74469085
290.163432966
291.60820039
293.075464187
294.561809034
296.063935201
297.578660306
299.102920876
300.633773819
302.168397727
303.704094001
305.238287571
306.768527745
308.292488803
309.807969489
311.312892565
312.805303876
314.283370963
315.745381282
317.189739991
318.614967395
320.019696016
321.402667385
322.76272855
324.098828386
325.410013716
326.695425312
327.954293808
329.185935577
330.389748597
331.565208369
332.711863893
333.82933376
334.917302358
335.975516251
337.003780699
338.001956376
338.969956248
339.907742642
340.815324465
341.692754583
342.540127314
343.357576045
344.145270901
344.903416483
345.632249611
346.332037075
347.003073343
347.645678239
348.260194544
348.84698554
349.406432467
349.938931921
350.444893173
350.92473544
351.3788851
351.80777289
352.211831082
352.59149067
352.947178573
353.279314896
353.588310227
353.874563034
354.138457132
354.380359273
354.60061684
354.799555679
354.977478064
355.134660826
355.271353669
355.387777688
355.484124191
355.560554027
355.617195977
355.65406556
355.671985045
271.246484974
271.338519343
271.527017665
271.814569373
272.198829119
272.677302888
273.246994306
273.904476379
274.645971484
275.467430633
276.364607593
277.333125891
278.36853709
279.466369758
280.622169207
281.831528669
283.090112905
284.393675427
285.738070557
287.119261484
288.533325381
289.976456467
291.444967756
292.935292064
294.443982681
295.967713993
297.503282194
299.047606147
300.597728379
302.150816128
303.704162166
305.255185731
306.801433293
308.340579006
309.870424317
311.38889744
312.894052358
314.384067341
315.857243028
317.312000059
318.746876318
320.160523794
321.551705139
322.919289933
324.262250741
325.579658976
326.870680662
328.134572087
329.370675464
330.578414567
331.75729046
332.906877288
334.026818229
335.116821569
336.176656994
337.206152046
338.205188821
339.173700843
340.111670181
341.019124717
341.896135624
342.74281496
343.559313403
344.345818042
345.102550244
345.829763512
346.527741342
347.196795021
347.837261376
348.44950042
349.033892922
349.590837866
350.120749826
350.624056244
351.101194646
351.552609779
351.978750731
352.380068009
352.757010631
353.110023232
353.439543214
353.745997961
354.029802123
354.29135501
354.531038085
354.749212598
354.946217345
355.122366593
355.277948183
355.41322181
355.528417525
355.623734699
355.699340975
355.755370308
355.791842458
355.809571825
270.517680086
270.613491152
270.809662651
271.108764826
271.508177633
272.00508618
272.596126836
273.277477501
274.04495547
274.894112479
275.820321713
276.818854314
277.884943888
279.01383861
280.200841584
281.441340628
282.730829121
284.064919575
285.439351638
286.84999602
288.29285567
289.76406526
291.259889838
292.77672325
294.311086779
295.859628219
297.419121511
298.986466905
300.558691547
302.132950364
303.7065267
305.27683351
306.841414192
308.39794295
309.944224502
311.478193542
312.997913675
314.501575841
315.98749623
317.454113734
318.899986945
320.323790777
321.724312722
323.100448844
324.451199513
325.775664988
327.073040859
328.34261343
329.58375508
330.79591967
331.978638006
333.131513447
334.25421765
335.346486528
336.408116407
337.438960435
338.438925231
339.407967792
340.346092633
341.253349162
342.129829254
342.975664993
343.791026543
344.576120117
345.33118598
346.056496475
346.752353998
347.41908892
348.057057413
348.666639162
349.248234952
349.802264139
350.329161985
350.829376894
351.303367541
351.751599933
352.174544411
352.572672626
352.946454507
353.296355244
353.622832328
353.926332634
354.207289606
354.466120537
354.703223974
354.918977254
355.113734196
355.287822964
355.441544099
355.575168793
355.688937352
355.783057907
355.857705542
355.913020165
355.949025928
355.966528979
269.684269161
269.784573293
269.9898653
270.302677197
270.720040434
271.238733656
271.85493159
272.564320181
273.362217772
274.243690279
275.203653964
276.23696307
277.338480899
278.503134564
279.725954762
281.002102667
282.326886309
283.695768873
285.104371118
286.548469882
288.023994226
289.527020518
291.053767338
292.600590905
294.163981411
295.740560461
297.327079628
298.920420016
300.517592597
302.115739084
303.712132555
305.304179017
306.889418557
308.465525538
310.030308539
311.581709816
313.117804194
314.636797366
316.137023642
317.616943159
319.075138613
320.510311561
321.921278363
323.306965804
324.666406494
325.998734073
327.303178315
328.579060159
329.825786759
331.042846566
332.229804535
333.386297465
334.512029552
335.606768155
336.670339841
337.702626704
338.703562993
339.673132024
340.6113634
341.518330482
342.394148117
343.238970542
344.05298946
344.836432194
345.589559909
346.3126658
347.006073256
347.670133907
348.305225558
348.911749969
349.490130483
350.040809474
350.564245663
351.060911268
351.531289053
351.975869272
352.395146541
352.789616676
353.159773522
353.506105795
353.829093965
354.129207219
354.406900503
354.662611688
354.896758851
355.109737721
355.301919276
355.473647522
355.625237478
355.756973345
355.869106898
355.961856319
356.035404886
356.089898672
356.125367734
356.142609459
268.741359762
268.846985808
269.063068595
269.392072384
269.830585259
270.374870016
271.020520916
271.762612065
272.595849125
273.51470991
274.51356629
275.586784361
276.728802
277.934184954
279.197664072
280.514156943
281.878777466
283.286836642
284.733837513
286.215466622
287.727583902
289.266212368
290.827528652
292.407854995
294.003653087
295.611519831
297.228184955
298.850510165
300.475489494
302.100250428
303.722054774
305.338300757
306.946524765
308.544401356
310.129743527
311.700502233
313.254765224
314.790755221
316.306827439
317.801466533
319.273282993
320.721009089
322.143494402
323.539701051
324.908698657
326.249659143
327.561851414
328.844636004
330.097459728
331.319850432
332.511411855
333.671818694
334.80081189
335.898194213
336.96382614
337.997622095
338.999547028
339.969613376
340.907878349
341.814441558
342.689442907
343.533060741
344.345510138
345.127041345
345.877938218
346.598516674
347.289123035
347.950132266
348.581946024
349.184990524
349.759714196
350.306585132
350.826088336
351.318722797
351.784998415
352.225432804
352.640548008
353.03086718
353.396911228
353.739195495
354.058226473
354.354498603
354.628491171
354.880665319
355.111461217
355.321295373
355.510558139
355.67961139
355.828786418
355.958382062
356.068663037
356.159858475
356.232160875
356.285723805
356.320583521
356.337527942
267.683159441
267.795080953
268.023910658
268.372000822
268.83537198
269.409629336
270.089635062
270.869701494
271.743782683
272.70564701
273.749021807
274.867707113
276.055658626
277.307042739
278.616268002
279.977998119
281.387151417
282.838891269
284.32861113
285.85191709
287.404610047
288.982669037
290.582236688
292.199607442
293.831218763
295.473645345
297.123596016
298.777912864
300.433571995
302.087685294
303.737501922
305.380411174
307.01394511
308.635778337
310.243728787
311.835757286
313.409966356
314.964598214
316.498032052
318.008780632
319.495486306
320.956916501
322.391958802
323.799615676
325.178998961
326.52932416
327.849904665
329.140145924
330.399539677
331.627658274
332.824149176
333.988729666
335.121181861
336.221348037
337.289126353
338.324466964
339.327368586
340.297875476
341.236074847
342.142094659
343.016101762
343.858300301
344.668930342
345.448266594
346.196617191
346.914322415
347.601753312
348.259310122
348.887420493
349.486537436
350.057137019
350.59971579
351.114787959
351.602882352
352.06453919
352.500306717
352.910737729
353.296386046
353.657802961
353.995533716
354.310114021
354.60206667
354.871898256
355.120096035
355.347124933
355.553424736
355.739407473
355.905454991
356.051916775
356.17910795
356.287307532
356.376757119
356.447659405
356.500175785
356.534350328
356.550960513
266.502819838
266.62219786
266.866100074
267.236700538
267.72928744
268.338622055
269.058638845
269.882699128
270.803834726
271.814960468
272.909045228
274.079239274
275.318960083
276.621942053
277.982257345
279.39431531
280.852847492
282.352883972
283.889725641
285.458915644
287.056212346
288.677565231
290.319094706
291.977076227
293.647928934
295.328208537
297.014604
298.703937206
300.393164749
302.0793808
303.759819818
305.431860662
307.093029953
308.741001985
310.373600042
311.988796051
313.584709299
315.159604236
316.711887417
318.24010371
319.742931812
321.219179237
322.667776823
324.087772903
325.478327205
326.838704604
328.168268774
329.466475855
330.732868163
331.967068054
333.168771973
334.337744787
335.47381443
336.576866977
337.646842128
338.683729226
339.687563755
340.658424399
341.596430582
342.501740497
343.374549534
344.215089052
345.023625373
345.800458926
346.545923402
347.260384855
347.944240622
348.597918017
349.22187272
349.816586849
350.382566673
350.920340014
351.430453314
351.913468454
352.369959332
352.800508283
353.205702373
353.586129626
353.942375241
354.275017822
354.584625682
354.871753235
355.136937523
355.380694887
355.603517816
355.805871987
355.988193517
356.150886429
356.294320348
356.418828469
356.524705737
356.612207231
356.681547015
356.732895797
356.76630564
356.782542518
265.192234753
265.320476103
265.582257981
265.97947809
266.50646984
267.156902617
267.923528049
268.798515863
269.773765391
270.84116724
271.992803827
273.221088557
274.518849308
275.879365991
277.296373391
278.764040259
280.276934013
281.829978501
283.418410106
285.03773581
286.683695363
288.352228862
290.039450355
291.741627792
293.455169228
295.176614933
296.902634553
298.630028235
300.355730374
302.076813823
303.790495589
305.494142091
307.185272514
308.861560245
310.520834255
312.161078859
313.78043232
315.377184359
316.949772706
318.496778779
320.016922649
321.509057377
322.972162887
324.405339449
325.807800936
327.178867909
328.517960671
329.824592305
331.098361847
332.338947582
333.546100608
334.719638693
335.859440538
336.965440484
338.037623786
339.076022439
340.080711674
341.051807045
341.989462187
342.893867101
343.765246983
344.603861416
345.410003877
346.184001361
346.926214053
347.637034861
348.316888741
348.966231688
349.585549355
350.175355234
350.736188407
351.26861087
351.773204482
352.250567576
352.701311302
353.126055774
353.525426083
353.900048238
354.250545094
354.577532312
354.881614398
355.16338086
355.423402502
355.662227896
355.880380045
356.078353262
356.256610275
356.415579574
356.555653017
356.677183666
356.780483879
356.865823889
356.933430187
356.983483114
357.016044404
357.031867264
263.741776182
263.880613398
264.16371726
264.592562356
265.160222804
265.858941837
266.679952512
267.613925361
268.651368009
269.782946216
270.99971537
272.293266285
273.655797192
275.080128239
276.559675711
278.08840143
279.660749818
281.271581619
282.916110236
284.58984407
286.288536614
288.008144948
289.744796905
291.494766839
293.254459863
295.020403906
296.789248522
298.557768732
300.322872015
302.081605001
303.831162838
305.568896154
307.292314436
308.999089164
310.687055218
312.354210702
313.998715326
315.61888754
317.213200537
318.780277326
320.318884982
321.827928246
323.306442605
324.753587013
326.16863637
327.550973885
328.900083402
330.2155418
331.497011492
332.744233134
333.95701859
335.135244267
336.278844884
337.387807796
338.462167942
339.502003511
340.507432354
341.478609192
342.415723562
343.318998502
344.188689818
345.025085868
345.828507661
346.599309143
347.337877462
348.044633089
348.720029609
349.364553102
349.978721003
350.563080428
351.118205928
351.644696723
352.143173455
352.614274547
353.058652237
353.476968391
353.86989017
354.238085625
354.582219294
354.902947842
355.200915812
355.476751494
355.731062977
355.964434391
356.177422368
356.370552741
356.544317501
356.699172008
356.835532481
356.953773778
357.054227442
357.13717994
357.202871452
357.251493535
357.283117704
357.298483099
262.139944947
262.291548933
262.600265401
263.066925619
263.682920444
264.438611132
265.32326659
266.325663453
267.434598945
268.639281526
269.929590991
271.296219942
272.730718657
274.225469931
275.773619429
277.368983067
279.005947282
280.679372706
282.384507094
284.116910116
285.872390514
287.64695529
289.436770384
291.23813255
293.047452174
294.861246469
296.676141508
298.488880726
300.296336923
302.095523322
303.883606746
305.657917401
307.415952251
309.155379482
310.874040058
312.569947459
314.24128571
315.886405951
317.503821764
319.092203469
320.650371533
322.177289264
323.672054983
325.133893825
326.562149345
327.956275043
329.315825919
330.640450114
331.929880709
333.183927732
334.402470476
335.585450183
336.732863259
337.844755093
338.92121465
339.962369877
340.968384065
341.939453139
342.875803908
343.777693177
344.645407639
345.479264344
346.279611607
347.046830072
347.781333785
348.483570999
349.154024575
349.793211813
350.401683618
350.980022959
351.528842613
352.048782248
352.540504915
353.004693065
353.442044192
353.853266229
354.23907279
354.600178361
354.937293503
355.251120137
355.542346947
355.811644953
356.059663277
356.287025138
356.494324086
356.682120518
356.850938461
357.001262657
357.133535949
357.248156939
357.345477939
357.425803453
357.489388456
357.536436013
357.567029192
357.581891574
260.372902056
260.540042971
260.879813217
261.392065384
262.065907711
262.889190593
263.848623574
264.930582257
266.121764602
267.409658936
268.782823052
270.231000606
271.745113519
273.31717219
274.940140881
276.607787087
278.314534392
280.055329896
281.825530908
283.620811362
285.437086288
287.27045209
289.117141116
290.973489902
292.835921334
294.700940434
296.565141995
298.425226552
300.27802
302.120491294
303.949770544
305.763161536
307.558145058
309.332384378
311.083726794
312.810203098
314.510025031
316.181581067
317.823430862
319.434298615
321.013065455
322.55876107
324.070554778
325.547746277
326.989756227
328.396116863
329.766462681
331.100521279
332.398104374
333.659099049
334.883459289
336.071197953
337.222379268
338.33711207
339.415543896
340.457856111
341.464260137
342.434994888
343.37032534
344.270542235
345.1359627
345.966931648
346.763823653
347.527045065
348.25703604
348.954272254
349.619266034
350.252566742
350.854760295
351.426467757
351.968343031
352.481069712
352.965357218
353.421936356
353.851554455
354.254970246
354.632948589
354.986255181
355.315651315
355.621888744
355.905704716
356.167817204
356.408920362
356.629680244
356.83073081
357.012670215
357.176057445
357.321409244
357.449197385
357.559846284
357.653730916
357.731174941
357.792449456
357.8377707
357.867233367
357.881543947
258.423829694
258.61011335
258.987964879
259.555740958
260.299405247
261.203421001
262.25113943
263.425885018
264.711788511
266.094333179
267.560629866
269.099471771
270.701234121
272.357683326
274.061748689
275.807294122
277.588912018
279.401749285
281.241366847
283.103629061
284.984617411
286.880563427
288.787797688
290.702714579
292.621754165
294.541402471
296.458208072
298.36880993
300.269967902
302.158591497
304.031763813
305.886754361
307.72102373
309.532228622
311.318223169
313.077057972
314.806976657
316.506410536
318.173971971
319.808446612
321.408784595
322.97409087
324.503614988
325.996740576
327.452974796
328.871937911
330.253353072
331.597036307
332.902886711
334.170876844
335.401043412
336.59347833
337.748320395
338.865747748
339.945971368
340.989229772
341.995785112
342.965920708
343.899940065
344.798167259
345.660948535
346.488654835
347.281684965
348.040468988
348.76547153
349.457194591
350.116179605
350.743008491
351.338303579
351.902726321
352.436974865
352.941780563
353.417903606
353.866127975
354.287255935
354.682102249
355.051488298
355.39623622
355.717163149
356.015075632
356.29076424
356.54499843
356.778521658
356.992046812
357.186251939
357.361776342
357.519217006
357.659125413
357.782004704
357.888307183
357.978432153
358.052724331
358.111472068
358.154905036
358.183131422
358.196838882
256.272044079
256.482266919
256.907457008
257.543660736
258.372437833
259.373632926
260.526164857
261.809479294
263.204590009
264.694688944
266.265370995
267.904565242
269.602279606
271.350256737
273.141614591
274.970517598
276.83190084
278.721252479
280.634449057
282.567632912
284.51711993
286.479327994
288.450721094
290.427769513
292.406930795
294.384656548
296.357422968
298.321777346
300.274385261
302.212076154
304.131873026
306.031002781
307.906901993
309.757219391
311.579816931
313.372768367
315.134354449
316.863055939
318.557545643
320.216679453
321.839486116
323.425156025
324.973029423
326.482584403
327.953425028
329.385269819
330.777940592
332.131351613
333.445498941
334.720449921
335.95633285
337.153326999
338.311653215
339.431565418
340.513343276
341.557286371
342.563710028
343.532942994
344.465326947
345.361217774
346.220988367
347.045032638
347.83377029
348.587651902
349.307163803
349.992832323
350.645226975
351.264962336
351.85269841
352.409139453
352.935031302
353.431157389
353.89833367
354.337402768
354.749227619
355.134684873
355.494658273
355.830032129
356.141685
356.430483594
356.697276944
356.942890851
357.168122654
357.373736312
357.560457881
357.72897135
357.879914915
358.013877628
358.131396462
358.232953795
358.318975234
358.389827689
358.445818121
358.487191353
358.514069104
358.527118397
253.891737203
254.132437628
254.617424203
255.339123936
256.272822633
257.392007356
258.669724877
260.080502636
261.601617005
263.213723742
264.900947411
266.650587293
268.452612308
270.299090981
272.183654086
274.101041543
276.04675015
278.016776667
280.007438645
282.015250968
284.036836749
286.068856273
288.107946016
290.150670495
292.193498502
294.232818499
296.264990493
298.286422313
300.293645316
302.283380411
304.252575166
306.198408331
308.118289676
310.009859043
311.870987778
313.69977741
315.494552585
317.25385148
318.976416351
320.661183513
322.307271476
323.913967786
325.480715328
327.007098485
328.492829753
329.937737073
331.341751805
332.704897117
334.027276539
335.309062487
336.550484788
337.75181939
338.913377637
340.035496474
341.118530072
342.162843191
343.168806673
344.136795191
345.067187384
345.960368216
346.816733332
347.636694932
348.420688661
349.169180823
349.882675318
350.561719663
351.206909629
351.818892083
352.398365876
352.946080693
353.462833995
353.949466294
354.406855101
354.835907978
355.237555074
355.612741521
355.962419911
356.287543046
356.589056983
356.867894422
357.124968389
357.361166271
357.577344169
357.774321654
357.952876917
358.113742389
358.257600794
358.385081696
358.496758481
358.593145756
358.674697135
358.741803662
358.794792029
358.83392241
358.859331991
358.871665121
251.250148503
251.530492144
252.092439631
252.922638155
253.987284952
255.251056055
256.679215498
258.240097749
259.906589336
261.656686029
263.473299196
265.343572228
267.257984205
269.209455944
271.192580924
273.203028463
275.237118339
277.291540319
279.363181425
281.44902198
283.546065328
285.651274768
287.761505352
289.873437159
291.983535479
294.0880765
296.183232386
298.265196534
300.330306254
302.375139274
304.396554878
306.391683439
308.357908403
310.292860117
312.194421168
314.060727426
315.890156559
317.681313699
319.433020787
321.144306357
322.814391699
324.442675129
326.028715895
327.572218018
329.073015099
330.531056588
331.946395048
333.319174038
334.649616027
335.938009942
337.18469834
338.390064501
339.55451994
340.678492947
341.762418731
342.806731728
343.81186051
344.778225593
345.706240266
346.596314334
347.448860425
348.264302313
349.043084499
349.785682229
350.49261105
351.164435138
351.801773702
352.405305043
352.975767972
353.51396061
354.020736688
354.496999749
354.943695724
355.361804487
355.752330955
356.116296206
356.45472893
356.768657351
357.059101652
357.32706681
357.573535827
357.799463287
358.005769307
358.193333887
358.36299175
358.515527679
358.651672409
358.772099031
358.877419914
358.968184128
359.044875292
359.107909668
359.157635004
359.194328546
359.218142928
359.2296977
248.304830308
248.638095678
249.301276475
250.271576355
251.501823877
252.944462926
254.554490631
256.292545157
258.126525792
260.031905289
261.991006816
263.99166884
266.025748398
268.087777815
270.173910891
272.281178322
274.40701225
276.548977376
278.704642285
280.871529054
283.047087092
285.228649699
287.413352183
289.598023549
291.779100783
293.952667248
296.114590073
298.260727816
300.387137848
302.490215055
304.566726655
306.613770453
308.628709822
310.609163
312.553024226
314.458473714
316.323955323
318.148152263
319.929977066
321.668564104
323.363252899
325.01356852
326.619202556
328.179993763
329.695910674
331.16703706
332.59355894
333.975752425
335.313971385
336.608634018
337.860208416
339.069197537
340.236124407
341.361518383
342.445903318
343.489788347
344.493661947
345.457989672
346.383215811
347.269768825
348.118070187
348.928545844
349.701639353
350.437825511
351.137623355
351.801607401
352.43041632
353.024758413
353.585413635
354.113232142
354.609129631
355.074079963
355.509105803
355.915268129
356.29365543
356.645373245
356.971534417
357.273250192
357.551622026
357.807733965
358.042645399