/*--------------------------------*- C++ -*----------------------------------*\
| =========                 |                                                 |
| \\      /  F ield         | OpenFOAM: The Open Source CFD Toolbox           |
|  \\    /   O peration     | Version:  v1906                                 |
|   \\  /    A nd           | Web:      www.OpenFOAM.com                      |
|    \\/     M anipulation  |                                                 |
\*---------------------------------------------------------------------------*/
FoamFile
{
    version     2.0;
    format      ascii;
    class       volVectorField;
    location    "738";
    object      U;
}
// * * * * * * * * * * * * * * * * * * * * * * * * * * * * * * * * * * * * * //

dimensions      [0 1 -1 0 0 0 0];


internalField   nonuniform List<vector> 
9216
(
(0.00271000115431 -0.00271222414856 0)
(0.00285731664452 -0.00875275550105 1.17191418258e-27)
(0.00284915930714 -0.0148873356156 1.84079846109e-31)
(0.00281188246398 -0.0210223018829 0)
(0.00276012679319 -0.0270544723376 0)
(0.00269536284605 -0.0329595767468 0)
(0.00261926458561 -0.0387117819058 0)
(0.00253318874696 -0.0442881033461 0)
(0.00243842133661 -0.0496683566969 0)
(0.00233625067036 -0.0548351288437 0)
(0.00222792340064 -0.0597737615338 0)
(0.00211466382178 -0.0644722689488 0)
(0.00199760755891 -0.0689212354687 0)
(0.0018778347692 -0.0731136389069 0)
(0.00175630314554 -0.0770446758399 0)
(0.00163390271386 -0.0807115329576 0)
(0.00151138780708 -0.0841131869804 0)
(0.00138945229005 -0.0872501687019 0)
(0.0012686563926 -0.0901243749934 0)
(0.00114951928621 -0.0927388555159 0)
(0.00103243629614 -0.0950976581499 0)
(0.00091778608992 -0.0972056525469 0)
(0.00080583499862 -0.0990684154221 0)
(0.000696856821923 -0.100692092447 0)
(0.000591022198383 -0.102083320138 0)
(0.000488530137234 -0.10324912053 0)
(0.000389481884377 -0.104196851173 0)
(0.000294023866969 -0.104934124021 0)
(0.000202206519334 -0.105468774787 0)
(0.000114140007677 -0.105808800059 0)
(2.98414633844e-05 -0.105962325327 0)
(-5.06203991947e-05 -0.105937620187 0)
(-0.000127289086858 -0.10574292819 0)
(-0.000200112482114 -0.105386508846 0)
(-0.000269139262674 -0.104876655552 0)
(-0.000334340808105 -0.104221618085 0)
(-0.000395799742913 -0.103429595814 0)
(-0.000453511281285 -0.10250869483 0)
(-0.000507583593262 -0.101466916566 0)
(-0.000558031427983 -0.100312121639 0)
(-0.000604984616012 -0.0990520201608 0)
(-0.000648474295797 -0.0976941417451 0)
(-0.000688647811751 -0.0962458273886 0)
(-0.000725549092571 -0.0947142059995 0)
(-0.000759338606193 -0.0931061884022 0)
(-0.000790069337087 -0.0914284509752 0)
(-0.000817910205491 -0.0896874316223 0)
(-0.00084291940583 -0.0878893203485 0)
(-0.000865269910543 -0.0860400572748 0)
(-0.000885021687357 -0.0841453300389 0)
(-0.000902347666579 -0.0822105731466 0)
(-0.000917306593489 -0.0802409713531 0)
(-0.000930068069417 -0.0782414599201 0)
(-0.000940687501994 -0.0762167332545 0)
(-0.000949328635503 -0.0741712449661 0)
(-0.00095604223537 -0.072109220462 0)
(-0.000960984766463 -0.0700346561012 0)
(-0.000964202116901 -0.0679513347239 0)
(-0.000965842933062 -0.0658628227515 0)
(-0.000965948798271 -0.0637724873143 0)
(-0.00096466098356 -0.0616834907593 0)
(-0.000962018150469 -0.059598808552 0)
(-0.000958155184145 -0.057521220491 0)
(-0.000953109560387 -0.0554533285267 0)
(-0.000947011197401 -0.0533975447565 0)
(-0.000939898302967 -0.051356108951 0)
(-0.000931897162373 -0.0493310733877 0)
(-0.000923048338514 -0.0473243199428 0)
(-0.000913475602577 -0.0453375425217 0)
(-0.000903223078493 -0.0433722641087 0)
(-0.000892412564132 -0.041429817438 0)
(-0.000881092255433 -0.0395113623335 0)
(-0.000869381981702 -0.0376178656746 0)
(-0.000857333900512 -0.0357501196185 0)
(-0.000845065229397 -0.0339087215961 0)
(-0.000832631323408 -0.0320940937744 0)
(-0.000820145702236 -0.0303064639457 0)
(-0.000807665712318 -0.0285458866381 0)
(-0.000795299685596 -0.0268122253475 0)
(-0.000783105388591 -0.0251051754445 0)
(-0.00077118427482 -0.0234242482294 0)
(-0.000759592746594 -0.0217687958217 0)
(-0.000748423436877 -0.0201379972828 0)
(-0.000737729227796 -0.0185308856908 0)
(-0.000727591382615 -0.0169463370652 0)
(-0.00071805572163 -0.0153831007788 0)
(-0.000709186441536 -0.0138397940889 0)
(-0.000701011253884 -0.0123149421921 0)
(-0.00069355307198 -0.0108069940865 0)
(-0.000686762461954 -0.0093144109935 0)
(-0.000680468864623 -0.00783579712127 0)
(-0.000674143542968 -0.0063703273894 0)
(-0.000666333724864 -0.00491890263614 0)
(-0.000650567278857 -0.0034940871742 0)
(-0.000621994231378 -0.00200589120823 0)
(-0.000848186526077 -0.000847989127454 0)
(0.00877327903529 -0.00288724238005 0)
(0.00970090865479 -0.00977060341665 0)
(0.00967850579378 -0.0166411392563 -1.23064574587e-27)
(0.00954906801702 -0.0235170589845 0)
(0.0093699372503 -0.0302684725067 0)
(0.00914848134318 -0.036873621581 0)
(0.00888908301398 -0.0433050803043 0)
(0.008595972519 -0.0495375999732 0)
(0.00827343499198 -0.0555487712461 0)
(0.00792581346321 -0.0613192432751 0)
(0.00755737034848 -0.0668327630708 0)
(0.00717225455745 -0.0720761069957 0)
(0.00677435785177 -0.0770389532412 0)
(0.00636732739762 -0.0817136837373 0)
(0.00595444630783 -0.0860951669396 0)
(0.00553870129943 -0.0901805022442 0)
(0.00512268274204 -0.0939687758525 0)
(0.00470869940685 -0.0974608017075 0)
(0.00429868442955 -0.100658894359 0)
(0.00389434484293 -0.103566640191 0)
(0.0034970594216 -0.10618871071 0)
(0.00310805226834 -0.108530678538 0)
(0.00272827200946 -0.110598877382 0)
(0.00235858215526 -0.112400263029 0)
(0.00199961544585 -0.113942315163 0)
(0.00165197749176 -0.115232935512 0)
(0.00131607419288 -0.116280381317 0)
(0.000992327899953 -0.117093189885 0)
(0.000680978768935 -0.11768013242 0)
(0.00038231498678 -0.118050153373 0)
(9.64527070584e-05 -0.118212342704 0)
(-0.000176438861964 -0.118175830226 0)
(-0.00043637686712 -0.117949891765 0)
(-0.000683278063602 -0.117543830162 0)
(-0.000917235259273 -0.1169669165 0)
(-0.00113825101788 -0.116228379504 0)
(-0.00134651291658 -0.115337379522 0)
(-0.00154210386818 -0.114302974773 0)
(-0.00172529273586 -0.113134099776 0)
(-0.00189623225728 -0.111839534362 0)
(-0.00205526110014 -0.110427884433 0)
(-0.00220259068132 -0.108907556046 0)
(-0.0023386163663 -0.107286739489 0)
(-0.00246359546372 -0.1055733892 0)
(-0.00257796565052 -0.103775211769 0)
(-0.00268201648812 -0.101899652127 0)
(-0.00277621297321 -0.0999538855573 0)
(-0.0028608632009 -0.097944810149 0)
(-0.00293644508787 -0.0958790427085 0)
(-0.00300327263377 -0.0937629171302 0)
(-0.00306182365644 -0.0916024836239 0)
(-0.0031124072474 -0.0894035122541 0)
(-0.00315549052012 -0.0871714947497 0)
(-0.00319136958231 -0.0849116522486 0)
(-0.00322049312698 -0.0826289385819 0)
(-0.003243139281 -0.0803280509835 0)
(-0.00325973403787 -0.0780134337714 0)
(-0.00327053597702 -0.0756892907697 0)
(-0.00327594739164 -0.0733595881619 0)
(-0.00327620881015 -0.071028067361 0)
(-0.00327170085492 -0.0686982461197 0)
(-0.0032626500906 -0.0663734308726 0)
(-0.00324941957839 -0.0640567153439 0)
(-0.00323222749157 -0.0617509916574 0)
(-0.00321142459314 -0.059458946227 0)
(-0.00318722671136 -0.0571830694182 0)
(-0.00315997744044 -0.0549256487997 0)
(-0.00312989554213 -0.0526887774765 0)
(-0.00309732154024 -0.0504743452904 0)
(-0.003062480866 -0.0482840463398 0)
(-0.00302571320746 -0.0461193688527 0)
(-0.00298725222884 -0.0439816025312 0)
(-0.0029474369322 -0.0418718280513 0)
(-0.0029065085773 -0.0397909249801 0)
(-0.00286480350583 -0.0377395617102 0)
(-0.0028225678721 -0.0357182045592 0)
(-0.00278013168199 -0.0337271089071 0)
(-0.00273774173527 -0.0317663299907 0)
(-0.00269571673243 -0.0298357157194 0)
(-0.00265429876038 -0.0279349194452 0)
(-0.00261378946075 -0.0260633948262 0)
(-0.00257442015556 -0.0242204107626 0)
(-0.00253646899297 -0.0224050484654 0)
(-0.00250014954755 -0.0206162186375 0)
(-0.00246570851832 -0.0188526609666 0)
(-0.00243333158699 -0.0171129637059 0)
(-0.00240321932436 -0.0153955657005 0)
(-0.00237550455959 -0.0136987777006 0)
(-0.0023502939297 -0.0120207832776 0)
(-0.00232756603728 -0.0103596456569 0)
(-0.00230710528609 -0.00871324692248 0)
(-0.00228820635991 -0.00707908885541 0)
(-0.00226899073288 -0.00545340163836 0)
(-0.00224396382155 -0.00382811546931 0)
(-0.00218252905215 -0.00217773524804 0)
(-0.00200444819909 -0.000619919066699 0)
(0.0150191247664 -0.00293311644629 0)
(0.0166300214945 -0.00993139573027 0)
(0.0165693307407 -0.0168921877209 -1.2286065423e-27)
(0.0163383566599 -0.0238687568663 0)
(0.0160266549236 -0.030717154517 0)
(0.0156440046254 -0.0374141143518 0)
(0.0151969004369 -0.0439311707767 0)
(0.0146922870586 -0.0502425249027 0)
(0.0141374771217 -0.0563254419136 0)
(0.0135399377888 -0.0621604359343 0)
(0.0129070485758 -0.0677312816297 0)
(0.0122459508075 -0.0730249270499 0)
(0.0115633691416 -0.0780313329645 0)
(0.0108655446379 -0.0827432505221 0)
(0.0101581265054 -0.0871559694195 0)
(0.00944618537192 -0.0912670422217 0)
(0.00873416116446 -0.095076012078 0)
(0.00802593685886 -0.0985841427107 0)
(0.00732481835281 -0.101794172049 0)
(0.00663364464109 -0.104710081891 0)
(0.00595477615838 -0.107336899839 0)
(0.00529022116139 -0.109680520925 0)
(0.00464161525561 -0.111747561569 0)
(0.00401035079391 -0.113545230459 0)
(0.00339753783 -0.11508122706 0)
(0.00280413031181 -0.116363651319 0)
(0.0022308652265 -0.117400934473 0)
(0.00167838457085 -0.118201774972 0)
(0.00114715379111 -0.118775089441 0)
(0.00063758117176 -0.119129963747 0)
(0.000149917071059 -0.119275617039 0)
(-0.000315616475416 -0.119221358717 0)
(-0.000758939554857 -0.11897655653 0)
(-0.00117999887607 -0.118550602037 0)
(-0.00157888362474 -0.11795287748 0)
(-0.00195569127793 -0.117192722633 0)
(-0.00231065686616 -0.116279404986 0)
(-0.00264401597369 -0.115222088611 0)
(-0.00295613746345 -0.114029807914 0)
(-0.00324737989321 -0.112711439702 0)
(-0.00351822809434 -0.111275680221 0)
(-0.00376914420196 -0.109731021704 0)
(-0.00400070738175 -0.108085733565 0)
(-0.00421346074973 -0.106347844208 0)
(-0.00440805366754 -0.104525127082 0)
(-0.00458508592093 -0.102625088216 0)
(-0.00474525200281 -0.100654957236 0)
(-0.00488918403055 -0.0986216805829 0)
(-0.00501759746497 -0.0965319174033 0)
(-0.00513113416846 -0.0943920381161 0)
(-0.00523050892191 -0.0922081245243 0)
(-0.0053163540245 -0.089985972951 0)
(-0.00538936596411 -0.0877310978114 0)
(-0.00545015279674 -0.0854487383435 0)
(-0.00549938020776 -0.0831438644286 0)
(-0.00553762281744 -0.0808211856362 0)
(-0.00556550881506 -0.0784851581321 0)
(-0.0055835760744 -0.0761399947599 0)
(-0.005592414372 -0.0737896716691 0)
(-0.0055925270148 -0.0714379381302 0)
(-0.00558446957284 -0.0690883218644 0)
(-0.00556871742581 -0.0667441376104 0)
(-0.00554579981147 -0.064408490271 0)
(-0.00551617355717 -0.0620842815483 0)
(-0.00548035127982 -0.0597742106309 0)
(-0.00543878140093 -0.0574807787495 0)
(-0.00539196938766 -0.0552062874275 0)
(-0.00534036417554 -0.0529528411835 0)
(-0.00528447156623 -0.0507223439355 0)
(-0.00522474718837 -0.0485165004941 0)
(-0.00516170138249 -0.046336811841 0)
(-0.00509579896545 -0.0441845761924 0)
(-0.00502755523222 -0.0420608841208 0)
(-0.00495744283627 -0.0399666200576 0)
(-0.00488597874057 -0.0379024580536 0)
(-0.00481363861234 -0.0358688644327 0)
(-0.00474093475418 -0.0338660949419 0)
(-0.00466833837122 -0.0318941991225 0)
(-0.00459634857945 -0.0299530192763 0)
(-0.0045254228701 -0.0280421968653 0)
(-0.00445603732496 -0.0261611735929 0)
(-0.00438862544526 -0.0243091999676 0)
(-0.00432362957776 -0.0224853385039 0)
(-0.00426144802918 -0.0206884743327 0)
(-0.00420247736794 -0.0189173202762 0)
(-0.00414706702377 -0.0171704288489 0)
(-0.00409555102681 -0.0154461977215 0)
(-0.00404820742461 -0.0137428797248 0)
(-0.00400527545907 -0.0120585807197 0)
(-0.00396691495505 -0.0103912484415 0)
(-0.00393321067255 -0.00873862058169 0)
(-0.00390417013818 -0.00709809661765 0)
(-0.00387983139563 -0.00546638035946 0)
(-0.00386009690029 -0.00383781175786 0)
(-0.00382887156184 -0.0022265157559 0)
(-0.00348499486208 -0.000644774239639 0)
(0.0214127893062 -0.00297845564666 0)
(0.0237276663524 -0.0100818145224 0)
(0.023637978288 -0.0171381477295 1.22803594567e-27)
(0.0233034162826 -0.0242109723717 0)
(0.0228527843225 -0.0311502762811 0)
(0.0223005372801 -0.0379312999712 0)
(0.021656114812 -0.0445243999655 0)
(0.0209296095505 -0.050903073017 0)
(0.020131675076 -0.0570442312654 0)
(0.0192731694569 -0.0629283358855 0)
(0.0183648142686 -0.0685393592447 0)
(0.0174169331837 -0.0738646515948 0)
(0.0164392273709 -0.0788947286449 0)
(0.0154406405585 -0.0836230023186 0)
(0.0144292525386 -0.0880454814912 0)
(0.0134122571699 -0.0921604590851 0)
(0.0123959478848 -0.0959682053724 0)
(0.0113857747526 -0.0994706757949 0)
(0.0103863841469 -0.102671245376 0)
(0.0094017172601 -0.105574470631 0)
(0.00843506895136 -0.108185884803 0)
(0.00748919752541 -0.110511822184 0)
(0.00656637799605 -0.112559273473 0)
(0.00566850419942 -0.114335765192 0)
(0.00479712309185 -0.115849263329 0)
(0.00395352086794 -0.117108093423 0)
(0.00313873434125 -0.118120877049 0)
(0.00235362047883 -0.118896477402 0)
(0.00159884708237 -0.119443954615 0)
(0.000874949540502 -0.119772524861 0)
(0.000182305485654 -0.1198915231 0)
(-0.000478811941753 -0.119810380738 0)
(-0.00110826708566 -0.119538559911 0)
(-0.00170602197579 -0.119085549972 0)
(-0.00227217158045 -0.118460827849 0)
(-0.00280689400571 -0.117673824722 0)
(-0.00331049234284 -0.116733895331 0)
(-0.00378334346074 -0.115650287319 0)
(-0.00422594003281 -0.114432113025 0)
(-0.00463883601948 -0.113088322057 0)
(-0.00502268865679 -0.11162767668 0)
(-0.00537820108908 -0.110058728746 0)
(-0.0057061643432 -0.108389799726 0)
(-0.00600739795087 -0.106628962909 0)
(-0.00628279218014 -0.104784028774 0)
(-0.00653324756957 -0.102862532889 0)
(-0.00675971771963 -0.100871726831 0)
(-0.00696314876089 -0.0988185717986 0)
(-0.00714452302287 -0.0967097348838 0)
(-0.00730479934032 -0.0945515879862 0)
(-0.00744495781867 -0.0923502088288 0)
(-0.0075659418746 -0.0901113844177 0)
(-0.00766870426616 -0.0878406159028 0)
(-0.00775415157033 -0.0855431254988 0)
(-0.00782319148128 -0.0832238639783 0)
(-0.00787668032157 -0.0808875197566 0)
(-0.00791547146045 -0.0785385276659 0)
(-0.00794036613717 -0.0761810787788 0)
(-0.00795216257669 -0.0738191290455 0)
(-0.00795161018106 -0.0714564085042 0)
(-0.00793945869479 -0.0690964285637 0)
(-0.0079164154701 -0.0667424894961 0)
(-0.00788319379315 -0.0643976854529 0)
(-0.00784047278307 -0.0620649095697 0)
(-0.00778894391861 -0.059746856331 0)
(-0.00772927298941 -0.0574460241264 0)
(-0.00766214387981 -0.0551647150643 0)
(-0.00758822211195 -0.0529050353278 0)
(-0.00750819515301 -0.0506688930354 0)
(-0.00742273721901 -0.0484579971306 0)
(-0.00733254562441 -0.0462738541502 0)
(-0.00723830680545 -0.0441177665893 0)
(-0.00714072855063 -0.0419908295847 0)
(-0.00704050738575 -0.0398939297109 0)
(-0.00693835675693 -0.0378277424756 0)
(-0.00683497612247 -0.0357927323594 0)
(-0.00673107534155 -0.0337891518562 0)
(-0.00662734584967 -0.0318170433383 0)
(-0.00652448155471 -0.0298762400872 0)
(-0.00642315248443 -0.0279663702979 0)
(-0.00632402247585 -0.0260868603164 0)
(-0.00622772555381 -0.0242369408478 0)
(-0.00613488057261 -0.0224156523135 0)
(-0.00604607042378 -0.0206218530043 0)
(-0.0059618535855 -0.0188542260597 0)
(-0.00588274596658 -0.0171112886233 0)
(-0.005809229121 -0.0153913987012 0)
(-0.0057417347025 -0.0136927621218 0)
(-0.00568065064305 -0.0120134335378 0)
(-0.00562631369392 -0.0103513110679 0)
(-0.00557903138705 -0.0087041178124 0)
(-0.00553912976398 -0.00706936528849 0)
(-0.00550703130815 -0.00544430697449 0)
(-0.00548227668038 -0.00382456137803 0)
(-0.00543881023619 -0.00223219116524 0)
(-0.0048919309436 -0.000654830654844 0)
(0.0279132794049 -0.00303799439953 0)
(0.0309340219254 -0.0102795902856 0)
(0.030812728308 -0.0174684606727 0)
(0.0303692434537 -0.0246706622126 0)
(0.0297724011743 -0.0317313269875 0)
(0.0290417835335 -0.0386239857207 0)
(0.0281902641105 -0.04531756227 0)
(0.02723151978 -0.0517846390633 0)
(0.0261799240272 -0.0580016851875 0)
(0.0250500553516 -0.0639491385811 0)
(0.023856243867 -0.0696113025056 0)
(0.0226122069021 -0.0749761409304 0)
(0.021330765727 -0.0800349911548 0)
(0.0200236599533 -0.0847822233816 0)
(0.0187014340795 -0.0892148757319 0)
(0.0173734056009 -0.0933322865795 0)
(0.0160476792184 -0.0971357429745 0)
(0.0147312166948 -0.100628156499 0)
(0.0134299232782 -0.103813775226 0)
(0.0121487656186 -0.106697934241 0)
(0.0108918819899 -0.109286846109 0)
(0.00966270728543 -0.111587428149 0)
(0.00846407435805 -0.113607163867 0)
(0.00729832175148 -0.115353992882 0)
(0.00616736959821 -0.116836225269 0)
(0.0050728003703 -0.118062474262 0)
(0.0040159054375 -0.119041603509 0)
(0.0029977395311 -0.119782683777 0)
(0.00201914218663 -0.120294956565 0)
(0.00108077237863 -0.120587801177 0)
(0.000183112653158 -0.120670700597 0)
(-0.000673509078045 -0.120553232231 0)
(-0.00148891772219 -0.120244984416 0)
(-0.00226308328403 -0.119755579261 0)
(-0.00299612402195 -0.119094617724 0)
(-0.00368828939418 -0.118271650892 0)
(-0.00433996881739 -0.117296148231 0)
(-0.00495167177011 -0.116177466553 0)
(-0.00552403511563 -0.114924820487 0)
(-0.0060578004842 -0.113547254454 0)
(-0.0065538197673 -0.112053616897 0)
(-0.00701303008956 -0.110452536751 0)
(-0.00743645791439 -0.108752402685 0)
(-0.00782519242041 -0.106961345093 0)
(-0.0081803889466 -0.105087221129 0)
(-0.00850324173902 -0.103137602719 0)
(-0.00879498753304 -0.101119767594 0)
(-0.00905687864876 -0.0990406932965 0)
(-0.0092901874544 -0.0969070539965 0)
(-0.00949618069865 -0.0947252200609 0)
(-0.00967612551577 -0.0925012599996 0)
(-0.00983126579744 -0.0902409447629 0)
(-0.00996283028178 -0.0879497538575 0)
(-0.0100720116092 -0.0856328832413 0)
(-0.0101599768723 -0.0832952542861 0)
(-0.0102278497999 -0.080941523838 0)
(-0.0102767238838 -0.0785760945479 0)
(-0.0103076478052 -0.0762031255456 0)
(-0.0103216409121 -0.0738265425455 0)
(-0.0103196816369 -0.0714500476083 0)
(-0.0103027247188 -0.0690771276507 0)
(-0.0102716919717 -0.0667110620738 0)
(-0.0102274903265 -0.0643549286443 0)
(-0.0101710040557 -0.0620116082346 0)
(-0.0101031125398 -0.0596837876579 0)
(-0.010024682953 -0.0573739613902 0)
(-0.0099365866914 -0.0550844315012 0)
(-0.00983969166191 -0.0528173067957 0)
(-0.00973487653955 -0.0505745005594 0)
(-0.00962302207548 -0.0483577280173 0)
(-0.00950502270727 -0.0461685029036 0)
(-0.00938177668614 -0.0440081343373 0)
(-0.00925419495025 -0.0418777233702 0)
(-0.00912319020388 -0.0397781603795 0)
(-0.00898968328007 -0.0377101225937 0)
(-0.00885459156396 -0.035674072897 0)
(-0.00871883326739 -0.033670259114 0)
(-0.00858331568962 -0.0316987148417 0)
(-0.00844893788444 -0.0297592609318 0)
(-0.00831657925624 -0.0278515086455 0)
(-0.00818710105797 -0.0259748635026 0)
(-0.00806133571896 -0.0241285307678 0)
(-0.0079400875024 -0.0223115215115 0)
(-0.0078241228537 -0.0205226601054 0)
(-0.00771417046667 -0.018760591959 0)
(-0.00761091294621 -0.017023792171 0)
(-0.00751498682719 -0.0153105736247 0)
(-0.00742697680391 -0.0136190949511 0)
(-0.00734741867323 -0.0119473665225 0)
(-0.00727680287563 -0.0102932553627 0)
(-0.00721559448095 -0.00865449314118 0)
(-0.00716426803055 -0.00702868571706 0)
(-0.00712328190686 -0.00541335722413 0)
(-0.00709136482372 -0.00380449310807 0)
(-0.00703302145781 -0.00222536534417 0)
(-0.006311005107 -0.000654956563936 0)
(0.0345584964984 -0.00311343471767 0)
(0.0382960666844 -0.0105327663943 0)
(0.0381385585041 -0.0178936821108 0)
(0.0375781317806 -0.0252626098281 0)
(0.0368247087749 -0.0324789849141 0)
(0.035903496528 -0.0395142429792 0)
(0.0348313638471 -0.0463355691169 0)
(0.0336261303226 -0.0529144442881 0)
(0.0323064030777 -0.0592268492969 0)
(0.0308909301516 -0.0652532866586 0)
(0.0293980156456 -0.0709785895044 0)
(0.0278450509229 -0.0763916166953 0)
(0.0262481673787 -0.0814848614759 0)
(0.0246220128956 -0.0862540124372 0)
(0.022979635056 -0.0906975005023 0)
(0.0213324600058 -0.0948160583898 0)
(0.0196903409859 -0.0986123121272 0)
(0.0180616633628 -0.102090416688 0)
(0.0164534802968 -0.105255742298 0)
(0.0148716706305 -0.108114612582 0)
(0.0133210975924 -0.11067409268 0)
(0.0118057668676 -0.112941822474 0)
(0.0103289676407 -0.114925889184 0)
(0.00889340160881 -0.116634732244 0)
(0.0075012874519 -0.1180770739 0)
(0.00615445076111 -0.119261868661 0)
(0.00485438926567 -0.120198266037 0)
(0.00360232676219 -0.120895581266 0)
(0.00239924643227 -0.121363270423 0)
(0.00124591876193 -0.121610906613 0)
(0.000142915387389 -0.121648151995 0)
(-0.000909384374788 -0.121484762302 0)
(-0.00191077529831 -0.121130480243 0)
(-0.00286123476381 -0.120595093991 0)
(-0.00376091472725 -0.119888359909 0)
(-0.00461013563254 -0.119019980505 0)
(-0.00540938472334 -0.117999570723 0)
(-0.0061593053536 -0.11683662583 0)
(-0.00686069248863 -0.1155404905 0)
(-0.00751447868343 -0.114120329539 0)
(-0.00812172659978 -0.112585100882 0)
(-0.00868361213856 -0.110943531115 0)
(-0.00920141476387 -0.10920409393 0)
(-0.00967649885135 -0.107374991645 0)
(-0.0101103029307 -0.105464139963 0)
(-0.010504320432 -0.103479155991 0)
(-0.0108600889723 -0.101427349528 0)
(-0.0111791716517 -0.0993157175339 0)
(-0.0114631474247 -0.0971509416673 0)
(-0.0117135939631 -0.0949393887113 0)
(-0.0119320800232 -0.0926871136584 0)
(-0.0121201507929 -0.0903998652245 0)
(-0.0122793230466 -0.0880830934239 0)
(-0.0124110737141 -0.0857419589206 0)
(-0.0125168384095 -0.0833813436806 0)
(-0.0125980037256 -0.081005862603 0)
(-0.0126559094092 -0.0786198755674 0)
(-0.0126918444683 -0.0762274995772 0)
(-0.0127070528037 -0.0738326204191 0)
(-0.0127027327396 -0.0714389035887 0)
(-0.0126800454169 -0.0690498039524 0)
(-0.0126401168384 -0.0666685740316 0)
(-0.0125840478788 -0.064298270504 0)
(-0.0125129175976 -0.0619417590045 0)
(-0.0124277934876 -0.0596017169787 0)
(-0.0123297346774 -0.0572806348741 0)
(-0.0122198010713 -0.0549808155828 0)
(-0.0120990552591 -0.0527043726017 0)
(-0.0119685695111 -0.0504532269363 0)
(-0.0118294255986 -0.0482291033202 0)
(-0.0116827190819 -0.0460335258246 0)
(-0.0115295567689 -0.0438678134654 0)
(-0.0113710582494 -0.0417330758582 0)
(-0.0112083511744 -0.0396302094852 0)
(-0.0110425703967 -0.037559894552 0)
(-0.0108748515935 -0.0355225929231 0)
(-0.0107063286155 -0.0335185470151 0)
(-0.0105381261071 -0.0315477800398 0)
(-0.0103713557231 -0.0296100973839 0)
(-0.0102071083994 -0.0277050894318 0)
(-0.0100464500371 -0.0258321355462 0)
(-0.00989041396447 -0.0239904094256 0)
(-0.00973999657281 -0.0221788854915 0)
(-0.00959615042261 -0.020396346442 0)
(-0.00945978028242 -0.018641391553 0)
(-0.00933173741862 -0.0169124457802 0)
(-0.00921281684978 -0.01520776919 0)
(-0.00910375421809 -0.0135254668404 0)
(-0.00900522676956 -0.0118634991201 0)
(-0.00891785708064 -0.0102196937769 0)
(-0.00884222402569 -0.00859176478484 0)
(-0.00877887406147 -0.0069773356044 0)
(-0.00872821377251 -0.00537398760835 0)
(-0.00868825174836 -0.00377769788307 0)
(-0.00861481282514 -0.00221151758154 0)
(-0.00772536341722 -0.000651619317805 0)
(0.0413854991736 -0.00320688184383 0)
(0.0458557861778 -0.0108470531818 0)
(0.0456556256386 -0.0184221267681 1.21846493158e-27)
(0.0449674010424 -0.0259979340694 0)
(0.0440436000762 -0.0334067643413 0)
(0.0429157261381 -0.0406174234532 0)
(0.0416053591377 -0.0475949878884 0)
(0.0401351829732 -0.0543096638874 0)
(0.0385287083114 -0.0607369559069 0)
(0.0368094336404 -0.0668576028694 0)
(0.0350001044673 -0.0726572645983 0)
(0.0331221331503 -0.0781260777617 0)
(0.0311951878831 -0.0832581231278 0)
(0.0292369444177 -0.0880508547034 0)
(0.0272629797119 -0.0925045323318 0)
(0.025286783478 -0.0966216887209 0)
(0.0233198576001 -0.100406651691 0)
(0.0213718779288 -0.103865132904 0)
(0.0194508917467 -0.107003886956 0)
(0.0175635324946 -0.109830438872 0)
(0.0157152331928 -0.112352874378 0)
(0.013910429039 -0.114579684852 0)
(0.0121527384801 -0.116519657795 0)
(0.0104451206201 -0.118181803348 0)
(0.00879000408298 -0.119575307703 0)
(0.00718939040004 -0.120709505061 0)
(0.00564493076835 -0.121593860878 0)
(0.00415798242247 -0.122237960482 0)
(0.00272964520096 -0.122651498677 0)
(0.00136078556565 -0.122844266026 0)
(5.20542986466e-05 -0.122826131659 0)
(-0.00119612475745 -0.122607057187 0)
(-0.00238352312528 -0.122196968935 0)
(-0.00351012573476 -0.121605852356 0)
(-0.00457612495 -0.120843651592 0)
(-0.0055819159589 -0.119920253033 0)
(-0.00652809253051 -0.118845449069 0)
(-0.00741543845737 -0.117628904239 0)
(-0.00824491871281 -0.116280122388 0)
(-0.00901766632921 -0.114808415643 0)
(-0.00973496940854 -0.113222875802 0)
(-0.0103982543855 -0.111532348613 0)
(-0.0110090701505 -0.109745411232 0)
(-0.0115690691432 -0.107870353124 0)
(-0.0120799900895 -0.105915160509 0)
(-0.0125436384362 -0.103887504408 0)
(-0.0129618691485 -0.101794732233 0)
(-0.0133365678656 -0.0996438628686 0)
(-0.0136696350357 -0.0974415850671 0)
(-0.013962969002 -0.0951942590023 0)
(-0.0142184526064 -0.0929079207091 0)
(-0.0144379392825 -0.0905882891606 0)
(-0.0146232431221 -0.0882407756137 0)
(-0.0147761288946 -0.0858704948697 0)
(-0.0148983063653 -0.083482277971 0)
(-0.0149914248767 -0.0810806858994 0)
(-0.0150570723212 -0.0786700237282 0)
(-0.0150967744277 -0.0762543547438 0)
(-0.0151119982177 -0.0738375139829 0)
(-0.0151041554993 -0.0714231207484 0)
(-0.0150746099546 -0.0690145896413 0)
(-0.0150246836802 -0.0666151397984 0)
(-0.0149556664647 -0.0642278020482 0)
(-0.0148688237341 -0.0618554238824 0)
(-0.0147654062485 -0.0595006721878 0)
(-0.0146466576628 -0.0571660338534 0)
(-0.0145138229211 -0.0548538144136 0)
(-0.0143681538848 -0.0525661350403 0)
(-0.0142109151132 -0.0503049282041 0)
(-0.0140433865533 -0.0480719324203 0)
(-0.0138668660341 -0.0458686864629 0)
(-0.0136826686959 -0.0436965234803 0)
(-0.0134921261973 -0.0415565653698 0)
(-0.0132965831749 -0.0394497177714 0)
(-0.0130973936881 -0.0373766659415 0)
(-0.0128959154172 -0.0353378717618 0)
(-0.0126935041584 -0.0333335720251 0)
(-0.0124915066254 -0.0313637781315 0)
(-0.0122912538614 -0.029428277225 0)
(-0.0120940534758 -0.0275266348119 0)
(-0.0119011827396 -0.0256581988041 0)
(-0.0117138809481 -0.0238221049553 0)
(-0.0115333428187 -0.0220172835672 0)
(-0.0113607115498 -0.0202424673874 0)
(-0.0111970730728 -0.0184962005301 0)
(-0.0110434504095 -0.0167768483422 0)
(-0.0109007995346 -0.0150826080815 0)
(-0.0107700060758 -0.013411520606 0)
(-0.010651884225 -0.0117614832486 0)
(-0.0105471775565 -0.0101302651382 0)
(-0.0104565619284 -0.00851553014901 0)
(-0.0103806401588 -0.00691485710303 0)
(-0.0103197861461 -0.00532577107636 0)
(-0.0102714437089 -0.00374413297158 0)
(-0.0101831904424 -0.00219252960887 0)
(-0.00912982810205 -0.000646275357283 0)
(0.0484354055021 -0.00332044557872 0)
(0.0536583765214 -0.0112290831589 0)
(0.0534072075848 -0.0190643035975 -1.21781611937e-27)
(0.0525771069763 -0.0268906729136 0)
(0.0514651183987 -0.0345315779447 0)
(0.0501099851052 -0.0419525436286 0)
(0.0485389558693 -0.0491161230708 0)
(0.0467805245821 -0.0559911028625 0)
(0.0448639711371 -0.0625526059511 0)
(0.0428182808238 -0.0687818976007 0)
(0.0406712189557 -0.0746658969568 0)
(0.0384486311454 -0.0801965401923 0)
(0.0361739749173 -0.0853700571487 0)
(0.0338680655261 -0.090186227637 0)
(0.0315490041899 -0.0946476685995 0)
(0.0292322505474 -0.0987591878103 0)
(0.0269307991194 -0.102527225141 0)
(0.0246554230897 -0.105959390153 0)
(0.0224149531461 -0.109064095475 0)
(0.0202165662949 -0.111850278986 0)
(0.0180660649832 -0.114327204067 0)
(0.0159681336084 -0.116504325176 0)
(0.0139265633643 -0.118391205624 0)
(0.0119444415098 -0.119997474674 0)
(0.010024303245 -0.121332812145 0)
(0.00816824820114 -0.122406949978 0)
(0.00637802426802 -0.123229681981 0)
(0.00465508421447 -0.123810874754 0)
(0.0030006199021 -0.12416047515 0)
(0.00141558016431 -0.124288505547 0)
(-9.93163948438e-05 -0.124205078238 0)
(-0.00154359800625 -0.123920347881 0)
(-0.00291701895592 -0.123444489555 0)
(-0.00421957340521 -0.122787704145 0)
(-0.00545149792508 -0.121960158434 0)
(-0.00661326726317 -0.12097195634 0)
(-0.00770558978769 -0.119833101414 0)
(-0.00872939904953 -0.11855346013 0)
(-0.00968584259043 -0.117142726401 0)
(-0.0105762673421 -0.115610388162 0)
(-0.0114022029936 -0.113965696754 0)
(-0.0121653428163 -0.11221763955 0)
(-0.0128675234352 -0.110374916251 0)
(-0.0135107030434 -0.10844591901 0)
(-0.0140969395415 -0.106438716539 0)
(-0.0146283680323 -0.104361042185 0)
(-0.0151071790992 -0.102220285939 0)
(-0.0155355972212 -0.100023490246 0)
(-0.0159158606965 -0.09777734947 0)
(-0.0162502023764 -0.0954882127872 0)
(-0.0165408325521 -0.093162090282 0)
(-0.0167899232764 -0.09080466192 0)
(-0.0169995954249 -0.0884212890524 0)
(-0.0171719077407 -0.0860170280165 0)
(-0.0173088490849 -0.0835966453525 0)
(-0.0174123330438 -0.0811646340857 0)
(-0.017484195947 -0.0787252304835 0)
(-0.0175261972812 -0.0762824306777 0)
(-0.0175400233245 -0.0738400065349 0)
(-0.0175272927865 -0.0714015202109 0)
(-0.0174895650272 -0.0689703368615 0)
(-0.0174283494666 -0.0665496351136 0)
(-0.017345116563 -0.0641424149753 0)
(-0.017241308896 -0.0617515030525 0)
(-0.0171183526406 -0.0593795550203 0)
(-0.0169776680258 -0.0570290555096 0)
(-0.0168206791041 -0.0547023156199 0)
(-0.016648821613 -0.0524014684626 0)
(-0.0164635493905 -0.0501284631294 0)
(-0.0162663383929 -0.0478850576231 0)
(-0.0160586889548 -0.0456728112091 0)
(-0.0158421256185 -0.0434930767323 0)
(-0.0156181953172 -0.0413469933048 0)
(-0.0153884634665 -0.0392354798094 0)
(-0.0151545088164 -0.0371592294958 0)
(-0.0149179167649 -0.0351187059649 0)
(-0.0146802719614 -0.0331141406669 0)
(-0.0144431499683 -0.0311455320602 0)
(-0.0142081087224 -0.0292126464274 0)
(-0.0139766795861 -0.0273150203804 0)
(-0.0137503586113 -0.0254519649678 0)
(-0.0135305978156 -0.0236225713344 0)
(-0.0133187969827 -0.0218257178045 0)
(-0.0131162958109 -0.0200600782901 0)
(-0.0129243668386 -0.0183241318907 0)
(-0.01274420903 -0.0166161736048 0)
(-0.0125769424078 -0.014934326105 0)
(-0.012423603687 -0.0132765526686 0)
(-0.0122851431864 -0.0116406716631 0)
(-0.0121624226868 -0.0100243730673 0)
(-0.0120562131162 -0.00842523993804 0)