/*--------------------------------*- C++ -*----------------------------------*\
| =========                 |                                                 |
| \\      /  F ield         | OpenFOAM: The Open Source CFD Toolbox           |
|  \\    /   O peration     | Version:  v1906                                 |
|   \\  /    A nd           | Web:      www.OpenFOAM.com                      |
|    \\/     M anipulation  |                                                 |
\*---------------------------------------------------------------------------*/
FoamFile
{
    version     2.0;
    format      ascii;
    class       volScalarField;
    location    "777";
    object      pa;
}
// * * * * * * * * * * * * * * * * * * * * * * * * * * * * * * * * * * * * * //

dimensions      [0 2 -2 0 0 0 0];


internalField   nonuniform List<scalar> 
9216
(
976.485839885
976.121297194
975.380608069
974.26057907
972.764876309
970.897769886
968.664631906
966.071829513
963.126679382
959.837365019
956.212892531
952.263000723
947.998118017
943.429268288
938.56803378
933.426461933
928.017039521
922.352605171
916.446338995
910.311684172
903.962354813
897.412268104
890.6755712
883.766583381
876.699840895
869.490046627
862.152130113
854.701200734
847.152618925
839.521947645
831.8250302
824.077934014
816.297028125
808.498912842
800.700492446
792.918883006
785.171473065
777.475803747
769.849612918
762.310683323
754.876868046
747.565905743
740.395428476
733.382746714
726.544842975
719.898130909
713.45843722
707.240737537
701.259124364
695.526518743
690.05461737
684.853581025
679.931959715
675.296377019
670.951456299
666.899554345
663.140739078
659.672640108
656.490511469
653.587220139
650.953381394
648.577488406
646.446159586
644.544483298
642.856464777
641.365555544
640.055031862
638.908310974
637.909104153
637.041658327
636.290938355
635.642853982
635.08437435
634.603642021
634.190001231
633.834018029
633.527437653
633.263100501
633.034829478
632.837303006
632.665951518
632.51684478
632.386599382
632.272268379
632.170867697
632.083188213
632.011152941
631.954197898
631.911032032
631.879574614
631.857640683
631.842832887
631.833075667
631.827228201
631.824310172
631.823292779
976.849961351
976.484268989
975.742322031
974.619238663
973.11923501
971.246731405
969.00718368
966.407030659
963.453652602
960.155304368
956.521058025
952.560726813
948.284804839
943.704388772
938.831121012
933.677114998
928.254907353
922.577391751
916.657784434
910.509570163
904.14648384
897.582470176
890.831682131
883.908453811
876.827314418
869.602971936
862.250339578
854.784526337
847.22087168
839.574937995
831.862548276
824.099774128
816.302970968
808.488755874
800.674032549
792.875951405
785.111918723
777.399532564
769.756570484
762.200897019
754.75042745
747.423006081
740.236347311
733.207887798
726.354709103
719.693368702
713.23980801
707.009164812
701.015665202
695.272414017
689.791262955
684.58257398
679.655060493
675.015535803
670.668753323
666.617193361
662.860969042
659.397727943
656.222671906
653.328581485
650.705917569
648.342945284
646.225958597
644.339615431
642.667469761
641.192585007
639.897975246
638.766853648
637.78274036
636.929673806
636.192444651
635.556824231
635.009700371
634.539169778
634.134572895
633.786510146
633.486805253
633.228405669
633.00524714
632.812116806
632.64454399
632.498700761
632.371315855
632.259612398
632.161185482
632.075306365
632.00433101
631.949105448
631.906907936
631.876062265
631.854944791
631.840750985
631.831278371
631.825812141
631.823216733
631.822173699
977.592156663
977.223300006
976.477124119
975.347698511
973.839274224
971.956333782
969.704427125
967.090102514
964.120856739
960.805070933
957.151945132
953.171425784
948.874136065
944.271302052
939.374685628
934.196515614
928.749429144
923.046413028
917.10075825
910.926015371
904.535965029
897.944589137
891.166058076
884.214717179
877.105089095
869.851872981
862.469958747
854.974434897
847.380610175
839.704025007
831.960475361
824.166021626
816.337008228
808.490064104
800.64211096
792.810347172
785.01223778
777.265474987
769.587943623
761.997653374
754.512676705
747.151051952
739.930695342
732.869278977
725.984122834
719.292054468
712.809287025
706.551264483
700.53252476
694.766524386
689.26547444
684.040130237
679.099587367
674.451036999
670.099545401
666.047835061
662.296141447
658.842132729
655.680922856
652.805114884
650.204882495
647.868035523
645.780204645
643.925105365
642.285274358
640.842954883
639.580650869
638.481221401
637.527793845
636.703966064
635.994144044
635.383818826
634.859709546
634.40982645
634.023495259
633.691386225
633.405493213
633.158998869
632.946081179
632.761746177
632.601717714
632.462352249
632.340541819
632.233648272
632.139297952
632.056950165
631.990451487
631.938819328
631.898529825
631.869319742
631.849824451
631.836476499
631.827859328
631.822986197
631.820441279
631.819184435
978.7199299
978.347407473
977.594721644
976.455532318
974.934176194
973.035239944
970.764412462
968.128404605
965.134892426
961.792449442
958.110475196
954.099119917
949.769208675
945.132165155
940.199938499
934.984932889
929.499943379
923.758097036
917.772802833
911.557708532
905.126667789
898.493714729
891.673048949
884.679027149
877.526164238
870.229139126
862.802808243
855.262221147
847.622641694
839.899568287
832.108757584
824.266243116
816.388354499
808.491728682
800.593317441
792.710382104
784.860481268
777.061441214
769.33131638
761.688329465
754.150800774
746.737056854
739.465330819
732.353645023
725.419690795
718.680695411
712.153291218
705.853373875
699.795961368
693.995034811
688.463367478
683.212318968
678.251602097
673.589008906
669.230126686
665.178063564
661.433255269
657.993385173
654.853437175
652.005761248
649.440157867
647.143794413
645.101325211
643.29482489
641.705008753
640.31276828
639.09996977
638.049127783
637.142779712
636.363775299
635.69587538
635.124140867
634.635056205
634.21651451
633.857807973
633.549704161
633.284490869
633.055766824
632.858115596
632.686878211
632.538063183
632.408303327
632.294726157
632.194878211
632.106381416
632.030050222
631.96956612
631.922245073
631.886085027
631.859825275
631.841725916
631.829712854
631.822151564
631.817719865
631.815269582
631.814066747
980.236267736
979.859036832
979.097545428
977.945121506
976.406239725
974.485639503
972.189201259
969.523857943
966.497531414
963.119058527
959.398113025
955.345124277
950.971194888
946.288018922
941.307802683
936.043189627
930.507191176
924.713124672
918.674559899
912.40527481
905.919221337
899.230501089
892.353351154
885.302138938
878.091365728
870.73567725
863.249880709
855.648966248
847.948132353
840.16281288
832.30870584
824.401799605
816.458397713
808.495138701
800.529009229
792.577347111
784.65783339
776.788469188
768.987537377
761.27354544
753.665151359
746.181070562
738.839968502
731.660339119
724.660376297
717.857839564
711.269921042
704.913111772
698.803068834
692.954472379
687.380863155
682.094440092
677.105801912
672.423622427
668.054270843
664.001431053
660.265815742
656.845087972
653.734042688
650.924710844
648.406555594
646.16601419
644.186637585
642.447767465
640.926925835
639.602929872
638.457235167
637.472434128
636.630235636
635.91222863
635.30116177
634.78152832
634.339571426
633.963067509
633.64122085
633.36487767
633.126801619
632.921303033
632.743594604
632.589456731
632.455244039
632.337977322
632.235105953
632.144425868
632.063662745
631.995448106
631.94240906
631.900840554
631.86878365
631.845806144
631.830358181
631.820117792
631.813475257
631.809561613
631.80735646
631.806259958
982.145803178
981.762666924
980.990005547
979.820764966
978.259610873
976.311488018
973.982527785
971.279951582
968.21199992
964.787850502
961.017532006
956.911834706
952.482220051
947.740731152
942.699906198
937.372696662
931.772392141
925.912553442
919.806955344
913.469540083
906.914382233
900.155665169
893.207668819
886.084767945
878.801439895
871.372280437
863.812026348
856.135583238
848.358057408
840.4947902
832.561394416
824.573788868
816.548231884
808.501350906
800.450164768
792.412096295
784.404972303
776.447007546
768.556770328
760.753127189
753.055166217
745.482098912
738.05314356
730.78739386
723.703679573
716.820425758
710.155518073
703.726177796
697.548846096
691.639068284
686.011358404
680.679014096
675.653843654
670.945770458
666.562311903
662.507994408
658.783879693
655.387482432
652.313287121
649.552907871
647.095774615
644.927652536
643.031680927
641.382403217
639.951464421
638.714441291
637.6536029
636.753103488
635.993280857
635.353412461
634.814668187
634.360914821
633.978317246
633.654614043
633.37875892
633.141492843
632.936347698
632.758918349
632.605374114
632.471974069
632.355380157
632.253173415
632.163227327
632.083616391
632.012877714
631.954616723
631.908954432
631.873225865
631.846500819
631.828223319
631.81535098
631.806972809
631.801688001
631.79811642
631.796158689
631.7951719
984.45433998
984.064004599
983.277696601
982.087899221
980.499520893
978.517767868
976.149088054
973.401065206
970.282339107
966.802513965
962.972062119
958.80222458
954.304910568
949.492598313
944.378239198
938.975167462
933.297017449
927.357650414
921.171092498
914.751485267
908.11304955
901.270062857
894.236849909
887.027785322
879.657306965
872.139938339
864.49031824
856.723236161
848.853672067
840.896839298
832.868230361
824.783661408
816.659316902
808.511791287
800.358123533
792.215822062
784.102875973
776.03774846
768.039348695
760.126978915
752.320254973
744.63900033
737.10311636
729.732434642
722.546560396
715.564718264
708.805612857
702.287313008
696.027164087
690.041717133
684.346651993
678.956644006
673.885105331
669.143718729
664.741703695
660.68485247
656.97465218
653.608053563
650.57902447
647.878377916
645.496454311
643.418352822
641.63046457
640.098019901
638.780899724
637.649199125
636.690080969
635.8933456
635.236151124
634.693058638
634.242792574
633.868847977
633.5578995
633.297932548
633.077202922
632.885631766
632.718042558
632.572591473
632.446904878
632.337517304
632.241051237
632.156044886
632.080901077
632.013927382
631.954851885
631.907063403
631.869594264
631.841092982
631.820566769
631.80630779
631.796207522
631.789706533
631.785976606
631.783194023
631.781663503
631.780909897
987.16895431
986.770037058
985.967466762
984.753170234
983.132354918
981.110549908
978.694593014
975.892513059
972.71343938
969.167498281
965.265704569
961.019849763
956.442389473
951.546332294
946.345132614
940.852589692
935.082755455
929.049853306
922.768210066
916.252202715
909.516221019
902.574646275
895.441845619
888.13218048
880.660027228
873.039807734
865.286027708
857.41332098
849.43649846
841.370600734
833.23095473
825.033229785
816.793495938
808.528280504
800.2546184
791.99009316
783.752863437
775.561669553
767.435814782
759.395116479
751.459823748
743.650500665
735.987877747
728.492679016
721.185437175
714.086314504
707.214949486
700.59034923
694.230837743
688.154059417
682.377005386
676.916001092
671.786538704
667.002784086
662.576556531
658.515714588
654.8222426
651.491453463
648.516444208
645.885812976
643.593463342
641.621928067
639.974926364
638.596820725
637.422161344
636.410271071
635.565658666
634.894476154
634.364121416
633.93880323
633.59373839
633.31324542
633.086118241
632.901420164
632.745560092
632.605287283
632.477650676
632.366655185
632.272091528
632.189842204
632.115248966
632.049030405
631.99022953
631.937164152
631.890995923
631.8541424
631.825789128
631.804727306
631.790017278
631.779649706
631.7731433
631.768760287
631.766320165
631.765011824
631.764043247
631.763631814
990.298073967
989.889094345
989.067475988
987.8244889
986.16570176
984.097036118
981.62580257
978.760568776
975.511055579
971.888019131
967.903127719
963.568835299
958.898254293
953.905030254
948.60322088
943.007182145
937.131464281
930.990720557
924.599631501
917.972846854
911.124946679
904.070422042
896.823674419
889.399031864
881.810779106
874.073198428
866.200618431
858.207468539
850.108338079
841.918039423
833.651676617
825.324714618
816.95305369
808.553104214
800.141856954
791.736945065
783.356691165
775.020132308
766.747015323
758.557755176
750.473350482
742.515253083
734.7051933
727.064969197
719.616216566
712.380184994
705.377553439
698.62831848
692.151787491
685.966682664
680.091340613
674.54393734
669.342568038
664.504902814
660.046916634
655.980164512
652.307513611
649.019538949
646.108787903
643.556363549
641.367544284
639.508562149
638.052101905
636.887979121
635.893625376
635.002046728
634.274289702
633.758935416
633.388788184
633.105623338
632.881760845
632.706258323
632.573740485
632.476633379
632.39696313
632.311557462
632.221074731
632.144731978
632.084832872
632.033676015
631.981281378
631.934677784
631.893506211
631.854795184
631.821984665
631.796329711
631.777467675
631.76413804
631.755273166
631.74951315
631.74614894
631.744565465
631.743791895
631.743990618
631.743729156
631.743735505
993.851569769
993.43093102
992.587274883
991.3111033
989.608418676
987.485614634
984.950569861
982.01249797
978.681827541
974.970066854
970.889663359
966.453859859
961.67655024
956.572137281
951.15539524
945.441340164
939.445111276
933.18186703
926.666699451
919.914569859
912.940268119
905.758396049
898.383373859
890.829466739
883.110827475
875.241550428
867.235732846
859.10754078
850.871278753
842.541463593
834.132905498
825.66079158
817.140778907
808.589091255
800.022614427
791.458985443
782.916667295
774.414999769
765.974215943
757.61541341
749.360470382
741.231899637
733.252638919
725.445785743
717.834296743
710.440687732
703.28678347
696.393577828
689.781259687
683.469443674
677.477625031
671.825793174
666.535088316
661.628027875
657.12740656
653.052261524
649.408024536
646.171695742
643.339704219
640.867784739
638.802073321
637.019490463
635.847851997
635.005953403
634.239664246
633.374747393
632.66644768
632.35127766
632.211821247
632.116505896
632.039266866
631.986049239
631.969759328
631.994452564
632.030217103
632.015877548
631.952034487
631.908781148
631.889806537
631.876679232
631.842553474
631.815132725
631.793514831
631.767798535
631.748430323
631.733852341
631.724786833
631.719565775
631.71721167
631.716508791
631.716449407
631.717322153
631.718881238
631.720514638
631.721263259
631.721692158
997.840862772
997.406830094
996.537900241
995.223686535
993.470708476
991.285925009
988.677893148
985.656596125
982.233303511
978.420415356
974.231301169
969.6801361
964.781736925
959.551400342
954.004746096
948.157568185
942.025698045
935.624884403
928.970694667
922.078442402
914.963144114
907.639506509
900.121942738
892.424613424
884.561486203
876.546406755
868.393175256
860.115624675
851.727700551
843.24354445
834.677586759
826.044644944
817.360037594
808.639707326
799.900347262
791.159525313
782.435795922
773.748787133
765.119248827
756.569046379
748.121083845
739.799142976
731.627630388
723.631236928
715.834531259
708.261534314
700.9353474
693.877928295
687.110113289
680.651974982
674.523566451
668.746150416
663.343830457
658.345363586
653.784713797
649.697524784
646.098776564
642.924229378
640.201057402
637.789733396
635.865889121
633.709769104
633.045715681
632.8418842
632.578469455
632.234855831
632.085567142
632.064189963
632.068821391
632.058184659
632.036685161
632.021116729
632.022981666
632.0291401
631.977193241
631.801256483
631.641659045
631.615901908
631.66414133
631.7240453
631.700152999
631.691329386
631.695433111
631.676705412
631.671633884
631.668100119
631.669158497
631.671635084
631.67584384
631.680365651
631.684595651
631.688360159
631.691917715
631.695172376
631.697222938
631.6981143
1002.27905275
1001.82972414
1000.93199097
999.574441497
997.764211738
995.50893531
992.817976809
989.702232611
986.173967039
982.246631822
977.934681474
973.253386672
968.218648082
962.846812393
957.154492805
951.158397137
944.875168277
938.321242991
931.512736045
924.465356299
917.194359973
909.714543247
902.040272393
894.185545257
886.164074458
877.989381247
869.67489056
861.234022128
852.680278294
844.027333807
835.289137699
826.48002533
817.614855468
808.709163998
799.779328941
790.842739613
781.917957472
773.024853487
764.184703616
755.420220309
746.755495789
738.215832729
729.827443044
721.61700864
713.611122365
705.835665114
698.315220938
691.07267181
684.129138601
677.504380942
671.217826388
665.29041225
659.747713503
654.624798807
649.972527348
645.865031897
642.35772544
639.243073087
636.668792875
633.975406849
632.769120647
632.537749402
632.561377317
632.596331749
632.549525105
632.448257871
632.354182078
632.29375779
632.249049407
632.20381375
632.157598996
632.114823071
632.077072683
632.034053083
631.962686436
631.866667667
631.790722514
631.773460779
631.804053213
631.763666305
631.543047162
631.534721181
631.605386518
631.57768468
631.592761306
631.599408825
631.611068609
631.620728936
631.632190199
631.6423213
631.650909065
631.658268027
631.664158683
631.66894968
631.672462737
631.673978287
1007.18107151
1006.71434504
1005.783926
1004.37722621
1002.5021154
1000.16703248
997.382301904
994.159901151
990.51326723
986.457087097
982.007085936
977.179815456
971.99244347
966.462545433
960.607898903
954.446283937
947.995294773
941.272170919
934.293657498
927.075905086
919.634417427
911.984051259
904.139066325
896.113216572
887.919867517
879.57212192
871.082938324
862.465234494
853.731978252
844.89627662
835.971480773
826.971308936
817.910007945
808.802543051
799.664810251
790.513862279
781.368133661
772.24764695
763.174177162
754.171345039
745.264603758
736.48107907
727.849223806
719.39825942
711.157407078
703.154966797
695.41738002
687.968491555
680.82926618
674.018100765
667.551852164
661.448003991
655.728986245
650.431759347
645.6245083
641.465152955
638.143153161
634.709910386
632.95231599
632.828261873
632.817478436
632.81922636
632.850005581
632.860806295
632.828506188
632.759410157
632.672397067
632.58706491
632.509881542
632.440073015
632.376331639
632.316966045
632.25996756
632.196608222
632.112546332
632.010049464
631.914546018
631.849719335
631.807683002
631.739500455
631.68459907
631.698515556
631.648432144
631.437360396
631.50531635
631.525533886
631.55127898
631.566876848
631.587983041
631.604121204
631.616968546
631.627715091
631.636466338
631.643064072
631.648047012
631.650244206
1012.56386688
1012.07739785
1011.10998915
1009.64770135
1007.69928038
1005.27412701
1002.38370706
999.041276665
995.261652264
991.060966465
986.456426095
981.466073764
976.108552489
970.402871299
964.368170684
958.023489739
951.3875412
944.478505153
937.313855799
929.910237049
922.283400816
914.448216143
906.41874787
898.208392003
889.830044123
881.296271473
872.619462399
863.811939953
854.886045502
845.854213672
836.729068977
827.523553568
818.251114253
808.92593465
799.56320539
790.179420947
780.792687011
771.423018807
762.092603779
752.825991703
743.650163727
734.594418935
725.690008637
716.969451278
708.465492408
700.209748905
692.231214785
684.554946754
677.201415068
670.186516986
663.522157258
657.217495033
651.282174166
645.731883147
640.574754833
635.85357622
633.43892232
633.285494226
633.243479953
633.239631633
633.258129976
633.255842315
633.248760551
633.234525429
633.197343108
633.129673065
633.040088159
632.94292758
632.847895852
632.759903549
632.677482926
632.597284501
632.517038837
632.430038759
632.327760582
632.211906359
632.09894867
632.00426015
631.924098874
631.837402724
631.758995316
631.705451263
631.640216989
631.612055052
631.58581054
631.448806817
631.487948937
631.507801879
631.545486028
631.567412094
631.583868412
631.598001317
631.609690471
631.618486375
631.624837239
631.627804824
1018.44662269
1017.93777384
1016.92856433
1015.4035049
1013.37239005
1010.8457732
1007.83647958
1004.35927815
1000.43060546
996.068280514
991.291229676
986.119221838
980.57260958
974.672069627
968.438337097
961.891933159
955.052892773
947.940507046
940.573101261
932.967873032
925.140813725
917.106728509
908.879356391
900.47157241
891.895634935
883.16342867
874.286657232
865.276961625
856.145976778
846.905367326
837.566895614
828.14254427
818.644729812
809.086585744
799.482303427
789.847515457
780.199705404
770.558625515
760.946694715
751.389334365
741.915179922
732.556081632
723.346779979
714.324122041
705.525700274
696.98788517
688.743459483
680.819332986
673.23546609
666.004630695
659.132315664
652.616698019
646.444368957
640.548576877
634.506134401
633.919949786
633.764673578
633.778114399
633.812182325
633.80695318
633.777950395
633.749211308
633.723016077
633.692489845
633.644308783
633.571212207
633.47688657
633.370660137
633.262383771
633.156615344
633.051836348
632.946507753
632.838590524
632.723835173
632.598294968
632.464322604
632.332101246
632.210997318
632.100119919
631.990879523
631.887638425
631.798987751
631.713551992
631.646915225
631.58649533
631.566317622
631.538456606
631.430767718
631.508224616
631.534153066
631.551928051
631.569624015
631.58484836
631.596158842
631.603797739
631.607602703
1024.85102366
1024.31679955
1023.2603683
1021.66445682
1019.54012252
1016.89930564
1013.7564563
1010.12813608
1006.03268267
1001.48987538
996.520625108
991.146686683
985.390382669
979.274323287
972.821109487
966.053014219
958.991648576
951.657632336
944.070299624
936.247477758
928.205377479
919.95862355
911.520433842
902.902924153
894.117480924
885.175118008
876.086733805
866.863223582
857.51547106
848.054299611
838.49047696
828.834817767
819.098427785
809.293051821
799.431501588
789.52814164
779.599421053
769.664439246
759.745522732
749.868769364
740.064489696
730.36743412
720.816636381
711.454635398
702.325798295
693.473523102
684.936501117
676.744614876
668.917671373
661.465573877
654.389213463
647.677697383
641.271309365
634.724020653
633.958793918
634.213516393
634.360467218
634.422668276
634.416450997
634.393851424
634.357406778
634.319204429
634.279381843
634.232286734
634.169457826
634.086137176
633.98345747
633.867004119
633.7452676
633.620789905
633.492405119
633.360247935
633.223204427
633.079256741
632.927282103
632.769896569
632.61356115
632.464110146
632.32233804
632.185941127
632.057494399
631.940965235
631.832828599
631.737151274
631.654825836
631.595693303
631.542125097
631.527450417
631.518501072
631.509926822
631.520279307
631.542858292
631.562910376
631.577073654
631.586134497
631.590664809
1031.80157418
1031.23854157
1030.12872683
1028.45280042
1026.22334892
1023.45399211
1020.16113206
1016.36346136
1012.08154823
1007.33744132
1002.15432504
996.556218924
990.567697924
984.213603759
977.518720944
970.507404692
963.20316627
955.628241645
947.803188185
939.746567628
931.474778388
923.002090234
914.340905873
905.502224356
896.496218341
887.332781605
878.021891008
868.573690647
858.998345692
849.305826308
839.50579096
829.607650553
819.620856646
809.555340861
799.422051729
789.233556532
779.004708541
768.753386004
758.501292466
748.274782579
738.105647233
728.031737714
718.097208372
708.352000882
698.850015241
689.645278411
680.786039343
672.306589577
664.226676315
656.554281835
649.2852508
642.368441431
635.371262533
634.518631435
634.705265511
634.95703891
635.040112572
635.080796307
635.072351464
635.04507287
635.005521517
634.960086531
634.908267211
634.846322516
634.769174771
634.673550804
634.559429214
634.43093197
634.294000778
634.149443644
633.997016193
633.837657027
633.671335638
633.497675567
633.317102569
633.132194388
632.947449916
632.76701527
632.592720023
632.425193426
632.266816138
632.120057718
631.98490958
631.863698549
631.758206215
631.670607229
631.599389994
631.557002956
631.539408248
631.51058975
631.473791529
631.515786468
631.545331742
631.562673077
631.572987121
631.577981211
1039.32598557
1038.73016757
1037.55990541
1035.79348523
1033.44536119
1030.53120156
1027.06977137
1023.08230992
1018.59200446
1013.62351731
1008.20261068
1002.35585377
996.110367737
989.493552533
982.532747755
975.254801185
967.685547635
959.849232124
951.767940912
943.461128545
934.945342452
926.234241053
917.338964945
908.26884519
899.032320636
889.637818819
880.09430297
870.411284889
860.598397853
850.664861525
840.61914778
830.468990316
820.221756538
809.8850332
799.467304279
788.978671806
778.43165633
767.842121475
757.23033518
746.622147965
736.05025035
725.55542375
715.187560847
705.005945977
695.077849819
685.473709075
676.258156351
667.471098437
659.13165645
651.242437995
643.755776437
636.229774559
635.348137622
635.543869951
635.727018849
635.806779791
635.826039328
635.830084882
635.807059081
635.769981109
635.723076908
635.669001384
635.606024321
635.530905028
635.440000421
635.33061152
635.202458047
635.060071616
634.905929913
634.739596746
634.562620614
634.376142203
634.180888125
633.977473205
633.767100758
633.552220756
633.336334038
633.122868188
632.914294147
632.712621291
632.520418999
632.34010823
632.17330593
632.022326678
631.88914339
631.775391463
631.681564167
631.610679541
631.561697925
631.519936666
631.497530388
631.497192277
631.537782155
631.555268965
631.565326305
631.570241472
1047.4556474
1046.82239118
1045.58350456
1043.71450145
1041.23213172
1038.15458441
1034.50351462
1030.30323178
1025.58000544
1020.36148795
1014.67631979
1008.55388541
1002.0241348
995.117371034
987.863920629
980.293639406
972.435251245
964.3155631
955.958644674
947.385101516
938.611601923
929.650825821
920.511967757
911.201817964
901.726252767
892.091719836
882.306140242
872.378764971
862.319176331
852.136151902
841.836957749
831.427305852
820.911914558
810.295356298
799.582924484
788.781447959
777.90018737
766.951933652
755.954348775
744.931540781
733.915895814
722.950206529
712.09000599
701.405617863
690.98266637
680.917333342
671.305326676
662.19230726
653.58907494
645.447910522
637.305835282
636.384260161
636.636517114
636.803165455
636.789918727
636.75030249
636.708840649
636.668177872
636.619727696
636.567160597
636.509345607
636.444608983
636.36951522
636.280528312
636.174395278
636.04872979
635.903582677
635.74365179
635.569519233
635.38042802
635.178613504
634.965517136
634.74230837
634.510074362
634.270292265
634.025197494
633.777696369
633.530838078
633.287405633
633.050081279
632.821761668
632.605268333
632.403163211
632.218169518
632.052760753
631.909009563
631.788099515
631.69108388
631.616354687
631.557823858
631.519739843
631.513459477
631.55070313
631.557316902
631.563332244
631.567496576
1056.22620617
1055.5500102
1054.23293672
1052.24727491
1049.61261049
1046.35025921
1042.48546346
1038.04628463
1033.06263816
1027.56556506
1021.5868435
1015.15887076
1008.31465498
1001.08774239
993.511942455
985.620773263
977.446616791
969.019638627
960.366589243
951.509667849
942.465691726
933.245857178
923.856364716
914.300049019
904.578839665
894.696377494
884.659653557
874.47853869
864.163600148
853.723834609
843.165348797
832.491329503
821.703042056
810.801191042
799.787044818
788.663241727
777.434674997
766.109721059
754.70185671
743.231612268
731.728967278
720.236499371
708.813600119
697.541756683
686.530219399
675.915189259
665.861041199
656.407250891
647.497784544
638.63875964
637.636915328
637.940522367
638.121649318
638.037283147
637.886052723
637.759725718
637.658409385
637.575259925
637.500560915
637.430142225
637.358084495
637.27924365
637.18868479
637.082364784
636.95703233
636.810735811
636.644587216
636.46286516
636.265323138
636.051849905
635.824944409
635.586224839
635.336956801
635.078257483
634.811470514
634.53843939
634.261524042
633.983385054
633.706798798
633.434690969
633.170211124
632.916601638
632.677109129
632.455041131
632.253527791
632.075293158
631.922293976
631.795657103
631.694529242
631.616317483
631.562100549
631.534617527
631.524581951
631.558514595
631.563073484
631.568476935
1065.67827449
1064.95258573
1063.54599936
1061.42714017
1058.61906755
1055.14699732
1051.04071763
1046.33297596
1041.05804081
1035.25074083
1028.94613952
1022.17968931
1014.98755754
1007.40682578
999.47534539
991.231132714
982.711286939
973.950497174
964.979285467
955.822222731
946.496466041
937.011081327
927.367682655
917.56281359
907.59203921
897.454733588
887.157363695
876.712341704
866.133300238
855.430705064
844.609570081
833.669676129
822.607573129
811.41899052
800.100305501
788.649033923
777.064460135
765.348930963
753.509762242
741.561457959
729.528394162
717.448743687
705.380718447
693.412462948
681.678445718
670.3721182
659.825923249
649.985360265
640.282756912
639.126908473
639.442424266
639.635737154
639.498966988
639.242754494
638.998447833
638.804128806
638.653892848
638.535730962
638.436219457
638.345562394
638.25466767
638.156276491
638.04452837
637.915021729
637.76451142
637.591821384
637.400287312
637.191952828
636.966542291
636.726684595
636.47459847
636.211826712
635.939377575
635.657998864
635.368527615
635.072165027
634.770582509
634.465878674
634.160513266
633.85730605
633.559439989
633.270390325
632.993856365
632.733702831
632.493763174
632.277574954
632.088028434
631.927058789
631.795106471
631.691455198
631.615885246
631.566175392
631.534197684
631.528375748
631.560307968
631.573944268
1075.85829397
1075.07531263
1073.56555645
1071.29391322
1068.28750383
1064.57639411
1060.19631546
1055.1860688
1049.58520418
1043.43268911
1036.76677523
1029.62570346
1022.04864645
1014.07639229
1005.75144607
997.117394417
988.217519654
979.092746385
969.779085916
960.304856929
950.688137795
940.935154528
931.040572901
920.99074832
910.770484751
900.372056273
889.802417241
879.080631957
868.227449247
857.256998481
846.173096989
834.970359148
823.638429598
812.166607924
800.54572117
788.767436473
776.824132949
764.710257147
752.424708511
739.973137728
727.370185806
714.643129143
701.838795792
689.036984215
676.383218434
664.115131883
652.998028352
642.288553224
640.865463609
641.117804786
641.30806463
641.126397593
640.780217294
640.419536463
640.110710878
639.869103841
639.68281889
639.534898016
639.40921992
639.293245425
639.176568501
639.051143855
638.910814722
638.751081588
638.568890975
638.363815181
638.140119502
637.899645324
637.643492004
637.375692209
637.098727841
636.813994699
636.521995153
636.222764306
635.916294694
635.602873556
635.283272313
634.958807204
634.631341385
634.303282782
633.977570639
633.657631742
633.347327935
633.050881046
632.772709539