/*--------------------------------*- C++ -*----------------------------------*\
| =========                 |                                                 |
| \\      /  F ield         | OpenFOAM: The Open Source CFD Toolbox           |
|  \\    /   O peration     | Version:  v1906                                 |
|   \\  /    A nd           | Web:      www.OpenFOAM.com                      |
|    \\/     M anipulation  |                                                 |
\*---------------------------------------------------------------------------*/
FoamFile
{
    version     2.0;
    format      ascii;
    class       surfaceScalarField;
    location    "389";
    object      phia;
}
// * * * * * * * * * * * * * * * * * * * * * * * * * * * * * * * * * * * * * //

dimensions      [0 3 -1 0 0 0 0];
oriented        oriented;


internalField   nonuniform List<scalar> 
18240
(
0.000845514634895
-0.00084515916254
0.00173291223163
-0.000886988591868
0.00261817383302
-0.000884902795916
0.00349626173001
-0.000877668545647
0.00436420351878
-0.000867596630869
0.00521957085864
-0.000854940415994
0.00605983807592
-0.000839936608517
0.00688295076138
-0.000822679848848
0.00768664757028
-0.000803381673129
0.00846920947212
-0.000782124962081
0.00922864977457
-0.000759141800118
0.0099635981686
-0.000734509186292
0.0106723520974
-0.000708472819243
0.0113538852978
-0.000681093615364
0.0120067663039
-0.000652618233429
0.0126302844769
-0.00062308015302
0.0132232438214
-0.000592715426199
0.0137851994865
-0.000561521259179
0.0143151380364
-0.000529714240106
0.0148128167796
-0.000497250075878
0.0152773425625
-0.000464321359912
0.0157086052502
-0.000430842006738
0.0161057696794
-0.000396980394801
0.016468792933
-0.000362612875117
0.0167968444301
-0.000327887793624
0.0170898945484
-0.000292652465603
0.0173470801587
-0.000257042328353
0.0175683496406
-0.000220886998647
0.0177527916918
-0.000184318617056
0.0179003197761
-0.000147163255735
0.0180099841675
-0.000109560262992
0.0180816734965
-7.1344575229e-05
0.0181144343825
-3.26747707448e-05
0.0181081717758
6.58494665164e-06
0.0180619959227
4.62453391039e-05
0.0179758942314
8.63995209666e-05
0.0178491318995
0.000126817348315
0.0176818682418
0.000167535247858
0.0174736358163
0.00020827533861
0.0172248724181
0.000249007723879
0.0169355022479
0.00028940414224
0.016606356496
0.000329362968109
0.0162378788365
0.000368506199316
0.0158314130079
0.000406657915697
0.0153880494485
0.000443391021952
0.0149097678539
0.000478453163156
0.014398431514
0.000511367419811
0.0138567841026
0.000541805935705
0.0132875772338
0.00056924606623
0.012694429901
0.000593302224153
0.0120810442979
0.000613435586121
0.0114519414456
0.000629263461357
0.0108116900688
0.000640312047837
0.0101655409098
0.000646322333921
0.00951859156722
0.000647017903042
0.008876368451
0.000642410270831
0.00824390112401
0.000632537890124
0.00762633824686
0.000617758062724
0.00702797404546
0.000598427619353
0.00645297775116
0.000575186105735
0.00590443084356
0.000548594417789
0.00538516549426
0.000519436321128
0.0048968384966
0.00048835371605
0.00444083232532
0.000456151928564
0.0040174112244
0.000423429002622
0.00362665987237
0.000390873544551
0.00326773453401
0.000358921284603
0.00293977979067
0.000328059551277
0.00264124221293
0.000298529134494
0.00237071179831
0.000270624513257
0.00212627481132
0.000244429369935
0.00190626915534
0.000220094131292
0.00170867355091
0.000197591423747
0.00153179063164
0.00017696835656
0.0013736697612
0.000158120551038
0.00123272667014
0.000141025747511
0.00110719487065
0.000125534683332
0.000995688450583
0.000111585493618
0.000896687138672
9.90063630891e-05
0.000809057314542
8.77044043531e-05
0.000731601940007
7.74616770201e-05
0.000663624327498
6.804579632e-05
0.00060480851808
5.88218972699e-05
0.000557154064068
4.77173486069e-05
0.00051572885946
4.14363488339e-05
0.000474254403689
4.15358616298e-05
0.000436245418863
3.80302178584e-05
0.000403005565426
3.33061035961e-05
0.000368743987327
3.43014558074e-05
0.000329792158087
3.90308452794e-05
0.000288712414974
4.11448530697e-05
0.000245547820171
4.32601230831e-05
0.000195414579081
5.02338427195e-05
0.000134940885108
6.05839114007e-05
6.53349474726e-05
6.97237756489e-05
6.53981043902e-05
0.000892729786979
-0.00173750742495
0.00184066493885
-0.00183451320113
0.00278333714573
-0.00182717845238
0.00371743267744
-0.00181135222148
0.00464040416505
-0.00179017667757
0.00554977531728
-0.00176390065571
0.00644301827436
-0.00173279468371
0.0073178505827
-0.00169710351601
0.00817199726228
-0.00165715151946
0.00900349520291
-0.00161321810277
0.00981038409995
-0.00156566324503
0.010591052601
-0.00151477829045
0.0113438699008
-0.00146093343413
0.0120675743986
-0.00140440567798
0.0127608496805
-0.00134554879872
0.0134227539296
-0.00128460047209
0.0140522444921
-0.00122187453825
0.0146486464128
-0.00115754933152
0.0152111309544
-0.00109188173176
0.0157392217315
-0.00102497866182
0.0162322335992
-0.00095703180516
0.0166898147508
-0.000888074230194
0.0171113531485
-0.000818234042671
0.017496552176
-0.000747477819168
0.0178448120104
-0.000675880633532
0.0181558352799
-0.000603358066876
0.0184289909342
-0.000529949592438
0.0186639448903
-0.000455541183001
0.018860013991
-0.000380158712135
0.0190168149802
-0.000303683754509
0.0191336187389
-0.000226154876976
0.019210011681
-0.000147477511422
0.0192452542476
-6.77283260573e-05
0.0192389454344
1.31322990672e-05
0.0191903997761
9.49599952153e-05
0.0190993052062
0.000177710514133
0.0189651251654
0.000261146858846
0.0187877381401
0.000345116361293
0.0185668733549
0.000429271098146
0.0183027193522
0.000513333932742
0.0179954005641
0.000596837122143
0.0176455430178
0.00067937225503
0.0172537990191
0.000760350279017
0.0168213613409
0.000839229707574
0.0163495426292
0.000915299631788
0.0158402347731
0.000987882348237
0.0152955463697
0.00105614102882
0.014718207939
0.00111925956297
0.0141112601946
0.00117628047917
0.0134784029649
0.00122627596543
0.0128237054994
0.0012682267762
0.0121518860849
0.00130120720852
0.0114679909994
0.00132431159458
0.0107775850374
0.0013368645039
0.0100863455623
0.00133837296916
0.00940017282509
0.00132873158655
0.00872470018221
0.00130813259337
0.00806540081409
0.00127720989422
0.00742709228887
0.00123685374687
0.00681413405979
0.00118828788427
0.00622999808019
0.00113283131824
0.00567756159387
0.0010719956559
0.0051587252375
0.0010072676048
0.00467476422206
0.00094021012005
0.00422603298371
0.000872215572027
0.00381238567065
0.000804596271206
0.00343296470639
0.000738382035457
0.00308663158843
0.000674454166111
0.00277177848181
0.000613414088977
0.00248671194813
0.000555745841732
0.00222945592055
0.000501715120653
0.00199808132682
0.000451521463445
0.00179050752264
0.000405196155343
0.00160479344
0.000362735223717
0.00143894227933
0.000324004653033
0.00129115619467
0.000288864767143
0.00115963970044
0.000257085404352
0.00104282013382
0.000228457127712
0.000939151515092
0.000202709152919
0.000847299817861
0.000179605921389
0.00076593139108
0.000158862674984
0.000693802703047
0.000140219589793
0.000629303930444
0.000123350482963
0.000569160088928
0.000107902111379
0.000514985829698
9.56413795317e-05
0.000466784674712
8.97782297017e-05
0.00042668617494
7.81660600209e-05
0.00039269438925
6.73477598921e-05
0.000360317486431
6.67293388797e-05
0.000326220905067
7.31921847425e-05
0.000286913523061
8.05270109644e-05
0.000243637431571
8.66223410493e-05
0.000196114347178
9.78500793165e-05
0.000139263279586
0.000117543955574
6.84752550911e-05
0.000140625732522
0.000133922952108
0.000900961521599
-0.00263808152323
0.00185457699681
-0.00278772118025
0.00280398705945
-0.00277618206523
0.0037448744708
-0.00275183092078
0.00467448482829
-0.00271938404778
0.00559022093371
-0.00267923079904
0.0064895550709
-0.00263173065718
0.00737013164639
-0.00257727841122
0.00822970368843
-0.00251633155605
0.00906623847426
-0.0024493570297
0.00987782547907
-0.002376865911
0.010662788516
-0.00229935278182
0.0114195689522
-0.00221733855933
0.0121468454474
-0.00213130241175
0.0128433945429
-0.0020417330587
0.013508218276
-0.00194905466131
0.0141403842493
-0.00185368745174
0.0147391618265
-0.00175596903415
0.0153038449005
-0.00165622494267
0.0158338978812
-0.0015546868593
0.0163287648936
-0.00145157341205
0.0167880270984
-0.00134700618192
0.0172112027212
-0.00124110008943
0.0175979168322
-0.00113387758521
0.017947696054
-0.0010253672755
0.0182601511083
-0.000915516039782
0.0185347698258
-0.000804293948786
0.0187711116434
-0.000691604406321
0.018968601839
-0.00057739370408
0.019126736695
-0.000461559623819
0.0192448822765
-0.000344065316774
0.0193224879848
-0.000224844737553
0.0193588933699
-0.000103919153746
0.0193535484493
1.86945251007e-05
0.0193058314205
0.000142870653157
0.0192152721887
0.00026846557601
0.0190813833295
0.000395208586715
0.0189038819407
0.000522792219592
0.0186825348337
0.000650770893642
0.018417372423
0.000778650216347
0.0181085479693
0.00090579546076
0.0177565375044
0.00103151759427
0.017362013805
0.00115499129939
0.0169260289931
0.00127533323659
0.0164499060458
0.00139152716233
0.0159354052432
0.00150249032522
0.0153846381204
0.00160700538736
0.0148002214042
0.00170377804044
0.01418521316
0.00179138492468
0.0135432504909
0.00186834163127
0.0128784878521
0.00193309064148
0.0121956925357
0.00198411335292
0.0115001319806
0.0020199833688
0.0107975792476
0.00203954149736
0.0100940840477
0.00204199216188
0.00939586603892
0.00202708597841
0.00870898086057
0.00199515034661
0.0080391821975
0.00194714929154
0.00739160531089
0.00188455935403
0.00677073809705
0.00180928483852
0.00618023065098
0.00172345095571
0.00562296201237
0.00162937008689
0.00510088733018
0.00152942869295
0.00461513709457
0.00142604002118
0.00416596839233
0.00132144568276
0.00375297926557
0.00121764451389
0.00337514662545
0.00111625947873
0.00303107263579
0.00101857496479
0.00271901194395
0.000925511968755
0.0024370672729
0.000837731738282
0.0021831756475
0.000755642280798
0.00195525222265
0.000679485740264
0.0017511626039
0.000609322586187
0.0015688470206
0.000545093756645
0.00140628560733
0.000486605140429
0.0012615995414
0.000433595733241
0.0011329979322
0.000385727743904
0.0010188552026
0.000342645219277
0.000917645738923
0.000303959314082
0.000827994167152
0.000269301142542
0.000748583209734
0.000238312012147
0.000678130780484
0.000210711852012
0.000615177506711
0.000186337932668
0.000557384151216
0.000165732673783
0.000505801486878
0.000147257729362
0.000461272277341
0.000134346574828
0.000417335918418
0.000122142152641
0.00037430880007
0.000110420236621
0.000339340670087
0.000101748124935
0.000310799740628
0.000101794927199
0.000271737511135
0.00011965840804
0.000223379897581
0.000135062054876
0.000172355660487
0.000148970098282
0.000115554996098
0.000174434383421
5.90386188765e-05
0.000197230133983
0.00019301084714
0.000909420525811
-0.00354711123937
0.00187105919757
-0.00374894793745
0.0028285866009
-0.00373329889679
0.00377745534791
-0.00370028870089
0.00471479520765
-0.00365631589659
0.00563791247471
-0.00360194068471
0.00654423325215
-0.0035376477052
0.00743134353827
-0.00346398615348
0.00829698096802
-0.00338157108592
0.00913907468146
-0.00329105451915
0.00995572372649
-0.00319312435511
0.0107452326641
-0.003088473294
0.0115060764996
-0.00297780058273
0.0122369324446
-0.00286177918179
0.0129366323056
-0.00274106127789
0.0136041911602
-0.00261624501108
0.0142387488033
-0.00248788506004
0.0148395967901
-0.00235646060454
0.0154061113654
-0.0022223924385
0.0159377811301
-0.0020860136909
0.0164341348092
-0.00194759437299
0.0168947723803
-0.00180731569018
0.0173192912765
-0.00166530193127
0.017707323532
-0.00152159798569
0.0180584635254
-0.00137620720072
0.0183723127399
-0.00122907089546
0.0186484110826
-0.00108011038197
0.0188862896986
-0.000929207335807
0.0190854072451
-0.00077624860941
0.0192452108011
-0.000621107211397
0.0193650785023
-0.0004636905391
0.0194443882817
-0.000303919116389
0.0194824688315
-0.000141778097359
0.019478676927
2.27006740039e-05
0.0194323576805
0.000189390267773
0.0193429293398
0.000358086773672
0.0192098532029
0.000528463847397
0.0190327232008
0.000700093891789
0.0188112435044
0.000872408980242
0.0185453182227
0.00104472675597
0.0182350332132
0.00121621924087
0.0178807408995
0.00138594219899
0.0174830438025
0.00155280951647
0.0170428724187
0.0017156205723
0.0165614723958
0.00187303403531
0.0160404800877
0.0020235864664
0.0154819218151
0.00216566121552
0.0148882969098
0.00229750002842
0.0142625978883
0.00241717801603
0.0136084025681
0.00252263362933
0.0129299025149
0.00261168827887
0.0122319707773
0.00268214867099
0.0115201365651
0.00273192625871
0.0108005421207
0.00275925175935
0.0100797660149
0.00276289189327
0.00936459950165
0.00274238467537
0.00866171160651
0.00269817287098
0.00797736560313
0.00263163215555
0.00731711344415
0.0025449433302
0.00668568355733
0.00244084133933
0.00608691094789
0.00232233573801
0.00552375389216
0.00219262766259
0.0049981780006
0.00205508769039
0.00451115313836
0.00191313472934
0.00406269166739
0.0017699637733
0.00365203463729
0.00162834977465
0.00327781966909
0.00149051525487
0.00293829819365
0.00135813386062
0.00263145780853
0.00123238625028
0.00235515381049
0.00111407015462
0.00210714800323
0.00100368124264
0.00188518007612
0.000901488837557
0.00168699017549
0.000807548263998
0.00151039019752
0.00072173219509
0.00135328689539
0.00064374798483
0.00121372932473
0.000573195413269
0.00108990243651
0.000509597282004
0.000980152685479
0.000452438548476
0.000882970343413
0.000401184565672
0.000796998367137
0.000355315554138
0.00072100168866
0.000314349374684
0.000653853190483
0.000277899026343
0.000594473359383
0.000245754858539
0.000541330666882
0.00021891065018
0.000492002756724
0.000196622454268
0.000445337393652
0.000181049844365
0.000400168633378
0.00016735117574
0.00035941011861
0.00015122252883
0.000317328613944
0.000143877227534
0.000273340926619
0.000145836014835
0.00024043986152
0.000152625289509
0.000194206197694
0.000181373489787
0.000139117567024
0.000204134789819
9.20909564395e-05
0.000221542552786
4.77751389086e-05
0.000241628813416
0.000240822086153
0.000920361438678
-0.00446707757753
0.0018931748251
-0.00472134804221
0.00286172892538
-0.00470143727731
0.00382134925236
-0.00465949478352
0.00476906443493
-0.00460361840434
0.00570208311652
-0.00453454853898
0.00661775927964
-0.00445291561922
0.00751361458493
-0.0043594356153
0.00838734765151
-0.0042549017101
0.00923685378013
-0.00414016131969
0.0100602247493
-0.00401610020293
0.0108557609071
-0.00388361813906
0.0116219605712
-0.00374361389256
0.0123575243098
-0.00359696107548
0.0130613344919
-0.00344449532923
0.01373245249
-0.00328699205667
0.0143700896243
-0.00312515767515
0.0149735989383
-0.00295961126404
0.015542439949
-0.00279088196175
0.0160761678202
-0.00261939659412
0.0165743953912
-0.00244548483668
0.0170367834248
-0.00226937380801
0.0174630038824
-0.00209120103096
0.0178527346679
-0.00191101523233
0.0182056271865
-0.0017287953766
0.0185213076351
-0.00154445544826
0.0187993504002
-0.00135786706004
0.0190392864119
-0.00116886626063
0.0192405828202
-0.000977278253509
0.0194026585353
-0.000782925680724
0.0195248711072
-0.000585656637688
0.0196065399292
-0.000385351383187
0.0196469419151
-0.000181954581933
0.0196453442607
2.45136232923e-05
0.0196010101268
0.000233928525755
0.0195132410088
0.000446049726387
0.0193813923641
0.000660495267835
0.0192049234378
0.00087673540887
0.0189834196434
0.00109407463987
0.0187166446617
0.00131165376071
0.0184045637311
0.00152844202061
0.0180473916714
0.00174324689198
0.017645611921
0.00195471267781
0.0172000175882
0.00216133025905
0.0167117279548
0.00236143154214
0.0161822296375
0.00255318630275
0.0156134052196
0.00273458201711
0.0150075935535
0.00290340377175
0.014367653105
0.00305720888049
0.0136970558096
0.0031933199384
0.012999985946
0.00330885010569
0.0122814341416
0.00340079462096
0.0115472520845
0.003466209761
0.0108041180917
0.00350249713654
0.0100593647152
0.00350776574484
0.0093206660383
0.00348121130495
0.00859559720097
0.00342337600927
0.00789120377205
0.00333616408533
0.0072135871121
0.00322269163742
0.00656778101043
0.0030867762067
0.0059578281591
0.00293240413991
0.00538684254597
0.00276370746016
0.0048568168913
0.00258519058
0.00436850218588
0.00240150896736
0.00392150231159
0.00221700969673
0.00351452695384
0.00203536450606
0.00314567536539
0.00185939856773
0.00281271502904
0.00169112557923
0.00251324725618
0.00153188282876
0.00224482310279
0.00138252330186
0.00200497076208
0.00124356383629
0.00179121736848
0.00111527311338
0.00160112065059
0.000997678051433
0.0014323312222
0.000890557208658
0.00128264514989
0.000793472102633
0.00115003458356
0.000705847681196
0.00103264403706
0.000627030550111
0.000928802113843
0.000556325100973
0.0008370134243
0.000493016981749
0.00075596502327
0.000436407189673
0.000684526331108
0.000385829408554
0.000621796454581
0.000340669167188
0.000567209992864
0.000300378152883
0.000521501039495
0.000264656593712
0.000476802231956
0.000241358326697
0.000432567403251
0.000225324357277
0.000387202924723
0.000212756084348
0.000334273283653
0.000204193191763
0.000284784901923
0.000193410279544
0.000238706572732
0.000191966621973
0.000200490755828
0.000190897529542
0.000166651380846
0.000215282162972
0.000118563546807
0.000252303199091
7.33757270572e-05
0.000266795605621
3.71505126721e-05
0.000277915157068
0.000278008694563
0.000934091101569
-0.0054007695685
0.0019212122134
-0.00570804868149
0.00290382394859
-0.00568362928765
0.00387711241855
-0.00563236393612
0.00483798714291
-0.00556407586724
0.00578354662911
-0.00547969257167
0.00671105201033
-0.00538000804941
0.00761794833518
-0.0052659216153
0.00850187940337
-0.00513842570811
0.00936070277217
-0.00499858099495
0.0101924953069
-0.0048474930775
0.0109955589147
-0.00468628619172
0.0117684158893
-0.00451608012055
0.0125098052709
-0.00433796450764
0.013218668203
-0.00415297785915
0.0138941354904
-0.0039620844312
0.014535504045
-0.00376615760359
0.0151422172743
-0.00356596202652
0.0157138350558
-0.0033621442718
0.0162500102127
-0.00315522311356
0.01675045614
-0.00294558983149
0.017214923951
-0.00273350816898
0.0176431725078
-0.0025191245156
0.0180349505604
-0.00230247633598
0.0183899727333
-0.00208350963832
0.0187079089356
-0.00186209245853
0.0189883673825
-0.00163803595505
0.0192308912844
-0.00141110988673
0.019434948515
-0.00118106539886
0.0195999352017
-0.000947652031332
0.0197251725381
-0.000710644293926
0.0198099181002
-0.000469857387675
0.0198533718393
-0.000225179750052
0.0198546982641
2.34054616634e-05
0.0198130435953
0.000275790324031
0.01972757003
0.000531720126578
0.0195974844251
0.000790766606527
0.0194220827375
0.00105231275805
0.0192007860336
0.00131553607432
0.0189331886383
0.00157940616559
0.0186190929294
0.00184268207583
0.0182585517589
0.00210392319401
0.0178518930842
0.00236149632715
0.017399750979
0.00261358916105
0.0169030799773
0.00285821009967
0.016363184411
0.00309318257791
0.0157817438675
0.00331611545313
0.0151608734198
0.00352436225981
0.0145032029807
0.00371496245258
0.0138120080239
0.00388459612986
0.013091370491
0.00402956871363
0.0123463616408
0.00414588947925
0.0115831910995
0.00422947381947
0.0108092457134
0.00427654582707
0.0100329220135
0.0042842063606
0.00926319758716
0.00425106094996
0.0085089742616
0.00417773992987
0.00777844910745
0.00406681953132
0.00707842361457
0.00392285314528
0.00641417594821
0.00375115856782
0.00578994453537
0.00355674858298
0.00520916136961
0.00334458141783
0.00467392376991
0.00312049338619
0.00418468075881
0.00289079758769
0.00374039087313
0.00266133308921
0.00333895116494
0.0024368310859
0.00297767039906
0.00222070503175
0.00265364817974
0.00201517202136
0.00236399632575
0.00182156056605
0.00210591881044
0.00164062714289
0.00187668427646
0.00147282545987
0.00167357727821
0.00131840655085
0.00149391440427
0.00117736903447
0.00133513501878
0.00104936888149
0.00119489488542
0.000933748322495
0.00107108385962
0.000829699615821
0.000961802583279
0.000736355887591
0.000865360861865
0.000652811277918
0.000780276671778
0.000578145884509
0.000705267256258
0.0005114601243
0.000639241705975
0.000451897449278
0.000581285634555
0.00039866543851
0.000530400175016
0.000351301618481
0.000485632519081
0.000309460691014
0.000440764898606
0.000286264032385
0.000394972919075
0.000271156023674
0.000352502289012
0.000255265792267
0.000312840203491
0.000243897218423
0.000265970932389
0.000240325391993
0.000216176070692
0.000241810527047
0.000164696730033
0.00024243293119
0.000130318564139
0.00024972138108
0.00010075580895
0.000281924715877
6.21111476938e-05
0.000305503091459
3.10162093006e-05
0.000309071430404
0.000309050290402
0.000950820419641
-0.00635118530774
0.00195545510281
-0.00671226028731
0.00295526730278
-0.00668301557183
0.00394525587855
-0.00662192835375
0.00492218446103
-0.00654058166692
0.00588301777065
-0.00644010527017
0.00682490324427
-0.00632147528743
0.00774519310843
-0.00618579604821
0.00864146282965
-0.00603428317228
0.00951152515869
-0.00586823465165
0.0103534379107
-0.00568900109452
0.0111655073823
-0.00549795529088
0.0119462853578
-0.00529646238181
0.0126945617897
-0.00508585034901
0.0134093511779
-0.00486738202203
0.0140898747896
-0.00464222867569
0.0147355371063
-0.00441144660185
0.0153458990264
-0.00417595720908
0.0159206468844
-0.00393653212254
0.0164595603972
-0.00369378389802
0.0169624791993
-0.00344816329504
0.0174292713922
-0.00319996298887
0.0178598037426
-0.0029493275332
0.0182539164763
-0.00269626835721
0.0186114014772
-0.00244068258301
0.0189319858216
-0.00218237399577
0.0192153185072
-0.00192107507537
0.0194609616607
-0.00165646929279
0.0196683840071
-0.00138821374984
0.019836958286
-0.00111596263398
0.0199659614757
-0.000839393996606
0.0200545794828
-0.000558232601304
0.020101917109
-0.000272285018144
0.0201070147962
1.85292450885e-05
0.0200688719814
0.000314144126359
0.0199864786242
0.000614313595885
0.0198588534623
0.000918581533469
0.0196850887385
0.00122625649969
0.0194643985131
0.00153639515484
0.0191961681341
0.00184779480266
0.0188800005255
0.00215899786033
0.0185157562056
0.00246830528722
0.0181035824195
0.00277379801073
0.017643932044
0.00307335738577
0.0171375712735
0.00336467909358
0.0165855871161
0.00364526533567
0.0159894019849
0.00391239060139
0.0153508188915
0.00416302664931
0.0146721160844
0.00439374078687
0.0139562107954
0.004600570726
0.0132069146434
0.00477893579243
0.0124292381164
0.00492363713985
0.011629729605
0.00502906174721
0.010816662441
0.00508971682401
0.00999990636766
0.00510106118296
0.00919038141793
0.00506072910382
0.00839890304057
0.00496933630783
0.00763548548942
0.00483037988013
0.00690768949072
0.00465078101181
0.00622069183929
0.00443829470386
0.00557881333009
0.00419874980451
0.00498618698875
0.00393728204402
0.00444527969694
0.00366145117185
0.00395609097007
0.00338001208895
0.00351653945137
0.00310090105687
0.00312326508103
0.00283012403385
0.00277241388956
0.00257157087324
0.00246020503342
0.00232740661991
0.00218316486484
0.00209862257565
0.0019381689372
0.00188564876214
0.00172225957808
0.00168875999923
0.0015324665303
0.00150821777122
0.00136578637377
0.00134407293658
0.00121935844718
0.00119582120626
0.00109067859194
0.00106246121604
0.000977565990236
0.000942851403012
0.000878082451122
0.000835881065406
0.000790524766842
0.000740414652299
0.000713429359301
0.000655285963711
0.00064555827211
0.000579374574667
0.000585895564289
0.00051160208585
0.000533655922599
0.000450945519534
0.000488256570551
0.000396738415771
0.000446237980558
0.00035151563749
0.000403250405358
0.000329290045637
0.000362477749537
0.000311967841522
0.000318258612276
0.00029952528847
0.000274925087228
0.000287272619829
0.000229665315964
0.00028562978944
0.000189219215081
0.000282304218387
0.000144158372337
0.000287542686366
0.000102012292323
0.000291920427451
8.01705869181e-05
0.000303827781526
5.16559208183e-05
0.000334068991988
2.56619839415e-05
0.000335112201224
0.000334741672725
0.000970739245015
-0.00732151507826
0.00199625165099
-0.00773734115742
0.00301655671034
-0.00770288982453
0.00402642304739
-0.00763136432543
0.00502243131547
-0.00753616161752
0.0060013850156
-0.0074186325926
0.00696029353833
-0.00727995993907
0.00789639799262
-0.00712147942724
0.00880719148911
-0.00694465886589
0.00969043411029
-0.00675106305555
0.0105441611752
-0.0065423180186
0.0113666863368
-0.00632007465263
0.012156598004
-0.00608597311169
0.0129127507874
-0.00584160725704
0.013634249947
-0.00558849092146
0.0143204309544
-0.0053280251885
0.0149708320445
-0.00506146954616
0.015585162821
-0.00478991628858
0.0161632673126
-0.00451427197239
0.0167050858688
-0.00423524493379
0.0172106149153
-0.00395334256809
0.0176798698158
-0.00366887588763
0.0181128496219
-0.00338197374798
0.0185095085565
-0.0030926021057
0.0188697315012
-0.0028005893927
0.019193316894
-0.00250565225563
0.0194799625317
-0.00220742322568
0.0197292568866
-0.00190547571107
0.0199406711192
-0.00159935021592
0.0201135553919
-0.0012885791469
0.0202471361485
-0.000972717592346
0.0203405188276
-0.000651368434235
0.0203926950099
-0.000324225183818
0.02040255887
8.89101659108e-06
0.0203689303042
0.000347987471271
0.0202905903785
0.000692858036858
0.0201663238857
0.00104304177913
0.0199949731943
0.0013977908753
0.0197754949029
0.00175604638106
0.0195070214698
0.0021164311212
0.0191889154344
0.00247725582964
0.0188208174605
0.00283654507689
0.0184026734647
0.003192072387
0.0179347471715
0.00354140374793
0.0174176057858
0.00388192832849
0.0168521022406
0.00421086645742
0.0162393506054
0.00452522697736
0.015580747584
0.00482170466357
0.0148780482122
0.00509650398045
0.0141335711935
0.00534510354539
0.0133505483735
0.0055620142224
0.0125336332889
0.00574059971641
0.0116895586158
0.00587322394655
0.0108275837073
0.00595174415319
0.00995971663739
0.00596907890359
0.00909967606962
0.00592085292292
0.00826122674131
0.0058079577652
0.00745733654653
0.00563437300453
0.00669636909095
0.0054118878172
0.00598213411413
0.00515268906915
0.00531863559253
0.0048623581434
0.00471186719197
0.0045441228538
0.00416526058266
0.00420808553182
0.00367809796588
0.0038671863966
0.00324652039736
0.00353248803388
0.00286515909406
0.0032114921979
0.00252848340789
0.00290827419017
0.00223154171435
0.00262436917584
0.00197026933773
0.00235992874603
0.00174133251189
0.00211461761485
0.00154170833144
0.00188840411075
0.00136820974932
0.00168173381771
0.00121734070543
0.0014949474443
0.0010857809858
0.00132740395859
0.000970852731616
0.00117741709743
0.000870375671138
0.00104336328999
0.000782394876236
0.00092390415895
0.000705182452534
0.000817670343985
0.000637312314726
0.000723200049742
0.000577588781339
0.000639140185023
0.000525047530294
0.000564184456082
0.000478937211753
0.000497094059856
0.000438461508588
0.00043725002745
0.000398753573092
0.000391258740749
0.000360409384358
0.000367671007097
0.000323741090926
0.000348674135251
0.000284924659928
0.000338381959223
0.000240577017931
0.000331661903879
0.000198242354517
0.00032800725468
0.000154627777201
0.000325963363506
0.000122620777692
0.000319598778963
8.80157185316e-05
0.000326576207327
6.13203400053e-05
0.000330567409638
4.32172737011e-05
0.000352225652953
2.08535309825e-05
0.000357528200243
0.000355615718381
0.000994063191725
-0.00831516237518
0.00204401873353
-0.00878686188341
0.00308830562438
-0.00874673896899
0.00412140606904
-0.00866402879233
0.00513968082088
-0.00855400181487
0.00613973841411
-0.00841825784481
0.00711842372467
-0.00825821536297
0.00807284590179
-0.00807547459946
0.00900040105003
-0.00787179029049
0.00989878785173
-0.00764902983649
0.0107660163991
-0.00740913061055
0.01160041068
-0.00715405750433
0.0124006048595
-0.00688576066885
0.0131655329675
-0.00660613406356
0.0138944121914
-0.00631697436467
0.0145867186102
-0.00601994190846
0.015242156367
-0.00571652381372
0.0158606193454
-0.00540800259177
0.0164421481204
-0.00509543095622
0.016986882341
-0.00477961688033
0.0174950132391
-0.00446111872981
0.0179667371175
-0.00414025322687
0.018402215045
-0.00381711330995
0.0188015383959
-0.00349159593858
0.0191647037429
-0.00316343400315
0.019491593807
-0.00283223104468
0.0197819655674
-0.00249749306286
0.0200354403379
-0.00215865856761
0.0202514969142
-0.00181512471084
0.0204294639687
-0.00146627457088
0.0205685155771
-0.00111150777014
0.0206676678553
-0.000750270000735
0.0207257842254
-0.000382101151587
0.0207415873402
-6.68245352946e-06
0.0207136842036
0.000376110049755
0.0206406024352
0.000766148596248
0.0205208419221
0.00116300107565
0.0203529366275
0.00156588432845
0.0201355279382
0.00197363319882
0.0198674392935
0.00238468702143
0.0195477493124
0.00279710262104
0.0191758483897
0.00320859130903
0.0187514730481
0.00361658157795
0.0182747051506
0.00401829303118
0.0177459343479
0.00441080758751
0.0171657904759
0.0047911052587
0.0165350609495
0.00515603653539
0.0158546423714
0.00550219016473
0.0151255637514
0.00582563315209
0.0143491953004
0.00612151917399
0.0135276734358
0.00638355932553
0.0126647477163
0.00660359637525
0.0117667728867
0.00677119684957
0.0108441745533
0.00687450366888
0.00991163820419
0.00690162490301
0.00898766842194
0.00684504382
0.00808972042307
0.00670596900886
0.0072371091122
0.00648712823511
0.00643844797806
0.00621068577397
0.00569250797861
0.00589878531785
0.00500200278952
0.00555300749509
0.00437799522577
0.00516817973003
0.00382634323568
0.00475977272528
0.00334482267691
0.00434871788123
0.00292635043261
0.00395097249054
0.0025623071764
0.00357557991714
0.00224467560728
0.00322593403213
0.00196710793675
0.00290200431924
0.00172499503359
0.00260209430181
0.0015151989685
0.00232445993863
0.00133505913796
0.0020685883487
0.00118125805027
0.00183552935745
0.00104948782014
0.00162673454913
0.000935489225836
0.00144141372822
0.000836534469692
0.00127639751705
0.000750648648899
0.00112928072509
0.000675886670951
0.000998699111434
0.000610454447423
0.000883147939106
0.000553003736451
0.000780693837939
0.00050239773053
0.000689786672257
0.000457740174345
0.000608879847607
0.000418388841388
0.00053648033376
0.000383904723055
0.000471766613077
0.00034563091736
0.000429564896445
0.000309892995424
0.000403442016828
0.000273860886426