/*--------------------------------*- C++ -*----------------------------------*\
| =========                 |                                                 |
| \\      /  F ield         | OpenFOAM: The Open Source CFD Toolbox           |
|  \\    /   O peration     | Version:  v1906                                 |
|   \\  /    A nd           | Web:      www.OpenFOAM.com                      |
|    \\/     M anipulation  |                                                 |
\*---------------------------------------------------------------------------*/
FoamFile
{
    version     2.0;
    format      ascii;
    class       volVectorField;
    location    "616";
    object      U;
}
// * * * * * * * * * * * * * * * * * * * * * * * * * * * * * * * * * * * * * //

dimensions      [0 1 -1 0 0 0 0];


internalField   nonuniform List<vector> 
9216
(
(0.00155861732972 -0.001559883825 0)
(0.00159835486035 -0.00486111836777 6.53817764537e-28)
(0.00158694961442 -0.0081702207251 1.08221455751e-31)
(0.00156371005082 -0.0114590454114 0)
(0.00153248177988 -0.0146889814771 0)
(0.00149404152889 -0.0178459886805 0)
(0.00144927359518 -0.0209159552954 0)
(0.00139893615124 -0.0238865094378 0)
(0.00134386343356 -0.0267468946337 0)
(0.00128480163067 -0.0294880358356 0)
(0.00122256588321 -0.0321024623466 0)
(0.00115783266945 -0.0345842933725 0)
(0.00109133008745 -0.0369290884917 0)
(0.00102360610182 -0.0391337687001 0)
(0.0009552577081 -0.0411964226427 0)
(0.0008866773775 -0.0431161979681 0)
(0.000818319021504 -0.0448930974765 0)
(0.000750421402183 -0.0465278701461 0)
(0.000683306606014 -0.0480218225523 0)
(0.000617079274662 -0.049376727913 0)
(0.000551953464427 -0.0505946659514 0)
(0.000487927214269 -0.0516779568086 0)
(0.000425133763002 -0.0526290341373 0)
(0.00036349273462 -0.0534504039168 0)
(0.000303082434278 -0.0541445497522 0)
(0.000243769990637 -0.0547139124598 0)
(0.000185601203359 -0.0551608256791 0)
(0.00012841358885 -0.0554875121016 0)
(7.22403520799e-05 -0.0556960476388 0)
(1.69112960698e-05 -0.0557883688586 0)
(-3.75366116716e-05 -0.0557662743521 0)
(-9.12650558602e-05 -0.0556314249842 0)
(-0.000144213319833 -0.0553853788984 0)
(-0.000196508216403 -0.0550296210882 0)
(-0.000248050737366 -0.0545656124569 0)
(-0.00029891775916 -0.0539948248395 0)
(-0.000348959198478 -0.0533188203742 0)
(-0.000398187881355 -0.0525392850372 0)
(-0.000446397606704 -0.0516581295239 0)
(-0.000493533363059 -0.0506775106594 0)
(-0.000539339830326 -0.0495999415049 0)
(-0.000583703313219 -0.0484282861705 0)
(-0.000626339224929 -0.0471658660106 0)
(-0.000667094747975 -0.0458164165844 0)
(-0.000705681404648 -0.044384183178 0)
(-0.000741925180513 -0.0428738418936 0)
(-0.000775547813316 -0.0412905952258 0)
(-0.000806350749885 -0.039640080997 0)
(-0.000834049606487 -0.037928498792 0)
(-0.000858383959226 -0.0361625463903 0)
(-0.000879016452741 -0.0343496079687 0)
(-0.000895574250631 -0.0324977377863 0)
(-0.00090763621538 -0.0306158911355 0)
(-0.000914725050412 -0.0287138998777 0)
(-0.000916404396094 -0.0268026334554 0)
(-0.000912227320997 -0.0248938319178 0)
(-0.000901924243234 -0.0230000646471 0)
(-0.000885263650222 -0.0211343666009 0)
(-0.000862270072811 -0.0193100501001 0)
(-0.00083298117991 -0.0175403063775 0)
(-0.000797714906564 -0.015838008537 0)
(-0.000756807574968 -0.0142153199049 0)
(-0.000710975790775 -0.012683356221 0)
(-0.000661050574481 -0.0112516034193 0)
(-0.000608344379186 -0.00992732466138 0)
(-0.000554182477046 -0.00871496951189 0)
(-0.000500114447124 -0.00761594900038 0)
(-0.000447355715882 -0.00662872826841 0)
(-0.000397073256942 -0.00574927077994 0)
(-0.000349945208728 -0.00497159992302 0)
(-0.000306586247881 -0.00428840357926 0)
(-0.000267168064614 -0.00369155448831 0)
(-0.000231862196754 -0.00317258455219 0)
(-0.000200447863043 -0.00272309276262 0)
(-0.000172766484375 -0.00233509188605 0)
(-0.000148363464624 -0.00200126664274 0)
(-0.000126970377283 -0.00171506623234 0)
(-0.000108159139966 -0.0014706898656 0)
(-9.17564034567e-05 -0.00126294190309 0)
(-7.74313749264e-05 -0.00108715940909 0)
(-6.50508480879e-05 -0.000939136199566 0)
(-5.4287760873e-05 -0.000815154115559 0)
(-4.49334718001e-05 -0.000711997689981 0)
(-3.62704807038e-05 -0.000627596074539 0)
(-2.75563356098e-05 -0.000551175866293 0)
(-2.41498990033e-05 -0.000507393227472 0)
(-2.24626793084e-05 -0.000456878418974 0)
(-1.92942538576e-05 -0.000415088032878 0)
(-1.90812904743e-05 -0.000379979419393 0)
(-2.03573125616e-05 -0.000340374735592 0)
(-2.03557160688e-05 -0.000300891751895 0)
(-2.07382311664e-05 -0.000258862068911 0)
(-2.36522998394e-05 -0.000212981904369 0)
(-2.70688333177e-05 -0.000162578545776 0)
(-3.0888342005e-05 -0.000101200809408 0)
(-3.34393547645e-05 -3.28280930691e-05 0)
(0.0048736475698 -0.00161614313638 0)
(0.0051346110783 -0.00517387063936 0)
(0.00509512156126 -0.0087002018842 -6.72299768985e-28)
(0.00501885398445 -0.0122072879779 0)
(0.00491743568591 -0.0156482348225 0)
(0.0047933701141 -0.0190098429818 0)
(0.00464908733257 -0.022277422105 0)
(0.00448700735731 -0.0254378916767 0)
(0.00430972829913 -0.0284798608286 0)
(0.0041197311607 -0.0313937290318 0)
(0.00391956186628 -0.0341716502291 0)
(0.00371149318712 -0.0368074834012 0)
(0.00349777231089 -0.0392966583059 0)
(0.00328026539811 -0.0416360517491 0)
(0.00306077811729 -0.0438238037968 0)
(0.00284068413028 -0.0458591649083 0)
(0.00262131174639 -0.0477423026604 0)
(0.0024035498338 -0.0494741532099 0)
(0.00218828915822 -0.0510562453642 0)
(0.00197599868776 -0.0524905756913 0)
(0.00176721076179 -0.0537794631475 0)
(0.00156206328926 -0.0549254549414 0)
(0.0013608199405 -0.0559312149704 0)
(0.00116337778804 -0.056799459695 0)
(0.0009698162672 -0.0575328781343 0)
(0.000779873137085 -0.058134093558 0)
(0.000593517099619 -0.0586056113946 0)
(0.000410397953828 -0.0589498022982 0)
(0.000230438229393 -0.0591688748968 0)
(5.32652341685e-05 -0.0592648781145 0)
(-0.000121186272498 -0.0592396917035 0)
(-0.000293251824035 -0.059095061501 0)
(-0.000462924271461 -0.0588326104106 0)
(-0.000630435096507 -0.0584538726392 0)
(-0.000795650408928 -0.0579603433203 0)
(-0.000958643075904 -0.0573535286507 0)
(-0.00111910717898 -0.0566350160797 0)
(-0.00127691562655 -0.0558065333751 0)
(-0.00143156964907 -0.0548700335843 0)
(-0.00158273315993 -0.053827751117 0)
(-0.00172973293752 -0.0526822875995 0)
(-0.00187205798402 -0.0514366484435 0)
(-0.00200892196937 -0.0500943132733 0)
(-0.00213970886168 -0.0486592384296 0)
(-0.00226360097107 -0.0471359023597 0)
(-0.00237994367102 -0.04552927342 0)
(-0.002487934341 -0.0438448413385 0)
(-0.00258687615766 -0.0420885763644 0)
(-0.00267592583946 -0.0402669854748 0)
(-0.00275422229789 -0.0383871124043 0)
(-0.00282071678988 -0.0364566662098 0)
(-0.00287420557522 -0.034484095948 0)
(-0.00291331190663 -0.0324787853816 0)
(-0.00293649731441 -0.0304511418262 0)
(-0.00294227240262 -0.0284127230049 0)
(-0.00292921582393 -0.0263761539282 0)
(-0.00289635336164 -0.0243549923273 0)
(-0.00284302419158 -0.0223633721147 0)
(-0.002769199334 -0.02041569631 0)
(-0.00267511823014 -0.018526264313 0)
(-0.00256163829971 -0.0167090451114 0)
(-0.002429931408 -0.0149773606152 0)
(-0.0022820853689 -0.0133435248625 0)
(-0.00212091505528 -0.011818229255 0)
(-0.00195055801903 -0.010409701493 0)
(-0.00177558871849 -0.00912291231897 0)
(-0.0016009643741 -0.00795924233425 0)
(-0.00143086719864 -0.00691665658302 0)
(-0.00126890106998 -0.00599030205624 0)
(-0.00111740939248 -0.00517325007747 0)
(-0.000978151080114 -0.00445720433999 0)
(-0.00085182973138 -0.0038330709745 0)
(-0.000738781451257 -0.00329145065838 0)
(-0.000638440621652 -0.00282308273257 0)
(-0.000550057477259 -0.00241925008646 0)
(-0.000472286804431 -0.00207208068163 0)
(-0.000404034789036 -0.00177465862914 0)
(-0.000344087371812 -0.00152093530663 0)
(-0.000291736851885 -0.00130550616277 0)
(-0.000246116875945 -0.00112347018192 0)
(-0.000206669707906 -0.000970371428173 0)
(-0.000172578146519 -0.000842183033621 0)
(-0.00014323364529 -0.000735196646854 0)
(-0.000117577174344 -0.000646170035761 0)
(-9.43945086703e-05 -0.000566503187114 0)
(-7.9353520253e-05 -0.000497348666542 0)
(-6.81506831249e-05 -0.000445856088276 0)
(-5.82667012924e-05 -0.00040511701584 0)
(-5.61620087528e-05 -0.000364517399935 0)
(-5.9108258445e-05 -0.000332137983409 0)
(-6.0755887572e-05 -0.000298204660768 0)
(-6.40564133509e-05 -0.00025435364721 0)
(-7.06138407485e-05 -0.000207467038096 0)
(-8.73234188546e-05 -0.000164853173492 0)
(-0.00010725062331 -0.000105861155703 0)
(-9.78486484722e-05 -2.94366959231e-05 0)
(0.00824793955537 -0.00163744313352 0)
(0.00869401589306 -0.00523914595271 0)
(0.00861966202469 -0.0088023031533 -6.71353746291e-28)
(0.00848736811119 -0.0123486955112 0)
(0.00831354704591 -0.0158267734384 0)
(0.00810174470229 -0.0192226761705 0)
(0.00785578634812 -0.0225212672975 0)
(0.00757980892838 -0.0257092323964 0)
(0.00727817577233 -0.0287750868453 0)
(0.00695522127628 -0.0317092451364 0)
(0.00661521694613 -0.0345039827143 0)
(0.00626214323478 -0.0371533542717 0)
(0.00589972557763 -0.0396530529197 0)
(0.00553124195234 -0.0420002525335 0)
(0.00515963022515 -0.0441934185268 0)
(0.00478732583213 -0.0462321256315 0)
(0.0044164277881 -0.0481168643986 0)
(0.00404855130024 -0.0498488702436 0)
(0.00368503460057 -0.0514299531012 0)
(0.00332679062525 -0.05286235665 0)
(0.00297453891214 -0.0541486225735 0)
(0.00262864497186 -0.0552914851915 0)
(0.00228936662736 -0.056293771312 0)
(0.00195667574236 -0.0571583277606 0)
(0.00163051351912 -0.0578879523777 0)
(0.00131059429729 -0.0584853489209 0)
(0.000996667819605 -0.0589530841721 0)
(0.00068830824762 -0.0592935653684 0)
(0.000385183024396 -0.0595090196815 0)
(8.68315250124e-05 -0.059601491282 0)
(-0.000207058709625 -0.0595728436405 0)
(-0.000496878969256 -0.0594247733341 0)
(-0.000782821250198 -0.059158835336 0)
(-0.001065106098 -0.0587764800563 0)
(-0.0013437053057 -0.0582790995571 0)
(-0.00161857156108 -0.0576680846827 0)
(-0.00188937272081 -0.056944893441 0)
(-0.00215572436628 -0.0561111232567 0)
(-0.00241694746171 -0.0551685932147 0)
(-0.0026723062728 -0.0541194193377 0)
(-0.00292080070693 -0.0529660946432 0)
(-0.00316140743519 -0.0517115479482 0)
(-0.00339291062975 -0.0503592008249 0)
(-0.00361413224258 -0.0489129896777 0)
(-0.00382378979532 -0.0473773839674 0)
(-0.00402068508247 -0.0457573655376 0)
(-0.00420356200407 -0.0440584167211 0)
(-0.00437121356825 -0.0422864846827 0)
(-0.00452231481528 -0.0404479880624 0)
(-0.00465543040791 -0.0385498341876 0)
(-0.00476884442047 -0.0365995207007 0)
(-0.00486052747567 -0.0346052725647 0)
(-0.00492808175877 -0.0325762641661 0)
(-0.00496882457274 -0.0305228247089 0)
(-0.00498001566687 -0.0284566153889 0)
(-0.00495914751333 -0.0263906223527 0)
(-0.00490436576291 -0.0243389582057 0)
(-0.00481463160255 -0.0223164159267 0)
(-0.00468978593655 -0.0203380373706 0)
(-0.00453038365832 -0.0184187221099 0)
(-0.00433760374953 -0.0165730776365 0)
(-0.00411341634601 -0.0148152567015 0)
(-0.00386089637465 -0.0131587132876 0)
(-0.00358491757867 -0.0116155785012 0)
(-0.00329263430792 -0.0101953320252 0)
(-0.00299255653794 -0.00890352243479 0)
(-0.00269346900296 -0.00774125532239 0)
(-0.00240301226649 -0.00670554245459 0)
(-0.00212719662858 -0.00579025096721 0)
(-0.00187009716233 -0.00498718011252 0)
(-0.00163435882526 -0.00428691636487 0)
(-0.00142126783589 -0.00367939789237 0)
(-0.00123110383875 -0.00315435601049 0)
(-0.00106298267899 -0.00270177787409 0)
(-0.000915235096117 -0.00231239887315 0)
(-0.000785534227775 -0.00197810533015 0)
(-0.000671625743777 -0.00169207299822 0)
(-0.000571591444435 -0.00144852917245 0)
(-0.000484134810208 -0.00124230547804 0)
(-0.000408064753735 -0.00106859996565 0)
(-0.000342320823515 -0.000922994804189 0)
(-0.000285787671048 -0.000801488545133 0)
(-0.000237518206865 -0.000700418079064 0)
(-0.000196605782203 -0.000616819748946 0)
(-0.000162951414322 -0.000541938719927 0)
(-0.000138035779798 -0.000479114460731 0)
(-0.000119518452652 -0.000438687948916 0)
(-0.000101226500852 -0.000383955622669 0)
(-9.02139138637e-05 -0.000337655584455 0)
(-9.19186835244e-05 -0.000309647762331 0)
(-0.000103863802765 -0.000286957371293 0)
(-0.000106446871757 -0.000230183200934 0)
(-0.000121346413949 -0.000190346296728 0)
(-0.000142074302851 -0.000139234042048 0)
(-0.000160317496952 -8.3875808357e-05 0)
(-0.000157203712467 -2.62051669326e-05 0)
(0.0116876028156 -0.0016638165077 0)
(0.0123245965061 -0.00532173032377 0)
(0.0122173132674 -0.00893754744304 6.71264960741e-28)
(0.0120269227484 -0.01253537704 0)
(0.0117770703298 -0.0160614451252 0)
(0.011473055596 -0.0195010984741 0)
(0.0111204410327 -0.022838607808 0)
(0.0107252811328 -0.0260603185258 0)
(0.0102939007824 -0.0291546217396 0)
(0.00983262200545 -0.032111991716 0)
(0.00934759189888 -0.0349249224789 0)
(0.00884457659965 -0.0375878081966 0)
(0.00832887788769 -0.0400967730441 0)
(0.00780520547005 -0.0424494758552 0)
(0.00727768048308 -0.0446448959816 0)
(0.00674977326426 -0.0466831213998 0)
(0.00622437258114 -0.048565140257 0)
(0.00570376337653 -0.0502926511474 0)
(0.00518973475079 -0.0518678879081 0)
(0.00468357255453 -0.0532934693432 0)
(0.00418618381274 -0.054572265997 0)
(0.00369808646433 -0.0557072913154 0)
(0.00321953651723 -0.0567016076191 0)
(0.00275050627986 -0.0575582528179 0)
(0.00229080865939 -0.0582801782782 0)
(0.00184006224731 -0.0588702034008 0)
(0.00139781262396 -0.0593309782947 0)
(0.000963487127758 -0.059664960151 0)
(0.000536515800122 -0.0598743963692 0)
(0.00011628023302 -0.059961319385 0)
(-0.000297762581573 -0.0599275523426 0)
(-0.00070613346805 -0.0597747180705 0)
(-0.00110920445278 -0.0595042679733 0)
(-0.00150725250972 -0.059117518765 0)
(-0.00190033297633 -0.0586157004121 0)
(-0.00228833745252 -0.0580000179479 0)
(-0.00267087647233 -0.057271724588 0)
(-0.00304734994152 -0.0564322043856 0)
(-0.00341685207305 -0.0554830625906 0)
(-0.003778264839 -0.0544262166212 0)
(-0.00413019772268 -0.0532639851522 0)
(-0.00447110939493 -0.0519991632551 0)
(-0.00479928407506 -0.050635081991 0)
(-0.00511296915964 -0.0491756380796 0)
(-0.00541036647461 -0.0476252976951 0)
(-0.00568974569324 -0.0459890643576 0)
(-0.0059494004708 -0.0442724286779 0)
(-0.00618767578539 -0.0424813026144 0)
(-0.00640283343833 -0.0406219763204 0)
(-0.00659295522974 -0.0387011150904 0)
(-0.00675572761687 -0.036725847667 0)
(-0.0068883018321 -0.0347039562623 0)
(-0.00698717740798 -0.0326441879956 0)
(-0.00704829890184 -0.0305566261281 0)
(-0.00706736943534 -0.0284530238624 0)
(-0.00704043361557 -0.0263469141105 0)
(-0.00696455413616 -0.0242533468777 0)
(-0.00683828310089 -0.0221881757876 0)
(-0.00666142367042 -0.0201674225148 0)
(-0.00643493680904 -0.0182067492417 0)
(-0.00616014418948 -0.0163215642808 0)
(-0.00583953151261 -0.0145271082461 0)
(-0.005476505168 -0.012838619605 0)
(-0.00507775817625 -0.0112708869838 0)
(-0.00465420329932 -0.00983578803581 0)
(-0.00421944468597 -0.00853993224773 0)
(-0.00378730633414 -0.00738383345593 0)
(-0.00336954173291 -0.00636267927658 0)
(-0.00297476165426 -0.00546804353297 0)
(-0.00260850166005 -0.00468962081119 0)
(-0.00227408876299 -0.00401631209454 0)
(-0.00197320216795 -0.00343664278498 0)
(-0.00170604011432 -0.00293902722655 0)
(-0.0014711676449 -0.00251224004276 0)
(-0.0012657128076 -0.00214610650142 0)
(-0.00108582737771 -0.00183215585754 0)
(-0.000927720075315 -0.00156386876103 0)
(-0.000788617917069 -0.00133614362219 0)
(-0.000666914937729 -0.00114429336523 0)
(-0.000561211342223 -0.000983644319335 0)
(-0.000469998894599 -0.000849808436724 0)
(-0.000391777732149 -0.000738865028082 0)
(-0.000325218312488 -0.000647302981836 0)
(-0.000269283182638 -0.000572550018846 0)
(-0.000223042882419 -0.000502710076923 0)
(-0.000192119875585 -0.00045435603237 0)
(-0.000166516602321 -0.00040814507665 0)
(-0.000144225150254 -0.000356365980949 0)
(-0.000133755391935 -0.000321656751834 0)
(-0.000126951147926 -0.00027645471961 0)
(-0.000134553204295 -0.000238503204627 0)
(-0.00015760443661 -0.00021194861938 0)
(-0.000165765813605 -0.000154990988083 0)
(-0.000187648691709 -0.000108787474066 0)
(-0.000209719416448 -6.62114125804e-05 0)
(-0.000210153533296 -2.18522733117e-05 0)
(0.0151894100676 -0.0016991247624 0)
(0.0160171462055 -0.00543330601861 0)
(0.0158746964796 -0.00912221706862 0)
(0.0156226392975 -0.0127902469024 0)
(0.0152921343335 -0.0163814974643 0)
(0.0148904816965 -0.0198803227196 0)
(0.014425273007 -0.0232702327794 0)
(0.0139047364648 -0.0265371321164 0)
(0.0133374074082 -0.0296692674317 0)
(0.0127317892863 -0.0326572304705 0)
(0.0120960828519 -0.0354938521585 0)
(0.0114379506512 -0.0381740321765 0)
(0.0107643675022 -0.0406945198411 0)
(0.0100815040979 -0.0430536695061 0)
(0.0093946925845 -0.0452511858783 0)
(0.00870840656076 -0.0472878760222 0)
(0.00802630821753 -0.0491654159159 0)
(0.00735128606942 -0.0508861406966 0)
(0.00668554460026 -0.0524528594958 0)
(0.00603066393216 -0.0538686981782 0)
(0.00538770157452 -0.0551369664842 0)
(0.00475725027193 -0.0562610498901 0)
(0.00413953466251 -0.0572443209956 0)
(0.00353445639879 -0.0580900698748 0)
(0.00294167988064 -0.0588014482449 0)
(0.00236066325144 -0.0593814273329 0)
(0.0017907347596 -0.0598327653215 0)
(0.00123111371098 -0.0601579851153 0)
(0.00068098256707 -0.0603593597523 0)
(0.000139503894872 -0.0604389061946 0)
(-0.000394106206457 -0.0603983923977 0)
(-0.000920559928672 -0.0602393424729 0)
(-0.00144042049827 -0.0599630676249 0)
(-0.00195408198959 -0.05957070164 0)
(-0.00246169060176 -0.0590632512848 0)
(-0.00296312799769 -0.0584416626866 0)
(-0.00345794185475 -0.0577069022422 0)
(-0.00394534625934 -0.0568600511551 0)
(-0.00442417903762 -0.0559024106779 0)
(-0.00489293751214 -0.0548356122311 0)
(-0.00534978122893 -0.0536617256648 0)
(-0.00579261634389 -0.0523833547004 0)
(-0.00621914915857 -0.0510037098138 0)
(-0.00662700906299 -0.0495266452335 0)
(-0.00701382432807 -0.0479566529267 0)
(-0.00737733030082 -0.0462988068368 0)
(-0.00771539106654 -0.0445586648857 0)
(-0.00802599591635 -0.04274214271 0)
(-0.00830712511516 -0.0408553961149 0)
(-0.00855655038261 -0.0389047574702 0)
(-0.00877151810999 -0.0368967942648 0)
(-0.00894843391057 -0.0348385449992 0)
(-0.00908260997143 -0.0327379778869 0)
(-0.00916828600331 -0.0306046262757 0)
(-0.00919907107248 -0.028450252014 0)
(-0.00916893081644 -0.0262892014792 0)
(-0.0090734444138 -0.0241380954858 0)
(-0.00891089182288 -0.0220144682656 0)
(-0.00868119586021 -0.0199357712834 0)
(-0.00838624714333 -0.0179184234171 0)
(-0.00802699994564 -0.0159785575599 0)
(-0.00760631097436 -0.0141324118957 0)
(-0.00712600494942 -0.0123976482578 0)
(-0.00659388035603 -0.0107939046738 0)
(-0.00602594280027 -0.00933757241475 0)
(-0.00544315410221 -0.00803711152698 0)
(-0.00486650450653 -0.00689177698257 0)
(-0.00431292125535 -0.0058933671996 0)
(-0.00379361535647 -0.00502953116358 0)
(-0.00331485900573 -0.00428678403868 0)
(-0.00288011667992 -0.00365185553452 0)
(-0.00249129571863 -0.00311155456854 0)
(-0.00214856514692 -0.00265249780891 0)
(-0.00184976363658 -0.00226160174275 0)
(-0.00159030955667 -0.00192718805889 0)
(-0.00136392677638 -0.00164022335723 0)
(-0.00116442637522 -0.00139495828667 0)
(-0.000988043757603 -0.00118780513488 0)
(-0.000833565640839 -0.00101496841468 0)
(-0.000699743208939 -0.000871743635496 0)
(-0.000584552182087 -0.00075361264958 0)
(-0.000485971295899 -0.000656752048328 0)
(-0.000402210230865 -0.000577948200503 0)
(-0.000331917594607 -0.00051427744483 0)
(-0.000274022179273 -0.00045370959873 0)
(-0.00024300659507 -0.000420291828367 0)
(-0.000217283695216 -0.000378298009384 0)
(-0.000192075710172 -0.00033171550255 0)
(-0.000169703681046 -0.000278090523392 0)
(-0.000166971931063 -0.000243564886778 0)
(-0.000168595519082 -0.0001990741893 0)
(-0.000193267680496 -0.000171748157679 0)
(-0.000221636010247 -0.000136012536845 0)
(-0.000229483138705 -8.73048307666e-05 0)
(-0.000242638328749 -5.10453320187e-05 0)
(-0.000243000926401 -1.70076687821e-05 0)
(0.0187747182394 -0.00174432984455 0)
(0.0197956961058 -0.00557684918983 0)
(0.0196146807923 -0.00936036691478 0)
(0.0192958347762 -0.0131188108895 0)
(0.0188782070472 -0.0167936542227 0)
(0.0183714174831 -0.0203679918996 0)
(0.0177854516201 -0.0238243896635 0)
(0.0171310645228 -0.0271482258046 0)
(0.016419332392 -0.0303276154721 0)
(0.0156612156661 -0.0333533674828 0)
(0.0148671963748 -0.0362188167557 0)
(0.0140469911221 -0.0389195833828 0)
(0.0132093568876 -0.0414532833885 0)
(0.0123619704434 -0.0438192182707 0)
(0.0115113871942 -0.0460180644754 0)
(0.0106630489973 -0.0480515799296 0)
(0.00982134461745 -0.0499223378681 0)
(0.00898968945713 -0.0516334945909 0)
(0.00817063276752 -0.0531885923337 0)
(0.00736596072314 -0.0545913968758 0)
(0.00657681069683 -0.0558457661468 0)
(0.00580376778428 -0.0569555464661 0)
(0.00504696570002 -0.0579244912546 0)
(0.00430616470371 -0.0587561986635 0)
(0.00358083386991 -0.0594540635762 0)
(0.00287021047302 -0.0600212415483 0)
(0.00217336748653 -0.0604606215332 0)
(0.00148926099924 -0.0607748065118 0)
(0.000816791002947 -0.0609661006146 0)
(0.00015484557707 -0.0610365021294 0)
(-0.000497636678533 -0.0609877104883 0)
(-0.00114161763309 -0.0608211264086 0)
(-0.00177789080026 -0.0605378836502 0)
(-0.00240702624208 -0.0601388818642 0)
(-0.00302929650743 -0.0596248386069 0)
(-0.00364462236523 -0.0589963603927 0)
(-0.00425250695583 -0.0582540328622 0)
(-0.00485200077039 -0.0573985302215 0)
(-0.00544166827057 -0.0564307409583 0)
(-0.00601959992062 -0.0553519042157 0)
(-0.00658344033423 -0.0541637475038 0)
(-0.00713047244353 -0.0528686126556 0)
(-0.00765772229373 -0.0514695539683 0)
(-0.00816211162862 -0.0499703901378 0)
(-0.00864060845971 -0.048375693298 0)
(-0.00909038097952 -0.0466907027918 0)
(-0.00950888648305 -0.0449211631794 0)
(-0.00989387980228 -0.0430731026112 0)
(-0.0102432686708 -0.0411525936798 0)
(-0.0105548076683 -0.039165567825 0)
(-0.0108256078268 -0.0371177877022 0)
(-0.0110515424308 -0.0350151013438 0)
(-0.011226691878 -0.0328640899866 0)
(-0.0113431300806 -0.0306731337855 0)
(-0.011391444692 -0.0284537118636 0)
(-0.0113623448703 -0.0262213272511 0)
(-0.0112491125593 -0.023995344264 0)
(-0.0110503561389 -0.0217959603441 0)
(-0.0107663232521 -0.0196428077688 0)
(-0.0104016034185 -0.0175525803908 0)
(-0.00995530544345 -0.0155416524149 0)
(-0.00943182488353 -0.0136261351011 0)
(-0.00882602717277 -0.0118262084152 0)
(-0.00814497537948 -0.0101708420066 0)
(-0.00741249620291 -0.00868507701394 0)
(-0.00666138988197 -0.00738050751176 0)
(-0.0059236132372 -0.00625361263176 0)
(-0.00522292244681 -0.00528980068614 0)
(-0.0045725368785 -0.00446999048473 0)
(-0.00397763227511 -0.00377613014689 0)
(-0.00344064183214 -0.00319275580727 0)
(-0.00296375099325 -0.00270509736543 0)
(-0.00254758893122 -0.00229750044926 0)
(-0.00218926814111 -0.00195398900789 0)
(-0.00188177038668 -0.00166027350903 0)
(-0.00161472663304 -0.0014062759353 0)
(-0.00137764617454 -0.00118798850144 0)
(-0.00116558796111 -0.00100528525743 0)
(-0.000979687042527 -0.000855994858403 0)
(-0.000819655110462 -0.000734632613114 0)
(-0.00068246894556 -0.000636037947673 0)
(-0.000565304446631 -0.000556521526237 0)
(-0.000465932363337 -0.000493158901549 0)
(-0.000382512679054 -0.000441420715059 0)
(-0.00031810639975 -0.00039451031261 0)
(-0.000282684917127 -0.000364299482288 0)
(-0.000249843344472 -0.000321388676962 0)
(-0.000231409797701 -0.000289717755333 0)
(-0.000219762437259 -0.000254821620543 0)
(-0.000217118019025 -0.000219603771906 0)
(-0.000205134145558 -0.000167476477141 0)
(-0.00021858861292 -0.000131647350233 0)
(-0.000254905381707 -0.00010906081146 0)
(-0.000268626250478 -7.48277531952e-05 0)
(-0.000273325276727 -4.2354915311e-05 0)
(-0.000274373625179 -1.41177032726e-05 0)
(0.0224653193086 -0.00180060179292 0)
(0.0236831760968 -0.00575566531617 0)
(0.0234589843683 -0.00965705487517 6.66525397829e-28)
(0.0230664879924 -0.0135277740377 0)
(0.0225531544738 -0.0173059476489 0)
(0.0219313642449 -0.020973080467 0)
(0.0212139770283 -0.0245105872502 0)
(0.0204147461565 -0.0279032529281 0)
(0.0195477199375 -0.0311391179673 0)
(0.0186266776437 -0.0342093682623 0)
(0.0176646669052 -0.0371080785757 0)
(0.0166736554261 -0.0398318736378 0)
(0.0156643024952 -0.0423795425968 0)
(0.0146458370111 -0.0447516413787 0)
(0.0136260299385 -0.0469501096034 0)
(0.0126112363332 -0.0489779209724 0)
(0.0116064911903 -0.0508387779181 0)
(0.0106156345809 -0.0525368550889 0)
(0.00964145561136 -0.0540765908448 0)
(0.00868583665485 -0.0554625229276 0)
(0.00774989537958 -0.056699162158 0)
(0.00683411235959 -0.05779089767 0)
(0.00593844851649 -0.0587419269011 0)
(0.00506244438161 -0.059556204565 0)
(0.00420530972528 -0.0602374053664 0)
(0.00336599749798 -0.060788896633 0)
(0.00254327298594 -0.0612137177349 0)
(0.0017357726091 -0.0615145645581 0)
(0.000942064416739 -0.0616937781338 0)
(0.000160704216572 -0.0617533361548 0)
(-0.000609700629069 -0.0616948583877 0)
(-0.00137042562108 -0.061519599301 0)
(-0.00212255449174 -0.0612284789218 0)
(-0.00286690134872 -0.0608221100067 0)
(-0.00360392396128 -0.0603008500283 0)
(-0.00433364132751 -0.0596648757056 0)
(-0.0050555513608 -0.0589142831573 0)
(-0.00576856730475 -0.0580492149089 0)
(-0.00647097267484 -0.0570700121862 0)
(-0.00716041655296 -0.0559773865624 0)
(-0.00783395024842 -0.0547726003548 0)
(-0.00848812458376 -0.0534576387159 0)
(-0.00911914142972 -0.0520353509311 0)
(-0.00972306413445 -0.0505095331933 0)
(-0.0102960587191 -0.0488849239141 0)
(-0.0108346405928 -0.0471670863177 0)
(-0.0113358643992 -0.0453621649624 0)
(-0.011797396489 -0.043476525923 0)
(-0.0122173803084 -0.0415163247547 0)
(-0.0125940280477 -0.0394870971338 0)
(-0.0129248805143 -0.0373935292662 0)
(-0.0132057789602 -0.0352396290376 0)
(-0.01342971453 -0.033029565306 0)
(-0.0135860334285 -0.030769378672 0)
(-0.0136607243689 -0.0284694661818 0)
(-0.0136389979724 -0.0261468684535 0)
(-0.0135098574783 -0.023826105366 0)
(-0.0132744746637 -0.0215316773413 0)
(-0.0129327618396 -0.0192870165933 0)
(-0.0124979102694 -0.0171074038174 0)
(-0.0119617178419 -0.0150087771706 0)
(-0.011337980979 -0.0130031321588 0)
(-0.0105986486647 -0.0111107971766 0)
(-0.00974591167776 -0.0093803720772 0)
(-0.00881770585522 -0.00785398567148 0)
(-0.00786759135781 -0.00654822788642 0)
(-0.0069453595227 -0.00545330922109 0)
(-0.00608397968047 -0.00454229051179 0)
(-0.00529661856774 -0.00378424051107 0)
(-0.00458277945492 -0.0031548885387 0)
(-0.00394145916663 -0.00263797402719 0)
(-0.00337610511275 -0.0022185016754 0)
(-0.00288943679554 -0.00187801509309 0)
(-0.00247842827969 -0.00159578334902 0)
(-0.00213262722013 -0.00135264663605 0)
(-0.00183458925643 -0.00113609913356 0)
(-0.00156496899432 -0.000945819576342 0)
(-0.0013172310342 -0.000789846034065 0)
(-0.0011003395883 -0.000669035626727 0)
(-0.000916714337511 -0.000574525578031 0)
(-0.000760294915788 -0.00049926176937 0)
(-0.000626834099611 -0.000440207141708 0)
(-0.000514117302806 -0.000394881624949 0)
(-0.000419529997676 -0.000357329823429 0)
(-0.000355126490724 -0.000328055955139 0)
(-0.000316219960643 -0.000302781214768 0)
(-0.000285197375049 -0.000273679234092 0)
(-0.000261141030389 -0.000241457009353 0)
(-0.000254108426689 -0.000214622349471 0)
(-0.000246838873394 -0.000178009815461 0)
(-0.000254438673374 -0.000149188975172 0)
(-0.000250642357852 -0.000107703363535 0)
(-0.000269568471388 -8.24235221424e-05 0)
(-0.000296387251814 -6.23643392976e-05 0)
(-0.000298886824792 -3.54983217659e-05 0)
(-0.000300391780757 -1.18624426297e-05 0)
(0.0262855946002 -0.00186929420595 0)
(0.0277048340575 -0.00597391133611 0)
(0.0274314617832 -0.0100189035982 -6.66423043464e-28)
(0.0269563824835 -0.0140259004555 0)
(0.0263362197824 -0.0179288164238 0)
(0.0255867278901 -0.0217071710042 0)
(0.0247242860473 -0.0253410082316 0)
(0.0237662699078 -0.0288144832641 0)
(0.0227302583133 -0.032115684283 0)
(0.0216333093934 -0.035236420758 0)
(0.0204913837178 -0.0381718391783 0)
(0.0193189307209 -0.0409199479763 0)
(0.0181286364064 -0.0434811019797 0)
(0.0169313136977 -0.0458574910061 0)
(0.0157359103108 -0.048052665341 0)
(0.0145496029677 -0.0500711188773 0)
(0.013377950068 -0.0519179398322 0)
(0.0122250755925 -0.0535985303928 0)
(0.0110938651195 -0.0551183904918 0)
(0.00998615716952 -0.0564829573463 0)
(0.00890292170627 -0.0576974906855 0)
(0.00784441849334 -0.0587669935757 0)
(0.00681033520469 -0.0596961594816 0)
(0.00579990375182 -0.0604893377061 0)
(0.00481199904163 -0.0611505107149 0)
(0.00384522116731 -0.061683278548 0)
(0.00289796710799 -0.0620908466909 0)
(0.0019684937974 -0.062376015361 0)
(0.00105497933874 -0.0625411692804 0)
(0.000155584153262 -0.0625882665816 0)
(-0.000731481745285 -0.0625188403268 0)
(-0.00160788189774 -0.0623339801882 0)
(-0.00247506856434 -0.062034359289 0)
(-0.00333418458324 -0.0616202512348 0)
(-0.00418595565958 -0.0610915784712 0)
(-0.00503057832378 -0.060447987657 0)
(-0.00586760838297 -0.0596889586786 0)
(-0.00669586332128 -0.058813951345 0)
(-0.00751334977768 -0.0578225899829 0)
(-0.00831723577792 -0.0567148815304 0)
(-0.00910388288912 -0.0554914552381 0)
(-0.00986895808094 -0.0541538034999 0)
(-0.0106076336707 -0.0527044931361 0)
(-0.0113148787438 -0.0511473069892 0)
(-0.0119858220059 -0.0494872692481 0)
(-0.0126161476603 -0.047730507872 0)
(-0.0132024515012 -0.0458839183563 0)
(-0.0137424570418 -0.0439546176507 0)
(-0.0142349618683 -0.0419492241877 0)
(-0.0146793631281 -0.0398730667763 0)
(-0.0150746280064 -0.0377295371509 0)
(-0.0154176190288 -0.0355199337156 0)
(-0.0157009113057 -0.0332443426998 0)
(-0.0159106241108 -0.0309041418596 0)
(-0.0160256522747 -0.0285066746176 0)
(-0.0160211584868 -0.0260704584767 0)
(-0.015876585819 -0.0236308181457 0)
(-0.0156032458438 -0.0212188619039 0)
(-0.0151950060411 -0.0188662397371 0)
(-0.0146932205834 -0.0165815333431 0)
(-0.0140602748291 -0.0143817190971 0)
(-0.0133555211374 -0.0122630606151 0)
(-0.0124783201118 -0.0102341307723 0)
(-0.0114187339987 -0.00838988890759 0)
(-0.0102446902571 -0.00680674620162 0)
(-0.0090482018435 -0.00550815112326 0)
(-0.00790932280434 -0.00446998958687 0)
(-0.0068732503443 -0.00364104495706 0)
(-0.00594782360495 -0.00296877227012 0)
(-0.00511529851326 -0.00242095367813 0)