/*--------------------------------*- C++ -*----------------------------------*\
| =========                 |                                                 |
| \\      /  F ield         | OpenFOAM: The Open Source CFD Toolbox           |
|  \\    /   O peration     | Version:  v1906                                 |
|   \\  /    A nd           | Web:      www.OpenFOAM.com                      |
|    \\/     M anipulation  |                                                 |
\*---------------------------------------------------------------------------*/
FoamFile
{
    version     2.0;
    format      ascii;
    class       volVectorField;
    location    "206";
    object      U;
}
// * * * * * * * * * * * * * * * * * * * * * * * * * * * * * * * * * * * * * //

dimensions      [0 1 -1 0 0 0 0];


internalField   nonuniform List<vector> 
9216
(
(0.00178477578523 -0.00178509270121 0)
(0.0015769731253 -0.00491221504677 6.60225311807e-28)
(0.0015922580055 -0.00832284707414 1.12964777903e-31)
(0.00157809163371 -0.0116273178075 0)
(0.00154824309285 -0.0148885725867 0)
(0.00150869719062 -0.0180757367363 0)
(0.00146164622316 -0.0211719168355 0)
(0.0014084597885 -0.0241630616843 0)
(0.00135014641059 -0.0270375857573 0)
(0.00128769634977 -0.0297857853916 0)
(0.00122189034494 -0.0323999682413 0)
(0.00115363878166 -0.0348740027147 0)
(0.0010835316716 -0.0372035543628 0)
(0.00101239694142 -0.0393855162584 0)
(0.000940592664732 -0.0414182997243 0)
(0.000868857658158 -0.0433011578627 0)
(0.000797297587668 -0.0450345474843 0)
(0.00072657790943 -0.046619386344 0)
(0.000656557346154 -0.0480574972271 0)
(0.000587861261022 -0.0493508289289 0)
(0.000520120623059 -0.0505019836624 0)
(0.000453957877842 -0.051513427029 0)
(0.000388802725456 -0.0523880845518 0)
(0.000325311404957 -0.0531285535268 0)
(0.000262737761776 -0.0537377531484 0)
(0.000201800814999 -0.0542181545238 0)
(0.000141604717596 -0.0545724600545 0)
(8.29560402215e-05 -0.0548028618892 0)
(2.48337746426e-05 -0.0549117314797 0)
(-3.18521543809e-05 -0.0549009329386 0)
(-8.82249257457e-05 -0.0547724864189 0)
(-0.000143253856935 -0.0545279418538 0)
(-0.000198129217389 -0.0541690347129 0)
(-0.00025168998035 -0.0536971400196 0)
(-0.000305162736298 -0.053113864956 0)
(-0.000357247201935 -0.0524206156181 0)
(-0.000409170290932 -0.0516191144076 0)
(-0.000459490723009 -0.0507111014568 0)
(-0.000509397415444 -0.049698744798 0)
(-0.000557313053098 -0.0485844902836 0)
(-0.000604355943986 -0.0473713403108 0)
(-0.000648831755353 -0.0460628685631 0)
(-0.000691760458503 -0.0446633315264 0)
(-0.000731362375076 -0.0431778483756 0)
(-0.000768545053642 -0.0416123236762 0)
(-0.00080149434415 -0.0399737874694 0)
(-0.000831008291194 -0.0382701026682 0)
(-0.000855310604849 -0.036510430991 0)
(-0.000875126231527 -0.0347047138944 0)
(-0.000888821895682 -0.0328642059536 0)
(-0.00089712825421 -0.0310007189103 0)
(-0.000898689410182 -0.0291271360411 0)
(-0.000894357071553 -0.0272564470156 0)
(-0.00088318322523 -0.0254021772551 0)
(-0.000866239685785 -0.023577301373 0)
(-0.000843045676988 -0.021794584951 0)
(-0.000814912724595 -0.0200655333988 0)
(-0.000781773947607 -0.0184007107161 0)
(-0.00074509842386 -0.0168088732599 0)
(-0.000705080436591 -0.0152973378529 0)
(-0.000663195856624 -0.0138713902832 0)
(-0.000619709606042 -0.0125347411847 0)
(-0.000575954012266 -0.0112892048036 0)
(-0.000532112439974 -0.0101352052378 0)
(-0.00048928785279 -0.00907165204906 0)
(-0.000447505050104 -0.00809642890369 0)
(-0.000407618132071 -0.00720637789396 0)
(-0.000369477383436 -0.00639772409035 0)
(-0.000333714686406 -0.00566609661825 0)
(-0.000300035246139 -0.00500687017112 0)
(-0.00026890228108 -0.00441516604765 0)
(-0.000239926044744 -0.00388611133812 0)
(-0.000213456865996 -0.00341480161706 0)
(-0.000189054792047 -0.00299650230804 0)
(-0.000166996301489 -0.00262657699248 0)
(-0.000146821222937 -0.00230065461447 0)
(-0.000128756457645 -0.00201453310331 0)
(-0.00011233885859 -0.00176432943871 0)
(-9.7750924546e-05 -0.00154637389562 0)
(-8.45038563048e-05 -0.0013573737834 0)
(-7.26429155749e-05 -0.00119435785384 0)
(-6.12387991473e-05 -0.00105574869064 0)
(-4.88622087261e-05 -0.000932761714444 0)
(-4.13830212641e-05 -0.000839951172393 0)
(-4.09440876573e-05 -0.000766540923325 0)
(-3.81327431794e-05 -0.000683554218335 0)
(-3.27468483891e-05 -0.000608503908172 0)
(-2.72877597855e-05 -0.000550369375424 0)
(-2.71465959603e-05 -0.000502781443799 0)
(-2.92790583039e-05 -0.000447335732196 0)
(-2.90939044429e-05 -0.000392296062855 0)
(-2.90498813409e-05 -0.000334161322373 0)
(-3.25905301329e-05 -0.000271918611517 0)
(-3.62971063812e-05 -0.000204826825421 0)
(-3.96456757033e-05 -0.000124825223123 0)
(-4.0999775126e-05 -3.93252021097e-05 0)
(0.00492859362191 -0.00159486932088 0)
(0.00514969566339 -0.00518848897147 0)
(0.00514392543579 -0.00881645208698 -6.78891618909e-28)
(0.00507422394381 -0.0123755331868 0)
(0.00497131385322 -0.0158594437595 0)
(0.00484157288662 -0.0192570807958 0)
(0.00468920935275 -0.0225543273755 0)
(0.00451762078469 -0.0257376484378 0)
(0.00432981524089 -0.0287951727747 0)
(0.00412877870531 -0.0317168567427 0)
(0.00391714266153 -0.0344946332122 0)
(0.00369763401375 -0.0371222038582 0)
(0.00347239808245 -0.0395950647057 0)
(0.00324378599544 -0.0419101680189 0)
(0.00301331994251 -0.04406592873 0)
(0.00278292138541 -0.0460618228558 0)
(0.00255344575058 -0.0478984175811 0)
(0.0023264185779 -0.0495769476819 0)
(0.00210206572237 -0.0510993933604 0)
(0.00188160761366 -0.0524680615614 0)
(0.00166472083919 -0.0536857191881 0)
(0.00145243122948 -0.054755192498 0)
(0.00124396097785 -0.0556795520966 0)
(0.00104024916177 -0.0564617362749 0)
(0.000840153811257 -0.0571047778312 0)
(0.00064461887053 -0.0576114531746 0)
(0.000452220761841 -0.0579845388184 0)
(0.000263985122469 -0.0582264889422 0)
(7.82820219942e-05 -0.0583397113965 0)
(-0.000103719184884 -0.0583262731151 0)
(-0.000283782760898 -0.0581881948397 0)
(-0.00046053584347 -0.0579272006771 0)
(-0.00063579214517 -0.0575449956032 0)
(-0.000807922404177 -0.0570430737364 0)
(-0.000978705161959 -0.056422993628 0)
(-0.00114620393523 -0.0556862442232 0)
(-0.0013120715855 -0.0548345037351 0)
(-0.00147402545465 -0.0538695750379 0)
(-0.00163350577189 -0.052793613543 0)
(-0.0017878645207 -0.051609136124 0)
(-0.00193826085598 -0.050319202227 0)
(-0.00208169654801 -0.048927495841 0)
(-0.00221900789282 -0.0474384390493 0)
(-0.00234690175453 -0.0458573402364 0)
(-0.00246589166893 -0.0441904220214 0)
(-0.00257249869102 -0.0424450229085 0)
(-0.00266697260454 -0.040629518087 0)
(-0.00274583049868 -0.0387535457738 0)
(-0.002809216768 -0.0368277960053 0)
(-0.00285393666444 -0.0348642106671 0)
(-0.00288032414077 -0.0328756051548 0)
(-0.00288588134733 -0.0308757712293 0)
(-0.00287153571062 -0.0288789115394 0)
(-0.00283590797485 -0.0268996040164 0)
(-0.00278085608491 -0.0249520983426 0)
(-0.00270632866058 -0.0230501871364 0)
(-0.00261516637524 -0.0212065056278 0)
(-0.0025084912205 -0.0194324240874 0)
(-0.00238983077464 -0.0177375007332 0)
(-0.00226100313747 -0.0161295016622 0)
(-0.00212569615943 -0.0146141026143 0)
(-0.00198581579498 -0.0131950852205 0)
(-0.00184468948349 -0.0118742823471 0)
(-0.00170383926393 -0.0106518986917 0)
(-0.00156592943059 -0.00952660560373 0)
(-0.00143188010552 -0.00849589344065 0)
(-0.00130361210874 -0.00755622560023 0)
(-0.00118141840786 -0.00670336306706 0)
(-0.00106655060241 -0.00593251584641 0)
(-0.00095878542032 -0.00523860132639 0)
(-0.000858877402436 -0.00461634540082 0)
(-0.000766261670103 -0.00406046278022 0)
(-0.000681373363808 -0.00356570002298 0)
(-0.000603454245542 -0.00312696022643 0)
(-0.000532742980647 -0.00273930605598 0)
(-0.000468385247959 -0.0023980518039 0)
(-0.000410500890572 -0.0020987387917 0)
(-0.000358201530165 -0.00183720388897 0)
(-0.000311529008022 -0.00160952798572 0)
(-0.000269562541772 -0.00141206651694 0)
(-0.000232174787087 -0.00124130240297 0)
(-0.000198080282461 -0.001093764492 0)
(-0.000165457913497 -0.000964421781795 0)
(-0.000139179755418 -0.000839058947674 0)
(-0.000127195345325 -0.000747798904732 0)
(-0.000116136968228 -0.000666709609839 0)
(-9.67119770775e-05 -0.000587260422111 0)
(-8.14404644095e-05 -0.000533909797469 0)
(-7.89073738792e-05 -0.000478131433765 0)
(-8.41261687794e-05 -0.000435190119964 0)
(-8.64185537884e-05 -0.000389685008884 0)
(-8.95913971845e-05 -0.000328902995265 0)
(-9.69295694312e-05 -0.000266023115414 0)
(-0.000117897841777 -0.000211151424578 0)
(-0.000140529938383 -0.000134467187287 0)
(-0.000122251986698 -3.59947068427e-05 0)
(0.0084106347996 -0.00164504763142 0)
(0.00881500269043 -0.00529454090229 0)
(0.00873330550115 -0.00892305329161 -6.77933013401e-28)
(0.00859370888518 -0.0125222177672 0)
(0.0084102960781 -0.0160459330972 0)
(0.00818605201174 -0.0194805133337 0)
(0.00792520320208 -0.0228107981616 0)
(0.00763247429614 -0.0260230798315 0)
(0.00731270567929 -0.029105471204 0)
(0.00697076313192 -0.0320480472747 0)
(0.0066112486952 -0.034842898454 0)
(0.00623859473705 -0.0374840029051 0)
(0.0058567056284 -0.0399671340711 0)
(0.0054692447449 -0.0422896205226 0)
(0.00507917391416 -0.0444502058315 0)
(0.00468926232521 -0.0464487692756 0)
(0.00430148257987 -0.0482861927477 0)
(0.00391775450358 -0.0499640864069 0)
(0.00353915309757 -0.0514846913749 0)
(0.0031668935046 -0.0528506323109 0)
(0.00280131299053 -0.0540648669141 0)
(0.00244310267086 -0.0551304734155 0)
(0.00209203695344 -0.0560506443943 0)
(0.00174845816931 -0.0568285072839 0)
(0.00141173862761 -0.0574671557942 0)
(0.00108202377787 -0.0579695003015 0)
(0.000758422582678 -0.0583383270999 0)
(0.000441011537977 -0.0585761745212 0)
(0.00012875738862 -0.0586854147397 0)
(-0.000178219754605 -0.0586681568975 0)
(-0.000480979173411 -0.0585263424691 0)
(-0.000779249074743 -0.058261676815 0)
(-0.00107399652032 -0.0578757446287 0)
(-0.00136468774201 -0.0573699733769 0)
(-0.00165207089471 -0.0567457605178 0)
(-0.00193523847223 -0.0560044753015 0)
(-0.00221459299823 -0.0551475989577 0)
(-0.0024887517754 -0.0541767676634 0)
(-0.00275765863157 -0.05309391725 0)
(-0.00301938266518 -0.0519013641085 0)
(-0.00327333144002 -0.050601946042 0)
(-0.0035170021702 -0.0491991346008 0)
(-0.00374924189531 -0.0476971556288 0)
(-0.00396701678082 -0.0461011214039 0)
(-0.00416865943172 -0.0444171181943 0)
(-0.00435072846628 -0.0426523460465 0)
(-0.00451118552289 -0.0408151540023 0)
(-0.00464642689566 -0.0389151641477 0)
(-0.00475434697402 -0.0369632263742 0)
(-0.00483162377283 -0.0349714806291 0)
(-0.00487662952743 -0.0329531731237 0)
(-0.0048870112004 -0.0309225781785 0)
(-0.00486237118247 -0.0288946157615 0)
(-0.00480208337833 -0.0268845799124 0)
(-0.00470761597704 -0.024907584046 0)
(-0.00458047086217 -0.0229781675621 0)
(-0.00442407353405 -0.0211097280006 0)
(-0.00424179975523 -0.0193141700614 0)
(-0.00403847834403 -0.0176014923876 0)
(-0.00381853055675 -0.0159796230196 0)
(-0.0035872008876 -0.0144542639648 0)
(-0.00334888728383 -0.0130289911609 0)
(-0.00310828088796 -0.0117053458359 0)
(-0.00286895928865 -0.0104831100591 0)
(-0.00263452388199 -0.00936052122493 0)
(-0.00240740543696 -0.00833458350954 0)
(-0.00218997974434 -0.00740131366327 0)
(-0.00198352247963 -0.00655603000491 0)
(-0.0017893057166 -0.00579357311425 0)
(-0.00160767094403 -0.0051085319251 0)
(-0.00143909247955 -0.00449538345816 0)
(-0.001283305724 -0.00394863245032 0)
(-0.00114029924048 -0.00346287752717 0)
(-0.0010094603391 -0.00303289375447 0)
(-0.000890495733978 -0.00265366190877 0)
(-0.000782604816995 -0.00232042093862 0)
(-0.000685342018762 -0.0020286749109 0)
(-0.000597830477856 -0.00177422174274 0)
(-0.000519573965181 -0.00155313189286 0)
(-0.000449719483166 -0.00136173705395 0)
(-0.000387838945171 -0.00119651264457 0)
(-0.000333299575112 -0.001054011733 0)
(-0.000286615884101 -0.000929936186791 0)
(-0.00024419132773 -0.000808627648991 0)
(-0.000216578520096 -0.000723621619623 0)
(-0.000192769653877 -0.000641618059036 0)
(-0.000168932397524 -0.000580319418456 0)
(-0.0001419549101 -0.000501946381679 0)
(-0.000125815337443 -0.000436427716363 0)
(-0.000129077907603 -0.000398970836514 0)
(-0.000147549527506 -0.000372074899374 0)
(-0.00014757055649 -0.000292541987644 0)
(-0.000165516217501 -0.000241266347803 0)
(-0.000189936660075 -0.000176175630079 0)
(-0.000209790408662 -0.000106570337097 0)
(-0.000198754280098 -3.25102090781e-05 0)
(0.0118780279953 -0.00168382862785 0)
(0.0125079673545 -0.0053943718074 0)
(0.0123892677785 -0.00906896333135 6.77841710674e-28)
(0.0121855030153 -0.01272083878 0)
(0.0119194557035 -0.0162950638742 0)
(0.0115960796294 -0.0197761022382 0)
(0.0112212369441 -0.0231476376491 0)
(0.010801529738 -0.0263954823539 0)
(0.0103438709353 -0.0295076019587 0)
(0.00985519647833 -0.0324741731458 0)
(0.00934217726912 -0.0352875478323 0)
(0.00881109803187 -0.037942114225 0)
(0.00826763645849 -0.0404341293398 0)
(0.00771688822446 -0.0427614826762 0)
(0.00716318370065 -0.0449234805055 0)
(0.00661024999002 -0.0469205872638 0)
(0.00606102927769 -0.0487542204686 0)
(0.00551795868443 -0.0504265148276 0)
(0.00498275161095 -0.0519401586777 0)
(0.00445677525098 -0.053298200968 0)
(0.00394076304304 -0.05450393747 0)
(0.00343527677044 -0.0555607624951 0)
(0.00294033032888 -0.056472100784 0)
(0.00245593071698 -0.0572412981778 0)
(0.00198160381826 -0.0578715896311 0)
(0.00151701508086 -0.0583660200565 0)
(0.00106139683639 -0.0587274397488 0)
(0.00061425114364 -0.0589584496995 0)
(0.0001746828588 -0.0590614182328 0)
(-0.000257812344783 -0.0590384494879 0)
(-0.000684100997423 -0.0588914141336 0)
(-0.0011045386288 -0.058621941852 0)
(-0.00151980163047 -0.0582314787095 0)
(-0.00192993484597 -0.0577213025499 0)
(-0.00233525226342 -0.0570926012261 0)
(-0.00273531771487 -0.0563465206775 0)
(-0.00312990847244 -0.0554842672661 0)
(-0.00351794662648 -0.0545071883078 0)
(-0.0038985185133 -0.0534168952746 0)
(-0.00426978116233 -0.0522153731771 0)
(-0.00463002866857 -0.0509051154941 0)
(-0.00497659818285 -0.0494892520807 0)
(-0.00530696820206 -0.0479716822787 0)
(-0.00561769004127 -0.04635720927 0)
(-0.00590550035594 -0.044651659595 0)
(-0.00616630675972 -0.0428620135503 0)
(-0.00639630285507 -0.0409964991262 0)
(-0.00659105449265 -0.0390647039936 0)
(-0.00674662999323 -0.0370776189274 0)
(-0.00685884994573 -0.0350476842413 0)
(-0.00692445318855 -0.0329887067838 0)
(-0.00694053245401 -0.030915732042 0)
(-0.0069056756846 -0.0288447142718 0)
(-0.00681945945643 -0.0267921220029 0)
(-0.00668336440887 -0.0247743574596 0)
(-0.00650011977969 -0.0228071939843 0)
(-0.00627425863736 -0.0209051624181 0)
(-0.00601128420785 -0.0190810556853 0)
(-0.00571791657176 -0.0173454940241 0)
(-0.00540116319247 -0.015706672537 0)
(-0.00506837338554 -0.0141702536223 0)
(-0.00472638192469 -0.0127394721471 0)
(-0.0043816489956 -0.0114153440412 0)
(-0.0040396543966 -0.010196984748 0)
(-0.00370521532853 -0.00908191676292 0)
(-0.0033820615049 -0.00806640065536 0)
(-0.00307321478439 -0.00714573885792 0)
(-0.00278067854708 -0.00631458145289 0)
(-0.00250587169909 -0.00556719616039 0)
(-0.00224942500314 -0.00489769392636 0)
(-0.00201164475242 -0.00430018554175 0)
(-0.00179231693648 -0.00376889085442 0)
(-0.00159111192058 -0.00329819928571 0)
(-0.00140734625387 -0.00288272324362 0)
(-0.00124033102391 -0.00251732892319 0)
(-0.00108912381356 -0.00219717018117 0)
(-0.000952847117967 -0.0019177043093 0)
(-0.000830451912464 -0.00167471027172 0)
(-0.00072102160543 -0.00146428601043 0)
(-0.000623567408394 -0.00128284885298 0)
(-0.00053734896782 -0.00112709558126 0)
(-0.000461807474021 -0.00099447671821 0)
(-0.000397763087922 -0.000876739151796 0)
(-0.000345749224899 -0.00077803272036 0)
(-0.000302554483353 -0.000689295020237 0)
(-0.000268625370028 -0.000612122813864 0)
(-0.000236448662648 -0.000540181489367 0)
(-0.00020459002132 -0.000462897415652 0)
(-0.000189883007069 -0.000413095237458 0)
(-0.000177961240421 -0.000347392514206 0)
(-0.000186658720558 -0.000296012801778 0)
(-0.000218013738143 -0.00026461025485 0)
(-0.000222161972595 -0.000189563972799 0)
(-0.000247133947708 -0.000132416627877 0)
(-0.000273969876817 -8.1786249261e-05 0)
(-0.000268114689757 -2.68326947269e-05 0)
(0.0154313512491 -0.00172499135674 0)
(0.0162624655719 -0.00551878121292 0)
(0.016106413447 -0.00926811687722 0)
(0.0158361479833 -0.0129933589607 0)
(0.0154831838716 -0.0166362255571 0)
(0.0150550112253 -0.0201797627862 0)
(0.0145597367482 -0.0236065537443 0)
(0.014006286312 -0.0269018208491 0)
(0.0134039541738 -0.0300533418902 0)
(0.0127620083752 -0.0330514333481 0)
(0.0120893501521 -0.0358888364151 0)
(0.0113942810283 -0.0385605221707 0)
(0.010684299643 -0.0410634528694 0)
(0.00996602554099 -0.0433963042709 0)
(0.00924510879351 -0.0455591884189 0)
(0.00852628135291 -0.0475533728454 0)
(0.00781333527641 -0.0493810294109 0)
(0.00710925978063 -0.0510449971921 0)
(0.00641624091039 -0.0525485873187 0)
(0.00573584682749 -0.0538954046052 0)
(0.00506901307544 -0.0550892122649 0)
(0.00441625182599 -0.056133808289 0)
(0.00377760212263 -0.0570329401825 0)
(0.00315285265472 -0.0577902235856 0)
(0.00254144995715 -0.0584090939104 0)
(0.00194273406026 -0.0588927552387 0)
(0.0013558061121 -0.0592441574135 0)
(0.000779781563837 -0.0594659663754 0)
(0.000213623607909 -0.0595605603599 0)
(-0.000343580482343 -0.0595300211943 0)
(-0.000892811783429 -0.0593761410614 0)
(-0.00143481401342 -0.0591004351866 0)
(-0.00197030765152 -0.0587041775688 0)
(-0.00249965586222 -0.0581884333313 0)
(-0.00302309536989 -0.0575541190441 0)
(-0.00354037970572 -0.0568020672919 0)
(-0.00405102976192 -0.0559331177142 0)
(-0.00455396651153 -0.0549482156197 0)
(-0.00504778745298 -0.0538485319786 0)
(-0.00553040520225 -0.052635590978 0)
(-0.00599935586418 -0.051311410805 0)
(-0.00645145819836 -0.0498786475597 0)
(-0.00688315416789 -0.0483407415902 0)
(-0.00729019894088 -0.0467020635564 0)
(-0.00766802746923 -0.0449680564737 0)
(-0.00801148528263 -0.043145377628 0)
(-0.00831522477051 -0.0412420348646 0)
(-0.00857351309786 -0.0392675254265 0)
(-0.00878070368418 -0.0372329546078 0)
(-0.00893120720209 -0.0351511334004 0)
(-0.00902011625115 -0.0330365809594 0)
(-0.00904339300851 -0.0309054212988 0)
(-0.00899860016373 -0.0287750590575 0)
(-0.00888510402048 -0.0266636815819 0)
(-0.00870458349803 -0.0245895557621 0)
(-0.00846087987329 -0.0225702740282 0)
(-0.00816004780622 -0.0206220086064 0)
(-0.00780985021127 -0.0187588517002 0)
(-0.00741947144299 -0.0169923067205 0)
(-0.00699876249697 -0.015330931292 0)
(-0.00655772121562 -0.0137802550639 0)
(-0.00610576533468 -0.0123429649899 0)
(-0.00565144540358 -0.0110192474471 0)
(-0.00520210531829 -0.00980724148448 0)
(-0.00476393712163 -0.00870343437749 0)
(-0.00434184151428 -0.00770303481402 0)
(-0.00393955876337 -0.00680033305578 0)
(-0.00355961633177 -0.0059890442433 0)
(-0.00320356705813 -0.00526263612623 0)
(-0.00287209035872 -0.00461458475633 0)
(-0.00256530626998 -0.0040385221373 0)
(-0.00228285765209 -0.00352831680785 0)
(-0.00202412500033 -0.00307809769409 0)
(-0.00178820675365 -0.00268228032456 0)
(-0.00157406775393 -0.0023355862388 0)
(-0.00138049654473 -0.002033065559 0)
(-0.00120623385977 -0.00177011551463 0)
(-0.00104993251083 -0.00154249472309 0)
(-0.000910285231942 -0.00134633366101 0)
(-0.000786003943109 -0.0011781397034 0)
(-0.000675967454763 -0.00103480760875 0)
(-0.000579462557959 -0.00091413112689 0)
(-0.000495055240035 -0.000803451727683 0)
(-0.000435462726888 -0.000721153468958 0)
(-0.000388088705124 -0.000644544887116 0)
(-0.000349491009686 -0.000573425789196 0)
(-0.000317347823402 -0.000506228784259 0)
(-0.000279542688602 -0.000431962761611 0)
(-0.000242597319145 -0.000349166681836 0)
(-0.000235771722192 -0.000297511838207 0)
(-0.000231867869752 -0.000234993297732 0)
(-0.000262058727207 -0.000202545170087 0)
(-0.000297037687621 -0.000160653355908 0)
(-0.000299389902525 -0.000100327982511 0)
(-0.000312527138752 -5.86045357879e-05 0)
(-0.000307100646651 -1.96385925515e-05 0)
(0.0190775865434 -0.00177470756329 0)
(0.0201071645053 -0.00567464183007 0)
(0.0199102459288 -0.00952404562273 0)
(0.019568439092 -0.013344954642 0)
(0.019121906132 -0.0170762535186 0)
(0.0185809547172 -0.0206995823008 0)
(0.0179564179842 -0.0241963998089 0)
(0.0172600111699 -0.0275513069797 0)
(0.0165038073484 -0.0307519265246 0)
(0.015699738956 -0.0337888281322 0)
(0.014859181926 -0.036655330229 0)
(0.0139926435539 -0.0393472236319 0)
(0.0131095407289 -0.0418624473245 0)
(0.0122180845348 -0.0442007393728 0)
(0.0113252258056 -0.0463632936603 0)
(0.0104366892503 -0.0483524326454 0)
(0.00955702433513 -0.0501713165734 0)
(0.0086897248258 -0.0518236861916 0)
(0.0078373223293 -0.0533136508709 0)
(0.00700153747868 -0.0546455100878 0)
(0.00618337149174 -0.0558236155954 0)
(0.00538325662439 -0.0568522582327 0)
(0.00460112312515 -0.057735586216 0)
(0.00383653622403 -0.0584775379013 0)
(0.00308873272241 -0.0590817968892 0)
(0.00235674519248 -0.0595517534928 0)
(0.0016394127146 -0.059890482589 0)
(0.000935499551781 -0.0601007231285 0)
(0.00024368904737 -0.0601848708978 0)
(-0.000437294351742 -0.0601449752032 0)
(-0.00110869641247 -0.059982737182 0)
(-0.00177159795754 -0.0596995263845 0)
(-0.00242692822737 -0.0592964081363 0)
(-0.00307531347389 -0.0587741765248 0)
(-0.00371708776836 -0.0581334097815 0)
(-0.00435213024274 -0.0573745380288 0)
(-0.00497988074284 -0.0564979350796 0)
(-0.00559917782141 -0.0555040248198 0)
(-0.00620829268094 -0.0543934104439 0)
(-0.00680478572847 -0.0531670155219 0)
(-0.00738557360242 -0.0518262397019 0)
(-0.00794681850295 -0.0503731187377 0)
(-0.00848403483799 -0.0488104884338 0)
(-0.00899201357168 -0.0471421449311 0)
(-0.00946496102418 -0.0453730051985 0)
(-0.00989645304358 -0.0435092669669 0)
(-0.0102796036632 -0.041558579922 0)
(-0.0106070824477 -0.0395302327864 0)
(-0.0108713842364 -0.0374353598707 0)
(-0.0110650479535 -0.0352871406832 0)
(-0.0111811905333 -0.0331009336174 0)
(-0.0112140719577 -0.0308942542561 0)
(-0.0111598986226 -0.0286864610286 0)
(-0.0110174708638 -0.0264981386317 0)
(-0.0107886748743 -0.0243501642977 0)
(-0.0104785313209 -0.0222626870962 0)
(-0.0100950041736 -0.0202541594962 0)
(-0.00964850440929 -0.0183405041113 0)
(-0.00915133650834 -0.016534429248 0)
(-0.00861678268329 -0.0148449435006 0)
(-0.00805812213506 -0.013277276045 0)
(-0.00748771304839 -0.0118332143934 0)
(-0.00691646427361 -0.0105117006449 0)
(-0.00635361357743 -0.00930949171579 0)
(-0.00580679276076 -0.0082216669016 0)
(-0.00528201453955 -0.00724203498701 0)
(-0.0047837184085 -0.00636352518389 0)
(-0.00431478791376 -0.00557860011359 0)
(-0.00387676132336 -0.00487967948007 0)
(-0.00347011752655 -0.00425944142904 0)
(-0.00309465476229 -0.00371096020484 0)
(-0.00274971131635 -0.0032277161078 0)
(-0.00243433363206 -0.00280355414227 0)
(-0.00214730827474 -0.00243267107131 0)
(-0.0018872402373 -0.00210962316936 0)
(-0.00165257149619 -0.00182934019165 0)
(-0.00144165018966 -0.00158714369661 0)
(-0.0012527516236 -0.00137876463677 0)
(-0.00108414839612 -0.00120036001923 0)
(-0.000934149071428 -0.00104853225644 0)
(-0.000801199548867 -0.000920527341691 0)
(-0.000684578081265 -0.00081280268903 0)
(-0.000584002562133 -0.000714125475637 0)
(-0.000513169407694 -0.000636457659665 0)
(-0.00045888072029 -0.000562615136489 0)
(-0.000417206653316 -0.000498569791081 0)
(-0.00037047441584 -0.000424568876464 0)
(-0.000343709917172 -0.000371594227699 0)
(-0.000323029525515 -0.000314398467376 0)
(-0.000311961493473 -0.00025961962295 0)
(-0.000281320799823 -0.000186239248671 0)
(-0.000290616711788 -0.000140429542194 0)
(-0.000336030488946 -0.000117230232025 0)
(-0.000347894835621 -7.96063822426e-05 0)
(-0.000347480832457 -4.40979872568e-05 0)
(-0.000343029988025 -1.47412754844e-05 0)
(0.0228381332724 -0.00183552742563 0)
(0.0240680879153 -0.00586720537245 0)
(0.023824903574 -0.00984238694933 6.73027501135e-28)
(0.0234040820442 -0.0137827701832 0)
(0.0228547154902 -0.017623744229 0)
(0.0221902919383 -0.0213452539406 0)
(0.02142489145 -0.0249274991895 0)
(0.020573560264 -0.0283544331285 0)
(0.019651641028 -0.0316136154897 0)
(0.0186741441015 -0.0346960598831 0)
(0.0176552319638 -0.0375959326548 0)
(0.0166078387111 -0.0403101639482 0)
(0.0155434205267 -0.042838012209 0)
(0.0144718323072 -0.0451806192873 0)
(0.0134013017272 -0.0473405836047 0)
(0.0123384893238 -0.0493215740543 0)
(0.0112885963202 -0.051127993446 0)
(0.010255516534 -0.0527646987201 0)
(0.00924199302904 -0.0542367741359 0)
(0.00824979086144 -0.0555493548989 0)
(0.00727984711438 -0.0567074926103 0)
(0.00633242545803 -0.0577160562493 0)
(0.00540723477675 -0.0585796603038 0)
(0.0045035532921 -0.0593026138716 0)
(0.00362031271343 -0.0598888850041 0)
(0.00275619569061 -0.0603420755472 0)
(0.00190969375017 -0.0606654036157 0)
(0.00107918947048 -0.0608616908918 0)
(0.000263001360727 -0.0609333544518 0)
(-0.000540536935277 -0.0608824064575 0)
(-0.00133302856059 -0.0607104437548 0)
(-0.00211592380427 -0.0604186656541 0)
(-0.00289046486063 -0.0600078912403 0)
(-0.00365757853856 -0.0594785905076 0)
(-0.00441780825914 -0.0588309328647 0)
(-0.00517119462046 -0.0580648567233 0)
(-0.00591720423185 -0.0571801611037 0)
(-0.00665461354605 -0.056176622649 0)
(-0.00738145447333 -0.055054134217 0)
(-0.00809492497971 -0.0538128654745 0)
(-0.00879137477157 -0.0524534364428 0)
(-0.00946626221841 -0.0509771009309 0)
(-0.0101141906476 -0.0493859281019 0)
(-0.0107289091754 -0.047682980537 0)
(-0.0113033806124 -0.0458724861569 0)
(-0.0118297963132 -0.0439600099698 0)
(-0.0122996518719 -0.0419526535682 0)
(-0.0127037923452 -0.0398592950269 0)
(-0.013032584091 -0.037690909031 0)
(-0.0132761992136 -0.0354609286832 0)
(-0.0134251904242 -0.0331855941757 0)
(-0.0134713699296 -0.0308841189788 0)
(-0.0134089515466 -0.0285784480869 0)
(-0.0132356995035 -0.0262924486063 0)
(-0.0129536389043 -0.0240506077432 0)
(-0.0125691698946 -0.0218765956555 0)
(-0.0120926108443 -0.0197919748807 0)
(-0.0115376287898 -0.0178151780703 0)
(-0.0109205303563 -0.0159605799109 0)
(-0.0102589916047 -0.0142377126761 0)
(-0.00957045342407 -0.0126511819495 0)
(-0.00887074286016 -0.0112013044021 0)
(-0.00817334107691 -0.00988514591166 0)
(-0.00748936454273 -0.00869756849881 0)
(-0.00682786797595 -0.00763183438797 0)
(-0.00619594598986 -0.0066799599036 0)
(-0.00559869801153 -0.00583310617691 0)
(-0.00503917656612 -0.00508208711932 0)
(-0.00451862388336 -0.0044179658332 0)
(-0.00403698338297 -0.00383247835786 0)
(-0.00359348367222 -0.00331811612661 0)
(-0.00318700370177 -0.00286799589537 0)
(-0.00281619180835 -0.00247569486899 0)
(-0.00247945910153 -0.00213518713904 0)
(-0.00217501424247 -0.00184084966153 0)
(-0.00190089908142 -0.00158747568864 0)
(-0.00165503379756 -0.00137029579861 0)
(-0.00143525691398 -0.00118499306218 0)
(-0.00123936770708 -0.00102773101755 0)
(-0.00106516013029 -0.000895184588157 0)
(-0.00091046419532 -0.000785043878945 0)
(-0.000774005464589 -0.000691160381614 0)
(-0.000670750089011 -0.000613982637125 0)
(-0.000595307234123 -0.00054543257899 0)
(-0.000530413593494 -0.000475820027828 0)
(-0.000481647995734 -0.000416452513764 0)
(-0.00043623159538 -0.000357881648611 0)
(-0.000395411465242 -0.000297408938702 0)
(-0.000378863492786 -0.000249628163274 0)
(-0.000354905335688 -0.000193817962656 0)
(-0.000352183258504 -0.000152921956989 0)
(-0.0003303962233 -9.99947458862e-05 0)
(-0.000346117392315 -7.3209423789e-05 0)
(-0.000377486843709 -5.63512483911e-05 0)
(-0.0003731509512 -3.13253262259e-05 0)
(-0.000369183621023 -1.04868630938e-05 0)
(0.0267383080431 -0.00190943384981 0)
(0.0281726898703 -0.00610172475279 0)
(0.027876345468 -0.010230600915 -6.72921712211e-28)
(0.0273666119038 -0.0143164247956 0)
(0.0267022078628 -0.0182900839694 0)
(0.0259004126016 -0.0221294090168 0)
(0.0249792472473 -0.0258131326333 0)
(0.023957779814 -0.0293245580738 0)
(0.0228552443225 -0.0326513428909 0)
(0.0216902397421 -0.0357852369334 0)
(0.0204800959729 -0.0387216349129 0)
(0.0192404243098 -0.0414590339378 0)
(0.0179848483077 -0.0439984521975 0)
(0.0167248955829 -0.0463428562972 0)
(0.0154700167025 -0.0484966344586 0)
(0.0142277025466 -0.0504651356004 0)
(0.0130036600629 -0.0522542866918 0)
(0.0118020264605 -0.0538702866339 0)
(0.010625588901 -0.055319373572 0)
(0.0094760043146 -0.0566076529595 0)
(0.00835399626573 -0.0577409779478 0)
(0.00725953628397 -0.0587248675616 0)
(0.00619199349199 -0.0595644554582 0)
(0.00515026823167 -0.0602644571448 0)
(0.00413289626129 -0.0608291518259 0)
(0.00313814392156 -0.0612623700077 0)
(0.00216408084308 -0.0615674866191 0)
(0.00120865333403 -0.0617474136098 0)
(0.000269743617594 -0.061804594332 0)
(-0.00065476169734 -0.0617410015658 0)
(-0.00156690325371 -0.0615581196518 0)
(-0.00246856788119 -0.0612569578633 0)
(-0.0033614060318 -0.0608380575972 0)
(-0.00424672488679 -0.0603015141324 0)
(-0.00512538355252 -0.0596470195414 0)
(-0.00599766724699 -0.0588739270679 0)
(-0.00686317168485 -0.0579813463819 0)
(-0.00772067802628 -0.0569682667523 0)
(-0.00856805391384 -0.0558337128613 0)
(-0.00940216250335 -0.0545769260772 0)
(-0.0102188156683 -0.0531975664755 0)
(-0.0110127469026 -0.0516959234417 0)
(-0.0117776357836 -0.0500731235148 0)
(-0.0125061370147 -0.0483313223949 0)
(-0.013189940061 -0.046473879253 0)
(-0.0138197840616 -0.0445055246462 0)
(-0.0143854784641 -0.0424325619804 0)
(-0.0148758673127 -0.0402631507802 0)
(-0.0152788805386 -0.0380077524284 0)
(-0.0155817400459 -0.0356797328279 0)
(-0.0157715893735 -0.0332960905032 0)
(-0.0158366769308 -0.0308780020608 0)
(-0.0157681411238 -0.0284507779682 0)
(-0.0155620365421 -0.0260428141641 0)
(-0.0152203755407 -0.0236836237988 0)
(-0.0147513561217 -0.021401649138 0)
(-0.0141681960361 -0.0192226095545 0)
(-0.0134885848416 -0.0171684159042 0)
(-0.0127341125221 -0.0152557853415 0)
(-0.0119283556722 -0.0134948608653 0)
(-0.0110942594041 -0.0118890225254 0)
(-0.0102518261566 -0.0104360981686 0)
(-0.00941714438987 -0.00913031929248 0)
(-0.0086029983612 -0.00796401634081 0)
(-0.00781972003259 -0.00692824674942 0)
(-0.00707552800071 -0.00601286401024 0)
(-0.00637619358378 -0.00520675515901 0)
(-0.00572472781572 -0.00449852567552 0)
(-0.00512160923557 -0.00387748616479 0)
(-0.00456569895594 -0.00333430119624 0)
(-0.00405528235201 -0.0028609805633 0)