/*--------------------------------*- C++ -*----------------------------------*\
| =========                 |                                                 |
| \\      /  F ield         | OpenFOAM: The Open Source CFD Toolbox           |
|  \\    /   O peration     | Version:  v1906                                 |
|   \\  /    A nd           | Web:      www.OpenFOAM.com                      |
|    \\/     M anipulation  |                                                 |
\*---------------------------------------------------------------------------*/
FoamFile
{
    version     2.0;
    format      ascii;
    class       volScalarField;
    location    "870";
    object      pa;
}
// * * * * * * * * * * * * * * * * * * * * * * * * * * * * * * * * * * * * * //

dimensions      [0 2 -2 0 0 0 0];


internalField   nonuniform List<scalar> 
9216
(
915.080270199
914.774830475
914.142955468
913.179155934
911.88884355
910.278078547
908.354409326
906.126744864
903.605222764
900.801075525
897.726498461
894.394510822
890.818821191
887.013690009
882.993801316
878.774135226
874.369853292
869.796186916
865.068340698
860.201399772
855.210252611
850.109517688
844.913484958
839.636060406
834.290724075
828.89049014
823.447878844
817.974889614
812.482984393
806.983071548
801.485498166
796.000044788
790.53592527
785.101785094
779.70570881
774.355227498
769.057329676
763.818473008
758.6445991
753.541149217
748.513081728
743.564890834
738.700625743
733.923911544
729.237969316
724.645638355
720.14939649
715.751382922
711.453418095
707.257026467
703.163455335
699.173696928
695.288505692
691.508419189
687.833773463
684.264722353
680.801250714
677.44319191
674.190238823
671.041959451
667.99780581
665.057127719
662.219179826
659.483133795
656.848083809
654.313057446
651.877020059
649.538884681
647.297515684
645.151738043
643.100340644
641.142085173
639.275709383
637.499935801
635.81347516
634.215035034
632.703323547
631.277057951
629.934968628
628.675807545
627.498352499
626.401415303
625.383846147
624.444541336
623.582447565
622.796568947
622.085970884
621.449785879
620.887216157
620.397536504
619.980091608
619.634286928
619.359556265
619.155247288
619.019345285
618.960344155
915.384727513
915.077559425
914.444035138
913.475877547
912.179358527
910.56082338
908.627988701
906.389907299
903.856857801
901.040216936
897.952325701
894.606349998
891.016141943
887.196101827
883.161046022
878.926079743
874.506479266
869.917581537
865.174685065
860.29295922
855.287365145
850.17258489
844.96296138
839.672445658
834.314553596
828.902328645
823.448312545
817.964520941
812.462425581
806.952940581
801.446414308
795.952623178
790.480771601
785.039495378
779.636866431
774.280400645
768.977068662
763.733308818
758.555041605
753.447686221
748.416177866
743.464986993
738.598138558
733.819233126
729.131467275
724.537655778
720.040252438
715.641372614
711.34281382
707.146077928
703.052390915
699.062724152
695.177812772
691.398175545
687.724131465
684.155817841
680.693204845
677.336111615
674.084218673
670.937081988
667.894143349
664.954742513
662.118125738
659.383456269
656.749821372
654.216241477
651.7816761
649.445032022
647.205168488
645.060904776
643.011025033
641.054285531
639.189419426
637.415143919
635.730165137
634.133185312
632.622907878
631.198044709
629.857321425
628.599484632
627.423307365
626.327596205
625.311196717
624.373000274
623.511949305
622.727043604
622.017345164
621.381983732
620.820161035
620.33115562
619.9143275
619.569126844
619.295113987
619.092035953
618.96019623
618.901294024
916.01808868
915.706191576
915.066904553
914.090041877
912.78197454
911.149184764
909.199583467
906.942443878
904.388282361
901.548725305
898.436369331
895.064637498
891.447635142
887.600008397
883.536807793
879.273359024
874.825142266
870.207681284
865.436442763
860.526746372
855.493685163
850.352056342
845.11630137
839.800455249
834.418103608
828.982347504
823.505774463
818.000435944
812.477829717
806.948887684
801.423967622
795.912849142
790.424733559
784.968247299
779.551447387
774.181830616
768.866344298
763.611400038
758.42288836
753.306195952
748.266223193
743.307403937
738.433725063
733.648747971
728.955629361
724.357143673
719.855704373
715.453386614
711.151948349
706.952852542
702.857287483
698.866187947
694.980254155
691.199971388
687.525627163
683.957328923
680.495019163
677.13849099
673.887401094
670.741283156
667.699558734
664.761548668
661.926482108
659.193506186
656.561693536
654.030050598
651.597524028
649.263008042
647.025350112
644.883357741
642.835803813
640.881433108
639.018967602
637.247112951
635.564563929
633.970011012
632.462146038
631.039668923
629.701293529
628.445754462
627.271813053
626.17826411
625.163941873
624.227726548
623.368550058
622.585402177
621.877335923
621.243473206
620.68300993
620.195221638
619.779469797
619.435210875
619.162011314
618.959586134
618.828085349
618.765488678
916.991784159
916.674440881
916.026149263
915.035687306
913.709621269
912.05466516
910.079024447
907.792310145
905.205407124
902.3303303
899.180075194
895.768465539
892.11000129
888.219710561
884.113007594
879.805559285
875.31316125
870.651625008
865.836676237
860.883864866
855.808486101
850.62551255
845.349535957
839.994718459
834.574751601
829.102823116
823.591589731
818.053156276
812.499059517
806.940257252
801.387121202
795.849434395
790.336392068
784.856605141
779.418107263
774.028364843
768.694288681
763.422248364
758.218087768
753.087142815
748.034259829
743.063815726
738.179738369
733.385528374
728.684280691
724.078707277
719.571159172
715.163649336
710.85787453
706.655237624
702.556868645
698.563645942
694.676215813
690.895012009
687.220273482
683.652061845
680.190276949
676.834672088
673.584867301
670.440362303
667.400547609
664.464715351
661.632068469
658.901729748
656.272749434
653.744112896
651.314747117
648.983527411
646.749283228
644.610804343
642.56684636
640.616136718
638.757380188
636.989264949
635.310468261
633.719662742
632.215522303
630.796728638
629.461977407
628.209984878
627.039494242
625.949282272
624.938165619
624.005007312
623.148722851
622.36828638
621.662736441
621.031181762
620.472806748
619.986877224
619.572746501
619.229862228
618.957774527
618.75614978
618.625038582
618.56177594
918.309849371
917.985500964
917.324900968
916.315814864
914.965108291
913.279832805
911.268603853
908.941499566
906.309913826
903.386397649
900.184496255
896.718584372
893.003703473
889.055404439
884.889598018
880.52241544
875.970080357
871.248793367
866.374629207
861.363446924
856.230812175
850.991931287
845.661595614
840.254135505
834.783382278
829.262637607
823.704648931
818.121590649
812.525050024
806.926017861
801.334883087
795.761431531
790.214848524
784.703722717
779.236055064
773.819269804
768.460227373
763.165239647
757.940086614
752.79003484
747.71985689
742.733852126
737.835868044
733.029322611
728.317226782
723.702207648
719.186531405
714.772126612
710.460606919
706.253293728
702.151238007
698.155241712
694.265878067
690.483511192
686.808314356
683.240287402
679.779272657
676.42496993
673.176949982
670.034667087
666.997470164
664.06461311
661.235263878
658.508512946
655.883380763
653.358824815
650.933745926
648.606994411
646.377375722
644.243656138
642.204568175
640.258816193
638.405081881
636.642030038
634.968314331
633.382583379
631.883486849
630.469681865
629.139839398
627.892650917
626.726834953
625.641143826
624.634370221
623.705353787
622.852987528
622.076224103
621.374081859
620.745650724
620.19009785
619.706673152
619.294714694
618.953653563
618.683017846
618.48243765
618.351917743
618.288698131
919.978933973
919.645722976
918.969357697
917.936378186
916.554060307
914.829910525
912.773085565
910.394275511
907.705538244
904.720121875
901.452284207
897.917112016
894.130344294
890.108203001
885.867233958
881.424160068
876.79574816
871.998690436
867.049500601
861.964424555
856.759364714
851.449816996
846.050818888
840.576907268
835.042084341
829.459790563
823.842883349
818.203620968
812.553650915
806.904002601
801.265083911
795.64668168
790.057966221
784.507495896
779.003228409
773.552532986
768.162204786
762.838481363
757.587060639
752.413120421
747.321338984
742.315916779
737.40059883
732.578697907
727.853118027
723.226378385
718.700637268
714.277716033
709.959122721
705.746075371
701.639524617
697.640175644
693.748509106
689.964801122
686.289141978
682.721453698
679.261506194
675.908932186
672.663240672
669.523829216
666.489994877
663.560944094
660.735801424
658.013617452
655.393375819
652.87399969
650.454357628
648.133269185
645.909510164
643.781817838
641.748896069
639.809420565
637.962044193
636.205402545
634.538119649
632.958813968
631.466104569
630.05861755
628.734992605
627.49388978
626.333996276
625.254033347
624.252763141
623.328995519
622.481594711
621.709485833
621.011661155
620.387186141
619.835205164
619.3549469
618.945729259
618.606963252
618.33815561
618.138912442
618.009216867
617.946349491
922.00748044
921.663348208
920.967520811
919.905031842
918.483684799
916.711570896
914.598536783
912.156048032
909.397000006
906.335516349
902.986746184
899.366663321
895.491872072
891.379423388
887.046644074
882.510981204
877.78986301
872.900576995
867.860165242
862.685336375
857.392392979
851.997172892
846.515002413
840.960659442
835.348344602
829.691658781
824.003585848
818.296479839
812.582056114
806.871386373
801.174897501
795.502373949
789.862964164
784.26518675
778.716944125
773.225536261
767.797676841
762.439511246
757.156636041
751.954119786
746.836524939
741.807930706
736.87195663
732.031786812
727.290194542
722.649567224
718.111931368
713.678977525
709.352084911
705.132345595
701.020588
697.017399595
693.12314854
689.338004205
685.661956364
682.094833028
678.636316798
675.285959761
672.043196888
668.907358019
665.877678469
662.953308404
660.133321066
657.416720039
654.802445672
652.289380861
649.876356308
647.562155469
645.345519273
643.225150808
641.199720027
639.267868618
637.428215071
635.679360018
634.019891863
632.448392716
630.963444625
629.563636083
628.24756877
627.013864488
625.861172231
624.788175331
623.793598606
622.87621546
622.034854846
621.268408064
620.575835284
619.956171788
619.408533817
618.932123966
618.526235982
618.190258438
617.923677256
617.726080105
617.597436105
617.535104162
924.405880791
924.048567962
923.329275487
922.231213194
920.762844784
918.93299481
916.752370826
914.233401117
911.390015431
908.237413393
904.791834084
901.070330667
897.090555133
892.870557
888.428598787
883.782990252
878.951942626
873.953443351
868.805151106
863.524310181
858.12768253
852.631495267
847.051400948
841.402447914
835.699058148
829.955010639
824.183428867
818.396771734
812.606827711
806.824712284
801.060869574
795.32507609
789.626449559
783.973457733
778.373933873
772.835092758
767.363548821
761.96533597
756.645928754
751.410264736
746.262767833
741.207372526
736.247548762
731.386327433
726.626326258
721.969775926
717.41854631
712.97417258
708.637880993
704.410614187
700.293055724
696.285653729
692.388643378
688.602068103
684.925799335
681.359554705
677.902914594
674.555337035
671.316170951
668.184667813
665.159991777
662.24122846
659.427392474
656.717433931
654.110244059
651.604660171
649.199470126
646.893416511
644.685200668
642.573486753
640.556905917
638.634060738
636.803529966
635.063873636
633.413638575
631.851364309
630.375589355
628.98485786
627.677726551
626.452771928
625.308597634
624.243841937
623.257185233
622.347357504
621.513145652
620.753400628
620.067044284
619.453075885
618.910578176
618.438722945
618.036775945
617.704100716
617.440161569
617.244528936
617.117157979
617.05550012
927.186656571
926.813669774
926.066527963
924.926266383
923.402164905
921.503956302
919.243409354
916.63413255
913.691316381
910.43146423
906.872128142
903.031653927
898.928940993
894.583220755
890.013856352
885.240165469
880.281267371
875.155954472
869.882587994
864.479016366
858.962514097
853.349738037
847.656697403
841.89873377
836.090507654
830.245989051
824.378450422
818.500461604
812.6238869
806.75988487
800.918912501
795.110730884
789.34441623
783.628371786
777.970345756
772.377449806
766.856179529
761.412436349
756.051550611
750.778305661
745.596962799
740.511286983
735.524573191
730.639673306
725.859023419
721.184671361
716.618304328
712.161276371
707.814635563
703.579150597
699.455336594
695.443479868
691.543661433
687.755779045
684.079567606
680.5146178
677.060392874
673.716243531
670.481420966
667.35508809
664.336329087
661.424157425
658.617522544
655.915315394
653.316373076
650.819482792
648.42338534
646.126778355
643.928319505
641.826629791
639.820297103
637.907880141
636.087912785
634.358908952
632.719367977
631.167780509
629.702634886
628.322423968
627.02565234
625.810843834
624.676549271
623.621354355
622.643887612
621.742828281
620.916914088
620.164948795
619.485809444
618.878453221
618.341923854
617.875357442
617.477987664
617.149149981
616.888285046
616.694944694
616.569067706
616.508207836
930.364668684
929.973229456
929.193381808
928.003597582
926.414160934
924.435923305
922.081953326
919.367295795
916.308665072
912.924129542
909.232806556
905.254572686
901.009794748
896.519085172
891.803084071
886.882269561
881.776797231
876.506368996
871.090130716
865.546596839
859.89359909
854.148255047
848.32695154
842.445337618
836.518322369
830.560074194
824.584019832
818.6028431
812.628484396
806.672142344
800.744280137
794.854633657
789.012223965
783.225373709
777.501727644
771.84827411
766.271368153
760.776755812
755.369599291
750.054502905
744.835539743
739.716278991
734.699813856
729.788790013
724.985434459
720.291584633
715.708717622
711.237979265
706.880212905
702.635987549
698.505625149
694.489226743
690.586697166
686.797768115
683.122019331
679.558897762
676.107734604
672.767760177
669.538116671
666.417868845
663.406012829
660.501483213
657.703158651
655.009866241
652.420384939
649.933448287
647.547746719
645.261929687
643.074607835
640.984355419
638.989713115
637.089191359
635.281274281
633.564424289
631.93708733
630.397698787
628.944690002
627.576495341
626.291559736
625.08834661
623.965346088
622.921083383
621.954127258
621.063098457
620.246677991
619.503615197
618.832735456
618.232947503
617.703250218
617.242738849
616.850610588
616.526169137
616.268828622
616.078119958
615.953962151
615.894020869
933.957372465
933.544349876
932.726355488
931.478863448
929.813393735
927.742174163
925.279861707
922.443242571
919.25086366
915.722660083
911.87960152
907.743362186
903.336019375
898.679783323
893.796760047
888.708748213
883.437070825
878.002442016
872.42486834
866.723582606
860.917006478
855.022736222
849.057544591
843.037391295
836.977435383
830.892044935
824.794802292
818.698505705
812.615169945
806.556028696
800.531542339
794.551408986
788.624577908
782.759272026
776.96301136
771.242638034
765.604342485
760.053690357
754.595649902
749.234619865
743.974457911
738.818509623
733.769638086
728.830253997
724.002346225
719.28751268
714.686991321
710.201691087
705.832222507
701.578927674
697.441909296
693.421058459
689.516080804
685.7265208
682.051783872
678.49115619
675.043822002
671.708878462
668.485348013
665.372188405
662.368300568
659.472534534
656.68369373
654.000537911
651.421785094
648.946112795
646.572158897
644.298522438
642.123764579
640.046409979
638.06494874
636.177839072
634.383510753
632.680369424
631.066801729
629.541181276
628.101875343
626.747252272
625.475689426
624.285581625
623.175349918
622.143450577
621.188384195
620.308704737
619.50302846
618.770042565
618.108513484
617.517294709
616.99533408
616.54168044
616.155489637
615.836029557
615.582684347
615.394960951
615.272755328
615.213854818
937.985132343
937.546956953
936.684649771
935.370199493
933.616651772
931.437931542
928.85063739
925.873664017
922.527755488
918.835063624
914.818737655
910.502548873
905.910553719
901.066796378
895.995051197
890.718605345
885.260082466
879.641308064
873.883216509
868.005797794
862.028079531
855.96813671
849.843119274
843.66928652
837.462038479
831.235937827
825.004720623
818.781298616
812.577758278
806.405361974
800.274555966
794.194984767
788.175505625
782.224218955
776.348495292
770.555004607
764.849746029
759.238077559
753.724745726
748.313915384
743.009199865
737.813691664
732.729993713
727.760251262
722.906184261
718.169120167
713.550026954
709.049546141
704.668025532
700.405551345
696.261979336
692.236964533
688.329989145
684.54038832
680.867373388
677.310052409
673.867447822
670.53851121
667.322135182
664.21716256
661.222393063
658.336587813
655.558471979
652.886735971
650.320035547
647.856991258
645.496187581
643.236172117
641.075455123
639.01250967
637.045772596
635.173646409
633.394502222
631.70668376
630.108512413
628.598293305
627.174322275
625.834893685
624.578308917
623.402885425
622.306966204
621.288929516
620.347198731
619.480252143
618.686632613
617.964956933
617.313924767
616.732327097
616.21905406
615.773102129
615.393580569
615.079716874
614.830861391
614.646493965
614.526483956
614.468750166
942.471612396
942.004165172
941.090474967
939.69849449
937.843164737
935.54051294
932.809517082
929.671625605
926.150212369
922.270052403
918.056847139
913.536800073
908.736242989
903.681310737
898.39766271
892.910250548
887.24313316
881.419340947
875.460790543
869.38824904
863.221342719
856.978600427
850.677517367
844.334622796
837.96553657
831.585005018
825.206914874
818.844291486
812.509291334
806.213198697
799.966432672
793.778563488
787.658331991
781.613688702
775.65182576
769.77921152
764.001624276
758.324184836
752.751388293
747.287135528
741.934764943
736.697084744
731.576405928
726.574575975
721.693013218
716.932741714
712.294426523
707.778409083
703.384742445
699.113225907
694.963438639
690.934771756
687.026458356
683.23760104
679.56719654
676.014157127
672.577328665
669.255505221
666.04744034
662.951855143
659.967443562
657.092875058
654.326795271
651.667825052
649.114558378
646.665559608
644.319360555
642.074457773
639.929310416
637.882338972
635.931925082
634.076412595
632.314109952
630.643293902
629.062214522
627.569101476
626.162171372
624.839636114
623.599712066
622.440629875
621.360644773
620.358047187
619.431173473
618.578416619
617.798236757
617.089171329
616.449844808
615.878977829
615.375395672
614.938035989
614.565955766
614.258337254
614.01449284
613.833871705
613.71631333
613.659877499
947.444263919
946.94273115
945.969451077
944.487718692
942.514850366
940.069495422
937.173559621
933.851588589
930.130100177
926.036963622
921.600854662
916.850781547
911.815675882
906.524041098
901.00365333
895.28131318
889.382650428
883.331986119
877.152256361
870.86499916
864.490399577
858.047380493
851.553718316
845.026158187
838.480504643
831.93167289
825.39370038
818.87973181
812.401996123
805.971794948
799.599503406
793.294590667
787.065652048
780.920454453
774.8659775
768.908454491
763.05341041
757.305697142
751.669526864
746.148504798
740.745662189
735.463490054
730.303973827
725.26862896
720.358537346
715.574384483
710.916497202
706.384881755
701.979261891
697.699116494
693.543716167
689.512158178
685.603399056
681.8162843
678.14957464
674.601968523
671.172120583
667.858656061
664.660181252
661.575290266
658.602568419
655.740592763
652.987930258
650.343134183
647.804739363
645.371256808
643.041168293
640.812921398
638.684925384
636.655548299
634.723115497
632.885909781
631.142173192
629.490110487
627.927894192
626.453671159
625.065570443
623.761712344
622.540218412
621.399222207
620.336880618
619.351385523
618.440975584
617.603947999
616.838670007
616.143590011
615.517248163
614.958286289
614.465457075
614.037632418
613.673810932
613.373124285
613.134842477
612.958380529
612.843544368
612.788543906
952.934939642
952.393618878
951.351098348
949.76531442
947.656595172
945.046889043
941.961723465
938.429407234
934.480212151
930.145643448
925.457824013
920.448975822
915.150981882
909.595013078
903.811209897
897.828416325
891.673970295
885.373559853
878.951155298
872.429023697
865.827823122
859.166760742
852.463784589
845.735768672
838.998651586
832.267503654
825.556524578
818.878998065
812.247238211
805.672560385
799.165275833
792.734719681
786.389302059
780.13656457
773.983233911
767.935270508
761.997910816
756.175704303
750.472547431
744.891716764
739.435902721
734.107244539
728.907366597
723.837415964
718.898101021
714.08973105
709.412256683
704.865311009
700.448250987
696.160198618
692.000081155
687.966669519
684.058614087
680.274477043
676.612760677
673.071931132
669.650437372
666.346725281
663.159247085
660.086466361
657.126859176
654.27891186
651.541116161
648.911962423
646.389931568
643.973486557
641.661064011
639.451066558
637.341856427
635.331750645
633.419018132
631.601878826
629.878504914
628.247024103
626.705524841
625.25206331
623.884672002
622.601369639
621.400172222
620.279104941
619.236214714
618.269583097
617.377339344
616.557673366
615.808848417
615.129213292
614.517213902
613.971404097
613.490455622
613.073167138
612.718472289
612.425446583
612.193312895
612.02144813
611.909621217
611.856200776
958.980675937
958.392711544
957.269440721
955.562658577
953.296566469
950.497308055
947.19491816
943.422285829
939.214155436
934.60628265
929.634756989
924.335453892
918.743582176
912.89329873
906.817373628
900.546902176
894.111072614
887.537007145
880.849697073
874.072048474
867.225041536
860.327985197
853.398823006
846.454425075
839.510797236
832.583162562
825.6859216
818.832544847
812.035462514
805.306003578
798.654389285
792.089774345
785.620329784
779.253319134
772.995168006
766.851521687
760.827290814
754.926688185
749.153261223
743.509924077
737.998991416
732.622214489
727.38081917
722.27554561
717.306689158
712.47414252
707.777439117
703.215797601
698.788167128
694.49327279
690.329660243
686.295738451
682.389819397
678.610153759
674.954961669
671.422458019
668.010871941
664.718460492
661.543516676
658.484372306
655.539396246
652.706988828
649.985573227
647.373584735
644.869458758
642.471618473
640.178462877
637.988355984
635.899617717
633.91051696
632.019267041
630.224023816
628.522886348
626.913900105
625.395062486
623.96433047
622.61963009
621.35886749
620.179941246
619.08075568
618.059234859
617.113337003
616.241069015
615.440500874
614.709779663
614.047143013
613.450931793
612.919601922
612.451735177
612.046048945
611.701404885
611.416816249
611.191453795
611.02465245
610.916140199
610.864452379
965.624703534
964.981716591
963.763752008
961.915605466
959.466546694
956.448119717
952.896005347
948.848672075
944.346171531
939.429189579
934.138334883
928.513593496
922.593888488
916.416698511
910.017709804
903.430498179
896.686257533
889.813606503
882.838512095
875.784365057
868.672223463
861.52120679
854.348977324
847.172202077
840.00687229
832.868393662
825.771462248
818.729835553
811.756121374
804.861667696
798.056561938
791.349708759
784.748965255
778.261248456
771.892625592
765.648380717
759.533061126
753.550509785
747.703892662
741.995727636
736.427917721
731.001788278
725.718127176
720.577226792
715.578927357
710.72266168
706.007501583
701.43220614
696.995271492
692.694981423
688.529457493
684.496707196
680.594668639
676.821250328
673.174365014
669.651956826
666.252021362
662.972618697
659.811879652
656.768005846
653.839264369
651.023977965
648.320511809
645.727257928
643.242618418
640.864988452
638.592740099
636.424207762
634.357675951
632.391369877
630.523449193
628.752004995
627.075060058
625.49057211
623.996439912
622.590511793
621.270596331
620.034474809
618.879915115
617.804686747
616.806576561
615.883404948
615.033042103
614.253424079
613.542568368
612.89858876
612.31970929
611.80427714
611.35077438
610.957828468
610.624221527
610.348898232
610.130971919
609.969731175
609.864859336
609.815065757
972.917775647
972.209334321
970.87948344
968.86511493
966.202268167
962.929534729
959.08971046
954.728052873
949.890865302
944.624484294
938.97459368
932.985739618
926.70094663
920.161364747
913.405911934
906.470910377
899.389745822
892.192603524
884.906348668
877.554618369
870.158169348
862.735473895
855.303477547
847.878343121
840.475955369
833.112006315
825.801691912
818.559250973
811.397579751
804.328048404
797.360528617
790.503565989
783.764594871
777.150096559
770.665712905
764.31631925
758.106065472
752.038396151
746.116066355
740.341164586
734.715145264
729.23886803
723.912640917
718.736265267
713.709081446
708.830015968
704.097630881
699.510176068
695.06564433
690.761828344
686.596377723
682.566854119
678.670782177
674.905694556
671.269169546
667.758860433
664.37251618
661.107993513
657.96326082
654.936394682
652.025569992
649.229044924
646.545141976
643.972226508
641.508684074
639.15289787
636.903227441
634.757989712
632.715443113
630.773775418
628.931095598
627.185429791
625.534721242
623.976833929
622.509559483
621.130626975
619.837715118
618.628466492
617.500503356
616.451444681
615.478923992
614.580607631
613.754213068
612.997526891
612.308422168
611.684874914
611.124979447
610.626962482
610.189195855
609.810207841
609.488693049
609.223520725
609.013741249
608.858592651
608.757709353
608.709981365
980.91994892
980.13278998
978.669423667
976.4579597
973.543702694
969.974576797
965.80238435
961.080604259
955.862810675
950.201697274
944.148527937
937.752808458
931.062027048
924.121365066
916.973331675
909.657326362
902.20917779
894.660744593
887.039690498
879.369554958
871.670217896
863.958785251
856.250789558
848.561421186
840.90636898
833.301871738
825.764039754
818.307953396
810.94697772
803.69248293
796.553970254
789.53944018
782.655744531
775.908814528
769.303792153
762.845100714
756.536469429
750.380926416
744.380792372
738.537694434
732.852599841
727.325859861
721.957258083
716.74605905
711.691056052
706.79061981
702.042750369
697.44513353
692.995202187
688.690201269
684.527253814
680.503425035
676.61578142
672.861442325
669.237622307
665.741663093
662.37105485
659.123446865
655.996648376
652.988620526
650.09746081
647.321381479
644.658683565
642.107728153
639.666906588
637.334611153
635.109207696
632.989011404
630.972266735
629.057132142
627.241669979
625.523841531
623.901506961
622.372429652
620.934284404
619.584668888
618.321117809
617.141119287
616.04213299
615.021609585
614.077011061
613.205831463
612.405617594
611.67398925
611.008658644
610.407448681
609.868309875
609.389335746
608.96877659
608.605051598
608.296759349
608.042686641
607.841815085
607.693327447
607.596805285
607.551325117
989.703025438
988.819885367
987.195157311
984.747481028
981.535215097
977.618824547
973.061521271
967.926628782
962.275995259
956.169259454
949.66362694
942.813846945
935.672174601
928.288191103
920.708427233
912.975805095
905.128973265
897.201664434
889.222251326
881.21370826
873.194178739
865.178264227
857.178941344
849.209664733
841.285867307
833.424920462
825.64466159
817.961659843
810.39001602
802.941002733
795.623439363
788.444452474
781.410081993
774.525571729
767.795489691
761.223779147
754.813749624
748.56801523
742.488448188
736.576182368
730.831655271
725.254662497
719.844414886
714.599592195
709.518391528
704.598575699
699.837526254
695.23230387
690.779717091
686.4763977
682.318878696
678.303670307
674.427329625
670.686520613
667.078062179
663.598963213
660.246444225
657.017946047
653.911126511
650.92384659
648.05414762
645.300221591
642.660376448
640.132998497
637.716513888
635.409351141
633.209906427
631.116513146
629.12741697
627.240757154
625.454554429
623.766705394
622.174982886
620.677041607
619.270428172
617.952594776
616.720915817
615.572706895
614.505245706
613.515794369
612.601622679
611.760031752
610.988377539
610.284093682
609.644713285
609.067889247
608.551412895
608.093230777
607.691459504
607.344398689
607.050541998
606.808586278
606.617438431
606.476221506
606.384459705
606.34142119
999.35398333
998.35180951
996.528909163
993.79430377
990.225405415
985.899746269
980.894892892
975.285692297
969.143064244
962.533880916
955.521363947
948.165578826
940.523747034
932.650229901
924.596127292
916.408524521
908.129496776
899.795051999
891.43426983
883.068971538
874.714301411
866.380537568
858.076163495
849.811572663
841.60196625
833.467111658
825.428140837
817.504243596
809.710628016
802.058149797
794.554300142
787.204762791
780.014455961
772.987796652
766.128723233
759.440704573
752.926680197
746.588889636
740.428754595
734.446878381
728.643116858
723.016654281
717.566075548
712.289426359
707.18425839
702.247672938
697.476372501
692.866724232
688.414837795
684.11665478
679.968043085
675.964888985
672.103180685
668.379078895
664.788971926
661.329514077
657.997647324
654.790607033
651.705913178
648.741348913
645.89492875
643.164858684
640.54949079
638.047274707
635.656708547
633.376291472
631.204480178
629.139651076
627.180069696
625.323868208
623.569031448
621.91339109
620.354627188
618.890275869
617.517742015
616.234315831
615.037192488
613.923494246
612.890294591
611.93464393
611.053596303
610.244236477
609.503706761
608.829232926
608.218148673
607.667918275
607.176157092
606.740649827
606.359366472
606.030475979
605.752357776
605.52361125
605.343062493
605.209769991
605.123196558
605.082806339
1009.97991172
1008.82710771
1006.75588875
1003.66679394
999.666304332
994.855331264
989.329095694
983.175353115
976.474332617
969.299839461
961.720689538
953.80199937
945.605999029
937.192235918
928.617116863
919.932851715
911.18594579
902.41547194
893.651467001
884.913955763
876.213278054
867.552461242
858.932099987
850.357048012
841.842490946
833.413298474
825.096898065
816.917045952
808.890463836
801.026744898
793.330724694
785.805658742
778.454998255
771.282263424
764.290755735
757.483532988
750.863308411
744.432051624
738.190741173
732.139390944
726.277202815
720.602679507
715.113720336
709.807689548
704.681447802
699.731382383
694.953452812
690.34325545
685.896112958
681.607183892
677.47158026
673.484481824
669.641237837
665.937450954
662.369040476
658.932284282
655.62383977
652.440745257
649.380403806
646.440552116
643.619217229
640.914664089
638.325336895
635.849797299
633.48666234
631.234545011
629.092000046
627.057477311
625.129284595
623.305561051
621.584261594
619.96315169
618.439811137
617.011645023
615.675900082
614.429684989
613.269993645
612.193730905
611.19774044
610.27883434
609.433823908
608.659550849