/*--------------------------------*- C++ -*----------------------------------*\
| =========                 |                                                 |
| \\      /  F ield         | OpenFOAM: The Open Source CFD Toolbox           |
|  \\    /   O peration     | Version:  v1906                                 |
|   \\  /    A nd           | Web:      www.OpenFOAM.com                      |
|    \\/     M anipulation  |                                                 |
\*---------------------------------------------------------------------------*/
FoamFile
{
    version     2.0;
    format      ascii;
    class       surfaceScalarField;
    location    "779";
    object      phia;
}
// * * * * * * * * * * * * * * * * * * * * * * * * * * * * * * * * * * * * * //

dimensions      [0 3 -1 0 0 0 0];
oriented        oriented;


internalField   nonuniform List<scalar> 
18240
(
0.000850789074771
-0.000850677789317
0.00174374275245
-0.000892821428345
0.00263461532134
-0.000890762560327
0.0035183128072
-0.00088356106297
0.00439193434781
-0.000873517950972
0.00525298806848
-0.000860914558122
0.00609904377768
-0.000845958514995
0.00692796458956
-0.000828779986215
0.00773760806384
-0.000809552819629
0.00852615295922
-0.000788403480901
0.00929175456774
-0.000765517648785
0.0100329195241
-0.000741023918939
0.0107481094135
-0.000715112502428
0.0114361528792
-0.000687903662213
0.012095803186
-0.000659579327329
0.0127261809322
-0.000630239907896
0.0133262932299
-0.000600047316775
0.0138955013753
-0.000569072889831
0.0144330105365
-0.000537449777984
0.0149383574044
-0.000505214675845
0.0154108793541
-0.0004724675485
0.0158502176367
-0.000439209507517
0.0162557752063
-0.000405507560105
0.0166272311984
-0.000371330833834
0.0169639957001
-0.000336718085009
0.0172657312614
-0.000301614073755
0.01753181235
-0.000266037481333
0.0177618495499
-0.000229919266948
0.0179551603425
-0.000193269006014
0.0181112920376
-0.00015601705148
0.0182295099319
-0.000118176963116
0.0183093129655
-7.96912718993e-05
0.018349945018
-4.05908635486e-05
0.0183509038866
-8.49492923891e-07
0.0183114788321
3.94675192774e-05
0.0182312443818
8.03419898277e-05
0.0181096276841
0.000121661491469
0.0179463832759
0.000163350672186
0.0177411903409
0.000205240955732
0.0174941020219
0.000247193903283
0.0172051709316
0.000288983260899
0.0168748668512
0.000330409710446
0.0165037286409
0.000371195405435
0.0160927468319
0.000411088498283
0.0156430415111
0.000449768514844
0.0151562121657
0.000486938608244
0.0146340432893
0.000522239003283
0.0140788307891
0.00055532665002
0.0134931140516
0.000585794910549
0.0128799902067
0.000613246337955
0.0122428562485
0.000637221002587
0.0115857138605
0.000657277132957
0.0109128755386
0.00067293329735
0.0102292505039
0.00068377514989
0.00953994503457
0.000689404451051
0.00885053931036
0.000689573441975
0.00816653964525
0.000684097863348
0.00749372817806
0.000672997277066
0.0068374892136
0.000656330874507
0.00620330954198
0.000634378342709
0.00559594053823
0.000607446301979
0.00501997415117
0.000576161693753
0.00447877563482
0.000541248128918
0.00397511048099
0.000503841678985
0.00351015175883
0.00046497720952
0.0030846419222
0.000425657598073
0.00269818604285
0.000386447612283
0.0023503520922
0.000347947277664
0.0020396910847
0.000310627650901
0.00176465437345
0.000275120870508
0.00152278542065
0.000241820789588
0.00131172066824
0.000211127661288
0.00112850185933
0.000183166144723
0.000970461975702
0.000158086177501
0.000834577673704
0.000135831800626
0.000718241058693
0.000116370954635
0.000618728052995
9.94630798029e-05
0.000533865660845
8.48919229315e-05
0.000461493908119
7.23288193125e-05
0.000399974422421
6.15497334363e-05
0.000347670046203
5.22694087078e-05
0.000303416691006
4.42849314996e-05
0.000266089312393
3.72982591674e-05
0.00023515908793
3.09620523429e-05
0.000210880902005
2.42538252132e-05
0.000190208902405
2.06988816261e-05
0.000170912842727
1.92758497939e-05
0.000154139859312
1.67954828277e-05
0.00013791094331
1.62123414087e-05
0.000120930781937
1.69978761161e-05
0.000103959615134
1.69572326986e-05
8.70779485772e-05
1.68921010065e-05
6.85642197488e-05
1.85174530767e-05
4.70868617491e-05
2.14709332335e-05
2.27643233438e-05
2.42905852796e-05
2.27526196191e-05
0.000898282421181
-0.00174883973484
0.00185211938152
-0.00184652646352
0.00280072376985
-0.0018392426806
0.00374076507748
-0.00182347115715
0.00466973193519
-0.00180236300298
0.00558513025833
-0.00177618265285
0.0064844777345
-0.00174518733275
0.00736546767676
-0.00170964129715
0.00822588106489
-0.00166985136533
0.00906372411429
-0.00162612024042
0.009877102519
-0.0015787854971
0.0106643669454
-0.00152816502563
0.011423961572
-0.00147460119955
0.0121545781223
-0.00141840035698
0.0128549825069
-0.00135988256003
0.0135241758069
-0.00129931717029
0.0141612029029
-0.00123697809545
0.0147653193149
-0.0011730773132
0.0153357864232
-0.00110782530111
0.0158720437124
-0.00104136412388
0.0163734956527
-0.000973832451968
0.0168396893623
-0.000905299499828
0.0172700983061
-0.00083583368106
0.0176643053886
-0.000765438161237
0.0180217881351
-0.000694121798982
0.0183421068991
-0.000621836749271
0.018624695502
-0.000548550262727
0.0188690537914
-0.00047418469083
0.0190745469755
-0.000398688902376
0.0192406013027
-0.00032198116162
0.0193665158558
-0.000244019953557
0.0194516623566
-0.000164749516932
0.019495309716
-8.41675248335e-05
0.0194968235462
-2.27627744589e-06
0.0194555083923
8.08534088528e-05
0.0193708080359
0.000165128952512
0.0192421636346
0.000250377525477
0.0190692104366
0.000336390785628
0.0188516503956
0.000422874355826
0.0185894403695
0.000509491896893
0.0182826754541
0.000595824067646
0.0179317630659
0.000681411934289
0.0175373131155
0.000765724678022
0.017100294476
0.000848199834211
0.0166219309306
0.000928215833041
0.016103842203
0.00100512417029
0.0155479496176
0.00107822112125
0.0149566106272
0.00114676846428
0.014332539787
0.00120996284023
0.0136789461008
0.00126695155364
0.0129994631255
0.00131681064936
0.0122982831902
0.00135858009719
0.0115800591443
0.00139127438078
0.0108500013172
0.00141396860424
0.0101136843378
0.00142584761109
0.00937707612474
0.00142632885363
0.00864622707798
0.00141507938168
0.00792730153323
0.00139208003303
0.00722624127915
0.00135752569846
0.00654889245384
0.00131188784935
0.00590061912531
0.0012558454623
0.00528638052274
0.00119054747341
0.00471012896879
0.00111760352662
0.00417468172432
0.00103940961814
0.00368127530486
0.000958457186322
0.00323028640007
0.000876742747253
0.00282133595047
0.000795442289683
0.00245380682244
0.000715538293645
0.00212631056577
0.000638139047254
0.00183696843478
0.000564497647348
0.00158319232874
0.000495594666407
0.00136220258527
0.000432137441041
0.00117088846847
0.000374469493157
0.00100620896676
0.000322775740612
0.000864983802269
0.000277040089968
0.000744241464691
0.000237113837082
0.000641123482143
0.000202561036123
0.000553206934979
0.000172808014407
0.000478304173462
0.000147215667137
0.000414610146492
0.000125248017465
0.000360470449263
0.000106399919938
0.000314533357378
9.02293750371e-05
0.000275518815417
7.63077810834e-05
0.00024220393643
6.42860573895e-05
0.000212465780632
5.39890645274e-05
0.000186920385358
4.62503205958e-05
0.000166258266657
3.9935024516e-05
0.00014907995083
3.39791597766e-05
0.000133534837401
3.17559202311e-05
0.000118200034625
3.2334595065e-05
0.000101863880119
3.32928553107e-05
8.50454614957e-05
3.37144076158e-05
6.74606521681e-05
3.60979016055e-05
4.73703413353e-05
4.15555831224e-05
2.31765310994e-05
4.84669246473e-05
4.59113915204e-05
0.000906511723977
-0.00265522816618
0.00186601917199
-0.00280590483666
0.00282134881552
-0.00279444302588
0.00376817631242
-0.00277016903
0.00470376582167
-0.00273782538053
0.00562552134519
-0.00269781010366
0.00653093855216
-0.00265048002813
0.00741766267769
-0.0025962397708
0.00828347524532
-0.00253554262886
0.009126343868
-0.00246886635273
0.00994439118071
-0.00239671529761
0.0107359399412
-0.00231959496946
0.0114994682123
-0.00223801614967
0.0122336508296
-0.00215246825557
0.0129373028956
-0.00206342579246
0.0136094179881
-0.00197132189357
0.0142491020563
-0.00187655793069
0.0148556092741
-0.00177947863847
0.0154282691991
-0.00168038562268
0.0159665218572
-0.00157951535363
0.0164698415354
-0.00147705701175
0.0169377731699
-0.0013731340394
0.0173698563902
-0.00126782604195
0.0177656651541
-0.0011611538911
0.0181247351075
-0.00105310474941
0.0184466078391
-0.000943620110155
0.0187307639343
-0.000832622718375
0.0189766725255
-0.000720007029592
0.0191837317447
-0.00060566717906
0.0193513240859
-0.00048948970843
0.0194787659824
-0.000371382869314
0.0195653691445
-0.000251270576345
0.0196104008266
-0.000129121340153
0.0196131522224
-4.94645077287e-06
0.0195729103146
0.000121172906133
0.0194890324735
0.000249087959426
0.0193609295904
0.000378558566815
0.0191881445624
0.000509257704263
0.0189703437681
0.000640754648055
0.0187073946382
0.000772524404098
0.0183993601813
0.000903940155314
0.0180465693655
0.00103428840429
0.017649608983
0.00116276964452
0.0172093821514
0.00128851548396
0.0167270953541
0.00141059110969
0.01620430691
0.00152800567973
0.0156429150636
0.001639706547
0.0150452078464
0.00174457463007
0.0144138650407
0.00184140630461
0.013752023992
0.0019289000121
0.0130633006575
0.00200564441293
0.0123518655476
0.00207013337979
0.0116224511731
0.00212081042832
0.0108803800766
0.00215616895204
0.0101314704364
0.00217488842548
0.00938193624338
0.00217600229932
0.00863814818359
0.00215900660357
0.00790649603015
0.00212387888393
0.00719321677929
0.00207094764527
0.00650439479612
0.00200085553866
0.00584586408979
0.00191450433598
0.00522305794173
0.00181348415079
0.00464060437636
0.00170015789162
0.00410139631018
0.00157872232478
0.00360624833926
0.00145368475024
0.00315483382387
0.00132823697661
0.00274659071547
0.00120374404935
0.00238094769816
0.00108122350745
0.00205661463294
0.000962495317684
0.00177145819367
0.000849674733628
0.0015226316589
0.000744427551591
0.00130700431684
0.000647776959602
0.00112129268342
0.000560181558699
0.000962241778317
0.000481829863626
0.000826529445109
0.000412745203456
0.000710915292248
0.000352718778045
0.00061240716003
0.000301054786006
0.000528504658777
0.00025670091977
0.000457102990985
0.000218607771102
0.000396421081787
0.000185927018317
0.000344871138219
0.000157946333243
0.000301116216917
0.000133987076086
0.000263971214343
0.000113453238071
0.000232380681063
9.58821422586e-05
0.000205120874626
8.12499122363e-05
0.000181353013082
7.00205743618e-05
0.000159525903681
6.1761159139e-05
0.000139501434827
5.40038133114e-05
0.000123210589292
4.80452077416e-05
0.0001098872295
4.56565372405e-05
9.39935987842e-05
4.91804967541e-05
7.57567182341e-05
5.19504998617e-05
5.73486157093e-05
5.45127401839e-05
3.78333854495e-05
6.10584491562e-05
1.91713288602e-05
6.71033207101e-05
6.50748764476e-05
0.00091494908674
-0.00357005215513
0.00188245451187
-0.00377327682118
0.0028458728195
-0.00375773029044
0.00380065396978
-0.00372481872453
0.00474393939658
-0.00368098119815
0.00567304308869
-0.00362678458936
0.00658540660354
-0.00356271632178
0.00747862564075
-0.00348933237043
0.00835045704569
-0.00340725000705
0.0091988415214
-0.00331712782465
0.0100219005127
-0.00321965407493
0.01081795111
-0.00311552654172
0.0115854926877
-0.00300544179385
0.0123232144431
-0.00289007535654
0.0130299727958
-0.00277007277663
0.0137047923681
-0.00264603141906
0.0143468357253
-0.00251849464437
0.0149553992945
-0.00238793686605
0.0155298778397
-0.0022547622481
0.0160697576767
-0.00211929450971
0.0165745790742
-0.0019817810974
0.0170439297215
-0.00184238849026
0.0174774084702
-0.00170121181634
0.0178746218311
-0.00155827522245
0.0182351518753
-0.00141354576917
0.0185585576673
-0.00126693758734
0.0188443490821
-0.00111832851585
0.0190919941185
-0.000967566873631
0.0193008997064
-0.000814489901119
0.019470425626
-0.000658932848263
0.0195998735214
-0.000500749875581
0.0196885082063
-0.000339824093636
0.0197355564878
-0.000176089881203
0.0197402378008
-9.54736526453e-06
0.0197017739374
0.000159716220457
0.0196194290401
0.000331513326167
0.0194925300766
0.000505537507097
0.0193205143734
0.000681354738747
0.0191029574318
0.000858392863907
0.018839622726
0.00103594205301
0.0185304900421
0.00121315613858
0.0181757994876
0.00138906425143
0.0177760719819
0.0015625832061
0.0173321402644
0.00173253557874
0.0168451571635
0.0018976637639
0.0163166144723
0.00205664066456
0.015748346635
0.00220806849313
0.0151425535163
0.00235046552119
0.0145018222989
0.0024822384139
0.0138291811057
0.00260164704806
0.0131281615003
0.00270677445517
0.0124028889975
0.00279552222425
0.0116581571881
0.00286566305604
0.0108994745178
0.00291497812152
0.010133007976
0.00294148427856
0.00936541349137
0.00294373447736
0.00860352551524
0.00292102908513
0.00785409372432
0.00287345723979
0.00712367987956
0.00280150093841
0.00641868917241
0.00270597739751
0.00574562212936
0.00258770583822
0.00511076263281
0.00244844326324
0.00452024332758
0.0022907897735
0.00397719354679
0.00212185365734
0.00348130097127
0.00194965974128
0.00303070151239
0.00177891785991
0.00262450653107
0.00160999500136
0.00226269738424
0.00144307274572
0.00194420536346
0.00128101151104
0.00166650743995
0.00112738836877
0.00142617279689
0.000984777694882
0.00121953185779
0.000854430436943
0.0010430130077
0.000736710705852
0.000893161715761
0.000631687225718
0.000766413761116
0.000539488652414
0.000659097805885
0.000460022587876
0.000567895288674
0.000392239847838
0.000490279764694
0.000334304430651
0.000424310148887
0.000284567010444
0.000368332493216
0.000241899346482
0.000320819395452
0.000205457827686
0.00028051200196
0.000174294996849
0.000246364411755
0.000147603863868
0.000217492548511
0.000124757867846
0.000193219859505
0.000105525912818
0.000169540945912
9.36994696035e-05
0.000148045472659
8.32539704538e-05
0.000129250148732
7.27948669277e-05
0.000111085270059
6.62032346211e-05
9.31035744259e-05
6.36290270096e-05
7.9684743722e-05
6.25945992336e-05
6.26938919105e-05
6.89390385343e-05
4.38376092824e-05
7.33589983207e-05
2.83982623771e-05
7.64933376966e-05
1.45661735897e-05
8.09225049177e-05
7.9625061134e-05
0.000925860828443
-0.00449578494098
0.00190450778147
-0.00475179111545
0.00287891708136
-0.00473200480922
0.00384441150159
-0.00469017993904
0.00479802910745
-0.00463446626467
0.00573698765423
-0.00456561190659
0.00665865412288
-0.00448425295394
0.00756056266999
-0.00439111261803
0.00844042872111
-0.00428698957338
0.0092961632064
-0.00417273768936
0.0101258779161
-0.00404924628765
0.0109278909285
-0.00391741918134
0.0117007224362
-0.00377815526099
0.0124430912395
-0.00363232842721
0.013153901609
-0.00348076988096
0.0138322316441
-0.00332425058821
0.0144773124408
-0.00316346709526
0.0150885100227
-0.00299902852133
0.0156652991617
-0.00283144796958
0.0162072417395
-0.00266113602347
0.0167139586403
-0.00248839935427
0.0171851082432
-0.00231344167203
0.0176203602088
-0.00213636962896
0.0180193775639
-0.0019572004354
0.0183817953329
-0.00177587343393
0.0187072083474
-0.00159226223516
0.0189951561537
-0.00140618969976
0.0192451172559
-0.00121744274505
0.0194565007788
-0.00102578957334
0.0196286476189
-0.000830996840202
0.0197608298994
-0.000632850284442
0.0198522601909
-0.000431173088569
0.0199021007232
-0.000225849656086
0.0199094833896
-1.68494211748e-05
0.0198735307232
0.000195749391132
0.0197933878623
0.000411736960354
0.0196682557949
0.000630750653974
0.0194974339217
0.000852258333962
0.0192803620557
0.00107554712928
0.0190166675096
0.00129971998528
0.0187062071899
0.00152370086436
0.0183491083062
0.00174624882944
0.0179457983492
0.00196598016251
0.0174970277402
0.00218139472863
0.0170038790908
0.00239090249421
0.0164677699574
0.00259284178704
0.0158904497083
0.00278548294931
0.0152740041708
0.00296700816488
0.0146208762188
0.0031354668775
0.0139339211916
0.00328870744811
0.0132165008787
0.0034243045654
0.0124726259475
0.00353951150476
0.0117071158253
0.00363129339909
0.0109257222124
0.00369649149071
0.0101351371183
0.00373220244179
0.00934272316047
0.0037362701207
0.00855605239098
0.00370784792091
0.00778229521282
0.00364734933799
0.00702834177286
0.0035555968735
0.00630077613094
0.00343368628178
0.00560693338794
0.00328164656097
0.00495437478899
0.00310112996281
0.00435275161772
0.00289248378801
0.00380594257316
0.00266875896862
0.00331078145871
0.0024449045379
0.00286182384505
0.00222795648877
0.0024579954064
0.00201389799155
0.00210121908091
0.00179988689893
0.00179105398165
0.00159120805922
0.001524166481
0.00139430637157
0.0012959421148
0.00121302621383
0.00110186522727
0.00104853994903
0.00093802290172
0.000900575795861
0.000800921980204
0.000768804623271
0.000686737413691
0.000653677262353
0.000590990002396
0.00055575478082
0.000509664367204
0.000473549238898
0.000440328709505
0.00040362497391
0.000381474104033
0.000343409862249
0.000331712795034
0.000291651637687
0.000289504523143
0.000247659612295
0.000253700627483
0.000210100430603
0.000223411150536
0.000177894296542
0.000197823911546
0.00015034983381
0.000176654024918
0.000126697113327
0.000155957668997
0.000114393467365
0.000135798190207
0.000103406927908
0.000114026142949
9.45550834744e-05
9.41779050751e-05
8.60376050659e-05
7.60684675259e-05
8.17254884993e-05
6.1621752643e-05
7.70272051765e-05
4.95854278837e-05
8.09691604282e-05
3.40841026766e-05
8.88646762463e-05
2.0539874616e-05
9.00238001718e-05
1.02838979371e-05
9.11551978053e-05
8.9903913535e-05
0.000939555090673
-0.00543520963212
0.00193247095712
-0.00574456762116
0.00292089492536
-0.00572029205341
0.00390001061056
-0.00566915877133
0.00486673484872
-0.00560105530576
0.00581817554065
-0.00551691839577
0.00675160567587
-0.00541755054811
0.00766448400448
-0.00530385993885
0.00855447076834
-0.00517684735342
0.00941944137395
-0.00503758120351
0.0102574929418
-0.0048871731252
0.0110669482247
-0.00472675188005
0.0118463520671
-0.00455743913148
0.0125944655554
-0.00438032424881
0.0133102526971
-0.00419644211687
0.0139928654238
-0.00400675079555
0.0146416216074
-0.00381211358074
0.0152559825549
-0.00361328215731
0.0158355248256
-0.00341088571685
0.0163799134471
-0.00320542243792
0.0168888716014
-0.00299725797715
0.0173621540815
-0.00278662679082
0.0177995195373
-0.00257364020139
0.0182007084268
-0.00235829639685
0.0185654212781
-0.00214049556536
0.0188933033697
-0.0019200552747
0.0191839300569
-0.00169672919859
0.0194367982363
-0.00147022505542
0.0196513184015
-0.0012402253323
0.0198268127361
-0.00100640768773
0.0199625146577
-0.000768469740118
0.0200575749637
-0.000526151421768
0.0201110715281
-0.000279264812104
0.0201220274593
-2.77240019716e-05
0.0200894343279
0.000228423757218
0.0200122850463
0.000488967829542
0.0198896124337
0.000753505145629
0.0197205363688
0.0010214169995
0.0195043143697
0.00129185237519
0.0192403961857
0.00156372245901
0.0189284755295
0.00183570673878
0.0185685373864
0.00210627348728
0.0181608930024
0.00237371215599
0.0177062011585
0.00263617560348
0.0172054702765
0.00289172366354
0.0166600454845
0.0031383587678
0.0160715837078
0.00337403875621
0.0154420340544
0.00359665522438
0.0147736381129
0.0038039635963
0.0140689828949
0.00399346808962
0.0133311239854
0.00416227242012
0.0125638094585
0.00430694128207
0.0117717682494
0.0044234473564
0.0109610330039
0.00450735551187
0.0101390314642
0.00455431182223
0.0093143547109
0.00456110122694
0.0084956905937
0.00452662326368
0.00769072269671
0.00445248788754
0.00690648501096
0.00433997063341
0.00614902868186
0.00419125861723
0.00542677447645
0.00400404075081
0.00474790261598
0.00378006125367
0.0041316444869
0.00350884875683
0.00358351386314
0.00321696420515
0.00309350655758
0.00293499319734
0.00264724442699
0.00267432498686
0.00224463148391
0.00241657108855
0.00189357398037
0.00215099761789
0.00159487678018
0.00188994621661
0.00134318381436
0.00164603811492
0.00113149900907
0.00142476463906
0.00095391213508
0.00122617632279
0.000806343468979
0.00104819196244
0.0006858237993
0.000889362078502
0.00058848488786
0.000751029043658
0.00050820164769
0.000636029682713
0.000439286058065
0.00054244840853
0.000379869354257
0.000463022138637
0.00032955502481
0.00039371015317
0.00028747314782
0.000333713644677
0.000251742377641
0.000283383097257
0.000221336890809
0.000240500595605
0.000195597068768
0.000203634225169
0.000173671791236
0.000172277513234
0.000153031285531
0.000147336842136
0.000133113997713
0.000134305160472
0.000114990765748
0.000121516799361
9.83309377217e-05
0.000111196649651
7.98187527009e-05
0.000104527574311
6.20743228311e-05
9.94479307885e-05
4.48006743105e-05
9.42890137778e-05
3.38473682575e-05
9.19145200854e-05
2.53702820482e-05
9.73270589819e-05
1.50355707789e-05
0.000100352975274
7.41142792845e-06
9.87710615203e-05
9.73026209482e-05
0.000956245241821
-0.00639132027702
0.00196663027902
-0.00675481364744
0.00297220659405
-0.00672572667543
0.00396796774107
-0.00666478021916
0.00495068381742
-0.00658363229758
0.00591732791072
-0.00648342506059
0.00686505905217
-0.00636514571177
0.007791243519
-0.00622991036058
0.00869347399044
-0.00607894568969
0.00956958257153
-0.00591355997129
0.0104176490406
-0.00573511201055
0.0112360029428
-0.00554498083387
0.0120232210045
-0.00534453468452
0.0127781182979
-0.00513510187851
0.0134997350403
-0.00491794175409
0.0141873172085
-0.00469421880389
0.0148402934467
-0.00446497824687
0.0154582466332
-0.00423112671782
0.0160408833615
-0.00399341635741
0.0165880002106
-0.00375243604771
0.0170994506627
-0.00350860759696
0.0175751118699
-0.0032621898299
0.0180148550172
-0.00301328738268
0.018418518124
-0.00276186593217
0.0187858840579
-0.00250776984898
0.0191166617685
-0.00225074338769
0.0194104723757
-0.00199045178356
0.019666837731
-0.00172650403374
0.0198851728185
-0.001458475213
0.0200647803162
-0.00118593117562
0.0202048495451
-0.000908455694256
0.020304458687
-0.000625678016932
0.0203625840114
-0.000337307872105
0.0203781155174
-4.31735099316e-05
0.0203498819091
0.000256739517358
0.0202766845575
0.000562247492777
0.0201573421505
0.000872930408242
0.0199907441551
0.00118809837507
0.0197759127072
0.00150676807168
0.0195120683242
0.00182765190849
0.0191986959168
0.00214916531598
0.0188356032038
0.00246945335422
0.0184229652077
0.00278643845793
0.0179613459078
0.00309788429135
0.0174516922741
0.00340146811256
0.016895298156
0.00369484524628
0.016293745976
0.00397568601034
0.0156488402482
0.00424165888704
0.0149625663899
0.0044903391514
0.0142371139526
0.00471902726057
0.0134750180432
0.00492447861449
0.0126794756368
0.00510259396963
0.0118548729763
0.00524817523844
0.01100739355
0.00535493217096
0.0101456171387
0.00541624592793
0.00928009446626
0.00542670859083
0.00842180427389
0.00538510359505
0.00757850584225
0.00529590037622
0.00675746506947
0.00516117034121
0.00596195628755
0.00498689477678
0.00520183614345
0.00476423110678
0.00448083764056
0.00450115105857
0.00384494308558
0.00414478944758
0.00330385118739
0.00375812131938
0.00283060358611
0.00340833907274
0.00238733957897
0.0031176576404
0.00198045458806
0.00282350597742
0.00163460622216
0.00249688440547
0.0013521202915
0.00217244909534
0.00112213757287
0.00187608654841
0.000932721739305
0.00161422070457
0.000775836057334
0.00138315226042
0.000647814445773
0.00117626640428
0.00054784690608
0.000989396717764
0.000472997608786
0.000825898363973
0.000413476705658
0.000695554095005
0.00035916210868
0.000596743889699
0.00031037931745
0.000511795901612
0.000269529512159
0.000434531568881
0.000236754313768
0.00036647061992
0.000208596906985
0.000311521480529
0.000184316659333
0.000264777084623
0.000163833388499
0.000224117108536
0.000146186704005
0.000189925172386
0.000127548730725
0.000165973513462
0.000110538629035
0.000151302450656
9.28254858063e-05
0.000139211400098
7.60237297006e-05
0.000127971370981
5.9729973453e-05
0.00012079323796
4.63432745298e-05
0.000112809817534
3.25389407852e-05
0.000108071389976
2.08282771449e-05
0.000103612922287
1.6023177083e-05
0.000102134780145
9.79886435342e-06
0.000106564613237
4.76473574583e-06
0.000103787930079
0.00010206587091
0.000976122517556
-0.00736730501336
0.00200733919693
-0.00778588262587
0.00303335547245
-0.00775159846396
0.00404893391766
-0.00768021399893
0.00505065896116
-0.00758521459759
0.00603534184548
-0.00746796638197
0.00700000283131
-0.00732966705075
0.00794189774344
-0.00717166744264
0.00885853772362
-0.00699545016788
0.00974770422026
-0.00680259320022
0.0106074565175
-0.00659473375268
0.0114361345691
-0.00637353085043
0.0122323545493
-0.00614062961635
0.0129949999271
-0.00589762490062
0.0137232050448
-0.00564602765398
0.0144163342859
-0.00538723159174
0.0150739538434
-0.005122484526
0.0156957999207
-0.00485286225649
0.0162817411065
-0.00457925010658
0.0168317397932
-0.00430232992409
0.0173458112763
-0.00402257720035
0.0178239859253
-0.00374026502611
0.0182662731668
-0.00345547783877
0.0186726318796
-0.00316813000862
0.0190429448151
-0.00287799047295
0.019376999821
-0.0025847078804
0.01967447412
-0.00228783748193
0.0199349232259
-0.00198686592806
0.0201577708934
-0.00168123711866
0.020342302326
-0.00137037778619
0.0204876590035
-0.00105372851416
0.020592838095
-0.000730773728738
0.0206566974602
-0.000401084335295
0.0206779696999
-6.43628716828e-05
0.0206552857779
0.000279506295485
0.0205872118188
0.000630404690841
0.0204722984395
0.000987927397098
0.0203091442368
0.00135133690884
0.0200964703807
0.00171952693892
0.0198332041501
0.0020910041267
0.0195185638647
0.00246389244346
0.01915213763
0.00283596746454
0.0187339430299
0.00320472186613
0.0182644560725
0.00356746124235
0.0177445963968
0.00392141917185
0.017175662958
0.00426387216189
0.0165592224211
0.00459222267871
0.0158969699041
0.0049040109108
0.0151906012878
0.00519681288089
0.0144417551577
0.00546798001761
0.0136521279758
0.00571421840242
0.0128238747593
0.00593096661631
0.0119604095528
0.006111743065
0.0110677599633
0.00624773131228
0.0101558461308
0.00632824180923
0.00923915969296
0.00634358736148
0.00833305540554
0.00629129873093
0.00744456946353
0.0061845806496
0.0065819448776
0.00602389751991
0.00573960042633
0.00582932944019
0.00493221659048
0.00557171422353
0.00413352670138
0.00529987940115
0.00346956768299
0.00480875704926
0.00295867792103
0.004269103484
0.00253251548903
0.00383455938855
0.00208759102444
0.00356258209178
0.00165838970416
0.00325282357655
0.00131512951718
0.00284005354
0.00105788850997
0.00242982507883
0.000860435376986
0.00207346771483
0.000701153543324
0.00177367396407
0.000568800917587
0.00151547033299
0.000461882167578
0.00128334765744
0.000385665414235
0.00106558637431
0.000341809775101
0.000869817742039
0.00031201415465
0.000725322364569
0.000273145444564
0.000635602346055
0.00023332756143
0.000551594344975
0.000201961884363
0.000465877230574
0.000181017744369
0.000387392231682
0.000161493826491
0.000331040026736
0.000143575806282
0.000282696072163
0.000128923065311
0.000238771103867
0.000114911767082
0.00020394393986
9.92154398557e-05
0.000181664028139
8.45239615371e-05
0.00016597952294
6.97740698387e-05
0.000153935532616
5.41993081413e-05
0.000143512637965
4.09289989661e-05
0.000134028772213
2.81033608378e-05
0.0001256064644
1.98873166063e-05
0.000116269495335
1.19017885738e-05
0.000111587578508
6.96124516319e-06
0.000107059540358
4.9662810155e-06
0.00010855893207
2.23048135855e-06
0.000106521396911
0.000104285249471
0.000999406410803
-0.00836656801663
0.0020550189533
-0.00884134737699
0.00310496335003
-0.00880139191909
0.00414371076476
-0.00871881283624
0.00516762438391
-0.0086089803524
0.00617331851013
-0.0084735146059
0.00715764876777
-0.00831385311335
0.00811773926049
-0.00813161603599
0.00905100574459
-0.00792857699689
0.00995517021095
-0.00770662076609
0.0108282697706
-0.00746769902008
0.0116686578291
-0.00721378773562
0.0124750002962
-0.00694684374986
0.0132462638952
-0.00666876351447
0.0139816993964
-0.00638134112405
0.0146808160718
-0.00608622967672
0.015343350872
-0.00578490369488
0.015969229002
-0.00547862815915
0.0165585208968
-0.00516843263914
0.0171113936512
-0.00485509656465
0.0176280634346
-0.00453914354695
0.0181087480344
-0.00422084917804
0.0185536261057
-0.00390025786623
0.0189628015482
-0.0035772100451
0.0193362773277
-0.00325137289952
0.0196739347799
-0.00292227419202
0.0199755197619
-0.00258933296166
0.0202406303335
-0.00225188872758
0.0204687068551
-0.0019092270436
0.0206590210481
-0.00156060660266
0.0208106674325
-0.00120529022003
0.0209225559811
-0.000842578309956
0.0209934125955
-0.000471857203695
0.0210217876286
-9.26543904782e-05
0.0210060781613
0.000295299493584
0.0209445649473
0.000692001819257
0.020835468126
0.00109710871686
0.0206770207909
0.00150986925607
0.0204675615074
0.00192907210275
0.0202056403367
0.00235301190115
0.0198901331192
0.00277948721439
0.0195203504537
0.00320583852465
0.019096126269
0.00362903551392
0.0186178641293
0.00404581413748
0.0180865203628
0.00445285548273
0.0175035063236
0.00484698137999
0.0168705049418
0.00522532221091
0.0161892190535
0.0055854010361
0.0154610879989
0.00592504757371
0.0146870773801
0.00624211050357
0.0138676107027
0.00653379474001
0.0130029821669
0.00679571669278
0.0120944628736
0.00702039784576
0.0111465986949
0.00719569656826
0.0101708572579
0.00730416492131
0.00918876497687
0.00732576818872
0.00822695962863
0.0072532927466
0.00728645282119
0.00712518973255
0.00638346317822
0.00692700753321
0.00548650317173
0.006726463338
0.00463586556602
0.00642243789694
0.00366600682704
0.00626969726889
0.00295563304177
0.00551928065329
0.0025343654786
0.00469037296906
0.00223807136077
0.00413090489745
0.00176642517777
0.00403439510503
0.00126889191518
0.00375028628429
0.000930660809203
0.0031784781505
0.000721627765279
0.00263872378236
0.000577161804813
0.00221815012667
0.000457589040252
0.00189311649577
0.000350476097878
0.00162277866103
0.000258388461908
0.00137533821511
0.000202713993689
0.00112131597145
0.000200629775522
0.000871870774364
0.000217337727771
0.000708526919657
0.000188461031864
0.000664518025216
0.000149397830274
0.0005905722969
0.000125545387699
0.000489751590649
0.0001223923453
0.000390501746267
0.000112617889374
0.00034081589777
0.000100100815142
0.000295214043102
9.28285387524e-05
0.00024605584954
8.12397020821e-05