/*--------------------------------*- C++ -*----------------------------------*\
| =========                 |                                                 |
| \\      /  F ield         | OpenFOAM: The Open Source CFD Toolbox           |
|  \\    /   O peration     | Version:  v1906                                 |
|   \\  /    A nd           | Web:      www.OpenFOAM.com                      |
|    \\/     M anipulation  |                                                 |
\*---------------------------------------------------------------------------*/
FoamFile
{
    version     2.0;
    format      ascii;
    class       surfaceScalarField;
    location    "153";
    object      phi;
}
// * * * * * * * * * * * * * * * * * * * * * * * * * * * * * * * * * * * * * //

dimensions      [0 3 -1 0 0 0 0];
oriented        oriented;


internalField   nonuniform List<scalar> 
18240
(
-0.000353544091166
0.000353728966386
-0.000740672741699
0.000387338792838
-0.00112749571674
0.000387015819218
-0.00150936780539
0.000382087190562
-0.00188425517863
0.000375076282156
-0.00225038785284
0.00036635231883
-0.00260630084316
0.000356097448251
-0.00295059501364
0.000344518671417
-0.00328217180816
0.000331756404871
-0.00359996273071
0.000318020520587
-0.00390322848321
0.000303439852255
-0.00419121745806
0.000288223786606
-0.00446352758683
0.000272478030844
-0.00471968820745
0.000256400599235
-0.00495959213976
0.000240064641742
-0.00518299817466
0.000223650947547
-0.00539004160131
0.000207195991062
-0.0055806550364
0.000190862828279
-0.00575516429997
0.000174652419899
-0.00591362457932
0.000158713482178
-0.00605650697621
0.000143015024496
-0.00618394697812
0.000127696105949
-0.00629652488351
0.000112698596412
-0.00639442388147
9.81568906735e-05
-0.00647830631657
8.39900431071e-05
-0.00654837976931
7.03318088362e-05
-0.00660536871256
5.70820700283e-05
-0.00664948824773
4.43768756287e-05
-0.00668151030883
3.20996870202e-05
-0.00670164596856
2.03903496834e-05
-0.00671070321985
9.11814083083e-06
-0.00670888069346
-1.57220205223e-06
-0.00669700970214
-1.18275949715e-05
-0.00667526529622
-2.15002643083e-05
-0.00664449440672
-3.07459264039e-05
-0.00660484689741
-3.94113606779e-05
-0.00655717611824
-4.76646220446e-05
-0.00650160079117
-5.53489885089e-05
-0.00643897167368
-6.26422984091e-05
-0.00636937232842
-6.93845439053e-05
-0.00629364287675
-7.5761883973e-05
-0.00621182939857
-8.16118622914e-05
-0.0061247539313
-8.71272130126e-05
-0.00603242397421
-9.21429993603e-05
-0.00593563765158
-9.68568124511e-05
-0.00583436454169
-0.000101102124488
-0.00572937408992
-0.000105079273436
-0.00562059958821
-0.000108620553622
-0.00550877855116
-0.000111927176453
-0.0053938116474
-0.000114830836086
-0.00527640249083
-0.000117531785786
-0.00515642338297
-0.000119861467361
-0.00503454357583
-0.000122017565358
-0.00491061247702
-0.000123832182512
-0.00478526546655
-0.000125498772826
-0.00465833463422
-0.00012685064403
-0.00453042279432
-0.000128076053544
-0.00440135072707
-0.000129010394777
-0.00427169052388
-0.000129835620261
-0.00414125674699
-0.00013039018793
-0.00401059231172
-0.000130849507346
-0.00387951023039
-0.000131056030129
-0.00374852565608
-0.000131178125405
-0.00361745320695
-0.000131063298942
-0.00348678074246
-0.000130873132443
-0.00335632652629
-0.000130461355464
-0.00322655091254
-0.000129982438525
-0.00309727643348
-0.000129297339437
-0.00296893428321
-0.000128554045916
-0.00284135064929
-0.000127621772142
-0.00271492494969
-0.000126641925962
-0.00258948544701
-0.000125492565512
-0.0024653967339
-0.000124308358072
-0.00234248725952
-0.00012297719999
-0.00222108280159
-0.000121626770273
-0.00210100996899
-0.000120154935818
-0.00198255209685
-0.000118681781015
-0.00186553250635
-0.000117115695557
-0.00175018870637
-0.000115568163737
-0.00163634010788
-0.000113958099236
-0.00152417638308
-0.000112386982063
-0.00141351484174
-0.000110783578905
-0.00130449795504
-0.000109237346576
-0.00119694665652
-0.00010768501664
-0.00109096370742
-0.000106199205302
-0.000986390842849
-0.000104718073304
-0.000883320021814
-0.000103282045661
-0.000781674470953
-0.000101801118562
-0.000681657961115
-0.000100221252256
-0.00058352286108
-9.82958860854e-05
-0.00048816253983
-9.55511458101e-05
-0.000397710638891
-9.06092024964e-05
-0.000317651602218
-8.02263532306e-05
-0.000240344924034
-7.74925485622e-05
-0.000135537308204
-0.0001050892443
-0.000135702664757
-0.000390766490774
0.000744694993134
-0.000827056601357
0.00082384462118
-0.00126090570593
0.000821076994537
-0.00168847295825
0.000809872524539
-0.00210785824303
0.000794672732174
-0.00251727219412
0.000775985675533
-0.00291508877949
0.000754124169407
-0.00329980028425
0.0007294509473
-0.00367013985005
0.000702304900574
-0.00402497240432
0.000673075170864
-0.00436342317594
0.000642098077205
-0.00468472780471
0.000609751650282
-0.00498838012202
0.000576335802599
-0.00527394571424
0.000542190199735
-0.00554123580652
0.000507557581115
-0.0057900864408
0.0004727258189
-0.00602056457177
0.000437873484554
-0.00623271373662
0.000403235711008
-0.00642679629081
0.000368929913685
-0.00660300549797
0.00033514496057
-0.00676174709136
0.000301945941693
-0.00690331725909
0.000269485982292
-0.0070282245185
0.000237788367461
-0.00713683261329
0.00020698087451
-0.00722972299257
0.000177054717951
-0.00730730133242
0.000148120821363
-0.00737020040487
0.000120145891092
-0.00741884973223
9.32301866379e-05
-0.00745391727172
6.73209550074e-05
-0.00747584285887
4.25116856604e-05
-0.00748531684212
1.87335134309e-05
-0.00748277766818
-3.92540529499e-06
-0.00746892961708
-2.55479977194e-05
-0.00744420567746
-4.60495684658e-05
-0.00740931301413
-6.55258489081e-05
-0.00736466646413
-8.38960724281e-05
-0.00731096681336
-0.000101267604551
-0.00724860531408
-0.000117562832482
-0.00717826861482
-0.000132899276187
-0.00710031854349
-0.000147202375617
-0.00701542005861
-0.000160598408699
-0.00692390110989
-0.000173015073136
-0.00682639924815
-0.000184585356233
-0.0067232053697
-0.00019523851338
-0.00661492469617
-0.000205112384394
-0.00650180943129
-0.000214137069964
-0.0063844291711
-0.000222453072811
-0.00626299768062
-0.000229990185534
-0.00613804778825
-0.000236889145532
-0.00600975633392
-0.000243079077536
-0.0058786190783
-0.000248699213546
-0.0057447790819
-0.000253676813013
-0.00560869661375
-0.00025814774012
-0.00547048497775
-0.000262037419608
-0.0053305714061
-0.000265476736087
-0.00518904435063
-0.000268389006548
-0.00504630117904
-0.000270899384027
-0.00490241053237
-0.000272929340002
-0.00475774317522
-0.000274597793605
-0.00461235267734
-0.0002758251155
-0.00446658666479
-0.000276723906495
-0.00432048778184
-0.000277214554086
-0.00417438272844
-0.000277403980977
-0.00402830598208
-0.000277213955826
-0.00388256496903
-0.000276746330343
-0.00373718785821
-0.00027592576808
-0.00359246254953
-0.000274850325124
-0.0034484107314
-0.000273449059527
-0.00330529979771
-0.000271817136352
-0.0031631439251
-0.000269889487558
-0.00302218767432
-0.000267759172532
-0.00288243522236
-0.000265368241113
-0.00274410504664
-0.000262807738134
-0.00260718863057
-0.000260027722047
-0.0024718744176
-0.000257117727123
-0.0023381382543
-0.00025403554239
-0.00220613512052
-0.000250868434489
-0.00207582249428
-0.000247582418716
-0.00194731878593
-0.000244261178009
-0.00182056166469
-0.000240878037208
-0.0016956307528
-0.000237511709436
-0.00157244435126
-0.000234140303481
-0.00145104455226
-0.000230833973664
-0.00133133360591
-0.000227572567537
-0.00121332100863
-0.000224410555941
-0.00109690236575
-0.000221319025349
-0.000982067714945
-0.000218316708908
-0.000868725783852
-0.000215329809544
-0.000756870677682
-0.000212276067996
-0.000646435987766
-0.000208918765922
-0.000537346929733
-0.000204831506183
-0.00042905676085
-0.00019907795301
-0.000319490596799
-0.00018997307613
-0.000213701712803
-0.000183464825296
-0.000104321942908
-0.000214687899498
-0.000240142702653
-0.000397717753663
0.00114261361599
-0.000839638802644
0.0012659806849
-0.00127973101244
0.00126138362107
-0.00171347527521
0.00124383301059
-0.00213875865876
0.00122017064774
-0.00255371476332
0.00119115842953
-0.00295665914032
0.00115728301919
-0.00334607275777
0.00111908171353
-0.00372065725137
0.00107710375983
-0.00407929406268
0.00103192954907
-0.0044210931999
0.000984111228399
-0.00474532885689
0.000934205037507
-0.00505148915944
0.000882709407319
-0.00533919360692
0.000830112101202
-0.00560824971683
0.000776825674265
-0.00585855648205
0.000723249137402
-0.00609017258562
0.000669699532132
-0.00630320868212
0.000616486637401
-0.00649791014836
0.000563838301615
-0.0066745395727
0.000511986494617
-0.00683347548027
0.00046108469033
-0.00697508489971
0.000411303618331
-0.00709983855028
0.000362739479144
-0.00720817302327
0.000315518373054
-0.00730062194753
0.00026969441996
-0.00737766717867
0.000225362466066
-0.00743988463114
0.000182545942264
-0.00748778381618
0.000141317700281
-0.00752196841826
0.000101678563478
-0.00754296335838
6.36853405025e-05
-0.007551388389
2.73204145741e-05
-0.00754777379891
-7.37239482838e-06
-0.00753274574864
-4.04266982952e-05
-0.0075068308402
-7.18094897366e-05
-0.00747065252275
-0.000101568776519
-0.00742472514107
-0.000129682443762
-0.0073696610973
-0.000156211392492
-0.00730595530424
-0.000181142870513
-0.00723420119299
-0.000204549447018
-0.00715486734452
-0.000226426820533
-0.00706852147068
-0.000246857511316
-0.00697560053967
-0.000265843900333
-0.00687664102868
-0.000283476073994
-0.00677204437187
-0.000299761073878
-0.00666231165554
-0.000314794719004
-0.00654780612231
-0.000328587030092
-0.00642899166252
-0.000341235915165
-0.00630619271133
-0.00035275232529
-0.00617983453013
-0.000363234429698
-0.00605020391738
-0.000372691664121
-0.00591768907001
-0.000381219745209
-0.00578254107581
-0.000388825304836
-0.00564511295776
-0.000395599600593
-0.00550562435742
-0.000401544576494
-0.00536439682422
-0.000406745472212
-0.00522162247732
-0.000411199258495
-0.00507759516274
-0.000414984444222
-0.00493248436478
-0.0004180925434
-0.0047865605613
-0.00042059496522
-0.00463997515957
-0.000422478425629
-0.00449297901505
-0.000423807917423
-0.00434570934236
-0.000424566615406
-0.00419840039747
-0.000424814270119
-0.00405117793196
-0.000424532244214
-0.0039042614072
-0.000423776585972
-0.0037577664491
-0.000422529033709
-0.003611897959
-0.000420844043537
-0.00346676122505
-0.000418705719473
-0.0033225455861
-0.000416168635896
-0.00317934455068
-0.00041322136035
-0.00303732962011
-0.0004099199503
-0.00289658027432
-0.000406258718221
-0.00275724644205
-0.000402296758429
-0.00261938991458
-0.000398035137399
-0.00248313600282
-0.000393535604322
-0.00234852500973
-0.000388806577308
-0.00221565315206
-0.0003839123033
-0.00208453652329
-0.000378867514025
-0.00195523916
-0.000373737722636
-0.00182775091352
-0.00036854217757
-0.00170210243505
-0.000363345330923
-0.00157825558388
-0.000358169223967
-0.00145620624227
-0.000353073043429
-0.00133588947918
-0.00034807628679
-0.00121726730749
-0.000343226037002
-0.00110024788885
-0.000338529573166
-0.000984754976509
-0.000334005779486
-0.000870652789449
-0.000329626490813
-0.00075777560758
-0.000325350503486
-0.000645819471919
-0.000321069672234
-0.000534178378513
-0.000316667735991
-0.000421434060241
-0.000312010065286
-0.000304268735759
-0.000307318290635
-0.000181384689383
-0.000306531166831
-7.64027448894e-05
-0.0003198532426
-0.000316634697222
-0.000403896310747
0.00154671067788
-0.000851905682985
0.0017142035684
-0.00129806915449
0.00170776183544
-0.00173764424865
0.00168362323952
-0.00216837784454
0.00165111921916
-0.00258831771439
0.0016113138183
-0.00299571656031
0.00156489708279
-0.00338902927534
0.0015126103422
-0.00376693812057
0.0014552280616
-0.00412833748804
0.00139354514237
-0.00447234780103
0.00132833708535
-0.0047982834571
0.00126035697911
-0.00510566044899
0.00119030164908
-0.00539415345875
0.00111882101277
-0.00566360338574
0.00104649002857
-0.00591396899017
0.000973829624761
-0.00614533911002
0.000901282480503
-0.00635788181918
0.000829242373787
-0.00655186406299
0.000758030862102
-0.00672760009568
0.000687932680432
-0.00688547942111
0.000619170671936
-0.00702591460413
0.000551944887641
-0.00714937716575
0.000486403798761
-0.00725634431034
0.000422686211279
-0.00734734217164
0.000360887716352
-0.00742288985039
0.000301104005198
-0.00748354928628
0.000243393049763
-0.00752986648108
0.000187820421119
-0.00756242643609
0.000134416868328
-0.00758179072873
8.32252791146e-05
-0.00758855707421
3.42542947623e-05
-0.00758329316917
-1.24720583084e-05
-0.00756660047391
-5.6964229137e-05
-0.00753904394763
-9.92146865546e-05
-0.00750122005732
-0.00013925125905
-0.00745368300415
-0.000177082453082
-0.0073970159908
-0.000212752099998
-0.00733175430073
-0.000246283068878
-0.00725845996163
-0.000277733710845
-0.00717764264267
-0.000307139298885
-0.0070898367394
-0.000334570601487
-0.00699552039058
-0.000360072987483
-0.00689519451783
-0.000383727154447
-0.00678930062472
-0.000405585990246
-0.00667830301241
-0.000425736169674
-0.00656260476483
-0.000444235075845
-0.00644263074939
-0.000461172700409
-0.00631874446717
-0.000476607412534
-0.00619133165438
-0.00049062906099
-0.00606071669051
-0.000503294430299
-0.00592724708391
-0.00051469001477
-0.00579121074785
-0.000524868161849
-0.00565291995933
-0.000533909502398
-0.00551262939952
-0.000541859863909
-0.0053706197449
-0.000548792004888
-0.00522711768324
-0.000554743510988
-0.00508237712236
-0.000559778820975
-0.00493660106943
-0.000563927341477
-0.00479002137191
-0.000567244390091
-0.0046428223769
-0.000569751678571
-0.00449521803888
-0.000571496829677
-0.00434737799618
-0.000572495339254
-0.00419950172046
-0.000572788835049
-0.00405174695958
-0.000572389016223
-0.00390430097642
-0.00057133352644
-0.00375731100611
-0.000569633332338
-0.00361095183835
-0.000567325851582
-0.00346535975668
-0.000564423541726
-0.0033206966593
-0.00056096524066
-0.00317708634387
-0.000556968073605
-0.00303467478456
-0.000552475178521
-0.00289357036792
-0.000547509553223
-0.00275390032114
-0.000542120058455
-0.00261575364506
-0.000536337689734
-0.00247923377171
-0.000530217736937
-0.00234440643055
-0.000523798653166
-0.002211347935
-0.00051714141588
-0.00208009696017
-0.000510291347449
-0.0019506989566
-0.00050331384152
-0.00182316238041
-0.000496258755929
-0.00169749919385
-0.000489193006286
-0.00157368578102
-0.000482168547156
-0.00145169906387
-0.000475249304258
-0.00133148224936
-0.000468483663613
-0.001212974756
-0.000461927125343
-0.00109608092151
-0.000455617846386
-0.000980688777806
-0.000449594868721
-0.000866637595372
-0.000443875121072
-0.000753708591429
-0.000438478448227
-0.000641557473021
-0.000433419801428
-0.000529642871358
-0.000428777177589
-0.000417057550971
-0.000424787245102
-0.000302442175818
-0.000422126100484
-0.000186427946791
-0.000422727807982
-7.86309626416e-05
-0.000427827519544
-0.000395356328874
-0.000411859684364
0.00195877043352
-0.000868318597033
0.00217087598055
-0.00132270647072
0.00216236366178
-0.00177008964032
0.00213122094754
-0.0022080789795
0.00208932305669
-0.00263461856236
0.00203806829303
-0.00304788614744
0.00197837960839
-0.00344629701307
0.00191123659595
-0.00382851672925
0.00183766318353
-0.0041934530301
0.00175869729291
-0.00454025329095
0.00167535306257
-0.00486828112153
0.00158860088464
-0.0051771049254
0.00149934115744
-0.00546646631729
0.00140839827197
-0.00573626707787
0.00131650593272
-0.00598653590594
0.00122431346874
-0.00621741841197
0.00113237884127
-0.00642914587161
0.00104118315106
-0.00662203117789
0.000951127773329
-0.00679644087407
0.000862552949001
-0.00695279733188
0.000775735371597
-0.00709155408952
0.000690908253147
-0.00721320385716
0.000608257133178
-0.00731825577991
0.00052793940898
-0.00740724762376
0.000450077050979
-0.00748072405311
0.000374774900008
-0.00753925235393
0.000302111230283
-0.00758340062181
0.00023215479585
-0.00761375501339
0.000164951985137
-0.0076308975272
0.000100543958162
-0.00763542483063
3.89515672721e-05
-0.00762792462349
-1.98076178008e-05
-0.00760899566042
-7.57355247817e-05
-0.00757922280003
-0.000128835960767
-0.00753919835117
-0.000179131840297
-0.00748949647102
-0.000226647219772
-0.00743069501089
-0.000271424816782
-0.0073633491129
-0.000313507617022
-0.00728801401585
-0.000352956427689
-0.00720521831983
-0.000389830541113
-0.00711548758206
-0.000424206333327
-0.00701931748158
-0.000456156479455
-0.00691719885183
-0.000485769021321
-0.00680959015884
-0.000513126655512
-0.00669694343883
-0.000538324960998
-0.00657967717027
-0.000561452403627
-0.00645820252863
-0.000582608652716
-0.00633289650012
-0.000601883837858
-0.00620412898109
-0.000619377222954
-0.00607223688265
-0.000635176252886
-0.00593755094266
-0.000649375809737
-0.0058003701094
-0.000662057760708
-0.00566098887747
-0.000673309361989
-0.00551967233028
-0.000683203675006
-0.00537668305962
-0.000691818038023
-0.00523225695849
-0.000699214592262
-0.00508663016324
-0.000705459613076
-0.00494001496081
-0.000710604274046
-0.0047926261263
-0.000714703441336
-0.00464465755176
-0.000717797631301
-0.00449630732449
-0.000719932335437
-0.00434775522676
-0.000721139301756
-0.00419918668949
-0.000721456567287
-0.00405077036044
-0.000720910538202
-0.00390268169685
-0.000719534156626
-0.0037550789514
-0.000717353521436
-0.00360812637067
-0.000714402167134
-0.00346197281344
-0.000710705841448
-0.00331677194278
-0.000706300720381
-0.00317266032591
-0.000701218943161
-0.00302977719946
-0.000695503083254
-0.00288824406626
-0.00068919180489
-0.0027481822215
-0.000682336237293
-0.00260969289199
-0.000674985452764
-0.00247287434283
-0.000667199631047
-0.00233780378694
-0.000659036390297
-0.00220455267788
-0.00065056424187
-0.0020731694113
-0.000641849850351
-0.00194369362469
-0.000632968912531
-0.00181614142126
-0.000623993319826
-0.00169051822855
-0.000615001970654
-0.00156680541429
-0.0006060696705
-0.00144497124224
-0.000597274485386
-0.00132495932763
-0.000588688612048
-0.00120669679432
-0.000580384919689
-0.00109008319309
-0.000572428411926
-0.000974993912776
-0.00056488290804
-0.000861263462783
-0.000557805939643
-0.000748680275696
-0.000551262375738
-0.000636948034792
-0.000545352413393
-0.000525717451306
-0.000540208885907
-0.000414592093629
-0.000536107884472
-0.000303346205367
-0.000533558003357
-0.000192961406241
-0.000533304590174
-8.76566209427e-05
-0.000533321444396
-0.000483101447974
-0.000421985043727
0.00238095491343
-0.000889421022152
0.00263852365132
-0.00135443764581
0.00262759375227
-0.00181186220199
0.00258885905847
-0.00225914132075
0.00253681611419
-0.00269409228234
0.00247323340573
-0.0031148031194
0.00239930496646
-0.00351964097811
0.00231628927541
-0.00390725783639
0.00222549524909
-0.00427658218656
0.00212823711983
-0.00462680551588
0.00202579219363
-0.0049573581629
0.00191936946033
-0.00526788500386
0.00181008407519
-0.00555821508507
0.00169894431932
-0.00582833615613
0.00158684283712
-0.00607836502813
0.00147455771305
-0.00630852633315
0.00136275497785
-0.00651912812652
0.00125199887176
-0.00671054708988
0.00114275961432
-0.00688321015559
0.00103542743938
-0.007037586625
0.00093032159113
-0.00717417473143
0.000827704035476
-0.00729349911044
0.000727786813966
-0.00739610077347
0.000630743598685
-0.00748253800867
0.000536713655801
-0.00755337900471
0.000445811752648
-0.00760920468826
0.000358128797442
-0.00765060134416
0.000273739043134
-0.00767816504953
0.00019269845245
-0.00769249364829
0.000115050244101
-0.00769419163872
4.08215739148e-05
-0.0076838613218
-2.99717798752e-05
-0.00766210805541
-9.73291682378e-05
-0.00762953134678
-0.000161259647492
-0.0075867296816
-0.00022178778462
-0.00753429099915
-0.000278947469629
-0.00747279809107
-0.00033278732195
-0.00740281888508
-0.000383364316455
-0.00732491222118
-0.000430749250697
-0.0072396178761
-0.000475019481472
-0.00714746369969
-0.000516264332742
-0.00704895514705
-0.000554577723449
-0.00694458324651
-0.000590063281531
-0.00683481455022
-0.000622826919069
-0.00672009879862
-0.000652982286985
-0.00660085988229
-0.000680642311997
-0.00647750492594
-0.000705924799496
-0.00635041489779
-0.000728944570508
-0.00621995397225
-0.000749819114988
-0.00608646048389
-0.00076866017377
-0.00595025725609
-0.000785579628457
-0.00581164354224
-0.000800681359409
-0.00567090500771
-0.000814067696818
-0.00552830573594
-0.000825831729276
-0.00538409872072
-0.000836063352551
-0.00523851838161
-0.000844841798463
-0.00509179118768
-0.000852242685622
-0.0049441282127
-0.000858331183697
-0.00479573496712
-0.000863169026439
-0.00464680487004
-0.000866807563206
-0.00449752800751
-0.000869296788553
-0.00434808473226
-0.0008706770721
-0.0041986556915
-0.000870987187361
-0.00404941075136
-0.000870263391405
-0.00390051922116
-0.000868540051944
-0.00375214412454
-0.000865848788751
-0.00360444801484
-0.00086222432525
-0.00345758561483
-0.000857699646046
-0.00331170960723
-0.000852313535773
-0.00316696357784
-0.000846106767904
-0.00302348746588
-0.00083912601192
-0.00288140999814
-0.000831420786807
-0.0027408536402
-0.000823048834329
-0.00260192817588
-0.000814071597824
-0.00246473381191
-0.000804559132146
-0.00232935402144
-0.000794585489169
-0.00219586098147
-0.000784230752417
-0.00206430933281
-0.00077357878794
-0.00193473913859
-0.00076272016722
-0.00180716989363
-0.000751746968986
-0.00168160547327
-0.000740754048968
-0.00155802812291
-0.000729837430261
-0.00143640209364
-0.000719093586573
-0.00131666979201
-0.000708616166097
-0.00119875326148
-0.00069849894607
-0.00108254919703
-0.000688831784473
-0.000967930346714
-0.000679703054019
-0.00085473871417
-0.000671200181409
-0.000742785125598
-0.000663419925195
-0.000631844821977
-0.000656497222287
-0.000521673438056
-0.00065057976304
-0.000412108983207
-0.000645869362243
-0.000303200092433
-0.000642666747575
-0.000195545655018
-0.000641148224088
-9.10488434866e-05
-0.000638005290272
-0.000574246224736
-0.00043453675112
0.00281568998754
-0.000915643829005
0.00311984245149
-0.00139387302635
0.00310603506001
-0.00186373577905
0.00305893462388
-0.00232247191574
0.00299576520827
-0.00276774137575
0.00291871629948
-0.00319752645375
0.00282930382297
-0.00361014042039
0.002729117563
-0.00400422858512
0.00261979812223
-0.00437875417154
0.00250297797171
-0.00473297562493
0.00238022921652
-0.00506641428107
0.00225302415727
-0.00537882076055
0.00212270670987
-0.00567013795361
0.00199047793382
-0.0059404675698
0.00185738868215
-0.00619003692913
0.0017243432432
-0.00641917279655
0.00159210641104
-0.00662827592201
0.00146131705431
-0.00681780378229
0.00133250140106
-0.00698825372026
0.00120609023164
-0.00714015335589
0.00108243233609
-0.00727405040296
0.000961810446686
-0.00739050903414
0.000844452361861
-0.00749010344753
0.000730542428689
-0.0075734180631
0.000620229484152
-0.00764104412349
0.000513635700429
-0.00769358065743
0.000410859209699
-0.00773163146595
0.000311979546186
-0.00775580651887
0.000217058371022
-0.00776671870559
0.000126142226842
-0.00776498451979
3.9261528908e-05
-0.00775122026168
-4.35678446408e-05
-0.00772604313965
-0.000122344569018
-0.00769006639619
-0.000197081462045
-0.00764389947742
-0.000267806994474
-0.00758814337317
-0.000334563426525
-0.00752339066584
-0.000397407781809
-0.00745022116526
-0.000456409841572
-0.00736920188477
-0.000511653069465
-0.00728088311255
-0.000563231684622
-0.00718579899923
-0.00061125090499
-0.00708446367041
-0.000655824937663
-0.00697737145286
-0.000697076833209
-0.00686499438853
-0.000735135160733
-0.00674778375413
-0.000770133842999
-0.00662616725539
-0.000802209876567
-0.00650055010476
-0.000831502935867
-0.00637131390395
-0.000858152054534
-0.00623881878747
-0.000882295460752
-0.00610340204851
-0.000904068445677
-0.0059653806525
-0.000923602389894
-0.00582505022778
-0.000941023284551
-0.00568268833358
-0.000956450655729
-0.00553855462223
-0.000969996316212
-0.00539289337039
-0.000981764649502
-0.00524593385585
-0.000991850692022
-0.00509789350551
-0.00100034107047
-0.00494897805885
-0.00100731341122
-0.00479938512747
-0.00101283680455
-0.00464930426144
-0.00101697134374
-0.00449892069206
-0.00101977069663
-0.00434841137598
-0.0010212840799
-0.00419794877302
-0.0010215542658
-0.00404770345381
-0.00102061982152
-0.00389784354062
-0.00101851725091
-0.00374853475653
-0.00101528083137
-0.0035999399393
-0.00101094804683
-0.00345221663161
-0.00100555725112
-0.00330552057435
-0.000999149099688
-0.00316000110628
-0.000991770674854
-0.00301580216873
-0.000983474267658
-0.00287305956349
-0.00097431729221
-0.0027319003021
-0.000964366616344
-0.0025924400613
-0.000953694680048
-0.00245478443101
-0.000942381994553
-0.00231902434244
-0.000930516892954
-0.00218523587409
-0.000918194651947
-0.00205347776926
-0.000905516130535
-0.00192379237655
-0.000892588533643
-0.0017962031121
-0.000879522631925
-0.00167071387112
-0.000866432900323
-0.00154730783946
-0.00085343600715
-0.00142594759172
-0.000840648984757
-0.0013065736113
-0.000828187734275
-0.00118910506932
-0.000816167244755
-0.00107343841871
-0.000804700320353
-0.000959446326163
-0.00079389886821
-0.000846978982136
-0.000783873373401
-0.000735863892041
-0.000774741307726
-0.000625928238887
-0.000766638698139
-0.000516995157827
-0.0007597202175
-0.000408936600022
-0.000754128880177
-0.000301785798321
-0.000750007521858
-0.000195836849191
-0.000747296833119
-9.19988141745e-05
-0.000742041874854
-0.000666336928023
-0.00044979256786
0.00326567992866
-0.000947523727448
0.00361778279317
-0.00144178412706
0.00360050675806
-0.00192668357076
0.0035440454753
-0.00239919987606
0.00346849354294
-0.00285680115296
0.00337652995654
-0.00329734649989
0.00327006218836
-0.00371909416593
0.00315107875281
-0.00412069520458
0.00302161340476
-0.00450117073417
0.00288366825972
-0.00485987621329
0.0027391501655
-0.00519645847604
0.00258982228928
-0.00551080925447
0.00243727393658
-0.00580301951383
0.00228290480946
-0.0060733363237
0.00212792242796
-0.00632212548703
0.00197334915702
-0.00654983911987
0.00182003671791
-0.00675699016014
0.00166868411507
-0.0069441320536
0.00151985871553
-0.00711184399333
0.00137401635711
-0.00726072030878
0.00123152158981
-0.00739136423926
0.00109266540493
-0.00750438294497
0.000957680100076
-0.0076003864617
0.000826752308515
-0.00767998745333
0.000700034009413
-0.00774380084247
0.000577649141871
-0.00779244483385
0.000459699538164
-0.00782654119288
0.000346267912226
-0.0078467152074
0.000237419756962
-0.00785359523821
0.000133204432752
-0.00784781251958
3.36554289944e-05
-0.00782999863332
-6.1211171038e-05
-0.00780078524426
-0.00015139388116
-0.00776080048836
-0.000236909010924
-0.00771066772801
-0.000317789868458
-0.00765100247988
-0.000394086403816
-0.00758241043221
-0.000465865663684
-0.007505484226
-0.000533210170474
-0.00742080245697
-0.000596217770956
-0.00732892656516
-0.000654999392173
-0.00723039945474
-0.000709679263469
-0.0071257429294
-0.000760392089362
-0.00701545806358
-0.000807282272509
-0.00690002231514
-0.000850501252507
-0.00677988989783
-0.000890206951282
-0.00665548996009
-0.000926560539264
-0.00652722840619
-0.000959725817188
-0.00639548581963
-0.000989866131329
-0.00626061975275
-0.00101714371935
-0.00612296308729
-0.00104171743603
-0.00598282727356
-0.001063741144
-0.00584050173922
-0.00108336170622
-0.00569625681629
-0.00110071881446
-0.00555034375569
-0.0011159422129
-0.00540299839409
-0.00112915275161
-0.00525444120778
-0.00114045973716
-0.0051048807765
-0.00114996267706
-0.00495451492051
-0.00115774896278
-0.00480353424445
-0.00116389578538
-0.0046521215446
-0.00116847019537
-0.00450045147777
-0.00117153474663
-0.00434869645056
-0.00117314022621
-0.00419702748334
-0.00117333137995
-0.00404561325125
-0.00117214863869
-0.00389462136163
-0.00116962998402
-0.00374421665191
-0.00116581218429
-0.00359456344963
-0.00116073346354
-0.00344582455895
-0.00115443361604
-0.0032981592876
-0.00114695685722
-0.00315172336251
-0.00113835392594
-0.00300666604218
-0.00112868351186
-0.00286313061394
-0.00111800918062
-0.0027212517641
-0.00110640624401
-0.00258115341795
-0.00109395811676
-0.00244294722311
-0.00108075740074
-0.00230673098458
-0.00106690645121
-0.00217258673648
-0.001052516155
-0.00204057981518
-0.00103770415101
-0.00191075678984
-0.00102259633397
-0.00178314376963
-0.00100732388987
-0.00165774632945
-0.000992021868834
-0.0015345488186
-0.000976827999204
-0.00141351336079
-0.000961881738538
-0.0012945795426
-0.000947321276099
-0.00117766439698
-0.000933284558955
-0.00106266258135
-0.000919906414526
-0.00094944718296
-0.000907320861827
-0.000837871806156
-0.000895656958443
-0.000727776696823
-0.000885046505656
-0.000619001837892
-0.000875624497824
-0.000511396084384
-0.000867530982815
-0.000404831653219
-0.000860896282116
-0.000299248319281
-0.000855798251254
-0.000194725202413
-0.000852015037969
-9.18035945292e-05
-0.00084515727371
-0.000758240768905
-0.000468091795879
0.00373396745123
-0.000985742095423
0.00413564220134
-0.00149916009229
0.00411413408523
-0.00200194798186
0.00404704364389
-0.00249075861908
0.00395751473954
-0.00296282799969
0.00384881061379
-0.00341587635335
0.0037233224112
-0.00384811125707
0.00358352636486
-0.00425821185232
0.0034319274123
-0.00464529107717
0.00327096181274
-0.00500884413987
0.00310291822822
-0.0053486883858
0.00292988241239
-0.00566490252366
0.00275370446394
-0.00595776716606
0.00257598654484
-0.0062277130258
0.0023980856021
-0.00647527547553
0.00222112931049
-0.00670105890623
0.00204603765527
-0.00690570792797
0.00187355057379
-0.00708988766974
0.00170425515157
-0.00725426895902
0.00153861367424
-0.0073995208014
0.00137698806077
-0.0075263045554
0.00121966239661
-0.00763527374525
0.00106686037328
-0.00772707431012
0.00091876173694
-0.00780234709926
0.000775512681601
-0.00786172988071
0.000637234677199
-0.00790586035341
0.000504028907677
-0.00793537717691
0.000375979551164
-0.00795092204819
0.000253154685406
-0.00795313963057
0.000135607007985
-0.00794267743813
2.33725668092e-05
-0.00792018365397
-8.35316701264e-05
-0.00788630647665
-0.000185104331435
-0.00784169124187
-0.000281364485492
-0.00778697816083
-0.000372350559838
-0.00772279914068
-0.000458120851066
-0.00764977538858
-0.00053875296205
-0.00756851496998