/*--------------------------------*- C++ -*----------------------------------*\
| =========                 |                                                 |
| \\      /  F ield         | OpenFOAM: The Open Source CFD Toolbox           |
|  \\    /   O peration     | Version:  v1906                                 |
|   \\  /    A nd           | Web:      www.OpenFOAM.com                      |
|    \\/     M anipulation  |                                                 |
\*---------------------------------------------------------------------------*/
FoamFile
{
    version     2.0;
    format      ascii;
    class       surfaceScalarField;
    location    "812";
    object      phia;
}
// * * * * * * * * * * * * * * * * * * * * * * * * * * * * * * * * * * * * * //

dimensions      [0 3 -1 0 0 0 0];
oriented        oriented;


internalField   nonuniform List<scalar> 
18240
(
0.00085028082994
-0.00085013252724
0.00174272548669
-0.000892255065843
0.00263307392823
-0.000890205070177
0.00351628142027
-0.000883009428961
0.00438939673765
-0.000872983991276
0.00524999337484
-0.000860391914858
0.00609557388006
-0.000845461523911
0.00692408319095
-0.000828299568006
0.00773329526642
-0.000809105800259
0.00852148646858
-0.000787978172938
0.00928671285153
-0.000765133246989
0.0100275937062
-0.000740666186568
0.0107424765911
-0.000714802861553
0.0114303168322
-0.000687625512554
0.0120897398945
-0.000659356180271
0.0127200061421
-0.000630052944496
0.0133199822843
-0.000599922014528
0.0138891812436
-0.000568988508746
0.0144266565255
-0.000537433658574
0.0149321072178
-0.000505244410635
0.0154047092455
-0.00047257225956
0.0158442756625
-0.000439365525997
0.0162500397901
-0.000405745725939
0.0166218607856
-0.000371626556565
0.0169589725872
-0.000337103874109
0.017261224543
-0.000302064885894
0.0175278101747
-0.000266587451655
0.0177585324164
-0.000230543260946
0.0179525246812
-0.000194002729575
0.0181095307059
-0.000156835709477
0.0182286301851
-0.000119117704405
0.0183095211868
-8.07297983019e-05
0.0183512618549
-4.17655046127e-05
0.0183535500686
-2.13655143457e-06
0.0183154901675
3.80292770772e-05
0.0182368554837
7.87763438666e-05
0.0181168893226
0.000119930712103
0.0179555401987
0.000161480217491
0.0177523034621
0.0002031971016
0.0175074160298
0.000245007385625
0.0172207432108
0.000286629859453
0.0168929195604
0.000327932119442
0.016524285801
0.000368588321212
0.0161159651354
0.000408417977376
0.0156688558855
0.000447062683495
0.015184639968
0.000484303475483
0.0146648387594
0.000519754846572
0.0141117611739
0.00055315811699
0.0135276265064
0.000584089930159
0.0129154683838
0.000612235683136
0.0122783143507
0.000637111584386
0.0116200605532
0.00065833262138
0.010944669678
0.000675350190792
0.0102570143939
0.000687737555038
0.00956202869919
0.000694944287821
0.00886549730462
0.000696614733074
0.0081731020065
0.000692349544925
0.00749113045986
0.000682048970136
0.00682540811334
0.000665667809511
0.00618190596936
0.000643564133665
0.0055656315585
0.000616207376318
0.00498127427236
0.00058439543232
0.00443230942371
0.000548885971618
0.0039216928332
0.000510629625335
0.00345124866167
0.000470359996941
0.0030223399684
0.000428900146132
0.00263509837745
0.000387158835318
0.0022888164781
0.000346260116021
0.00198159964479
0.000307142324465
0.00171100872228
0.000270564278212
0.00147402201234
0.000236923945324
0.00126757729006
0.000206418221697
0.00108851830785
0.000179008222447
0.00093391648446
0.00015457766367
0.000800953459077
0.000132923028591
0.000687066753082
0.000113865387798
0.000589819785444
9.72157120291e-05
0.000507004341254
8.27967793054e-05
0.000436603515783
7.0376563081e-05
0.000376875353403
5.97126967358e-05
0.000326299041657
5.05580087431e-05
0.000283603451008
4.26830582413e-05
0.000247759616295
3.5829983034e-05
0.000218113125995
2.96364710995e-05
0.000194925007743
2.31774515281e-05
0.000175250068596
1.96661416528e-05
0.000157003648846
1.8237015074e-05
0.000141151291726
1.58434336021e-05
0.000125936600105
1.52048479802e-05
0.000110108001154
1.58187669219e-05
9.44016530772e-05
1.56948719969e-05
7.88619331308e-05
1.55283677454e-05
6.1956586398e-05
1.68923745034e-05
4.24800174887e-05
1.94607193929e-05
2.05365888373e-05
2.19229170559e-05
2.05261303311e-05
0.000897753638213
-0.00174772205448
0.00185104830516
-0.001845367001
0.00279910937116
-0.00183809689806
0.00373862698503
-0.00182234402541
0.00466707252144
-0.00180126484623
0.00558197912845
-0.00177511627288
0.00648084082542
-0.0017441640628
0.00736138435735
-0.00170866272082
0.00822136082886
-0.00166892971394
0.00905881576851
-0.00162525586716
0.00987181906553
-0.00157799142283
0.0106587662426
-0.00152744039097
0.0114180600507
-0.00147395973409
0.0121484422498
-0.00141784002724
0.0128486320944
-0.00135941776984
0.0135176855092
-0.00129894484693
0.0141545959563
-0.00123671334901
0.014758678226
-0.00117291622718
0.0153291380894
-0.00110778379784
0.015865478358
-0.0010414377513
0.0163670443379
-0.000974038121954
0.0168334501525
-0.000905632586538
0.017264107266
-0.000836312324819
0.0176586689066
-0.000766058011165
0.0180165485091
-0.000694902506813
0.018337379693
-0.000622774702695
0.018620530883
-0.000549666929938
0.0188655777774
-0.000475477685907
0.0190718196274
-0.0004001817853
0.0192387606943
-0.000323673160684
0.019365634275
-0.000245936905854
0.0194518918548
-0.000166892479604
0.0194967371574
-8.65643797258e-05
0.0194996164857
-4.92956585412e-06
0.0194597700042
7.79147108051e-05
0.0193767218851
0.000161902267266
0.0192498490941
0.000246835299919
0.0190788645967
0.000332533978658
0.0188634043669
0.000418682256539
0.0186034960074
0.000504976413665
0.018299162356
0.000590981830776
0.0179508669683
0.000676279705928
0.0175591325814
0.000760335012779
0.0171249569684
0.00084263797257
0.0166494470788
0.000922579900027
0.0161342052811
0.000999583231801
0.0155809851342
0.00107297898208
0.0149920571795
0.00114211984059
0.0143698953284
0.00120625450761
0.0137175367638
0.00126462682774
0.0130383005788
0.001316351573
0.0123361480116
0.00136051958401
0.0116154099409
0.00139609426601
0.0108811269148
0.00142205769585
0.0101387279516
0.00143734958103
0.00939430410914
0.00144107574769
0.00865417710856
0.001432478348
0.0079250724087
0.00141118404847
0.0072135568462
0.00137717418804
0.00652606820279
0.00133106732078
0.00586823464252
0.00127401548733
0.00524500137759
0.00120762012552
0.00466022286744
0.00113362185823
0.0041168533046
0.00105397221658
0.00361692999859
0.000970229481142
0.00316195604433
0.000883833644926
0.00275225316046
0.00079680297078
0.00238690217082
0.000711565709592
0.00206372298972
0.000630265373244
0.00177978801383
0.000554455883237
0.00153168881534
0.000484973920939
0.00131594784695
0.000422120910297
0.00112913291396
0.000365781956399
0.00096805284988
0.000315625403173
0.000829733338964
0.000271209025781
0.000711445148253
0.000232126596689
0.000610611877754
0.00019802178123
0.000524847059724
0.000168538782015
0.000451999644887
0.000143202002216
0.000390215793656
0.000121478378205
0.000337890403041
0.000102866353262
0.000293633734478
8.69254176926e-05
0.000256209207177
7.32412240916e-05
0.000224380017593
6.14543519016e-05
0.000196149702668
5.13973634333e-05
0.000172018131247
4.37883684946e-05
0.000152516284675
3.77295384466e-05
0.000136319968302
3.2030641487e-05
0.000121735090644
2.97803585438e-05
0.000107420059587
3.01237551202e-05
9.22891778885e-05
3.0814914517e-05
7.68293278381e-05
3.09769941428e-05
6.07843298044e-05
3.29244036028e-05
4.25926620091e-05
3.76371906445e-05
2.08189353915e-05
4.36786456068e-05
4.13357722708e-05
0.000905976775893
-0.00265353125802
0.00186493264104
-0.00280414489844
0.00281971464185
-0.00279270264537
0.00376600764336
-0.0027684588358
0.00470107279134
-0.00273615691125
0.0056223247491
-0.00269619239142
0.00652725442419
-0.00264892472872
0.00741351940776
-0.0025947554397
0.00827889462103
-0.00253414098995
0.00912136165035
-0.00246755537883
0.00993903472432
-0.00239550667751
0.0107302521026
-0.00231849600742
0.0114934817007
-0.00223703843314
0.0122274152426
-0.00215161843655
0.0129308560642
-0.00206271536877
0.0136028159491
-0.00197075695253
0.0142423876262
-0.00187615000739
0.0148488447016
-0.0017792335033
0.0154215023011
-0.00168031509591
0.0159598211123
-0.00157962522721
0.0164632600578
-0.00147735976196
0.0169313859363
-0.00137363596997
0.0173637224231
-0.0012685407528
0.0177598666007
-0.0011620887401
0.0181193379249
-0.00105427500829
0.018441702383
-0.000945034832726
0.0187264245267
-0.000834299432157
0.0189729992526
-0.000721957099205
0.0191808091836
-0.000607910952325
0.0193492639578
-0.000492041431622
0.0194776653755
-0.00037426614507
0.0195653536816
-0.000254502790392
0.0196115825865
-0.000132729261982
0.0196156729868
-8.95020218847e-06
0.0195768993502
0.000116744499495
0.0194946493302
0.00024421404787
0.0193683216561
0.000373211540068
0.0191974885547
0.000503420944264
0.018981802718
0.000634409176303
0.0187211567806
0.000765668405706
0.0184155943209
0.000896578099508
0.0180654590281
0.00102645345446
0.0176713041601
0.00115451679502
0.0172340254018
0.00127994820806
0.0167547663416
0.00140185989528
0.0162350357113
0.00151933952298
0.0156766147842
0.00163141627622
0.0150816703173
0.00173708594722
0.0144526787293
0.00183526018489
0.0137925531048
0.00192477283182
0.0131045979264
0.00200432142299
0.0123926585688
0.00207248068031
0.011661094419
0.00212767553719
0.0109149205132
0.00216825506088
0.0101597381358
0.0021925508518
0.00940179420836
0.00219904161332
0.00864779698251
0.00218649142109
0.0079048495582
0.00215414473736
0.00718013611165
0.00210189082481
0.00648061182632
0.00203058991466
0.00581235386282
0.0019422557475
0.00518048612598
0.00183946558814
0.00458901143202
0.00172505926923
0.00404060090092
0.00160234584721
0.00353725381344
0.00147352892516
0.00308092950294
0.00134011180426
0.00267227611549
0.00120540395627
0.00231012696065
0.00107366664493
0.0019917501215
0.000948592519301
0.00171354185928
0.000832619423133
0.00147155734256
0.000726914966731
0.00126190515315
0.000631734076478
0.00108092153686
0.000546728955411
0.000925298224155
0.000471216102794
0.000792072115532
0.000404404741793
0.000678546190597
0.000345625557188
0.000582134668728
0.000294407604761
0.000500354062217
0.000250296357226
0.000430994322856
0.000212540344014
0.000372221233934
0.000180233150935
0.000322479615064
0.000152591416258
0.000280415544637
0.000128974920743
0.000244859183476
0.000108784499161
0.000214759363208
9.15426137316e-05
0.000188930574839
7.72156604175e-05
0.000166496124558
6.62130596982e-05
0.000145970559773
5.82454146795e-05
0.000127227964848
5.0764032764e-05
0.000111985870643
4.50130575503e-05
9.95285709584e-05
4.25709710407e-05
8.48551851375e-05
4.54774558047e-05
6.81612228643e-05
4.76599469855e-05
5.14325194476e-05
4.96414428053e-05
3.38436191554e-05
5.52125125025e-05
1.7138888399e-05
6.0368136981e-05
5.84669124604e-05
0.000914404716404
-0.00356776700064
0.00188134717195
-0.00377090715386
0.0028442086191
-0.00375538607034
0.00379844372353
-0.00372251564254
0.00474119584054
-0.00367873340134
0.0056697842452
-0.00362460561834
0.00658165176772
-0.00356062025448
0.00747439985337
-0.00348733240431
0.00834578603504
-0.00340536000315
0.00919375712304
-0.00331536050776
0.0100164346799
-0.00321802292461
0.0108121421835
-0.00311404369871
0.0115793785454
-0.00300412026345
0.012316839588
-0.00288892665495
0.0130233807154
-0.00276910945869
0.0136980333945
-0.00264526449306
0.0143399586913
-0.00251793640295
0.0149484601425
-0.00238759808304
0.0155229306638
-0.00225465531434
0.0160628640243
-0.00211943042799
0.0165677984696
-0.00198217288693
0.0170373296176
-0.00184304798604
0.0174710543479
-0.00170215333194
0.0178685877259
-0.00155951216819
0.018229510147
-0.00141509452907
0.0185533900417
-0.00126881396367
0.0188397361869
-0.00112055180138
0.0190880269557
-0.00097015613149
0.0192976690467
-0.000817468170778
0.0194680338405
-0.000662323244585
0.0195984239209
-0.000504579898916
0.0196881171216
-0.000344121420743
0.0197363426081
-0.000180886619888
0.0197423343849
-1.48754870511e-05
0.0197053181276
0.000153821030444
0.019624573957
0.000325016901336
0.0194994339496
0.000498404176298
0.0193293520823
0.000673553846296
0.0191139089964
0.000849897394584
0.0188528834232
0.00102673747184
0.018546257195
0.00120324206961
0.0181942794683
0.00137846731607
0.0177974630522
0.00155136386439
0.0173566331856
0.00172080731468
0.0168729096206
0.00188560763417
0.0163477393321
0.00204453296687
0.0157828703261
0.00219630406938
0.0151803827837
0.00233959221911
0.014542676683
0.00247298189844
0.0138725301647
0.00259493653584
0.0131731296928
0.00270373704153
0.0124481781517
0.00279745098366
0.011701966182
0.00287390349399
0.0109395008487
0.00293074303917
0.0101665325257
0.00296553454979
0.00938959936401
0.0029759992689
0.0086158906538
0.00296021101011
0.00785317474481
0.00291687632582
0.00710957346584
0.002845491306
0.006393086572
0.0027470723891
0.00571038940675
0.00262493414901
0.00506693679414
0.0024828877888
0.00446697293344
0.00232498698037
0.0039123280378
0.00215695022536
0.00340460430541
0.00198120969622
0.0029471334926
0.00179753617314
0.00254135820114
0.0016111329018
0.00218564588104
0.00142933367411
0.00187612665255
0.00125806766542
0.0016079970675
0.00110070840471
0.00137640507497
0.000958467474511
0.00117685188181
0.000831252111594
0.00100533043776
0.000718216542764
0.000858418728125
0.000618098205423
0.000733244409796
0.000529551007193
0.000627267366265
0.000451577044424
0.000537909089849
0.00038374165346
0.000462459050528
0.00032572337001
0.000398563704727
0.000276415125095
0.000344475890821
0.000234302800907
0.000298767320657
0.00019828386674
0.000260150965135
0.000167576798007
0.000227579841994
0.000141342652883
0.000200192993698
0.000118917745888
0.00017728933503
0.000100108856875
0.000155033748514
8.84584459623e-05
0.000134905747803
7.83635493168e-05
0.000117345055029
6.83151454988e-05
0.00010046303813
6.18856262603e-05
8.38365398081e-05
5.91877587974e-05
7.14696175161e-05
5.78346166088e-05
5.59822680171e-05
6.31367791086e-05
3.89706970426e-05
6.66420628654e-05
2.51610492899e-05
6.90113006761e-05
1.28896747622e-05
7.26268879294e-05
7.13497335038e-05
0.000925303164024
-0.00449289963199
0.00190337333234
-0.00474879841597
0.00287721193901
-0.00472904429079
0.00384214622061
-0.00468727107043
0.00479521703174
-0.00463162671513
0.00573364620317
-0.00456285890453
0.00665480353844
-0.0044816038763
0.00755622724959
-0.00438858443113
0.00843563540813
-0.00428459927907
0.00929094298757
-0.00417050174891
0.0101202641726
-0.0040471811268
0.0109219210304
-0.00391554055914
0.0116944358482
-0.00377647888742
0.0124365313112
-0.00363086929464
0.013147113479
-0.00347954299788
0.0138252642395
-0.00332327029554
0.0144702162232
-0.00316274792716
0.0150813391947
-0.00299858452211
0.015658109318
-0.00283129365791
0.0162000922899
-0.0026612857177
0.0167069104053
-0.00248886823349
0.0171782260813
-0.00231424511139
0.0176137106119
-0.00213752432341
0.0180130314868
-0.00195872374577
0.0183758258178
-0.00177778456711
0.0187016935361
-0.00159458159873
0.0189901769934
-0.00140894010739
0.0192407606988
-0.00122064877288
0.0194528575986
-0.00102947877733
0.0196258157919
-0.000835199083355
0.0197589125935
-0.000637598933892
0.0198513693392
-0.000436504151777
0.0199023552096
-0.000231802852579
0.0199110128188
-2.34670613794e-05
0.0198764738229
0.000188421854175
0.0197978964011
0.000403652671038
0.0196744931229
0.000621861731977
0.0195055788516
0.000842518962625
0.0192906072787
0.00106491581023
0.0190292229576
0.0012881652357
0.018721297522
0.00151120700214
0.018366974491
0.00173282649524
0.0179666921827
0.00195167845598
0.0175212085355
0.00216632006589
0.0170316002659
0.00237524124906
0.0164992636861
0.00257689209235
0.0159258950105
0.00276969220575
0.0153134846449
0.00295202000677
0.0146643111648
0.00312217166702
0.0139809718865
0.00327829011847
0.0132664462349
0.0034182795603
0.0125242051193
0.00353970498856
0.0117583754855
0.00363975393827
0.0109738935675
0.00371523730309
0.010176670783
0.00376278305389
0.00937359765002
0.00377908607122
0.008572502592
0.00376132933353
0.00778201451354
0.00370736984843
0.00701175162104
0.00361575957016
0.00627166051716
0.00348715467195
0.00556909887561
0.00332747273492
0.00491001156103
0.00314194479187
0.00429945331131
0.00293550620566
0.00373671818955
0.00271964862071
0.00322178904528
0.00249609998353
0.002761994301
0.00225729181562
0.00236065100761
0.00201243869707
0.00201505251822
0.00177489488997
0.00171904623281
0.00155404023787
0.00146577280669
0.00135394745245
0.00124905087555
0.00117515910667
0.00106359600616
0.00101667628522
0.000904981088642
0.000876804955928
0.000769701502457
0.000753351994777
0.000655183076497
0.000644046110226
0.000559341031367
0.000547396416037
0.000479673613586
0.000463386902986
0.00041288521255
0.000392490518881
0.000356246336441
0.000333034177464
0.000308300798616
0.000282231024055
0.000267901943251
0.000238666999377
0.000233789488245
0.000201674975425
0.000205053599638
0.00017006556364
0.000180964812513
0.000142994899417
0.000161137352308
0.000119925566334
0.000141739967013
0.000107845362097
0.00012296994452
9.71234563843e-05
0.000102822514084
8.84530553535e-05
8.44952989701e-05
8.02035353699e-05
6.78068921955e-05
7.58668122654e-05
5.45811700516e-05
7.10510662595e-05
4.36836338719e-05
7.40252382891e-05
2.98121015903e-05
8.05045389985e-05
1.78572477094e-05
8.09564491226e-05
8.92673767184e-06
8.15467828593e-05
8.02713567239e-05
0.00093898102682
-0.00543170895827
0.00193130222568
-0.00574093660736
0.00291913835951
-0.00571669923587
0.00389767630868
-0.00566562827521
0.00486383655929
-0.00559760812895
0.00581473050737
-0.00551357553017
0.00674763457684
-0.00541433280304
0.00766001106935
-0.005300787949
0.00854952350861
-0.00517394149593
0.00941405077257
-0.0050348615023
0.0102516930765
-0.00488465921186
0.0110607764692
-0.0047244629061
0.0118398486365
-0.00455539376969
0.0125876737329
-0.00437854065156
0.0133032183247
-0.004194937988
0.0139856371828
-0.0040055434108
0.0146342504878
-0.00381121994246
0.0152485222315
-0.0036127190734
0.015828031135
-0.00341067005113
0.0163724448855
-0.00320557123422
0.0168814888368
-0.00299778879634
0.0173549206017
-0.00278755785837
0.0177925012129
-0.00257499083007
0.0181939743187
-0.00236008714068
0.0185590432715
-0.00214274871595
0.0188873571577
-0.00192279500875
0.0191784948674
-0.00169998214891
0.0194319580067
-0.00147402044471
0.0196471616432
-0.00124459559922
0.0198234339379
-0.00101138858507
0.0199600143563
-0.000774101013872
0.0200560614238
-0.000532476714189
0.0201106611065
-0.000286332286985
0.0201228466647
-3.55860246349e-05
0.0200916205856
0.000219710452029
0.0200159892226
0.000479343031462
0.0198950001189
0.00074290587502
0.019727790949
0.00100977972649
0.0195136388734
0.00127911558103
0.0192520168234
0.00154983154351
0.0189426438559
0.00182062033262
0.0185855336523
0.0020899736358
0.0181810272633
0.00235621785859
0.0177298139365
0.00261756298804
0.0172329280316
0.00287215285289
0.0166917310488
0.00311811193215
0.0161078731826
0.00335356930754
0.0154832575899
0.00357665397742
0.0148200068006
0.00378543653546
0.0141204804422
0.00397783416318
0.0133873263515
0.00415144368808
0.0126236537901
0.00430339764482
0.0118332350856
0.00443018087264
0.0110208448713
0.00452765399846
0.0101924669349
0.00459117279519
0.00935545974131
0.0046161228918
0.00851831626771
0.00459848475821
0.0076906035329
0.00453510071926
0.00688414125927
0.00442222153024
0.00611297065344
0.00425831666529
0.00538451238731
0.00405590997694
0.00470538598657
0.00382103397124
0.00408406863287
0.00355678642302
0.00351230588839
0.00329137810459
0.00298431817332
0.00302405239674
0.00251938266887
0.00272219794486
0.00212484653794
0.00240694281294
0.00179506127427
0.00210465643494
0.00151914986711
0.00182992530711
0.00128684099736
0.00158623479451
0.00109026017052
0.00137171611604
0.000923327184231
0.00118358906984
0.000781136542796
0.001018974974
0.000660154596733
0.000874316026785
0.00055851639543
0.000745665975431
0.000475334548209
0.000630560339786
0.000408437517082
0.000530265300155
0.000352970263763
0.000447938243518
0.000305178361593
0.000380808274576
0.000264581094679
0.000322811576426
0.000230686808452
0.000272546199449
0.000202001599293
0.000230346036376
0.000177749762724
0.000194304364382
0.000157353909276
0.000163379030401
0.00013826332229
0.000139005296092
0.000119874155219
0.000126224233064
0.000103123904458
0.000113863799391
8.77167784206e-05
0.000103850909465
7.06355212214e-05
9.72754091699e-05
5.44335836749e-05
9.20597923594e-05
3.87900671025e-05
8.66867205471e-05
2.89881277328e-05
8.38192959041e-05
2.15731139178e-05
8.79113044016e-05
1.26358248267e-05
8.98861920695e-05
6.20468563146e-06
8.79697516888e-05
8.64716208503e-05
0.000955650990257
-0.00638718622231
0.00196542075368
-0.00675052443297
0.00297038794092
-0.00672148254041
0.003965550455
-0.00666060879863
0.00494768157979
-0.00657955842607
0.00591375813792
-0.00647947321988
0.00686094260383
-0.00636134039264
0.00778660487008
-0.00622627577231
0.00868834101228
-0.00607550580147
0.00956398662218
-0.00591033828019
0.0104116246835
-0.00573213156767
0.0112295880089
-0.00554226403135
0.0120164562345
-0.0053421033448
0.0127710473996
-0.00513297709077
0.0134924042899
-0.00491614405441
0.0141797755355
-0.00469276809106
0.0148325920435
-0.00446389406245
0.0154504390941
-0.00423042825708
0.0160330253535
-0.00399312283188
0.0165801496896
-0.00375256679107
0.0170916676448
-0.00350918248802
0.0175674587343
-0.00326322948486
0.0180073964075
-0.00301481360735
0.018411321344
-0.00276390199206
0.0187790191231
-0.00251034093688
0.0191102018982
-0.00225387697058
0.0194044942246
-0.00199417807774
0.0196614220068
-0.00173085643302
0.0198804047397
-0.00146349077603
0.0200607504136
-0.00119165112804
0.0202016544382
-0.000914925948584
0.0203022021768
-0.000632949587267
0.0203613783027
-0.000345437378169
0.0203780827972
-5.222352521e-05
0.0203511562197
0.000246700371223
0.0202794141138
0.000551144582378
0.020161692175
0.000860683732926
0.0199969002972
0.00117462368827
0.019784085272
0.00149197919809
0.0195224972594
0.00181146429718
0.0192116568804
0.00213150193632
0.0188514143658
0.00245025341697
0.0184419950233
0.00276567084558
0.0179840206051
0.00307556698247
0.0174785024907
0.00337769731347
0.0169268005476
0.00366983624836
0.0163305567495
0.00394983400376
0.0156916069086
0.00421561964434
0.0150119130462
0.00446514963762
0.0142935122614
0.0046962436798
0.0135385963001
0.0049063805617
0.0127496494902
0.00509234850506
0.0119298586578
0.00524999790474
0.0110835346127
0.0053739851304
0.0102167011436
0.00545803730703
0.00933722470657
0.00549562005066
0.00845431190697
0.00548142800464
0.00757768859739
0.00541173231875
0.00672219812545
0.00527771967883
0.00591185889021
0.00506864393959
0.00515041733455
0.0048173194738
0.00444528249735
0.00452612760414
0.00381884641486
0.00418318165827
0.00324053082815
0.00386964772208
0.00268508474147
0.00357945435439
0.0022085460008
0.00319870029719
0.00182541048241
0.00279004547467
0.00152130656256
0.00240873864321
0.0012753516422
0.00207585927487
0.00107188561176
0.00178968471702
0.000901593535342
0.00154199116099
0.000758060534889
0.00132710797795
0.000635819722874
0.00114120094634
0.000531167026292
0.000978956349317
0.000443664567584
0.000833154365789
0.000375432825177
0.00069877840295
0.000325539536928
0.000580141641597
0.000284936914526
0.000488525525423
0.000246902276598
0.000418826700318
0.000214284764211
0.000355414411943
0.000188145977268
0.000298670388196
0.000165737191358
0.00025274096006
0.000146529502356
0.000213499689453
0.000130652572384
0.000179244006486
0.000113654330765
0.000155992831971
9.82035518004e-05
0.000141664475262
8.19580792654e-05
0.000130099878957
6.65410157457e-05
0.000119259116207
5.16176843987e-05
0.000112190496323
3.94390458979e-05
0.000104230450501
2.7029292031e-05
9.90889706233e-05
1.67095493744e-05
9.41323996995e-05
1.27323815743e-05
9.18825423002e-05
7.61898174388e-06
9.49930695224e-05
3.67115006807e-06
9.19107976885e-05
9.01397330805e-05
0.00097550516689
-0.00736251621794
0.00200608150429
-0.00778091374454
0.00303146437704
-0.00774668046193
0.00404641945736
-0.00767537936429
0.00504753509075
-0.00758049153465
0.00603162596791
-0.00746338321261
0.00699571609203
-0.00732525187623
0.00793706485234
-0.00716744823505
0.0088531870238
-0.00699145449997
0.0097418675061
-0.00679884821029
0.0106011690074
-0.00659126589542
0.0114294346506
-0.0063703658992
0.0122252836904
-0.00613779245537
0.012987602373
-0.00589513962767
0.0137155277031
-0.00564391745956
0.0144084264274
-0.00538551898443
0.0150658670023
-0.00512119132444
0.0156875876604
-0.0048520099294
0.0162734589697
-0.0045788598857
0.0168234451785
-0.00430242323041
0.0173375634628
-0.00402317586559
0.0178158460923
-0.00374139176654
0.0182583045008
-0.00345715657253
0.018664899748
-0.00317038634616
0.0190355169627
-0.00288085212271
0.0193699467095
-0.00258820514659
0.0196678692304
-0.00229200377263
0.0199288435942
-0.00199173827549
0.0201522975789
-0.001686856809
0.0203375212147
-0.00137679092463
0.0204836615653
-0.00106098682866
0.0205897225883
-0.000738935047701
0.020654570168
-0.000410213555818
0.0206769468004
-7.45324685988e-05
0.020655495374
0.000268215508366
0.0205887968593
0.000617903239776
0.0204754200598
0.000974116802311
0.0203139863881
0.00133611011182
0.0201032453339
0.00170276913592
0.0198421598723
0.00207259507066
0.0195299929776
0.00244371014483
0.0191663890303
0.00281389494004
0.0187514357704
0.0031806574591
0.0182856967766
0.00354133594661
0.0177701977825
0.00389322193101
0.0172063656972
0.00423369223708
0.0165959086213
0.0045603093195
0.0159406744859
0.00487087489851
0.015242473635
0.00516336017072
0.0145029925626
0.00543574590799
0.0137237368805
0.00568563843485
0.0129062837425
0.00590982444407
0.0120526950171
0.00610358982405
0.0111664449496
0.00626026776101
0.0102533486286
0.00637115546601
0.00932223671548
0.00642677143185
0.0083830604518
0.00642062392607
0.00744257533529
0.00635223710888
0.00651784097736
0.00620244408723
0.00566169227876
0.00592476406817
0.00485780260539
0.00562117475493
0.00411393976033
0.00526994946561
0.00350556022398
0.00479148996001
0.00293544561209
0.00443968511822
0.00231215610694
0.00420271737764
0.0018097860027
0.00370099508448
0.00144903235808
0.00315079920532
0.0011893973706
0.00266831999915
0.000988652906458
0.00227661185417
0.00082382535298
0.00195447458091
0.000686574738303
0.00167924718026
0.000571776282058
0.00144187746766
0.000472929448448
0.00124004997063
0.000385149148263
0.00106671389582
0.000310416595244
0.000907884546744
0.000258349321104
0.000750824199632
0.000232658107928
0.000605825019082
0.00021305457502
0.000508112349394
0.000183439318002
0.000448429476119
0.00015805532182
0.000380785051011
0.000141543689239
0.000315168300349
0.000126163441353
0.000268109950068
0.00011191639419
0.000227734416365
0.00010047953097
0.000190669968083
8.64616874242e-05
0.000169999461574
7.34630345682e-05
0.000154653266853
5.99881184456e-05
0.000143565396791
4.58348155974e-05
0.000133404747108
3.37737660904e-05
0.000124244230249
2.21269736463e-05
0.00011587031315
1.48259341006e-05
0.000106383837588
7.97238677182e-06
0.000100980034329
4.04898591536e-06
9.58003418479e-05
2.89061346501e-06
9.61471086204e-05
1.20267278868e-06
9.35940689869e-05
9.13398124705e-05
0.000998762084077
-0.00836110050042
0.00205370673735
-0.00883567233674
0.0031029891653
-0.00879577461885
0.00414108513997
-0.0087132891333
0.00516436104935
-0.00860358243063
0.00616943508992
-0.00846827433998
0.00715316653774
-0.00830880249979
0.0081126833286
-0.00812678679947
0.00904540488553
-0.00792400056416
0.00994905689542
-0.00770232792282
0.0108216798908
-0.00746371985922
0.0116616306495
-0.00721015134248
0.0124675780606
-0.00694357824606
0.0132384917421
-0.00666589582876
0.0139736249035
-0.0063788971809
0.0146724891859
-0.00608423429879
0.015334823467
-0.00578338094338
0.0159605548662
-0.00547760138552
0.0165497553767
-0.00516792494952
0.0171025937253
-0.0048551310109
0.0176192874939
-0.0045397436689
0.0181000560497
-0.00422203930953
0.0185450795696
-0.00390206370464
0.0189544637246
-0.0035796590525
0.0193282133641
-0.00325449487449
0.0196662120279
-0.00292610177158
0.0199682080757
-0.00259390220862
0.020233802488
-0.00225723977108
0.0204624390889
-0.00191540473143
0.0206533936673
-0.00156766133067
0.0208057657315
-0.0012132787547
0.0209184712096
-0.000851564686388
0.0209902434715
-0.000481913796996
0.0210196420114
-0.000103863091524
0.0210050755358
0.000282846261088
0.0209448393224
0.000678199759795
0.0208371721706
0.00108184070813
0.0206803308846
0.00149300419625
0.0204726847516
0.00191046447916
0.0202128233794
0.00233250155158
0.0198996742399
0.00275690060114
0.0195326148875
0.00318099124218
0.0191115672682
0.00360173851703
0.0186370486746
0.00401588344206
0.0181101651402
0.0044201321936
0.0175325175869
0.00481136124609
0.0169060345511
0.00518681489233
0.0162327089728
0.00554421342623
0.015514332697
0.00588175687514
0.0147521921254
0.00619788948479
0.0139469627095
0.00649088723954
0.0130987526203
0.00675803607224
0.0122077898057
0.00699458454011
0.0112757310688
0.00719234396336
0.0103079095247
0.00733901862414
0.00931553925
0.00741916751491
0.00831090389493
0.00742528401217
0.00728719264774
0.00737593354911
0.00625422772491
0.00723535406758
0.00535828788705
0.0068206929365
0.00449626086671
0.00648317787493
0.00367049108527
0.00609563987533
0.00315346949269
0.00530846562201
0.00265041440272
0.00494272393934
0.00184446774367
0.00500859903981
0.00129925147128
0.00424623307625
0.000995928641599
0.00345405239959
0.000823244874043
0.00284103463262
0.000692736769547
0.00240706033478
0.000574916596619
0.00207231717116
0.000472966550271
0.00178114969006
0.000389555951704
0.0015253013941
0.000315379359675
0.00131419061776
0.000240320824306
0.00114177729524
0.000168332209695
0.000979845403499
0.000126859416348
0.000792290582696
0.000136210388855
0.00059645547211
0.000148897034166
0.000495409558414
0.000117448857134
0.000479869293692
9.47655656351e-05
0.000403450825959
9.25615903515e-05
0.000317365274364
8.52534480709e-05
0.00027540366581
7.48825864164e-05
0.000238094918054