/*--------------------------------*- C++ -*----------------------------------*\
| =========                 |                                                 |
| \\      /  F ield         | OpenFOAM: The Open Source CFD Toolbox           |
|  \\    /   O peration     | Version:  v1906                                 |
|   \\  /    A nd           | Web:      www.OpenFOAM.com                      |
|    \\/     M anipulation  |                                                 |
\*---------------------------------------------------------------------------*/
FoamFile
{
    version     2.0;
    format      ascii;
    class       surfaceScalarField;
    location    "216";
    object      phi;
}
// * * * * * * * * * * * * * * * * * * * * * * * * * * * * * * * * * * * * * //

dimensions      [0 3 -1 0 0 0 0];
oriented        oriented;


internalField   nonuniform List<scalar> 
18240
(
-0.000352695619345
0.000352648344287
-0.000738889192136
0.000386141929182
-0.00112474589748
0.000385806937917
-0.00150565893521
0.000380860920835
-0.00187954884994
0.00037384079918
-0.00224469255545
0.000365091524057
-0.00259956379832
0.000354822886726
-0.00294282628289
0.000343210394147
-0.00327330406018
0.000330430236439
-0.00359000861351
0.000316652707562
-0.003892105949
0.000302050662184
-0.00417894275003
0.000286785347902
-0.00445000371246
0.000271015179899
-0.00470493572634
0.000254881088535
-0.00494349839585
0.000238517787599
-0.00516558834224
0.000222039661859
-0.0053711866123
0.000205554266007
-0.00556038488945
0.000189148719628
-0.00573333272935
0.000172904678214
-0.00589026650793
0.000156885000159
-0.00603145831115
0.000141149419536
-0.00615724756177
0.000125741266958
-0.00626799245835
0.000110703219619
-0.00636410364283
9.60639722766e-05
-0.00644599836948
8.1853666005e-05
-0.00651413536035
6.80904904829e-05
-0.00656897148626
5.47955955325e-05
-0.00661099704129
4.19796739454e-05
-0.00664069450127
2.96573683559e-05
-0.00665857382165
1.78339409813e-05
-0.00666513313831
6.5195906476e-06
-0.00666089290936
-4.28524075498e-06
-0.00664635500001
-1.45773347387e-05
-0.00662203904775
-2.43607361413e-05
-0.00658844524002
-3.36329680861e-05
-0.00654608890311
-4.24010307832e-05
-0.00649546114154
-5.0666678633e-05
-0.00643706521342
-5.84406583885e-05
-0.00637137614443
-6.57277286069e-05
-0.00629887916888
-7.25418508776e-05
-0.00622002736574
-7.88901779458e-05
-0.0061352830327
-8.47894395282e-05
-0.00604507252211
-9.02485371042e-05
-0.00594983146335
-9.52864578275e-05
-0.00584995594132
-9.99131300671e-05
-0.00574585244725
-0.000104149220766
-0.00563788458573
-0.000108004946783
-0.00552642857257
-0.000111502076319
-0.00541181464159
-0.000114650390896
-0.00529438881761
-0.000117472204641
-0.00517444828623
-0.000119976230803
-0.00505231006602
-0.00012218487161
-0.00492823962864
-0.000124105251263
-0.00480252696328
-0.000125759509185
-0.00467540789549
-0.000127152839492
-0.00454714788739
-0.000128306933715
-0.00441795558966
-0.000129224889443
-0.0042880745416
-0.00012992790722
-0.00415768874945
-0.000130417036867
-0.00402702224328
-0.000130713113751
-0.00389623664821
-0.000130815355224
-0.00376553832236
-0.000130744455922
-0.00363506825276
-0.000130498184676
-0.00350501623599
-0.00013009740837
-0.00337550367935
-0.000129538908684
-0.00324670401354
-0.000128844023692
-0.00311871940866
-0.000128009064313
-0.00299170631537
-0.000127056100961
-0.00286574736674
-0.000125981443356
-0.00274098067064
-0.000124808022797
-0.00261746857414
-0.00012353255898
-0.0024953290543
-0.000122178840776
-0.00237460321484
-0.000120744275726
-0.00225538689961
-0.00011925332417
-0.00213769909025
-0.000117704251801
-0.00202161166467
-0.000116121859863
-0.00190712093815
-0.00011450529836
-0.00179427336806
-0.000112879224376
-0.00168304264577
-0.000111243597588
-0.0015734490538
-0.000109622330346
-0.0014654445157
-0.000108015976488
-0.00135902331076
-0.000106446930268
-0.0012541176566
-0.000104915908159
-0.00115069761753
-0.000103442630532
-0.00104868006117
-0.000102026800583
-0.000948016534108
-0.000100682858015
-0.000848619786748
-9.94051699366e-05
-0.000750442539619
-9.81934091473e-05
-0.000653434035245
-9.70160835814e-05
-0.000557637459529
-9.58097237739e-05
-0.00046324530236
-9.43991269399e-05
-0.000370895633933
-9.23602636365e-05
-0.000282509468561
-8.83937502712e-05
-0.000203728243974
-7.87889890777e-05
-0.000117610136823
-8.61263040646e-05
-0.000117615626449
-0.000389846768757
0.000742444548345
-0.000825097673331
0.000821338712277
-0.0012578891846
0.000818544810124
-0.00168439523274
0.000807312745536
-0.00210269301754
0.000792085303182
-0.0025110107364
0.000773355284664
-0.00290769373988
0.000751453119607
-0.00329125905864
0.000726722142759
-0.00366040470513
0.000699523726963
-0.00401402774781
0.00067022269052
-0.00435121122682
0.000639182691024
-0.00467123061165
0.000606752296635
-0.00497352984964
0.000573263750799
-0.00525772231892
0.000539021841379
-0.00552356117039
0.000504306807052
-0.00577093865835
0.000469366225055
-0.00599985476454
0.000434421404707
-0.00621041766227
0.000399661528814
-0.00640281337601
0.00036525228841
-0.00657730885614
0.000331331241066
-0.00673422414341
0.00029801744149
-0.00687393841992
0.00026540713468
-0.00699686512038
0.000233583438514
-0.00710346057866
0.000202611801799
-0.00719420186304
0.000172549178242
-0.00726959728968
0.000143438990587
-0.00733016643355
0.000115319582688
-0.00737645173905
8.82186552127e-05
-0.00740900004445
6.21610317753e-05
-0.00742837457649
3.71626374675e-05
-0.00743513687223
1.32376536457e-05
-0.00742985995493
-9.60762324995e-06
-0.0074131135337
-3.13676725076e-05
-0.00738547497793
-5.20444997012e-05
-0.00734751083723
-7.16407945093e-05
-0.00729979052704
-9.01663954134e-05
-0.00724286963679
-0.000107631085681
-0.00717730343073
-0.000124051850872
-0.00710362955523
-0.000139444996013
-0.00702238250346
-0.000153833884104
-0.00693407561919
-0.000167240342186
-0.00683921698843
-0.000179693084364
-0.00673829045747
-0.000191218230828
-0.0066317733587
-0.000201848615841
-0.00652011623445
-0.000211613263216
-0.00640376277035
-0.000220547775988
-0.00628312789741
-0.000228682623814
-0.0061586202556
-0.000236054804395
-0.00603061834343
-0.000242694821903
-0.00589949577995
-0.000248639788277
-0.00576559517092
-0.000253918982675
-0.00562925637386
-0.000258568539043
-0.00549078776684
-0.00026261550572
-0.00535049765634
-0.000266094231349
-0.00520866266461
-0.000269028855547
-0.00506556234481
-0.000271451473853
-0.00492144445592
-0.000273383023196
-0.0047765627781
-0.00027485325403
-0.00463113912214
-0.000275879995336
-0.00448540425403
-0.000276490914955
-0.004339556592
-0.000276701188707
-0.00419380607043
-0.000276536963682
-0.00404832961334
-0.000276011492005
-0.00390331767835
-0.000275150152072
-0.00375892674521
-0.00027396516437
-0.00361532819688
-0.00027248195552
-0.00347265823092
-0.000270712628821
-0.00333106863887
-0.000268683398633
-0.00319067470289
-0.000266407059394
-0.00305160734517
-0.000263911158471
-0.00291395972799
-0.000261209772027
-0.00277784014623
-0.00025833204308
-0.00264331815711
-0.000255293639146
-0.002510477506
-0.000252125241454
-0.00237936271301
-0.00024884411394
-0.00225003123903
-0.000245482101994
-0.0021225014952
-0.000242057783745
-0.00199680339834
-0.000238603514774
-0.00187292881479
-0.000235138649885
-0.00175087961015
-0.00023169515306
-0.00163062153394
-0.000228292371578
-0.00151212886595
-0.000224960686462
-0.00139534280634
-0.000221718270817
-0.00128021187278
-0.000218592142331
-0.0011666559255
-0.000215597102343
-0.00105460171239
-0.000212753137535
-0.000943953596164
-0.000210065809904
-0.000834623402526
-0.000207537304991
-0.000726506345882
-0.000205143763299
-0.000619496573302
-0.000202830542318
-0.000513436261901
-0.000200468940909
-0.000408005364135
-0.000197800798616
-0.000302083112493
-0.000194322999137
-0.000191763042316
-0.000189116138156
-8.57832475675e-05
-0.000192112433704
-0.000203401140027
-0.000396799697921
0.00113919321895
-0.000837685316148
0.00126217012147
-0.00127672553548
0.00125753075779
-0.00170940861662
0.00123994151934
-0.00213361011626
0.00121623283424
-0.00254746819021
0.00118715939013
-0.00294928480878
0.00115321622275
-0.0033375484755
0.00111493230654
-0.00371094509509
0.00107286739042
-0.00406836662992
0.00102759130431
-0.00440890492678
0.000979668697212
-0.00473184773898
0.000929642874701
-0.00503666222929
0.000878026703817
-0.00532298435244
0.000825292504415
-0.00559059755085
0.000771869291369
-0.00583942016785
0.000718138217632
-0.00606948350523
0.000664434891056
-0.0062809204739
0.000611048742771
-0.00647394563041
0.000558228471195
-0.00664884672691
0.000506183454447
-0.00680596788026
0.000455090478403
-0.00694570442908
0.000405095642838
-0.00706848932978
0.00035632103378
-0.00717479092445
0.000308866138333
-0.00726510203427
0.000262813717412
-0.00733993987889
0.000218230274598
-0.00739983710944
0.000175170883678
-0.00744534308
0.000133678657962
-0.00747701607898
9.37886317965e-05
-0.00749542531927
5.55263878036e-05
-0.00750114386377
1.89112183455e-05
-0.00749475102807
-1.60455864469e-05
-0.0074768255298
-4.93378387098e-05
-0.00744794804422
-8.09668562276e-05
-0.00740869441797
-0.00011093887105
-0.00735963837509
-0.000139267147592
-0.00730134473043
-0.00016596904342
-0.00723437254655
-0.000191068655777
-0.00715926826764
-0.0002145935031
-0.00707656941178
-0.000236577321571
-0.00698679759162
-0.000257056336989
-0.00689046294011
-0.000276072300619
-0.00678805698247
-0.000293668309704
-0.00668005796785
-0.000309892175706
-0.00656692351897
-0.000324791760937
-0.0064490970087
-0.000338418784585
-0.00632699990031
-0.000350823659921
-0.00620103926758
-0.000362059838922
-0.00607159970023
-0.000372178132498
-0.0059390520316
-0.000381231690063
-0.00580374467846
-0.000389269802679
-0.00566601359551
-0.000396343593919
-0.00552617289167
-0.000402499296303
-0.0053845259963
-0.000407784721755
-0.00524135540661
-0.000412242018099
-0.00509693500946
-0.000415914952044
-0.00495151880773
-0.00041884113888
-0.0048053543137
-0.0004210601528
-0.00465867014999
-0.000422605237125
-0.00451169040235
-0.000423512207173
-0.00436462101277
-0.000423810634467
-0.00421766496953
-0.000423533483372
-0.00407100749967
-0.000422707781006
-0.00392483196053
-0.000421364876007
-0.00377930388806
-0.000419530603384
-0.00363458745868
-0.000417236040095
-0.00349082856046
-0.000414507208468
-0.0033481716844
-0.000411376162634
-0.00320674223415
-0.000407870290736
-0.00306666370775
-0.000404023573614
-0.00292803955749
-0.00039986559344
-0.00279097049962
-0.00039543278461
-0.00265553625117
-0.000390757282463
-0.00252181279506
-0.000385878005536
-0.00238985437851
-0.000380829520071
-0.00225971051821
-0.000375652783211
-0.0021314086219
-0.000370384209606
-0.00200497050599
-0.000365065921277
-0.00188039601697
-0.000359735221933
-0.00175767879257
-0.000354434176063
-0.00163679121672
-0.000349199675549
-0.0015176991393
-0.00034407215828
-0.00140034848633
-0.00033908640257
-0.00128467859328
-0.000334279099484
-0.0011706106196
-0.000329680363781
-0.00105805886188
-0.000325319668106
-0.000946920205049
-0.000321217683575
-0.000837080381187
-0.000317389674536
-0.000728398118859
-0.000313837137867
-0.000620689967994
-0.000310549070703
-0.000513668064911
-0.000307499678434
-0.000406804000049
-0.000304673591222
-0.000298973135683
-0.000302162597521
-0.000187714525449
-0.000300379833442
-7.80343853656e-05
-0.00030179664108
-0.000281437939951
-0.000402989213184
0.00154213111198
-0.00084997510674
0.00170910145795
-0.00129509993617
0.00170260099977
-0.00173362433154
0.00167841136778
-0.00216328848805
0.00164584267436
-0.00258213929934
0.00160595603265
-0.00298842209094
0.00155944513741
-0.00338059232384
0.00150704886182
-0.00375732438113
0.00144954612903
-0.0041175146472
0.00138772849838
-0.00446027503204
0.0013223764323
-0.00478492309647
0.0012542385788
-0.00509096539247
0.00118401711633
-0.00537808079056
0.00111235634167
-0.00564609968707
0.00103983714364
-0.0058949858961
0.000966973727716
-0.00612481627511
0.000894215112059
-0.00633576468881
0.00082194735246
-0.00652808463822
0.000750499162726
-0.00670209691207
0.0006801468194
-0.00685817610688
0.000611121297948
-0.00699674215916
0.000543613648529
-0.00711825050993
0.00047778184046
-0.00722318688072
0.000413755260575
-0.0073120602647
0.000351640309921
-0.00738539998626
0.000291523455209
-0.0074437505563
0.000233475312063
-0.00748767008507
0.000177552243258
-0.00751772617057
0.000123799109937
-0.00753449497513
7.22497263352e-05
-0.00753855761634
2.2928664774e-05
-0.00753049937229
-2.41489376794e-05
-0.00751090611583
-6.89759870858e-05
-0.00748036373706
-0.000111554090709
-0.00743945476953
-0.0001518925304
-0.00738875778303
-0.000190008833949
-0.00732884388444
-0.000225927514436
-0.00726027638938
-0.000259680766664
-0.00718360741549
-0.000291306987943
-0.00709937789714
-0.000320851417005
-0.00700811431603
-0.000348364394951
-0.00691032918749
-0.000373901985195
-0.00680651796727
-0.000397523976958
-0.00669716011201
-0.000419294557612
-0.006582716179
-0.000439280086324
-0.00646362952621
-0.000457549901644
-0.00634032358031
-0.000474173900232
-0.00621320420703
-0.000489223559315
-0.0060826571009
-0.000502769365987
-0.00594905081704
-0.00051488212785
-0.00581273420488
-0.000525630290941
-0.00567404005971
-0.000535081604194
-0.00553328250256
-0.000543300368464
-0.00539076118015
-0.000550349503247
-0.00524675847259
-0.000556287754033
-0.00510154414472
-0.000561172194434
-0.00495537225823
-0.00056505541312
-0.00480848616377
-0.000567988454511
-0.0046611149983
-0.000570017978246
-0.00451347890137
-0.000571189618529
-0.0043657850041
-0.000571545094804
-0.00421823276837
-0.000571125931653
-0.00407100940953
-0.000569970475422
-0.00392429527577
-0.000568117893647
-0.0037782587041
-0.000565605047092
-0.00363306139131
-0.000562470667894
-0.0034888527358
-0.000558752034906
-0.00334577518044
-0.000554489222141
-0.00320395815212
-0.000549721549707
-0.00306352338076
-0.00054449180442
-0.00292457858883
-0.000538842458443
-0.00278722280091
-0.000532819778337
-0.00265153996332
-0.000526469846763
-0.00251760425467
-0.000519842496834
-0.00238547382375
-0.000512987196057
-0.00225519609433
-0.000505956761662
-0.00212680179916
-0.000498803197491
-0.00200031024444
-0.000491581154631
-0.00187572379963
-0.000484343819042
-0.00175303305122
-0.000477146079203
-0.00163221186558
-0.000470040559688
-0.00151322231842
-0.00046308044018
-0.00139601037934
-0.000456315701648
-0.00128051038879
-0.000449795502458
-0.00116664118576
-0.000443564668603
-0.00105430949183
-0.000437665517025
-0.00094340542242
-0.000432134682499
-0.000833802371901
-0.000427004707919
-0.000725347689868
-0.000422302502361
-0.000617851722258
-0.000418054601822
-0.000511063465132
-0.00041429726323
-0.000404638917629
-0.000411106633831
-0.000298137580232
-0.000408669924402
-0.000191216126458
-0.000407307285177
-8.67999897357e-05
-0.000406217368398
-0.000368238783591
-0.000410968134998
0.00195304757994
-0.00086642058927
0.0021644991324
-0.0013197868211
0.00215591223926
-0.00176613506285
0.00212470474692
-0.00220307082579
0.00208272374473
-0.00262853534536
0.00203136606416
-0.00304070122621
0.0019715567781
-0.00343798181835
0.00190427547127
-0.00381903782955
0.00183054846703
-0.00418277586395
0.00175141317627
-0.00452833847979
0.00166788605791
-0.00485508877816
0.00158093625818
-0.0051625900845
0.0014914662166
-0.00545058394459
0.00140029841229
-0.00571896659166
0.00130816844854
-0.00596776661786
0.00121572285923
-0.00619712331593
0.0011235213812
-0.00640726779814
0.00103204186831
-0.00659850574651
0.000941687612654
-0.00677120339016
0.000852795423331
-0.00692577517192
0.000765644492098
-0.00706267438458
0.000680464710773
-0.00718238505796
0.000597444783895
-0.00728541622821
0.000516739098826
-0.00737229684124
0.000438473965335
-0.00744357239793
0.000362752399469
-0.00749980164814
0.000289658268568
-0.00754155449798
0.000219259081123
-0.00756940952171
0.000151608378868
-0.00758395235828
8.67470224664e-05
-0.00758577344243
2.47044050969e-05
-0.00757546632787
-3.45012458672e-05
-0.00755362551064
-9.08618542079e-05
-0.00752084470024
-0.000144379859542
-0.00747771446312
-0.000195067629777
-0.00742482059334
-0.000242947524408
-0.00736274161689
-0.000288051251508
-0.00729204731774
-0.000330419819647
-0.00721329635691
-0.000370102663768
-0.00712703507658
-0.000407157425532
-0.00703379534582
-0.00044164882347
-0.00693409375816
-0.000473648287996
-0.00682842979368
-0.000503232620224
-0.00671728548919
-0.000530483549739
-0.00660112396234
-0.000555486247776
-0.00648038959528
-0.000578328891007
-0.00635550692959
-0.000599101106132
-0.00622688136706
-0.000617893619901
-0.00609489840528
-0.000634796705842
-0.00595992482679
-0.000649900002412
-0.00582230821363
-0.000663291030364
-0.00568237856374
-0.000675055251257
-0.00554044799081
-0.000685274710153
-0.00539681267913
-0.000694028396313
-0.00525175265428
-0.0007013910601
-0.00510553396269
-0.000707433912165
-0.00495840838219
-0.000712223637961
-0.00481061569645
-0.0007158234473
-0.00466238321991
-0.000718292284206
-0.00451392803943
-0.000719686197346
-0.00436545623967
-0.000720057709986
-0.00421716500194
-0.000719457444507
-0.00406924146179
-0.000717933590619
-0.00392186458735
-0.000715533684414
-0.00377520364392
-0.000712304085178
-0.00362941981958
-0.000708291799731
-0.00348466433497
-0.000703543879994
-0.0033410798363
-0.000698109165747
-0.00319879822758
-0.000692037537393
-0.00305794188234
-0.000685381487071
-0.00291862132833
-0.00067819517508
-0.00278093635594
-0.000670535761417
-0.0026449736878
-0.000662462263845
-0.00251080806558
-0.000654036626154
-0.00237850004665
-0.000645322401249
-0.0022480971368
-0.000636385561018
-0.00211963182198
-0.000627293061085
-0.00199312278901
-0.000618113424447
-0.00186857327618
-0.00060891525097
-0.00174597238601
-0.000599767607817
-0.00162529377706
-0.00059073854946
-0.0015064970233
-0.000581895353561
-0.00138952659103
-0.000573303104061
-0.00127431309098
-0.000565024807714
-0.00116077229454
-0.000557120124724
-0.00104880583622
-0.000549645502264
-0.000938299584963
-0.000542653373979
-0.000829122538399
-0.000536193002538
-0.000721123439108
-0.000530311842003
-0.000614127221671
-0.000525060155761
-0.000507932134058
-0.000520500184921
-0.000402321459936
-0.000516725126296
-0.000297119875788
-0.000513879710549
-0.000192385368449
-0.000512045686772
-8.9662565292e-05
-0.000508942343216
-0.00045790306418
-0.000421113760368
0.00237410926963
-0.000887564723693
0.00263089474326
-0.00135158135027
0.00261987347043
-0.00180799119338
0.00258105927133
-0.00225423642734
0.00252891385965
-0.00268813038446
0.00246520510465
-0.00310775700236
0.00239112873179
-0.0035114804368
0.00230794450868
-0.0038979491066
0.00221696305586
-0.00426608927078
0.00211949958651
-0.00461508930885
0.00201683272171
-0.00494437763153
0.00191017158721
-0.00525359615172
0.00180063217866
-0.00554257219312
0.00168922231856
-0.00581129008672
0.00157683468452
-0.00605986458003
0.00146424614622
-0.00628851632845
0.00135212242607
-0.00649755078639
0.00124102608507
-0.00668733995888
0.00113142705193
-0.00685830776961
0.00102371395627
-0.00701091802539
0.000918205962972
-0.00714566544502
0.000815163775482
-0.00726306853804
0.000714799979617
-0.00736366470801
0.000617287759993
-0.0074480063626
0.000522768516639
-0.00751665842119
0.000431357688436
-0.00757019611228
0.000343149530045
-0.00760920352072
0.000258220330393
-0.00763427194983
0.000176630916391
-0.00764599863551
9.84280206822e-05
-0.00764498505413
2.36453307563e-05
-0.00763183518873
-4.76964599615e-05
-0.00760715395355
-0.00011558830639
-0.00757154507661
-0.000180033864523
-0.0075256090146
-0.000241048745531
-0.00746994098002
-0.000298660568329
-0.00740512868082
-0.000352908526932
-0.00733175040384
-0.000403843058752
-0.00725037288749
-0.000451525133626
-0.00716154964319
-0.000496025623609
-0.00706581911629
-0.000537424302464
-0.00696370338638
-0.000575808970982
-0.00685570671895
-0.000611274231759
-0.00674231473377
-0.00064392046717
-0.00662399340203
-0.000673852482055
-0.00650118872213
-0.000701178438502
-0.0063743261754
-0.000726008460856
-0.00624381090372
-0.000748453631193
-0.00611002759929
-0.000768624650859
-0.00597334114526
-0.000786630987194
-0.00583409688067
-0.000802579680307
-0.00569262163093
-0.000816574725236
-0.00554922425671
-0.000828716106711
-0.00540419696874
-0.000839099485312
-0.00525781603979
-0.000847815522078
-0.00511034327443
-0.000854949916846
-0.00496202674196
-0.000860583061446
-0.00481310225798
-0.000864790444697
-0.00466379398651
-0.000867642627164
-0.00451431579379
-0.000869205985887
-0.00436487158581
-0.000869542961692
-0.00421565641883
-0.000868713069933
-0.0040668564751
-0.000866773317827
-0.00391864985339
-0.00086377938331
-0.00377120613829
-0.000859786067475
-0.0036246868711
-0.000854848501417
-0.00347924472355
-0.000849022512761
-0.00333502368453
-0.000842365729187
-0.0031921579209
-0.000834937737265
-0.0030507717743
-0.000826800988546
-0.00291097842537
-0.000818020663392
-0.00277287981599
-0.000808665322402
-0.00263656525447
-0.000798806453704
-0.00250211138364
-0.000788518856472
-0.00236958085663
-0.000777879889225
-0.00223902244448
-0.00076696961784
-0.00211046989595
-0.00075586982225
-0.00198394224628
-0.000744663966313
-0.00185944292409
-0.000733436049934
-0.00173696027201
-0.000722270457247
-0.00161646692291
-0.000711250741232
-0.00149792049064
-0.000700459421027
-0.00138126315645
-0.00068997679674
-0.00126642241355
-0.000679880768113
-0.00115331070568
-0.000670245833986
-0.00104182597612
-0.00066114312363
-0.000931851113591
-0.000652639943307
-0.0008232540928
-0.000644800663823
-0.000715887496117
-0.000637687828562
-0.000609590153539
-0.000631365762295
-0.000504193175432
-0.000625905526106
-0.000399535430608
-0.000621390367903
-0.000295506137895
-0.00061791364706
-0.000192151153046
-0.00061540553211
-9.03261167299e-05
-0.000610770579581
-0.000548229158941
-0.000433690255124
0.00280774694583
-0.000913839301378
0.00311098806347
-0.00139109443234
0.00309707263564
-0.00185996753825
0.0030498765628
-0.00231769343803
0.00298658411026
-0.00276192799843
0.00290938424146
-0.00319064953109
0.00281979508926
-0.00360216818533
0.00271940827234
-0.00399512615411
0.00260986644888
-0.0043684844372
0.0024928036465
-0.00472149890029
0.00236979333831
-0.00505368915426
0.00224230841223
-0.00536480351961
0.00211169354362
-0.00565478300964
0.00197914928001
-0.00592372659829
0.00184572621125
-0.0061718593711
0.00171232736676
-0.0063995046012
0.00157971659087
-0.00660706012212
0.0014485310682
-0.00679497915813
0.00131929603791
-0.00696375521139
0.00119244048238
-0.00711391073848
0.00106831243085
-0.00724598887152
0.000947193345432
-0.00736054781378
0.000829310787782
-0.00745815709092
0.000714849351716
-0.00753939535505
0.000603959469135
-0.0076048490017
0.000496764407942
-0.00765511143344
0.000393365341888
-0.00769078240186
0.000293844987234
-0.00771246741559
0.000198269853624
-0.00772077685568
0.000106691611992
-0.00771632494912
1.91477403194e-05
-0.00769972796254
-6.43389759493e-05
-0.00767160311806
-0.000143758573881
-0.00763256622924
-0.000219116089573
-0.00758322969561
-0.000290430560713
-0.00752420030328
-0.000357735208884
-0.00745607693722
-0.000421077122433
-0.00737944841647
-0.000480516809489
-0.00729489131512
-0.000536127464516
-0.0072029680577
-0.000587994125395
-0.00710422505535
-0.000636212551745
-0.00699919121665
-0.000680888067577
-0.00688837653127
-0.000722134166771
-0.00677227108357
-0.00076007115701
-0.00665134415401
-0.000794824624061
-0.00652604376318
-0.000826524004441
-0.00639679630553
-0.000855301033075
-0.0062640066168
-0.000881288359715
-0.00612805811527
-0.000904618093292
-0.00598931334736
-0.00092542057734
-0.00584811457017
-0.000943823133773
-0.0057047847015
-0.000959949101713
-0.00555962824008
-0.000973916874352
-0.00541293251133
-0.000985839293197
-0.00526496878703
-0.000995823056496
-0.00511599368357
-0.00100396853371
-0.00496625032008
-0.00101036958959
-0.00481596970346
-0.00101511384442
-0.00466537175674
-0.00101828291325
-0.00451466652384
-0.00101995307546
-0.00436405491494
-0.00102019587438
-0.0042137295834
-0.00101907910359
-0.00406387528072
-0.00101666764634
-0.00391466932791
-0.00101302462659
-0.00376628153022
-0.00100821234666
-0.00361887420886
-0.00100229342365
-0.00347260171337
-0.000995331662159
-0.00332761006282
-0.000987393004187
-0.00318403615776
-0.000978546185428
-0.00304200713828
-0.000968863376621
-0.00290163943309
-0.000958420532641
-0.00276303797927
-0.00094729763635
-0.0026262952688
-0.000935578719136
-0.0024914905716
-0.000923351701523
-0.00235868913148
-0.000910708103931
-0.00222794150996
-0.000897742543492
-0.00209928303468
-0.000884552203781
-0.00197273335081
-0.000871236072315
-0.00184829618192
-0.000857894268294
-0.00172595911992
-0.000844627126469
-0.00160569368968
-0.000831534475633
-0.00148745536981
-0.000818714686199
-0.00137118389808
-0.000806263996587
-0.00125680346943
-0.000794275652921
-0.00114422317992
-0.000782839422843
-0.00103333734134
-0.000772041036703
-0.000924026090104
-0.000761962154255
-0.000816155957187
-0.000752680482524
-0.00070958167477
-0.000744270842708
-0.00060414906111
-0.000736806285839
-0.00049970099233
-0.000730359887341
-0.000396091569879
-0.000725006252532
-0.000293207003796
-0.000720805479388
-0.00019101527931
-0.000717599527211
-9.00790756421e-05
-0.000711707232511
-0.000638309327322
-0.000448976238844
0.00325667005939
-0.000945781243166
0.00360773657671
-0.0014390991506
0.00359033402474
-0.00192303860494
0.0035337595771
-0.00239457271468
0.00345806198734
-0.00285116500006
0.00336592050859
-0.003290670805
0.00325924513788
-0.00371134512453
0.00314002712203
-0.00411183644019
0.00301030262777
-0.00449116368636
0.00287207611063
-0.00484868057866
0.00272725585556
-0.00518403235695
0.00257760623242
-0.00549710920155
0.00242471690323
-0.0057880002489
0.00226998730951
-0.00605695064924
0.00211462411755
-0.00630432374143
0.00195964846527
-0.00653056890839
0.00180591031808
-0.00673619571418
0.0016541069471
-0.00692175366649
0.00150480362321
-0.0070878174408
0.00135845439282
-0.00723497639079
0.00121542205778
-0.00736382796191
0.00107599606458
-0.00747497375155
0.000940408222965
-0.00756901788125
0.000808845546519
-0.00764656655729
0.000681460643811
-0.00770822862008
0.000558379321824
-0.00775461620571
0.00043970613229
-0.00778634549655
0.000325527758273
-0.00780403697915
0.000215915081904
-0.00780831534647
0.00011092392075
-0.00779980899267
1.05955062792e-05
-0.00777914829625
-8.50454252866e-05
-0.00774696453699
-0.000175987981082
-0.00770388777067
-0.000262238439723
-0.00765054451848
-0.000343819355784
-0.00758755539663
-0.000420769856328
-0.00751553265313
-0.000493145393084
-0.00743507775749
-0.000561017241937
-0.00734677907746
-0.000624471703007
-0.0072512097375
-0.00068360904097
-0.00714892567393
-0.000738542212047
-0.00704046395756
-0.000789395389151
-0.00692634136765
-0.000836302366304
-0.00680705327634
-0.000879404844229
-0.00668307280086
-0.000918850670976
-0.00655485028314
-0.000954792048451
-0.00642281303111
-0.000987383750891
-0.00628736537785
-0.00101678139496
-0.00614888898329
-0.0010431397682
-0.00600774342301
-0.00106661128991
-0.00586426698621
-0.0010873445761
-0.00571877770754
-0.00110548320695
-0.00557157455589
-0.00112116465384
-0.00542293878266
-0.00113451945607
-0.00527313535527
-0.00114567061292
-0.00512241445793
-0.00115473325067
-0.00497101298576
-0.00116181454383
-0.00481915601016
-0.00116701390709
-0.00466705813156
-0.0011704234465
-0.00451492471567
-0.00117212864835
-0.00436295291001
-0.00117220928915
-0.00421133250245
-0.00117074050342
-0.0040602464644
-0.00116779399419
-0.00390987131958
-0.00116343933022
-0.00376037714667
-0.00115774524491
-0.00361192745636
-0.00115078094454
-0.00346467867739
-0.00114261727797
-0.003318779621
-0.00113332785564
-0.0031743705509
-0.00112298989531
-0.00303158238175
-0.00111168500329
-0.00289053550072
-0.00109949956489
-0.00275133888048
-0.00108652510145
-0.0026140888401
-0.00107285816964
-0.00247886824564
-0.00105860030495
-0.00234574538047
-0.0010438574522
-0.00221477337773
-0.00102873957391
-0.00208598932668
-0.00101335971563
-0.0019594140197
-0.000997833382381
-0.00183505136699
-0.000982277376555
-0.00171288847847
-0.000966809066119
-0.00159289540489
-0.000951545128244
-0.00147502553156
-0.000936600828757
-0.00135921561134
-0.000922088816909
-0.00124538642218
-0.000908118526384
-0.00113344306988
-0.000894795176903
-0.00102327590256
-0.000882219436796
-0.000914761216698
-0.000870486822347
-0.000807762781079
-0.000859687815526
-0.000702133546308
-0.000849907686277
-0.00059771911855
-0.000841227188557
-0.000494363503024
-0.000833722354647
-0.000391914688416
-0.000827460996745
-0.000290234901646
-0.000822487974826
-0.000189236379139
-0.000818601446744
-8.93500990235e-05
-0.000811595267689
-0.000727658482753
-0.000467310972587
0.00372392724917
-0.000984073644717
0.00412444226227
-0.00149658575408
0.00410278888701
-0.00199844872526
0.00403556546398
-0.00248630961336
0.00394586596061
-0.00295739991116
0.00383695412618
-0.00340943585365
0.00371122466161
-0.00384062211136
0.00357115726062
-0.00424963547547
0.00341926021007
-0.0046355873523
0.0032579725847
-0.00499797164971
0.00308958515966
-0.0053366049051
0.00291618495224
-0.00565156463744
0.00273962257147
-0.00594313051414
0.00256149964678
-0.00621173161652
0.00238317219763
-0.00645790145622
0.00220576585436
-0.00668224161225
0.00203019856472
-0.00688539355116
0.0018572075701
-0.00706801819752
0.00168737749468
-0.00723078186696
0.00152116787486
-0.00737434778523
0.00135893830411
-0.00749937161262
0.00120097077405
-0.00760650033095
0.00104748828952
-0.00769637303225
0.000898670091464
-0.00776962322826
0.00075466308063
-0.00782688144636
0.000615590196891
-0.00786877802987
0.000481555686872
-0.00789594521291
0.000352648234585
-0.0079090186903
0.000228942077439
-0.00790863805276
0.000110497024265
-0.00789544697151
-2.6416934269e-06
-0.00787009178313
-0.000110446595625
-0.0078332196188
-0.000212906055092
-0.00778547701944
-0.000310026892887
-0.00772750701381
-0.000401835199188
-0.00765994647992
-0.000488376230569
-0.00758342342315
-0.000569714307686