/*--------------------------------*- C++ -*----------------------------------*\
| =========                 |                                                 |
| \\      /  F ield         | OpenFOAM: The Open Source CFD Toolbox           |
|  \\    /   O peration     | Version:  v1906                                 |
|   \\  /    A nd           | Web:      www.OpenFOAM.com                      |
|    \\/     M anipulation  |                                                 |
\*---------------------------------------------------------------------------*/
FoamFile
{
    version     2.0;
    format      ascii;
    class       volScalarField;
    location    "965";
    object      pa;
}
// * * * * * * * * * * * * * * * * * * * * * * * * * * * * * * * * * * * * * //

dimensions      [0 2 -2 0 0 0 0];


internalField   nonuniform List<scalar> 
9216
(
914.708820968
914.403433998
913.771661552
912.80801858
911.517912354
909.907407922
907.984047693
905.756746795
903.235635278
900.431953057
897.357886392
894.026463154
890.451381413
886.64691135
882.62772511
878.408813585
874.005325119
869.432502844
864.705536933
859.839525125
854.849340337
849.749614424
844.554620778
839.278279464
833.934053054
828.534970405
823.093533517
817.621757023
812.131083959
806.632438326
801.136147777
795.652008859
790.189215581
784.756429677
779.361715549
774.012620709
768.716113344
763.478667646
758.30620484
753.204182752
748.177539423
743.230785559
738.367950215
733.592674871
728.908160713
724.317263235
719.822440736
715.425848367
711.129287483
706.934298167
702.842109154
698.853727924
694.969890953
691.191150614
687.51782564
683.950084203
680.487894554
677.131103855
673.879389148
670.732331665
667.68936838
664.749861733
661.913052175
659.178123359
656.544156136
654.010189405
651.575176086
649.238039848
646.997633542
644.852792068
642.802293722
640.844909396
638.979367179
637.204398065
635.518704059
633.921000452
632.409987565
630.984389597
629.64293005
628.384367067
627.207472464
626.111063452
625.093985148
624.155138486
623.293466019
622.507975778
621.797730049
621.161864724
620.599580255
620.110154953
619.69293447
619.347331186
619.072790572
618.868695297
618.733282035
618.673658824
915.013195435
914.706079636
914.072658571
913.104657193
911.808345504
910.190070539
908.257546469
906.019828226
903.487191361
900.671015114
897.583636763
894.238225074
890.648627817
886.82924846
882.794898422
878.560686379
874.141883067
869.553829146
864.811817038
859.931020045
854.926392721
849.81262124
844.604041478
839.314608773
833.957831536
828.546757664
823.093921078
817.611341996
812.11048405
806.602266034
801.097027963
795.604551034
790.134031134
784.694108905
779.292847593
773.937767962
768.635831904
763.393482667
758.21663198
753.110703968
748.080625109
743.130870785
738.265457321
733.487990196
728.801657495
724.209278871
719.713299814
715.315840516
711.018690393
706.823356083
702.731055717
698.742765349
694.859212544
691.080920654
687.408201412
683.841196592
680.379869434
677.024043409
673.773392455
670.627476732
667.585731807
664.647501469
661.812026139
659.078472926
656.445923647
653.913402419
651.479863714
649.144217811
646.90531932
644.761990821
642.713012237
640.75714294
638.893112272
637.119640321
635.435429805
633.83918562
632.329608189
630.905411816
629.565319494
628.308080017
627.132464166
626.037280457
625.021372575
624.083633581
623.223004412
622.438486336
621.729140302
621.094097403
620.532558852
620.043804491
619.627194249
619.282178599
619.008314743
618.805336533
618.673512446
618.613987935
915.646389983
915.334545123
914.695361953
913.718655724
912.410796763
910.778267665
908.828978472
906.57220282
904.018455906
901.179364545
898.06752391
894.696357486
891.07996887
887.233004603
883.170513192
878.907820703
874.460405003
869.843790189
865.073440369
860.164675493
855.132585782
849.991968674
844.757262568
839.44250265
834.061271278
828.626669648
823.151281836
817.647159407
812.125796526
806.59812517
801.074499396
795.564698897
790.077921203
784.622792784
779.207366788
773.839140039
768.525055934
763.271526118
758.084437204
752.969175937
747.930638814
742.973259771
738.101021864
733.317486609
728.625806963
724.028757517
719.5287481
715.127854057
710.827829821
706.630138591
702.535965274
698.546244921
694.661674519
690.882739661
687.209724793
683.642737712
680.181718004
676.826459167
673.57661516
670.431720088
667.391192963
664.454355078
661.620433223
658.888575017
656.257850923
653.727267896
651.295770616
648.962253836
646.725563254
644.584506925
642.537856155
640.584356296
638.722727933
636.951677303
635.269897974
633.676081005
632.168917201
630.747107047
629.409363539
628.154421826
626.981042524
625.888020949
624.874190769
623.938432662
623.079678125
622.296917379
621.589203176
620.955657841
620.395477112
619.907936699
619.49239741
619.148314255
618.875249391
618.672907457
618.541422399
618.478676717
916.619832549
916.30254179
915.654354569
914.664049777
913.33819327
911.683499059
909.708172194
907.421823583
904.835337518
901.96072871
898.810991925
895.399950582
891.742103696
887.852478942
883.746489428
879.439801482
874.948209387
870.287523965
865.473469368
860.521594698
855.447193455
850.265237293
844.990316087
839.636590904
834.21775127
828.746983746
823.23694291
817.699732335
812.146886527
806.589361961
801.037528014
795.501166373
789.989469908
784.511048128
779.073932226
773.685587168
768.352921281
763.08230271
757.879572864
752.750066245
747.698626737
742.729629871
737.84700112
733.054239764
728.354438429
723.750307793
719.244196658
714.838116772
710.533762747
706.332536322
702.235565477
698.243727507
694.357666775
690.577816061
686.904412501
683.33751682
679.877027173
676.522696056
673.274141935
670.130863817
667.092250769
664.157594306
661.326096053
658.596878263
655.968990001
653.441416194
651.013082779
648.682864716
646.44959054
644.312049762
642.268997199
640.31916011
638.461242607
636.693932762
635.015907299
633.425838792
631.922400724
630.504274803
629.170156358
627.918761709
626.748833797
625.659149477
624.648525219
623.715824149
622.859961648
622.079911968
621.374713576
620.743475269
620.185381289
619.699697209
619.285775544
618.943062256
618.671104307
618.469562924
618.338484002
618.275186142
917.937557945
917.613262387
916.952767574
915.943839654
914.593344068
912.908332223
910.897419314
908.570683219
905.939517414
903.016472544
899.815093269
896.349753804
892.635494903
888.687866776
884.522779279
880.156362812
875.604839957
870.884410322
866.011147403
861.000909097
855.869259659
850.631404118
845.302132272
839.89577304
834.426156048
828.906581418
823.349794778
817.767968879
812.172689071
806.574944429
800.985121896
795.41300556
789.867778761
784.358028315
778.891753088
773.476375453
768.118753743
762.82519797
757.60148603
752.452882648
747.384158327
742.399610626
737.503085028
732.697997755
727.987357813
723.373790612
718.859560481
714.446594378
710.136504168
705.930609742
701.829960379
697.835356616
693.947370089
690.166363593
686.49250892
682.925804685
679.466091845
676.113069087
672.86630591
669.725255572
666.689265845
663.757589712
660.929394097
658.203768672
655.579732971
653.056243784
650.632201138
648.30645476
646.077809421
643.945030917
641.906851199
639.961974247
638.109081294
636.346836855
634.673894245
633.088901882
631.590509174
630.177373117
628.848164501
627.601574724
626.436322198
625.351159215
624.344878381
623.416319348
622.564375069
621.787998213
621.086207078
620.45809155
619.902818618
619.419637863
619.007886653
618.666994951
618.396489052
618.195997027
618.065523726
618.002309986
919.606215056
919.273057467
918.596798186
917.563978188
916.181873057
914.457989137
912.40148292
910.023044227
907.33473058
904.349789689
901.082478852
897.547884291
893.761744328
889.740280207
885.500036904
881.057736429
876.430144592
871.633952532
866.685672759
861.601549944
856.397485142
851.088972889
845.691049157
840.218249301
834.684573871
829.103461677
823.487768363
817.849750442
812.201053543
806.552705235
800.915111468
795.298057238
789.710710924
784.161628938
778.65876694
773.209492173
767.820597746
762.498319234
757.248352521
752.07587346
746.985558323
741.981605648
737.067758509
732.247327824
727.523215726
722.897939631
718.373656021
713.952184559
709.635031571
705.423413491
701.318279336
697.320332783
693.43005297
689.64771461
685.973406577
682.407049594
678.948412269
675.597126125
672.352698968
669.214527273
666.181907017
663.254043662
660.430060796
657.70900814
655.089868479
652.571564227
650.152963209
647.832884338
645.610102794
643.483355323
641.451345278
639.512747948
637.666215799
635.910384105
634.243876596
632.665311506
631.173307692
629.766491102
628.443501296
627.20299823
626.043669024
624.964234889
623.963457926
623.040147979
622.193169249
621.421446838
620.723972981
620.099813083
619.54811138
619.068096298
618.659085318
618.320488706
618.051812393
617.85266225
617.723022468
617.660177066
921.634245409
921.290167116
920.594446838
919.532118936
918.110986763
916.339141371
914.226429228
911.784315642
909.025695649
905.964692492
902.616454817
898.996955871
895.122799321
891.01103538
886.678990025
882.14410941
877.423820756
872.535410466
867.495919433
862.322055006
857.030118411
851.635946048
846.154862701
840.601644684
834.990490964
829.335000713
823.648156027
817.942309113
812.229173461
806.519818856
800.824670243
795.153510182
789.515485185
783.919111828
778.372290476
772.882319046
767.455909164
762.099204162
756.817798564
751.616758909
746.500645653
741.473536026
736.539047626
731.700362646
726.960252498
722.321102756
717.78493814
713.353447455
709.02800822
704.809710856
700.699382187
696.697608136
692.804755366
689.020991808
685.346305844
681.780524152
678.323328049
674.9742684
671.732779001
668.598188579
665.569731389
662.646556596
659.827736494
657.112273782
654.499107976
651.987121203
649.57514345
647.26195752
645.046303743
642.92688467
640.902369771
638.971400308
637.132594397
635.384552352
633.725862302
632.155106135
630.670865714
629.271729391
627.956298731
626.723195462
625.571068517
624.498601195
623.504518288
622.587593188
621.746654841
620.98059454
620.288372442
619.669023798
619.121664786
618.645497851
618.239816484
617.904008995
617.637561002
617.440060288
617.311477445
617.249174303
924.032039899
923.674781774
922.955597544
921.857698155
920.389547037
918.559968656
916.37967038
913.861080265
911.018127748
907.866012078
904.420971869
900.700059739
896.720927032
892.501622535
888.060407928
883.415592046
878.585385088
873.587773384
868.440414393
863.160551112
857.7649441
852.269819007
846.69082683
841.043014295
835.340801681
829.597966226
823.827629585
818.042248794
812.253610399
806.472827935
800.710343537
794.975931794
789.278708455
783.627139197
778.029055172
772.491669063
767.021593194
761.624859386
756.306940099
751.072770841
745.926773481
740.872880501
735.914559859
731.054840518
726.296338284
721.641281999
717.091539717
712.648644851
708.313821936
704.088011955
699.971896852
695.965923201
692.070324666
688.285143235
684.610248939
681.045358073
677.590049726
674.243780706
671.005898757
667.875654236
664.852210234
661.934651368
659.1219913
656.413179258
653.807105639
651.302606989
648.898470456
646.593437979
644.386210309
642.275451074
640.259790949
638.337832102
636.50815292
634.769313135
633.119859317
631.558330787
630.083265897
628.693208671
627.386715747
626.162363566
625.018755739
623.954530516
622.968368294
622.058999064
621.225209744
620.465851305
619.779845621
619.166191976
618.623973112
618.152360789
617.750620715
617.418116249
617.15431169
616.958778026
616.83147129
616.769845098
926.812118816
926.43918742
925.692155293
924.552058641
923.028177219
921.130243683
918.870026687
916.261134508
913.318757366
910.059398284
906.500608869
902.660734392
898.558673626
894.213657249
889.645047563
884.872161309
879.914116712
874.78970504
869.517286283
864.114707532
858.599241879
852.987544659
847.295623503
841.538818312
835.731787864
829.888500341
824.022226341
818.14553377
812.270284965
806.407636468
800.568043256
794.761264447
788.99637423
783.281773704
777.625208924
772.033789391
766.514008549
761.071765671
755.712388978
750.4406597
745.260837062
740.176683965
735.191493376
730.308115201
725.528983602
720.85614452
716.291283322
711.835752266
707.490597699
703.256586629
699.134232558
695.123820223
691.22542913
687.438955571
683.764133051
680.200550901
676.74767108
673.404843054
670.171316843
667.046254234
664.028738348
661.117781647
658.312332625
655.611281344
653.01346408
650.517667265
648.122630995
645.827052259
643.629588147
641.528859135
639.523452655
637.611927005
635.792815722
634.064632434
632.425876243
630.875037609
629.410604734
628.031070375
626.734939056
625.520734574
624.387007748
623.332344292
622.355372761
621.454772434
620.629281086
619.877702534
619.198913886
618.591872399
618.055621878
617.589298472
617.192135876
616.86346965
616.602740496
616.409500498
616.283689442
616.222862742
929.989341619
929.597958729
928.818222167
927.628605146
926.039391578
924.061432881
921.70779757
918.993530287
915.935345151
912.551310226
908.860542442
904.882917855
900.638802649
896.148808522
891.433574735
886.513578452
881.408974192
876.13946271
870.724188588
865.181664913
859.529721942
853.785475707
847.965311391
842.084876327
836.159077802
830.202082357
824.227314795
818.247456958
812.2744472
806.319482081
800.393022732
794.504803025
788.663841915
782.878459852
777.156299363
771.504346576
765.928954313
760.435866418
755.0302429
749.716685921
744.499266431
739.381551526
734.366632346
729.457152564
724.6553372
719.963021786
715.381681537
710.912460491
706.55620023
702.313468071
698.18458432
694.169648438
690.268563731
686.481060434
682.806716869
679.24497864
675.795175637
672.456536948
669.228203574
666.109239155
663.09863875
660.195335944
657.398208441
654.706082453
652.117736108
649.631902189
647.247270424
644.962489631
642.776169878
640.686884913
638.693174964
636.793550081
634.986494068
633.270469068
631.643920811
630.105284523
628.652991431
627.28547583
626.001182621
624.798575226
623.676143796
622.632413592
621.665953443
620.775384167
619.959386866
619.216710974
618.546181988
617.946708766
617.41729032
616.957022036
616.565101251
616.240831674
615.983627557
615.793020352
615.668929458
615.609021899
933.581162112
933.168196692
932.350315087
931.102992668
929.437749348
927.366812907
924.904840289
922.068617583
918.876691509
915.348996891
911.506503024
907.370883619
902.964215353
898.308707721
893.426465885
888.339287529
883.068494576
877.63479995
872.058208908
866.357952844
860.552451918
854.659300788
848.69527052
842.676319036
836.617603533
830.533490154
824.43755925
818.342607013
812.260646117
806.202908098
800.179851251
794.201171603
788.275816251
782.412005826
776.617258068
770.8984128
765.261658186
759.71255759
754.256077024
748.896613003
743.638021013
738.483644479
733.436344389
728.498529375
723.672186309
718.958911142
714.359939949
709.876179825
705.508239532
701.256459439
697.120940608
693.101572523
689.198059295
685.40994391
681.736630383
678.177403515
674.731446259
671.39785452
668.175649557
665.063787988
662.061169676
659.16664364
656.37901236
653.697034699
651.119427854
648.644868574
646.27199405
643.999402685
641.825655081
639.749275393
637.768753292
635.88254662
634.08908485
632.386773376
630.773998658
629.249134169
627.810547108
626.456605777
625.185687543
623.996187264
622.886526053
621.855160273
620.90059062
620.021371183
619.216118352
618.483519475
617.822341147
617.23143704
616.709755195
616.256344634
615.870361344
615.551073441
615.297865158
615.11024357
614.988105362
614.92923902
937.607943001
937.16982584
936.307633044
934.993354996
933.240037166
931.061604582
928.474655841
925.498085613
922.152637834
918.460464096
914.444713274
910.129156187
905.537848657
900.694834131
895.623886077
890.348290668
884.890670423
879.272849615
873.515761258
867.639393899
861.662773583
855.603973647
849.480142271
843.307536914
837.101555668
830.876759212
824.646881527
818.424832237
812.222695628
806.051731853
799.922385035
793.844297548
787.826324347
781.876563495
776.002383151
770.210450922
764.506763569
758.896676759
753.38493469
747.975699938
742.672583573
737.478675893
732.396577662
727.428432033
722.575956902
717.840477744
713.222960601
708.724045136
704.344077348
700.083141727
695.941092354
691.917582654
688.012093285
684.223957914
680.552386443
676.996485569
673.555276419
670.227709332
667.012675719
663.909017274
660.915532639
658.030981924
655.254089343
652.58354442
650.018002084
647.55608213
645.196368339
642.937407689
640.777709881
638.715747502
636.749956969
634.878740442
633.100468751
631.413485402
629.816111629
628.306652454
626.883403669
625.544659638
624.288721787
623.11390765
622.018560335
621.001058237
620.059824881
619.193338732
618.400142839
617.67885419
617.028172668
616.446889491
615.933895036
615.488186021
615.108871966
614.795180424
614.546461888
614.362196686
614.242254341
614.184554703
942.093346607
941.625958512
940.71238454
939.320578952
937.465482781
935.163123377
932.432478866
929.294997732
925.774053797
921.894421918
917.681803221
913.162400743
908.362545666
903.308372081
898.025538487
892.538995489
886.872800843
881.049983663
875.092459193
869.020993013
862.855209794
856.613636652
850.313766974
843.97212809
837.604337854
831.225140497
824.848420602
818.487201293
812.153636793
805.859009075
799.613735066
793.427382758
787.308690607
781.265606679
775.305320659
769.434298439
763.658315874
757.982491336
752.411317528
746.948692955
741.59795371
736.361905714
731.242857756
726.242655152
721.362714145
716.604056759
711.967346099
707.452921706
703.060834816
698.790882966
694.64264365
690.615506353
686.708702627
682.921333574
679.2523945
675.7007963
672.26538353
668.944948997
665.738245054
662.643991681
659.660881734
656.787583652
654.022742123
651.364977102
648.812881743
646.365019642
644.019921927
641.77608453
639.631966062
637.585986534
635.636527189
633.781931544
632.020507785
630.350532467
628.770255546
627.277906618
625.871702289
624.549854505
623.310579721
622.152108713
621.072696877
620.070634828
619.144259132
618.291963006
617.51220682
616.803528278
616.164552124
615.593999284
615.090695346
614.653578237
614.281705163
613.974258672
613.730551246
613.550032127
613.432541431
613.376139892
947.064822287
946.563349739
945.590187557
944.108632801
942.136001799
939.690944178
936.795365935
933.473812882
929.75280292
925.660205197
921.224695189
916.475280716
911.440892773
906.150034021
900.630479662
894.90902923
889.011311293
882.96164557
876.782966714
870.496811174
864.123362324
857.681541264
851.189122496
844.662849163
838.118523696
831.571059124
825.034490636
818.521960621
812.045695654
805.616995018
799.246231562
792.942872138
786.715509551
780.571908164
774.519045025
768.563150891
762.709748194
756.963686308
751.329174909
745.809816781
740.408640759
735.128135523
729.970284216
724.936600083
720.028162863
715.245655989
710.589404289
706.059412102
701.655401325
697.376849075
693.223024252
689.193022499
685.285798776
681.500197092
677.834976732
674.288834776
670.860424533
667.54836999
664.351276238
661.267736246
658.296334243
655.435646261
652.684238292
650.040662726
647.503453553
645.071121027
642.742146234
640.514976142
638.388019473
636.359643816
634.42817414
632.591892942
630.849042031
629.197826005
627.636417302
626.162962751
624.775591445
623.472423779
622.251581445
621.111198189
620.049431121
619.064472368
618.154560865
617.317994099
616.553139615
615.858446136
615.232454151
614.673805836
614.181254221
613.753671551
613.390056773
613.08954166
612.851396384
612.675036455
612.56026787
612.505301453
952.554220879
952.012961187
950.970560337
949.384956665
947.276478494
944.667074666
941.582273063
938.050382803
934.101675878
929.767657515
925.0804504
920.072276091
914.77501698
909.219843143
903.436894096
897.455012691
891.301535601
885.002149476
878.580823113
872.059821947
865.459802314
858.799969518
852.098269615
845.371574512
838.63582061
831.906075931
825.196537818
818.52048755
811.890236766
805.317098412
798.811381386
792.382418379
786.038616895
779.787515872
773.635839345
767.589545069
761.653866854
755.833351534
750.13189299
744.552765233
739.098656204
733.771702702
728.573526763
723.505273165
718.567648099
713.76095872
709.085153636
704.539863974
700.124444837
695.838016427
691.679504295
687.647677717
683.741185509
679.958588347
676.298387088
672.759046492
669.339014207
666.036734851
662.850659445
659.779250415
656.820982738
653.974341712
651.237818119
648.609901395
646.089071635
643.673791032
641.362495524
639.153587126
637.045427542
635.036333348
633.1245731
631.308366451
629.585885387
627.955257489
626.414571159
624.961882599
623.595224391
622.312615407
621.112071849
619.991619156
618.949304532
617.983209852
617.09146471
616.272259381
615.52385749
614.844608226
614.232957901
613.687460777
613.206789019
612.789741667
612.43525266
612.142397881
611.910400334
611.738636968
611.62687735
611.57349094
958.59857673
958.010674351
956.887524642
955.180925243
952.915077762
950.116126565
946.814107126
943.041909038
938.834277013
934.226966832
929.256067857
923.957455122
918.366336796
912.51686891
906.441820492
900.172285647
893.737451274
887.164438124
880.478235921
873.701749063
866.855955926
859.960163521
853.032313326
846.089273262
839.147046835
832.220854709
825.325094928
818.473235456
811.67770392
804.949826845
798.299823017
791.736844578
785.269059795
778.903729431
772.647276299
766.505342905
760.482837105
754.583968961
748.812283184
743.170691281
737.661505326
732.286474063
727.046820921
721.943283711
716.976155514
712.145326877
707.450329143
702.89037899
698.464423677
694.171186505
690.009211399
685.97690569
682.072579786
678.294482869
674.640833628
671.109845579
667.699746529
664.408792274
661.2352746
658.177524171
655.233908745
652.402827617
649.682702983
647.071969223
644.569060902
642.172400431
639.880386113
637.691381361
635.603705571
633.615627194
631.72535921
629.931057216
628.230820103
626.622693252
625.10467406
623.674719577
622.330755982
621.070689628
619.892419362
618.793849824
617.772905442
616.827544829
615.955775311
615.155667304
614.425368348
613.763116538
613.167253223
612.636234805
612.168643526
611.763197231
611.418758011
611.134339283
610.909112036
610.742411734
610.633966405
610.582312206
965.2411187
964.59819433
963.380352181
961.532390441
959.083579513
956.065464388
952.513726878
948.466836278
943.964844764
939.048438425
933.758225824
928.134192586
922.215261083
916.038909012
909.640821476
903.054572979
896.311355998
889.439787627
882.465833241
875.412881843
868.30198965
861.152274136
853.981395437
846.806018251
839.642131372
832.505137926
825.409731335
818.369666417
811.397548289
804.504722433
797.701273712
790.996104041
784.397067648
777.91107865
771.544201357
765.301716889
759.188169635
753.207399677
747.362570158
741.656196181
736.09017807
730.665838565
725.383963022
720.244841381
715.248311563
710.39380415
705.68038886
701.106822752
696.671600069
692.373002775
688.209150714
684.178049733
680.277636379
676.505817656
672.860504886
669.339640816
665.941219729
662.663300427
659.504012518
656.461556453
653.534198216
650.720259495
648.018104477
645.426124262
642.942720097
640.566286375
638.295194472
636.127778181
634.062321499
632.097049209
630.230120637
628.459626644
626.783589867
625.199967989
623.706659814
622.301513801
620.982338734
619.746916176
618.593014359
617.518403179
616.520869935
615.5982355
614.748370576
613.969211747
613.258777044
612.615180813
612.036647647
611.521525287
611.06829636
610.675588822
610.342185192
610.067030622
609.849238642
609.688097906
609.583292429
609.533532322
972.532598107
971.824219784
970.494491974
968.480309735
965.817713345
962.545295874
958.705854569
954.344648113
949.507980618
944.242188992
938.592956983
932.604830278
926.320832583
919.782112848
913.027587751
906.09357805
899.013467943
891.817441071
884.53236092
877.181862828
869.786701612
862.365347513
854.934743829
847.511050949
840.110151002
832.747733272
825.438990883
818.198159821
811.038133578
803.970279729
797.00446729
790.149238984
783.412026145
776.799307025
770.316720385
763.969138486
757.760708129
751.694870871
745.774378797
740.001317514
734.377138614
728.902699023
723.578304145
718.403752824
713.378383027
708.501119006
703.770520653
699.184835825
694.742055398
690.439970238
686.276228233
682.248389408
678.353976847
674.590521729
670.955600911
667.446866317
664.062065587
660.799054184
657.655799268
654.63037625
651.720958898
648.925804321
646.243234005
643.671612373
641.209324107
638.854751614
636.606253734
634.462146781
632.420688668
630.480066756
628.638389703
626.893683443
625.243891113
623.686876692
622.220431907
620.84228602
619.55011802
618.341570844
617.214267177
616.165826477
615.193882809
614.29610309
613.470205399
612.713976951
612.025291457
611.402125579
610.84257429
610.344864951
609.907370016
609.528618353
609.20730513
608.942299847
608.732653204
608.577603849
608.476786247
608.429091156
980.533070049
979.745973854
978.28273061
976.071453307
973.157448177
969.58864146
965.416837521
960.695516872
955.47825474
949.817745277
943.765252275
937.370280929
930.68031846
923.740544935
916.593468036
909.278485629
901.831424706
894.284142188
886.66430007
878.995436003
871.297428011
863.587379962
855.880822084
848.192942178
840.539426269
832.936510159
825.400301106
817.945876469
810.58659849
803.333834697
796.19708359
789.184342608
782.302460434
775.557365062
768.954195218
762.497370931
756.190618173
750.03696185
744.038719531
738.197515288
732.514313415
726.989462326
721.622742888
716.413417039
711.360275615
706.461687006
701.715649079
697.119845574
692.671707468
688.368477872
684.207278124
680.185171812
676.299223897
672.546552259
668.924370051
665.43001764
662.060983884
658.814916799
655.6896244
652.683066639
649.793339879
647.018655277
644.357312841
641.807672686
639.368125268
637.037062057
634.812848186
632.693798217
630.678156093
628.764079858
626.949631572
625.232772338
623.611362254
622.083164747
620.645854774
619.297030261
618.034226269
616.854931359
615.756605719
614.736700604
613.792678646
612.922034577
612.122315917
611.391143207
610.726229406
610.125398183
609.586600805
609.107931534
608.687641398
608.324150234
608.016057155
607.76214956
607.561409358
607.413019431
607.316562081
607.271114504
989.314335262
988.431257048
986.806650646
984.35915987
981.147145661
977.231076128
972.674165967
967.53974089
961.889650474
955.783534047
949.278596987
942.429587708
935.28876006
927.905693643
920.326917458
912.595351761
904.749643289
896.823522937
888.845361668
880.838132046
872.819975738
864.805492179
856.807655646
848.83991806
840.917709227
833.058397223
825.279816087
817.59853178
810.028642274
802.58141748
795.265673931
788.088535049
781.056037448
774.173421531
767.445251821
760.875468103
754.46737643
748.223587515
742.145970254
736.235655303
730.493077047
724.918028112
719.50971648
714.26681922
709.187530888
704.269611927
699.510441659
694.907078703
690.456329674
686.154824566
681.999094691
677.985648693
674.111042155
670.371937605
666.76515256
663.287694576
659.936782858
656.709856976
653.604573526
650.618792286
647.750553428
644.998047835
642.359582386
639.833542396
637.418353088
635.11244215
632.914205004
630.821974418
628.833995539
626.948407217
625.163229903
623.476360042
621.885570441
620.388515902
618.982743256
617.66570503
616.434776063
615.287272489
614.220472633
613.231639311
612.318043081
611.476985869
610.705824471
610.001993394
609.363026623
608.786577934
608.270439532
607.812558815
607.411053206
607.064223083
606.770562832
606.528769682
606.337750972
606.196630473
606.104932457
606.061925761
998.963371266
997.961256995
996.13847506
993.404051544
989.835402324
985.510063956
980.505606916
974.896881135
968.754808126
962.146260657
955.134459945
947.779470277
940.138511401
932.265942588
924.21286154
916.026351406
907.748485343
899.415269394
891.055781485
882.691841253
874.338591323
866.006307947
857.703472292
849.440474933
841.232513547
833.099351671
825.062117505
817.139997433
809.348196795
801.697568626
794.195601231
786.847975124
779.659605036
772.634904301
765.777807549
759.091779897
752.579757159
746.24397523
740.085852299
734.105988262
728.304235713
722.67977576
717.231190328
711.9565223
706.853320736
701.918684492
697.149313832
692.541573834
688.091572263
683.795248942
679.648470132
675.647120561
671.787186975
668.064828682
664.476432647
661.018651849
657.688426985
654.482992154
651.399866096
648.436830744
645.591899432
642.863277003
640.249314437
637.748460334
635.359211843
633.080067249
630.909482476
628.845833272
626.887384634
625.032268322
623.278468905
621.623817929
620.065995461
618.602537778
617.23085005
615.948222894
614.751852017
613.638860324
612.606322041
611.651288404
610.770814345
609.961985583
609.221945413
608.547920617
607.937245914
607.3873866
606.895959033
606.460748896
606.079727127
605.751063521
605.47313821
605.244551351
605.064129462
604.930931229
604.844420283
604.804061379
1009.58726728
1008.43451864
1006.3634117
1003.27449148
999.274244765
994.46358926
988.937751288
982.784490141
976.084036976
968.910197527
961.331786805
953.413919496
945.218823233
936.806042741
928.231982129
919.548848697
910.803145466
902.033943332
893.271277511
884.535171418
875.835963598
867.176679894
858.55791284
849.984513074
841.471662059
833.04422477
824.72962425
816.55161321
808.526910678
800.665107417
792.971036217
785.447949301
778.099294129
770.928586905
763.939125038
757.133962275
750.515807827
744.086627439
737.847395903
731.798123514
725.938008671
720.265550795
714.77864605
709.474655761
704.350437863
699.402377164
694.626430916
690.018193435
685.572985507
681.285963986
677.152239294
673.166989718
669.325563108
665.62356078
662.056900727
658.621859551
655.315093381
652.133639286
649.074899076
646.13660822
643.316792537
640.613715785
638.025821011
635.55166878
633.189875109
630.939052068
628.79775357
626.764428789
624.837384953
623.014760805
621.294510995
619.674400891
618.152010342
616.724744648
615.389850903
614.144438287
612.98550134
611.909945682
610.914615859
609.996324926
609.151885237