/*--------------------------------*- C++ -*----------------------------------*\
| =========                 |                                                 |
| \\      /  F ield         | OpenFOAM: The Open Source CFD Toolbox           |
|  \\    /   O peration     | Version:  v1906                                 |
|   \\  /    A nd           | Web:      www.OpenFOAM.com                      |
|    \\/     M anipulation  |                                                 |
\*---------------------------------------------------------------------------*/
FoamFile
{
    version     2.0;
    format      ascii;
    class       volVectorField;
    location    "965";
    object      Ua;
}
// * * * * * * * * * * * * * * * * * * * * * * * * * * * * * * * * * * * * * //

dimensions      [0 1 -1 0 0 0 0];


internalField   nonuniform List<vector> 
9216
(
(-0.0103617192784 0.0103691870686 0)
(-0.0109346798975 0.0334650975951 3.91292614469e-27)
(-0.0109307371833 0.0569172407318 -7.07709433256e-31)
(-0.0108281295781 0.0803764790867 0)
(-0.0106819866695 0.10344578549 0)
(-0.0104963548671 0.126030877507 0)
(-0.0102759251931 0.148030305026 0)
(-0.0100238279314 0.169352012716 0)
(-0.00974312400063 0.18991319346 0)
(-0.00943665322662 0.209640538965 0)
(-0.00910751916591 0.228470292146 0)
(-0.00875858844935 0.246348469415 0)
(-0.00839296872034 0.263230686875 0)
(-0.00801341183009 0.279082064216 0)
(-0.00762286669011 0.293876756498 0)
(-0.00722382154052 0.307597591471 0)
(-0.00681894098453 0.32023539571 0)
(-0.00641035551635 0.331788467332 0)
(-0.00600037931661 0.342261803522 0)
(-0.00559075044862 0.351666510416 0)
(-0.00518342278122 0.360019023957 0)
(-0.0047797567727 0.367340535655 0)
(-0.00438137554192 0.373656273232 0)
(-0.00398930591563 0.378994991808 0)
(-0.00360488889137 0.383388346574 0)
(-0.00322887053238 0.386870466149 0)
(-0.00286235756071 0.389477424078 0)
(-0.00250586138398 0.391246891271 0)
(-0.00216029383521 0.392217696696 0)
(-0.00182597328474 0.392429552319 0)
(-0.00150366416778 0.39192264261 0)
(-0.00119344176758 0.390737656644 0)
(-0.000895831716318 0.388914905328 0)
(-0.000610823789302 0.386494482702 0)
(-0.00033888289608 0.383516125067 0)
(-7.98400882057e-05 0.380018939977 0)
(0.000165992394763 0.376041230107 0)
(0.000398921278008 0.371620362833 0)
(0.000618753401651 0.36679262329 0)
(0.000825910771864 0.361593117793 0)
(0.00102030355995 0.356055670994 0)
(0.00120245135895 0.350212752739 0)
(0.00137235312508 0.3440954153 0)
(0.00153060816433 0.337733241161 0)
(0.00167728785207 0.331154316049 0)
(0.00181305138745 0.324385194461 0)
(0.00193802513589 0.3174509072 0)
(0.0020529075186 0.310374943783 0)
(0.00215786089602 0.303179290887 0)
(0.00225360131339 0.295884428767 0)
(0.00234030863344 0.288509398707 0)
(0.00241869622148 0.281071811593 0)
(0.00248894400735 0.273587939253 0)
(0.00255174442156 0.26607273061 0)
(0.00260726357816 0.258539922807 0)
(0.00265615907506 0.251002061032 0)
(0.00269857331405 0.243470622352 0)
(0.00273511981161 0.23595603312 0)
(0.00276591291922 0.228467800107 0)
(0.00279151858113 0.221014520919 0)
(0.00281202351701 0.213604015416 0)
(0.00282794730376 0.206243323873 0)
(0.00283935422381 0.198938834524 0)
(0.00284672298691 0.191696266831 0)
(0.00285010340151 0.184520790766 0)
(0.0028499410242 0.177416992989 0)
(0.00284628097883 0.170388986875 0)
(0.0028395444984 0.163440362328 0)
(0.00282978140746 0.156574285724 0)
(0.00281739653139 0.149793434603 0)
(0.00280245255794 0.143100089584 0)
(0.00278534416232 0.136496057331 0)
(0.00276615235099 0.129982756147 0)
(0.00274526510087 0.123561130443 0)
(0.00272278445108 0.117231733444 0)
(0.00269909240476 0.11099463735 0)
(0.00267431155141 0.104849515539 0)
(0.00264881574131 0.0987955516942 0)
(0.00262274509624 0.0928315246167 0)
(0.00259646087921 0.0869557196305 0)
(0.00257011537161 0.0811660178127 0)
(0.00254405080745 0.0754598118781 0)
(0.00251842452883 0.0698341020786 0)
(0.00249355147457 0.064285418924 0)
(0.00246958438225 0.0588099279438 0)
(0.00244679845767 0.0534033633268 0)
(0.00242532373069 0.0480611495158 0)
(0.00240536391972 0.0427783633133 0)
(0.00238696077869 0.0375499116695 0)
(0.00237009234449 0.032370624379 0)
(0.00235431694686 0.0272357264991 0)
(0.00233835355284 0.0221418035601 0)
(0.00231845678119 0.0170898370774 0)
(0.00227845829347 0.0121089526202 0)
(0.00220316728158 0.00699090896026 0)
(0.002727435044 0.00272732303398 0)
(-0.0335429902808 0.0110284060346 0)
(-0.0370791223226 0.0373673192297 0)
(-0.036991668973 0.0636335656922 -4.10763732158e-27)
(-0.0364890002394 0.0899319011562 0)
(-0.0357907212987 0.115758616103 0)
(-0.0349234156159 0.141028828967 0)
(-0.0339020934673 0.165634751692 0)
(-0.032740914531 0.189475026298 0)
(-0.0314548781859 0.212457484696 0)
(-0.0300592203828 0.234500290877 0)
(-0.0285698540174 0.255532365111 0)
(-0.0270023766819 0.275493632205 0)
(-0.0253725611323 0.294334925195 0)
(-0.0236952759652 0.31201778183 0)
(-0.0219851483911 0.328513977271 0)
(-0.0202554604978 0.34380501227 0)
(-0.0185190035927 0.357881408559 0)
(-0.0167869622229 0.37074201926 0)
(-0.0150699494243 0.382393213552 0)
(-0.0133768726041 0.392848127496 0)
(-0.0117161253364 0.402125844709 0)
(-0.0100944186536 0.410250679018 0)
(-0.00851809652683 0.4172514252 0)
(-0.00699191314052 0.423160727837 0)
(-0.00552043964524 0.42801443733 0)
(-0.00410677171513 0.431851082228 0)
(-0.00275400182909 0.434711333226 0)
(-0.00146385275835 0.436637570122 0)
(-0.000238201845482 0.43767343732 0)
(0.000922352253122 0.437863480474 0)
(0.00201691054585 0.43725280785 0)
(0.00304582895942 0.435886568718 0)
(0.0040091186563 0.433810159262 0)
(0.00490787870511 0.431068714912 0)
(0.00574269622878 0.427706731204 0)
(0.00651526317935 0.423767972057 0)
(0.0072267038386 0.419295269239 0)
(0.00787918164706 0.414330378296 0)
(0.00847421699624 0.408913830712 0)
(0.00901431703408 0.403084820869 0)
(0.00950128518343 0.396881098168 0)
(0.00993786318754 0.390338885509 0)
(0.0103260395225 0.383492808822 0)
(0.0106686940178 0.376375844033 0)
(0.0109679121083 0.369019280813 0)
(0.0112266238337 0.361452695502 0)
(0.0114469318801 0.353703946962 0)
(0.0116317366971 0.345799173466 0)
(0.0117830857295 0.337762818083 0)
(0.0119037779369 0.329617647141 0)
(0.0119957424505 0.321384802384 0)
(0.0120616157204 0.313083837871 0)
(0.0121031569804 0.304732794495 0)
(0.0121227924775 0.296348250758 0)
(0.0121220753789 0.287945414422 0)
(0.0121031910697 0.279538181553 0)
(0.0120674677318 0.271139238542 0)
(0.0120168374179 0.262760122906 0)
(0.0119524032102 0.254411328969 0)
(0.0118758500494 0.246102364066 0)
(0.011788072756 0.237841851103 0)
(0.011690531184 0.229637574457 0)
(0.0115839429934 0.221496574246 0)
(0.0114695772101 0.213425177907 0)
(0.0113480143187 0.205429082335 0)
(0.0112203731979 0.19751336887 0)
(0.0110871410273 0.18968257191 0)
(0.0109493285863 0.18194067727 0)
(0.0108073716593 0.174291177424 0)
(0.0106622109136 0.166737054826 0)
(0.0105142667118 0.159280825969 0)
(0.0103644401778 0.151924512799 0)
(0.0102131628532 0.144669678499 0)
(0.0100613168446 0.137517390753 0)
(0.0099093610291 0.130468253041 0)
(0.00975816860095 0.123522363905 0)
(0.00960823114238 0.116679347209 0)
(0.00946041289201 0.109938311125 0)
(0.00931523410819 0.103297880739 0)
(0.00917354156164 0.0967561600419 0)
(0.00903587217359 0.0903107693588 0)
(0.00890303968451 0.0839588127063 0)
(0.00877557931863 0.0776969221494 0)
(0.00865424996646 0.0715212324289 0)
(0.00853955929051 0.0654274336588 0)
(0.00843217865304 0.0594107547147 0)
(0.00833254296802 0.0534660255371 0)
(0.00824116427058 0.0475876688869 0)
(0.00815827361386 0.0417697624091 0)
(0.00808395674606 0.0360059979783 0)
(0.00801764708404 0.030289593156 0)
(0.00795763757611 0.024612713398 0)
(0.00789908551419 0.0189642054084 0)
(0.00782744760935 0.0133203834868 0)
(0.00765417474108 0.00763792090769 0)
(0.00698595169412 0.00219758567813 0)
(-0.0574256259928 0.0111756136046 0)
(-0.063574787156 0.037983989383 0)
(-0.0633562046546 0.0645822589482 -4.11138082739e-27)
(-0.0624846660463 0.0912638662028 0)
(-0.0613025851164 0.117462632944 0)
(-0.0598439654951 0.143088299672 0)
(-0.0581295844433 0.168029241525 0)
(-0.0561818031077 0.192181791722 0)
(-0.0540249649048 0.21545209503 0)
(-0.0516845447534 0.237757115338 0)
(-0.0491868270007 0.259025067616 0)
(-0.0465580621978 0.279195611154 0)
(-0.0438242821625 0.298219750027 0)
(-0.0410105284908 0.316059547043 0)
(-0.0381408481017 0.332687630674 0)
(-0.0352376282129 0.348086590844 0)
(-0.0323217865855 0.362248242959 0)
(-0.0294122166041 0.375172850081 0)
(-0.0265261583347 0.386868281976 0)
(-0.0236787338732 0.397349191395 0)
(-0.020883464894 0.40663618195 0)
(-0.0181518614426 0.414755035263 0)
(-0.0154940386831 0.421735964993 0)
(-0.0129183154492 0.427612949976 0)
(-0.0104318825191 0.432423106856 0)
(-0.00804037433037 0.436206141346 0)
(-0.00574855473231 0.439003835581 0)
(-0.00355984394295 0.440859601734 0)
(-0.0014770074465 0.441818061518 0)
(0.000498362907913 0.441924677424 0)
(0.00236516536996 0.441225417803 0)
(0.00412333097198 0.439766427311 0)
(0.00577306558204 0.437593749743 0)
(0.00731551678784 0.434753107129 0)
(0.00875204423692 0.431289637295 0)
(0.010084795562 0.427247696169 0)
(0.0113159979887 0.422670671197 0)
(0.0124485732546 0.417600825967 0)
(0.0134854214351 0.412079159651 0)
(0.0144300470138 0.406145289749 0)
(0.0152858426917 0.399837349607 0)
(0.0160567237132 0.393191905044 0)
(0.0167464141591 0.38624388661 0)
(0.0173590849018 0.379026537039 0)
(0.0178986444542 0.37157137499 0)
(0.0183693765439 0.363908170812 0)
(0.0187752382861 0.356064940217 0)
(0.0191204940545 0.348067946777 0)
(0.0194090243495 0.339941723134 0)
(0.0196449538116 0.331709097877 0)
(0.0198319749359 0.323391242047 0)
(0.019973968628 0.315007717419 0)
(0.0200743470459 0.306576543867 0)
(0.0201366656398 0.298114264197 0)
(0.0201639893174 0.289636027285 0)
(0.0201594945587 0.281155663586 0)
(0.0201258622272 0.272685776932 0)
(0.0200658679685 0.26423782358 0)
(0.0199818040476 0.255822205838 0)
(0.0198760552683 0.247448347841 0)
(0.0197505508999 0.239124783813 0)
(0.0196073227833 0.230859224273 0)
(0.0194479875 0.22265863376 0)
(0.0192742826634 0.214529283138 0)
(0.0190875786327 0.20647681282 0)
(0.0188893890316 0.198506268627 0)
(0.0186809111116 0.190622149412 0)
(0.0184635066644 0.182828426418 0)
(0.0182382700754 0.175128575675 0)
(0.0180064765665 0.167525582461 0)
(0.0177691774312 0.160021961167 0)
(0.0175276132325 0.152619748153 0)
(0.0172828360952 0.145320512329 0)
(0.0170360865048 0.138125340296 0)
(0.0167884431306 0.131034841918 0)
(0.0165411625664 0.124049132003 0)
(0.0162953574652 0.117167834597 0)
(0.0160522993198 0.110390064984 0)
(0.0158131260168 0.103714436365 0)
(0.0155791080562 0.0971390454171 0)
(0.0153513865844 0.0906614838601 0)
(0.0151312036405 0.0842788298103 0)
(0.0149196715326 0.0779876661316 0)
(0.0147179671855 0.0717840788575 0)
(0.0145271326956 0.0656636826587 0)
(0.0143482322869 0.0596216257079 0)
(0.0141821809884 0.0536526196308 0)
(0.0140298579728 0.0477509428579 0)
(0.0138919533938 0.041910455172 0)
(0.0137690269315 0.0361245511927 0)
(0.0136613758878 0.0303860505493 0)
(0.013569136854 0.0246868489421 0)
(0.0134924222014 0.0190170109681 0)
(0.0134300757903 0.0133589221421 0)
(0.0133227634594 0.00776990196033 0)
(0.0120784516124 0.00226348528381 0)
(-0.0818665705429 0.0113053842294 0)
(-0.0907036113154 0.0385642073578 0)
(-0.0903828158548 0.0655090016119 4.10947147053e-27)
(-0.089124094283 0.0925579709636 0)
(-0.0874196329514 0.119107960814 0)
(-0.0853194889677 0.145063688268 0)
(-0.0828534569197 0.170309200527 0)
(-0.0800538024227 0.194737834885 0)
(-0.0769556435354 0.218253678091 0)
(-0.073595935231 0.240772445273 0)
(-0.0700126385563 0.262221840672 0)
(-0.0662437895767 0.282541667065 0)
(-0.0623268595938 0.301683657389 0)
(-0.0582980105792 0.31961109008 0)
(-0.0541916875236 0.336298212872 0)
(-0.0500400883824 0.351729533594 0)
(-0.0458729989743 0.365899001334 0)
(-0.0417174727849 0.378809132015 0)
(-0.0375978869655 0.390470097848 0)
(-0.0335357979873 0.400898827129 0)
(-0.0295501699005 0.410118126376 0)
(-0.025657347144 0.41815585939 0)
(-0.0218713865561 0.425044183566 0)
(-0.0182040773527 0.430818863332 0)
(-0.0146653075523 0.435518648995 0)
(-0.0112630720349 0.439184728326 0)
(-0.00800382614238 0.441860232029 0)
(-0.00489245305718 0.443589794837 0)
(-0.00193258988073 0.444419154168 0)
(0.000873445670864 0.444394789016 0)
(0.00352435230447 0.443563587287 0)
(0.00601995140993 0.441972574185 0)
(0.0083608226367 0.43966851941 0)
(0.0105485122412 0.436697823944 0)
(0.0125852059751 0.433106236052 0)
(0.0144738505027 0.428938652287 0)
(0.0162178666341 0.424238940465 0)
(0.0178212905572 0.419049784136 0)
(0.0192884918016 0.413412546649 0)
(0.0206243244925 0.407367155568 0)
(0.0218338513158 0.400952004079 0)
(0.0229225028055 0.394203869658 0)
(0.0238958066916 0.38715784846 0)
(0.0247595520517 0.379847304766 0)
(0.0255195232425 0.372303835749 0)
(0.0261816666958 0.364557249868 0)
(0.0267518297662 0.356635560548 0)
(0.0272359288816 0.348564992152 0)
(0.0276396947599 0.340370001139 0)
(0.0279688422694 0.332073307985 0)
(0.0282288247423 0.323695943595 0)
(0.0284250065767 0.315257304156 0)
(0.0285624298314 0.306775218902 0)
(0.0286459912499 0.298266023219 0)
(0.0286802243155 0.28974464215 0)
(0.028669481649 0.281224675246 0)
(0.0286177346694 0.27271848862 0)
(0.0285287615205 0.264237304048 0)
(0.0284059652019 0.255791291841 0)
(0.028252565493 0.247389656503 0)
(0.0280714347431 0.239040723023 0)
(0.027865291178 0.230752012422 0)
(0.0276365503356 0.22253031561 0)
(0.0273875159151 0.214381753927 0)
(0.0271202439059 0.206311836746 0)
(0.0268367269783 0.198325504515 0)
(0.0265387682294 0.190427168839 0)
(0.0262281550838 0.182620737914 0)
(0.0259065398203 0.174909640016 0)
(0.0255755998618 0.167296833378 0)
(0.0252369230848 0.159784815969 0)
(0.0248921521896 0.15237562335 0)
(0.0245428736701 0.145070828698 0)
(0.0241907452368 0.137871533005 0)
(0.0238373883465 0.13077835986 0)
(0.02348449848 0.123791442474 0)
(0.0231337418478 0.116910417449 0)
(0.0227868492369 0.110134412689 0)
(0.0224455180846 0.103462043882 0)
(0.022111490929 0.0968914065328 0)
(0.0217864642183 0.0904200778383 0)
(0.0214721526462 0.0840451150414 0)
(0.0211702060008 0.0777630642941 0)
(0.0208822603079 0.0715699662122 0)
(0.0206098635129 0.0654613716038 0)
(0.0203545138246 0.0594323528361 0)
(0.0201175944969 0.0534775230097 0)
(0.0199004001077 0.0475910459233 0)
(0.0197040843369 0.0417666441305 0)
(0.0195296895718 0.0359975808645 0)
(0.0193781533836 0.030276627876 0)
(0.0192504567778 0.0245959576965 0)
(0.0191477240496 0.0189470176816 0)
(0.0190674516996 0.0133154322298 0)
(0.0189173307865 0.00777815397002 0)
(0.0170014464573 0.00228897355352 0)
(-0.106708187255 0.0114722751257 0)
(-0.118240729388 0.0393251260495 0)
(-0.117811358449 0.06674931258 0)
(-0.116150113779 0.0942909229725 0)
(-0.113901542158 0.121309246997 0)
(-0.111132935008 0.147703493924 0)
(-0.107884435625 0.173352450547 0)
(-0.104199316223 0.198145494705 0)
(-0.100124496546 0.221983951533 0)
(-0.095709286216 0.244781901797 0)
(-0.0910041713755 0.266466447286 0)
(-0.086059658309 0.286977708932 0)
(-0.0809253107002 0.306268541085 0)
(-0.0756488746183 0.324304013799 0)
(-0.0702756260487 0.341060705373 0)
(-0.0648478068898 0.356525855602 0)
(-0.0594042895305 0.370696419614 0)
(-0.0539803114569 0.383578068594 0)
(-0.0486074258923 0.395184172397 0)
(-0.0433134866085 0.405534803068 0)
(-0.0381228180368 0.414655784945 0)
(-0.033056367856 0.422577817602 0)
(-0.0281320011045 0.429335682196 0)
(-0.0233647196511 0.434967539865 0)
(-0.0187669820088 0.439514315922 0)
(-0.0143489048702 0.443019163728 0)
(-0.0101185444143 0.445526992497 0)
(-0.00608204172415 0.447084048301 0)
(-0.00224385173604 0.447737534034 0)
(0.00139316101244 0.44753526246 0)
(0.0048275286883 0.446525332869 0)
(0.00805914010449 0.444755889274 0)
(0.0110889520465 0.442274666607 0)
(0.0139190645005 0.43912898066 0)
(0.0165524942242 0.435365379099 0)
(0.0189931340811 0.431029467151 0)
(0.0212455914013 0.426165736165 0)
(0.0233151563162 0.420817412513 0)
(0.0252076516253 0.41502632708 0)
(0.0269294133588 0.40883280387 0)
(0.0284871507371 0.40227556562 0)
(0.0298879361784 0.395391655676 0)
(0.0311390726561 0.388216375188 0)
(0.0322480898045 0.380783235019 0)
(0.0332226163594 0.373123922212 0)
(0.0340703801149 0.365268280559 0)
(0.0347990846057 0.357244305717 0)
(0.0354164124179 0.349078153975 0)
(0.035929907185 0.340794165267 0)
(0.0363469816424 0.332414899063 0)
(0.0366748076136 0.323961183709 0)
(0.036920331518 0.315452176922 0)
(0.0370901759803 0.306905437677 0)
(0.0371906659935 0.29833700643 0)
(0.0372277456169 0.289761493735 0)
(0.0372070172841 0.281192173305 0)
(0.0371336758769 0.272641079427 0)
(0.0370125621277 0.264119104441 0)
(0.0368481144117 0.255636096447 0)
(0.0366444350984 0.247200952703 0)
(0.0364052583305 0.238821709349 0)
(0.036134026282 0.230505623223 0)
(0.03583386942 0.2222592472 0)
(0.0355076881824 0.21408849516 0)
(0.0351581411795 0.205998698812 0)
(0.0347877272498 0.197994653144 0)
(0.0343987768295 0.190080653611 0)
(0.0339935295315 0.182260522237 0)
(0.0335741244817 0.174537626457 0)
(0.0331426695233 0.166914888327 0)
(0.0327012274379 0.159394788506 0)
(0.0322518741652 0.151979362749 0)
(0.0317966792188 0.144670195574 0)
(0.0313377517978 0.137468408932 0)
(0.0308772150626 0.130374650668 0)
(0.0304172402621 0.12338908035 0)
(0.0299600156428 0.11651135716 0)
(0.0295077697164 0.109740627237 0)
(0.0290627363239 0.103075514989 0)
(0.0286271687085 0.0965141153613 0)
(0.0282033026176 0.0900539913186 0)
(0.0277933630905 0.0836921732158 0)
(0.0273995275327 0.0774251639846 0)
(0.0270239270336 0.0712489463738 0)
(0.0266686112422 0.065158995643 0)
(0.0263355461558 0.0591502935198 0)
(0.0260265833568 0.0532173461142 0)
(0.0257434585228 0.047354200273 0)
(0.0254877736762 0.0415544615507 0)
(0.0252610146329 0.0358113073432 0)
(0.0250645826011 0.0301175117975 0)
(0.0248998829228 0.0244654712943 0)
(0.0247681536417 0.0188473157194 0)
(0.0246644139699 0.0132495775035 0)
(0.0244647243154 0.00775127531532 0)
(0.0219489163006 0.0022893381053 0)
(-0.132090634122 0.0116806207496 0)
(-0.146361181188 0.0402944421525 0)
(-0.145810726069 0.0683380416969 0)
(-0.143723387102 0.0965121224767 0)
(-0.140899514078 0.124129774367 0)
(-0.137424776084 0.15108362314 0)
(-0.13335101764 0.177246075432 0)
(-0.128733881465 0.202501606595 0)
(-0.123633424593 0.226748135276 0)
(-0.118112538363 0.249897792628 0)
(-0.112235369035 0.271877074626 0)
(-0.106065869578 0.29262669551 0)
(-0.099666550925 0.312101138567 0)
(-0.0930974152256 0.330267961866 0)
(-0.0864151140286 0.347106911448 0)
(-0.0796722926693 0.36260889522 0)
(-0.0729171561259 0.376774865388 0)
(-0.0661932032829 0.389614657708 0)
(-0.0595391589433 0.401145830305 0)
(-0.0529890352881 0.41139254359 0)
(-0.0465723438277 0.420384514159 0)
(-0.0403143742983 0.428156069508 0)
(-0.0342365569386 0.434745317144 0)
(-0.0283568188791 0.440193432119 0)
(-0.0226899598607 0.444544053666 0)
(-0.017247968121 0.447842775219 0)
(-0.0120403235874 0.45013670596 0)
(-0.00707422678314 0.451474084281 0)
(-0.0023548208141 0.451903926014 0)
(0.0021146467159 0.451475696793 0)
(0.00633264446069 0.450239002735 0)
(0.0102992734299 0.448243382952 0)
(0.0140159539057 0.445537772468 0)
(0.0174854778698 0.442170629489 0)
(0.0207117746508 0.4381894948 0)
(0.02369980985 0.433640855786 0)
(0.0264554444001 0.428569977787 0)
(0.0289853368229 0.423020760059 0)
(0.0312968184781 0.417035612079 0)
(0.0333978114876 0.410655348061 0)
(0.0352967176008 0.403919097822 0)
(0.0370023477341 0.396864232845 0)
(0.038523819961 0.389526306774 0)
(0.0398704960431 0.38193900994 0)
(0.0410518847974 0.374134137982 0)
(0.0420775828089 0.366141574485 0)
(0.0429571817318 0.35798928801 0)
(0.0437002127998 0.349703343386 0)
(0.0443160591612 0.341307927608 0)
(0.0448139064093 0.332825389754 0)
(0.0452026633638 0.324276294845 0)
(0.0454909226201 0.315679490324 0)
(0.045686894447 0.307052184472 0)
(0.0457983820714 0.298410034601 0)
(0.0458327332531 0.289767243699 0)
(0.0457968340121 0.281136662652 0)
(0.0456970807723 0.272529896389 0)
(0.0455393941425 0.263957410692 0)
(0.0453292119673 0.255428638016 0)
(0.0450715218964 0.246952079122 0)
(0.0447708728383 0.238535399274 0)
(0.0444314225179 0.230185516261 0)
(0.0440569625582 0.221908679672 0)
(0.0436509752871 0.213710539366 0)
(0.0432166662916 0.205596203457 0)
(0.0427570240376 0.197570284518 0)
(0.0422748535525 0.189636935182 0)
(0.0417728326786 0.18179987255 0)
(0.0412535413209 0.174062393295 0)
(0.0407195094563 0.166427379433 0)
(0.0401732379472 0.158897297114 0)
(0.0396172351265 0.15147418868 0)
(0.0390540270184 0.144159660577 0)
(0.0384861812649 0.136954867428 0)
(0.0379163064076 0.12986049482 0)
(0.0373470635135 0.122876740976 0)
(0.0367811555898 0.116003299667 0)
(0.0362213285262 0.109239344279 0)
(0.0356703526793 0.102583515101 0)
(0.0351310154154 0.0960339094033 0)
(0.0346060973671 0.0895880760308 0)
(0.0340983591885 0.0832430137262 0)
(0.0336105151205 0.0769951745281 0)
(0.0331452165699 0.0708404711285 0)
(0.0327050256701 0.064774289073 0)
(0.0322923986081 0.0587915024898 0)
(0.0319096627409 0.0528864939866 0)
(0.0315590046073 0.047053177633 0)
(0.0312424581716 0.0412850260249 0)
(0.030961909836 0.0355751027347 0)
(0.0307191145064 0.0299161220878 0)
(0.0305157119912 0.0243005012684 0)
(0.0303528326022 0.0187204731364 0)
(0.030223268729 0.0131625449091 0)
(0.0299734034057 0.00770387256243 0)
(0.0268781148295 0.0022807564596 0)
(-0.158148107968 0.0119356188036 0)
(-0.175217951303 0.0414900784617 0)
(-0.174528899166 0.0702998291664 4.13298709737e-27)
(-0.171983852284 0.0992548833555 0)
(-0.168543716633 0.12761081917 0)
(-0.164314027435 0.155252115147 0)
(-0.159359938721 0.182043422737 0)
(-0.153751161444 0.207863324938 0)
(-0.147562573399 0.232605737567 0)
(-0.140872226033 0.256180631242 0)
(-0.133759362014 0.278514032279 0)
(-0.126302630302 0.299547683635 0)
(-0.118578549441 0.319238378478 0)
(-0.110660225496 0.337557036444 0)
(-0.102616337789 0.354487585582 0)
(-0.0945103785769 0.370025708109 0)
(-0.0864001495092 0.384177504215 0)
(-0.0783374909871 0.396958126243 0)
(-0.0703682380365 0.408390433574 0)
(-0.0625323639526 0.41850371562 0)
(-0.054864289282 0.427332523941 0)
(-0.0473932986721 0.434915644377 0)
(-0.0401440300965 0.441295225548 0)
(-0.0331369727544 0.446516063554 0)
(-0.026388946052 0.450625026512 0)
(-0.0199135150332 0.453670590896 0)
(-0.0137213446627 0.455702456296 0)
(-0.00782047923279 0.456771207649 0)
(-0.00221657640148 0.456928002097 0)
(0.00308690420058 0.456224262608 0)
(0.0080885067974 0.454711393914 0)
(0.012788698589 0.452440589065 0)
(0.0171895016341 0.44946223038 0)
(0.0212945347802 0.445826130124 0)
(0.0251087643364 0.441581013256 0)
(0.0286383600419 0.436774416272 0)
(0.0318905437332 0.431452522806 0)
(0.0348734574997 0.425660028994 0)
(0.0375960331168 0.41944002866 0)
(0.0400678803564 0.412833915562 0)
(0.0422991738419 0.405881300635 0)
(0.0443005553931 0.398619942993 0)
(0.046083031393 0.391085694127 0)
(0.0476578826345 0.383312455192 0)
(0.049036566898 0.375332147657 0)
(0.0502306324996 0.367174697817 0)
(0.0512516240222 0.358868035701 0)
(0.0521109992247 0.350438108883 0)
(0.0528200393594 0.341908911509 0)
(0.0533897724401 0.333302528645 0)
(0.0538308925997 0.324639195628 0)
(0.0541536952532 0.315937371679 0)
(0.0543680117729 0.307213826519 0)
(0.0544831629621 0.298483738272 0)
(0.0545079151342 0.289760800511 0)
(0.0544504570829 0.281057335882 0)
(0.0543183814878 0.272384413568 0)
(0.0541186876229 0.26375196766 0)
(0.0538577885278 0.255168913648 0)
(0.0535415379816 0.246643260209 0)
(0.0531752601931 0.238182213912 0)
(0.0527637961368 0.229792274652 0)
(0.0523115495189 0.22147932023 0)
(0.0518225451809 0.213248678788 0)
(0.0513004834162 0.205105188442 0)
(0.0507488022078 0.197053243848 0)
(0.0501707317523 0.189096830033 0)
(0.0495693527846 0.18123954405 0)
(0.0489476442966 0.173484605579 0)
(0.0483085318582 0.165834857705 0)
(0.0476549235554 0.158292759478 0)
(0.0469897445189 0.150860371809 0)
(0.0463159585411 0.143539338493 0)
(0.045636587453 0.136330863938 0)
(0.0449547181645 0.129235689327 0)
(0.0442735075938 0.12225406859 0)
(0.043596176665 0.115385745614 0)
(0.0429260029739 0.108629933763 0)
(0.0422663044231 0.101985298787 0)
(0.0416204226356 0.095449945774 0)
(0.0409916994624 0.089021410844 0)
(0.0403834544854 0.0826966578312 0)
(0.0397989577677 0.0764720802967 0)
(0.039241404791 0.0703435087663 0)
(0.03871388881 0.0643062231728 0)
(0.0382193766915 0.0583549703686 0)
(0.0377606846378 0.0524839867262 0)
(0.037340459257 0.0466870256252 0)
(0.0369611619215 0.0409573925028 0)
(0.0366250607782 0.0352879872492 0)
(0.0363342266597 0.0296713657772 0)
(0.0360905039712 0.0240997994558 0)
(0.0358949686784 0.0185653541485 0)
(0.0357385879643 0.0130542054196 0)
(0.0354392202549 0.00764073761462 0)
(0.0317743135571 0.00226693939761 0)
(-0.185027048199 0.012241509995 0)
(-0.204973007488 0.042931949216 0)
(-0.204123172804 0.0726650295318 -4.13078638945e-27)
(-0.201080211695 0.102560277346 0)
(-0.196971909455 0.131802864717 0)
(-0.191925764674 0.160267219933 0)
(-0.186022333191 0.187808667349 0)
(-0.179347558881 0.214298862139 0)
(-0.171993261162 0.239627188469 0)
(-0.164054628804 0.263701385938 0)
(-0.15562777646 0.286447334656 0)
(-0.146807583316 0.307808455332 0)
(-0.137685856314 0.32774475828 0)
(-0.128349823155 0.346231627885 0)
(-0.118880953533 0.363258414758 0)
(-0.109354096291 0.378826899099 0)
(-0.0998369248765 0.39294968322 0)
(-0.0903896742435 0.405648570824 0)
(-0.0810651533948 0.416952990822 0)
(-0.0719089998066 0.426898523339 0)
(-0.0629601357284 0.435525579692 0)
(-0.0542513641177 0.442878276229 0)
(-0.045810040149 0.44900352194 0)
(-0.0376587442231 0.453950315925 0)
(-0.0298159008586 0.457769226331 0)
(-0.0222962989957 0.460512005007 0)
(-0.0151115042853 0.462231285063 0)
(-0.00827016874808 0.462980314611 0)
(-0.00177826892337 0.46281269561 0)
(0.0043607036064 0.461782093014 0)
(0.0101455628183 0.459942044431 0)
(0.0155772489274 0.457345519883 0)
(0.0206585959024 0.454044715925 0)
(0.025394202752 0.450090963549 0)
(0.0297902252726 0.445534361048 0)
(0.0338541864611 0.440423651011 0)
(0.0375948031244 0.434806070349 0)
(0.0410218294613 0.428727227434 0)
(0.044145911943 0.422230998605 0)
(0.0469784592749 0.415359440134 0)
(0.0495315192074 0.408152713138 0)
(0.051817665109 0.400649020159 0)
(0.0538498842812 0.392884553172 0)
(0.0556414718182 0.384893453327 0)
(0.0572059231509 0.37670778327 0)
(0.0585568302369 0.368357512944 0)
(0.0597077757192 0.359870519984 0)
(0.0606722310726 0.351272605594 0)
(0.0614634542374 0.342587526813 0)
(0.0620943937094 0.333837045467 0)
(0.0625775955487 0.325040993934 0)
(0.0629251208028 0.316217356927 0)
(0.0631484702636 0.30738236823 0)
(0.0632585238822 0.298550620279 0)
(0.0632654914738 0.2897351843 0)
(0.0631788811301 0.28094773785 0)
(0.0630074811355 0.272198696687 0)
(0.0627593604645 0.263497347334 0)
(0.0624418825752 0.254851977155 0)
(0.0620617361597 0.246269998494 0)
(0.0616249766431 0.237758064224 0)
(0.0611370809341 0.229322172029 0)
(0.0606030086545 0.220967755744 0)
(0.0600272716101 0.212699762165 0)
(0.0594140046806 0.204522712858 0)
(0.0587670396331 0.196440750567 0)
(0.0580899754496 0.188457670901 0)
(0.0573862468207 0.180576939928 0)
(0.056659185212 0.172801699282 0)
(0.0559120745848 0.16513476015 0)
(0.0551481971944 0.157578588273 0)
(0.0543708720646 0.150135281687 0)
(0.0535834826258 0.142806543491 0)
(0.0527894965634 0.13559365134 0)
(0.0519924752845 0.128497425799 0)
(0.0511960763048 0.121518198975 0)
(0.050404046697 0.114655785167 0)
(0.049620210942 0.107909454583 0)
(0.0488484518414 0.101277911375 0)
(0.048092687681 0.0947592765996 0)
(0.0473568446767 0.0883510768978 0)
(0.0466448276116 0.0820502390703 0)
(0.0459604879568 0.0758530909089 0)
(0.0453075920324 0.0697553681615 0)
(0.0446897887354 0.0637522276338 0)
(0.0441105790474 0.0578382662891 0)
(0.0435732870937 0.0520075463761 0)
(0.0430810345975 0.0462536270514 0)
(0.042636718445 0.0405696024801 0)
(0.0422429922379 0.0349481475369 0)
(0.0419022474222 0.0293815863409 0)
(0.0416165574623 0.0238619318279 0)
(0.0413870386108 0.0183809234076 0)
(0.0412030960851 0.0129243722692 0)
(0.0408546916131 0.00756359124195 0)
(0.0366271500292 0.00224919141829 0)
(-0.212887864695 0.0126029474757 0)
(-0.23580181926 0.0446441782303 0)
(-0.234763411839 0.0754715367482 0)
(-0.231172364203 0.106479708292 0)
(-0.226331291851 0.136768875367 0)
(-0.220392489342 0.166201238943 0)
(-0.213454652459 0.194621058536 0)
(-0.205622723005 0.221892023834 0)
(-0.1970081184 0.24789857616 0)
(-0.187725602345 0.272546356946 0)
(-0.177890314637 0.295761677698 0)
(-0.167615199938 0.317490565627 0)
(-0.157008862063 0.337697444393 0)
(-0.146173833549 0.356363553908 0)
(-0.135205241702 0.373485189017 0)
(-0.124189852687 0.389071821242 0)
(-0.113205481074 0.403144162479 0)
(-0.102320753118 0.415732231324 0)
(-0.0915952079387 0.426873489438 0)
(-0.0810797052064 0.436611119724 0)
(-0.0708170875793 0.444992515964 0)
(-0.0608430206846 0.452068038948 0)
(-0.0511869160629 0.457890067313 0)
(-0.0418728355801 0.462512334509 0)
(-0.032920290757 0.465989505859 0)
(-0.0243448806248 0.46837692145 0)
(-0.0161587553552 0.469730421565 0)
(-0.00837093035303 0.470106183051 0)
(-0.000987501169261 0.469560524036 0)
(0.00598819062654 0.468149632627 0)
(0.0125554203607 0.465929441124 0)
(0.0187157897691 0.462955000364 0)
(0.024473111445 0.459280506558 0)
(0.0298331721996 0.454959036833 0)
(0.0348034992605 0.450042236355 0)
(0.0393931407591 0.444580201632 0)
(0.0436124657471 0.438621346592 0)
(0.0474729851317 0.432212296104 0)
(0.0509871915217 0.425397797571 0)
(0.0541684154172 0.418220645134 0)
(0.0570306925013 0.410721613534 0)
(0.0595886388744 0.402939400638 0)
(0.0618573300091 0.394910578919 0)
(0.0638521819864 0.38666955699 0)
(0.0655888325489 0.378248552583 0)
(0.0670830221368 0.369677578683 0)
(0.0683504738818 0.360984444397 0)
(0.069406774116 0.352194772249 0)
(0.0702672537491 0.34333203315 0)
(0.0709468734152 0.334417600127 0)