/*--------------------------------*- C++ -*----------------------------------*\
| =========                 |                                                 |
| \\      /  F ield         | OpenFOAM: The Open Source CFD Toolbox           |
|  \\    /   O peration     | Version:  v1906                                 |
|   \\  /    A nd           | Web:      www.OpenFOAM.com                      |
|    \\/     M anipulation  |                                                 |
\*---------------------------------------------------------------------------*/
FoamFile
{
    version     2.0;
    format      ascii;
    class       volScalarField;
    location    "459";
    object      p;
}
// * * * * * * * * * * * * * * * * * * * * * * * * * * * * * * * * * * * * * //

dimensions      [0 2 -2 0 0 0 0];


internalField   nonuniform List<scalar> 
9216
(
268.346085876
268.431258905
268.604134785
268.865065649
269.212624734
269.645072549
270.160275798
270.755745042
271.428689665
272.176048632
272.994549022
273.880732509
274.831013368
275.841696716
276.909032686
278.029223932
279.198474557
280.412986159
281.66900168
282.96279061
284.290688909
285.649074656
287.034405592
288.443186725
289.872007073
291.317500649
292.776383785
294.245410811
295.721413131
297.201250802
298.681854229
300.160172866
301.633220742
303.098023358
304.551667495
305.991247892
307.413922107
308.816858183
310.19729482
311.552491168
312.879792029
314.176580497
315.440347156
316.66864592
317.859165637
319.009689414
320.118166971
321.182678431
322.201506505
323.173106796
324.096179715
324.96964952
325.79273508
326.564936884
327.286101749
327.956410643
328.576427471
329.14707539
329.669660033
330.145823222
330.57753666
330.96702815
331.316752128
331.629300101
331.90737111
332.153687764
332.37098105
332.56191781
332.729099016
332.87499809
333.001971019
333.112204989
333.207738057
333.29041731
333.36192744
333.423760987
333.477256418
333.523579281
333.563764373
333.598702031
333.629179042
333.655867624
333.679364937
333.700217652
333.71870307
333.734492535
333.747479095
333.757876945
333.765846987
333.771716916
333.775852225
333.778674374
333.780557365
333.781697448
333.782269799
333.78246844
268.260998422
268.346598685
268.520111276
268.782260957
269.13147443
269.565957887
270.083532125
270.681667509
271.357529296
272.108016971
272.929814476
273.819427735
274.773232444
275.787504831
276.858463323
277.982290003
279.15516475
280.373276856
281.632851899
282.930154328
284.261508316
285.62329275
287.011957686
288.424013349
289.856043765
291.304691249
292.766668612
294.238740412
295.717734905
297.200523183
298.684031968
300.165221747
301.641101192
303.108705508
304.565113638
306.007427863
307.432794607
308.838386463
310.221427248
311.579177279
312.908962784
314.208164747
315.474252099
316.70477385
317.897394908
319.049891001
320.160185981
321.226349649
322.246636376
323.219487294
324.143571353
325.017794037
325.841341486
326.613695174
327.334674949
328.00445198
328.623579518
329.192990636
329.714004821
330.188299665
330.617886651
331.005051201
331.352300436
331.662286166
331.937753365
332.181474334
332.396213769
332.584676787
332.749486699
332.893144429
333.018018015
333.126312779
333.220070013
333.301145493
333.371217191
333.431775959
333.484145236
333.52948274
333.568805481
333.602994332
333.632817825
333.658935552
333.681916791
333.702238202
333.720285236
333.73585715
333.74861407
333.758708182
333.766531238
333.772320534
333.776323889
333.779048071
333.780893002
333.781967515
333.782479533
333.782685939
268.087379791
268.174074454
268.349339482
268.614097063
268.966729212
269.405382739
269.927803246
270.531380406
271.21319369
271.97005818
272.798573594
273.695168214
274.656143813
275.677712558
276.756034054
277.887242791
279.067476081
280.292891818
281.559687871
282.864111299
284.202470725
285.571138691
286.966558813
288.385243026
289.823775166
291.278804644
292.747047845
294.225279477
295.710332957
297.19909051
298.688483527
300.175482479
301.657098271
303.130373003
304.592383368
306.040233431
307.471061138
308.882034228
310.270360717
311.633288732
312.96812135
314.272220496
315.543025682
316.778061326
317.974958184
319.131462952
320.245461132
321.314988408
322.338254992
323.313660242
324.239820838
325.115591982
325.940102226
326.712782363
327.433403868
328.102107087
328.719429253
329.286314758
329.804117712
330.274582266
330.699810619
331.082203043
331.424385733
331.729128532
331.999278554
332.237700822
332.447236318
332.630659183
332.790646138
332.929744885
333.050356048
333.154713053
333.244872549
333.322699877
333.389867131
333.447852684
333.497955778
333.54130965
333.578901882
333.611587749
333.640107947
333.665098794
333.687104842
333.706581815
333.723948016
333.73891654
333.750890063
333.760372845
333.767911841
333.773463685
333.777210634
333.779814913
333.781524678
333.782502736
333.783018794
333.783275572
267.823074835
267.91117818
268.089152683
268.357940706
268.71584732
269.16092292
269.690797897
270.302735902
270.99368423
271.760325755
272.599131041
273.50640711
274.478343577
275.511052926
276.600606871
277.743065949
278.93450527
280.171033692
281.448810078
282.764053705
284.113052985
285.492169203
286.897839771
288.326577242
289.774968877
291.239672502
292.717413798
294.204980214
295.699217062
297.197020504
298.695333349
300.191138105
301.681453563
303.163328883
304.633841979
306.090095918
307.529220393
308.948371646
310.344738129
311.7155449
313.058064036
314.369623656
315.647622641
316.889543305
318.092968829
319.255597715
320.375262023
321.449942316
322.477786512
323.457127012
324.386503973
325.264690369
326.09072612
326.863955835
327.584073218
328.25116231
328.865733021
329.428740512
329.941592114
330.406132604
330.824612558
331.199618345
331.533973403
331.830632882
332.092603743
332.322888761
332.524446458
332.70015279
332.852767661
332.984905954
333.099019011
333.197380186
333.282073168
333.35497649
333.417755029
333.471862625
333.518560052
333.558937804
333.593939063
333.624377478
333.650954249
333.674271441
333.694843783
333.713109534
333.729477201
333.743341677
333.75430534
333.763093156
333.769955458
333.77504135
333.778622149
333.781037277
333.782587357
333.783514315
333.784033179
333.784289083
267.466766135
267.556739195
267.738424068
268.012735367
268.377864652
268.831723801
269.371781384
269.995124501
270.698516593
271.47845676
272.331237588
273.252999176
274.239778443
275.28755222
276.392274329
277.549905946
278.756440284
280.007921284
281.300457798
282.630233018
283.993510781
285.38663834
286.806047234
288.248251617
289.709845614
291.187498822
292.67795153
294.178008549
295.684533275
297.194440732
298.704691252
300.212283631
301.714249515
303.207647561
304.689559532
306.157086915
307.607350215
309.03748948
310.444668199
311.82607898
313.178952912
314.500570687
315.788276967
317.039495625
318.251746897
319.422663841
320.550009119
321.631690061
322.665774023
323.650503754
324.58431678
325.465870586
326.294078405
327.068155906
327.787678464
328.452639922
329.063503396
329.621229075
330.127292408
330.583673048
330.992838229
331.357655429
331.681244838
331.966826286
332.217623584
332.436819895
332.627529746
332.792764876
332.935396602
333.058126556
333.163471318
333.253756276
333.331105707
333.397419263
333.454351741
333.503316292
333.545513295
333.581968293
333.613561709
333.641048864
333.665077947
333.686205392
333.704909798
333.721637736
333.736557176
333.74893121
333.758717485
333.7665806
333.772816187
333.77741228
333.78060442
333.782782337
333.784222934
333.785096767
333.785600685
333.785852395
267.016508658
267.108876432
267.295345849
267.576781153
267.951218873
268.416383462
268.96952712
269.607502307
270.326829785
271.123767437
271.994376022
272.934579623
273.940219365
275.007099412
276.131025175
277.307833791
278.533417655
279.803741593
281.114854773
282.462898013
283.844107563
285.254815824
286.691449921
288.150528343
289.628656363
291.122520257
292.62888088
294.144566487
295.666465292
297.191517593
298.716707897
300.239057105
301.755615244
303.263454515
304.759663624
306.241343335
307.70560417
309.149566249
310.570362211
311.96514307
313.33108768
314.665415232
315.965400891
317.228393269
318.451833157
319.633271609
320.770386593
321.860996767
322.903072968
323.894748487
324.834332356
325.720330688
326.551483583
327.326822192
328.045746397
328.708111546
329.314304742
329.865275698
330.362577069
330.808348361
331.205360269
331.556898424
331.866523326
332.137814007
332.374260389
332.579258768
332.756114783
332.908011887
333.03796217
333.148769799
333.243024336
333.323113912
333.39122327
333.449290612
333.498958143
333.541572299
333.578237864
333.609885716
333.637312495
333.661197093
333.682118921
333.700573191
333.716981391
333.731744816
333.744823494
333.755520197
333.764153788
333.771131243
333.776535028
333.7803911
333.783231767
333.785188112
333.786468114
333.787350328
333.787854732
333.788110881
266.469810992
266.565159615
266.757591478
267.047899911
267.433917747
267.913124161
268.482490146
269.138565329
269.877559593
270.695424246
271.587928022
272.550725419
273.579415776
274.669592349
275.816881518
277.016972714
278.265640151
279.558757484
280.892306706
282.262382377
283.665192287
285.097055357
286.554397549
288.033746239
289.53172356
291.04503888
292.570480743
294.104908291
295.645242375
297.188456361
298.73156673
300.271623814
301.805702803
303.330895072
304.844300573
306.343021625
307.824158777
309.284809306
310.722069047
312.133038043
313.514830423
314.864588472
316.179500502
317.456821479
318.69389481
319.888173143
321.037235863
322.138801263
323.1907326
324.191039552
325.137879958
326.029571004
326.864622669
327.641805851
328.360262239
329.019636677
329.62020344
330.162868799
330.649266026
331.081680896
331.463298174
331.798044515
332.090152022
332.343667718
332.56236663
332.74986487
332.909689574
333.045241872
333.159708524
333.256004545
333.336784869
333.404503673
333.461441927
333.509618555
333.550664077
333.585811326
333.616007502
333.642048072
333.664625857
333.684325508
333.701642529
333.716998647
333.730746123
333.743227424
333.75421967
333.763185342
333.77052066
333.776378846
333.780839212
333.78414675
333.786638163
333.788385127
333.789507014
333.790342649
333.790830837
333.791075174
265.823570724
265.922558069
266.122266376
266.423391987
266.823504827
267.319768112
267.908793076
268.586744846
269.349442043
270.192453847
271.111188898
272.100973149
273.157115039
274.274957583
275.449917994
276.67751605
277.953392878
279.273321856
280.633213372
282.029114907
283.457207757
284.913801365
286.395326065
287.898324754
289.419443883
290.955423974
292.503089805
294.059340289
295.621138082
297.185498908
298.749480523
300.310171716
301.864681351
303.410127497
304.943627447
306.462289087
307.963204391
309.443445849
310.900066794
312.330106409
313.730600133
315.098595642
316.431174107
317.72547542
318.978725261
320.188260707
321.351550556
322.466206328
323.529981377
324.540758258
325.496530228
326.395389967
327.235548094
328.015409567
328.733730649
329.389834903
329.983855371
330.516586945
330.989764908
331.405667391
331.768040846
332.081849388
332.35242207
332.584377104
332.781698762
332.948170111
333.0875728
333.203601168
333.299667914
333.37879247
333.443646924
333.496733144
333.540499426
333.577150835
333.60832049
333.635031609
333.657954888
333.677694829
333.694835659
333.709852106
333.72314111
333.735043603
333.74583386
333.755780553
333.764453098
333.771623596
333.777532546
333.782267083
333.785907018
333.788737928
333.790790904
333.792335744
333.793386014
333.794065753
333.79453985
333.794762552
265.074001278
265.177375866
265.385850201
265.699989051
266.11702473
266.633716306
267.246218168
267.950211531
268.741027632
269.613765148
270.563395049
271.584849625
272.673094194
273.823181677
275.030291425
276.289754462
277.597067594
278.947898893
280.338086807
281.763634841
283.220703312
284.70559935
286.214765922
287.744770414
289.29229306
290.854115347
292.427108406
294.008221316
295.594469217
297.1829211
298.770687059
300.354905353
301.932729201
303.501313231
305.057800564
306.599311013
308.122931357
309.625708843
311.104649151
312.556720183
313.978862757
315.368008958
316.721107968
318.03515818
319.307242631
320.534563277
321.714467733
322.844461595
323.922199703
324.945453576
325.912058885
326.8198604
327.666690037
328.450433318
329.16925649
329.821969849
330.408613064
330.929714805
331.387272362
331.782955635
332.121268076
332.408984663
332.65342961
332.859781326
333.031900101
333.173564352
333.288874985
333.381980878
333.45662201
333.515879508
333.562302611
333.598349006
333.62678327
333.650271127
333.670494754
333.688055194
333.703094908
333.715960973
333.72718581
333.73711886
333.746039355
333.754212115
333.76182903
333.769016573
333.775297394
333.780659576
333.785139198
333.788780376
333.791676176
333.793954091
333.795702294
333.79698799
333.797938642
333.798492015
333.798957498
333.799154479
264.216538582
264.325164941
264.544121389
264.873793301
265.310979744
265.851923298
266.492199648
267.226883346
268.050701984
268.958179476
269.943760351
271.001911475
272.1272002
273.314350107
274.558276989
275.854108528
277.197191304
278.583088602
280.007571976
281.466608977
282.956348804
284.473107148
286.013350978
287.573683722
289.150830996
290.741626875
292.343000561
293.95196322
295.565594705
297.181029901
298.795444262
300.406038827
302.01002446
303.604605161
305.186961499
306.754234712
308.303512667
309.831819127
311.33610815
312.813265518
314.260119143
315.673459901
317.050073474
318.386782153
319.680493309
320.928248263
322.127262385
323.274944398
324.368882357
325.4067856
326.386380621
327.305276266
328.160847784
328.950238921
329.670670746
330.320035853
330.89866484
331.406333014
331.846184509
332.217211036
332.524978426
332.779684393
332.992775583
333.169468539
333.312507208
333.425284572
333.512421386
333.578908404
333.629021833
333.665802467
333.691305566
333.70764126
333.718200612
333.726830397
333.735400336
333.743570062
333.750388461
333.755896944
333.760842027
333.765404929
333.769698653
333.773949553
333.778234185
333.782556885
333.7865557
333.790163345
333.793247355
333.795814892
333.797951188
333.799716312
333.801214182
333.802354921
333.80312886
333.80362625
333.804048529
333.804238134
263.24572134
263.360614182
263.592060817
263.940201766
264.401277664
264.97086948
265.643819
266.414440786
267.276716897
268.224472853
269.251525179
270.35179694
271.519401277
272.748695796
274.034312369
275.371167675
276.754459709
278.179654952
279.64247001
281.138850586
282.664949785
284.21710699
285.79182797
287.38576647
288.995707249
290.618550351
292.251296271
293.891031587
295.534914592
297.180160389
298.824024926
300.463787902
302.096734229
303.720133721
305.331220069
306.927169705
308.505081958
310.061962367
311.594711564
313.100122557
314.574889415
316.015630204
317.418925954
318.781375644
320.099663826
321.370633409
322.591350421
323.759142612
324.871589196
325.926437978
326.921431118
327.854038161
328.721146523
329.518845768
330.242765065
330.888808518
331.459219451
331.951158258
332.372859656
332.713845692
332.981483097
333.192846209
333.369127291
333.512952682
333.62333566
333.702670169
333.756778814
333.792424185
333.814887337
333.826948643
333.82929075
333.822750268
333.811921028
333.803795078
333.800782393
333.800281765
333.798904315
333.796473891
333.794894226
333.793951602
333.793422214
333.79366558
333.7945593
333.796058406
333.797870771
333.799765455
333.801556572
333.803222922
333.804749781
333.806095621
333.807272002
333.808259598
333.808981031
333.809444142
333.809794594
333.809988746
262.155036391
262.277405515
262.523729478
262.893812145
263.383169995
263.986531981
264.697806055
265.510353361
266.417236149
267.411434669
268.486021886
269.634292985
270.849851657
272.126658729
273.459050635
274.841735657
276.269775321
277.738557133
279.243763398
280.78133944
282.347463271
283.938517819
285.551066073
287.181829105
288.827666617
290.485559543
292.152594128
293.82594684
295.502869383
297.180672997
298.856711367
300.528361559
302.193002531
303.847990805
305.490634063
307.118163413
308.727705874
310.316259336
311.880673173
313.417638396
314.923692008
316.395240351
317.828605568
319.220097159
320.566106708
321.86321732
323.10831134
324.298649977
325.431889377
326.505989147
327.518962422
328.468419902
329.350902664
330.161084521
330.891849254
331.533675587
332.096912545
332.568512257
332.978008773
333.282380497
333.493832304
333.643524096
333.778693436
333.888896487
333.963747578
334.004124269
334.019012398
334.018924815
334.011073246
333.997517732
333.975608886
333.942059198
333.90370856
333.876285366
333.863627488
333.857313197
333.848209878
333.836498796
333.828323085
333.822021914
333.816431259
333.81272895
333.810280571
333.80911251
333.808866296
333.809214348
333.809944663
333.810901242
333.811942602
333.812934526
333.813865972
333.814664333
333.815352762
333.815847638
333.81612254
333.816308866
260.936717722
261.068029245
261.332112665
261.728306576
262.251179844
262.894356621
263.650550478
264.511923224
265.470402361
266.51794873
267.646761849
268.849421706
270.118972502
271.448958341
272.833422593
274.266882588
275.744289754
277.26098318
278.81264227
280.39524209
282.005013272
283.638407153
285.292065996
286.962797752
288.647554578
290.343414349
292.047564297
293.757285907
295.469940093
297.182951424
298.893790528
300.599953456
302.298937347
303.988211652
305.665185477
307.327171687
308.971349405
310.594727532
312.194113137
313.766090004
315.307014003
316.813033039
318.280139277
319.704259832
321.081387036
322.407741586
323.679949178
324.89519654
326.051317415
327.146740132
328.18020156
329.15008855
330.053234897
330.882797983
331.627219696
332.259653288
332.821303952
333.255694009
333.678899597
333.937780065
334.064540661
334.121135325
334.239701758
334.333803236
334.374071498
334.363731228
334.323373709
334.27465706
334.229898467
334.189390578
334.141079472
334.069211357
333.987418286
333.935900314
333.92028564
333.915876795
333.899477701
333.873966254
333.859737878
333.849088563
333.837770988
333.830475092
333.824796543
333.821246611
333.81920651
333.818382022
333.818290058
333.818685818
333.819310049
333.820033322
333.820808563
333.821529226
333.822159945
333.822708224
333.822935111
333.823128349
259.581483169
259.723542709
260.008921238
260.436308159
260.999019717
261.689235111
262.498130815
263.416354596
264.434433787
265.543104732
266.733550698
267.997550867
269.327552096
270.716680214
272.158708944
273.648003029
275.179449172
276.748384708
278.350530445
279.981931164
281.638905011
283.318001619
285.015967926
286.729720391
288.456322297
290.192964993
291.936951988
293.685684844
295.436649567
297.187401906
298.935550228
300.678734105
302.414597454
304.140755162
305.854753327
307.554023549
309.235832794
310.897231548
312.535004773
314.145632224
315.725267338
317.269746308
318.774640696
320.235366372
321.647357201
323.00630137
324.308421408
325.550757001
326.731390265
327.849529016
328.905323858
329.899166967
330.830043483
331.690996458
332.466033374
333.066454515
333.655036365
334.003803217
334.619504363
334.818816375
334.772762063
334.49617396
334.320394961
334.31281986
334.34546056
334.363121583
334.357862765
334.343344245
334.329763635
334.312262683
334.271006099
334.176975723
334.035311983
333.954511538
333.963648007
333.98485957
333.958453022
333.904148945
333.887385877
333.875852678
333.855863368
333.846250714
333.83741455
333.831986051
333.828583177
333.826982277
333.826339129
333.826370952
333.826727872
333.827298323
333.827992881
333.828703107
333.82937338
333.829942538
333.83021074
333.83042292
258.078185834
258.233255224
258.544336419
259.009204772
259.619500454
260.365494754
261.236372075
262.220861637
263.307763426
264.486350945
265.746640068
267.079534314
268.476868525
269.931378254
271.43662189
272.986878791
274.577041044
276.202510733
277.859109341
279.543001997
281.250636445
282.978695053
284.724057474
286.483771605
288.255030838
290.035156108
291.821581578
293.611842768
295.403565687
297.194454769
298.982277801
300.764844961
302.539980236
304.305483588
306.059083504
307.798379908
309.520778548
311.223419276
312.903102871
314.556224019
316.178722232
317.7660672
319.313299574
320.815151065
322.266264532
323.66152347
324.996476303
326.267807237
327.473788225
328.614641669
329.692716003
330.712268891
331.67837887
332.591081161
333.45114653
333.948368796
334.767269899
334.548379441
334.565946969
334.688358366
334.68150206
334.577523744
334.467781509
334.411622178
334.389872447
334.371577714
334.345636837
334.316273695
334.285573345
334.248851712
334.20084539
334.144247886
334.098647661
334.089892978
334.118228374
334.136390426
334.057456429
333.897092976
333.90128425
333.905755933
333.866834026
333.859949041
333.847280205
333.840770504
333.836532147
333.834750277
333.833809877
333.833819198
333.834128383
333.83467739
333.835373342
333.836145445
333.836889951
333.837532213
333.837958971
333.838177221
256.41334707
256.584309181
256.926680482
257.436933234
258.104435491
258.916912751
259.860948863
260.922833271
262.0892378
263.347702434
264.686926346
266.09688866
267.568837802
269.095192565
270.669394576
272.285743796
273.939239185
275.625437651
277.340337127
279.080284444
280.841905392
282.622052866
284.417768677
286.226255215
288.044854169
289.871030631
291.702361563
293.536527726
295.371307457
297.204569569
299.034262571
300.858396165
302.67501224
304.48214326
306.277756936
308.059686623
309.825547623
311.572640844
313.297847636
314.997523605
316.667405152
318.302550353
319.897345399
321.445616301
322.94088869
324.376825937
325.74784414
327.049834552
328.280925362
329.442247061
330.538787476
331.580698366
332.587595467
333.604404324
334.852442807
334.633284638
334.639762298
334.706754724
334.659760444
334.672039002
334.637786606
334.55476357
334.467598888
334.410000012
334.375773979
334.346641477
334.316378515
334.285699425
334.252786253
334.215876054
334.174197263
334.131512577
334.097976528
334.082605957
334.081118985
334.071727113
334.044406856
334.041035839
334.063847297
334.000799102
333.847748633
333.868927412
333.852600651
333.846874308
333.842552366
333.841559616
333.840524468
333.841103321
333.841534614
333.842065316
333.842841845
333.843782352
333.844705218
333.845508241
333.846104329
333.846358224
254.570521753
254.761119999
255.141988581
255.707717412
256.444549227
257.336775385
258.367560144
259.520081965
260.778399425
262.128023575
263.556208977
265.052013046
266.606189334
268.210981498
269.859874727
271.547346445
273.268642413
275.019591152
276.796459664
278.595847196
280.414610283
282.249811277
284.098683037
285.958604064
287.827080477
289.701733258
291.580290576
293.460585132
295.340555157
297.218245454
299.091804317
300.959470349
302.819545127
304.670349013
306.510158472
308.337123629
310.14916489
311.943847803
313.71823781
315.468740776
317.190943254
318.87947803
320.527957469
322.129037203
323.674688454
325.156750992
326.567796182
327.902163281
329.157036109
330.333436398
331.436906542
332.478186492
333.478884883
334.501714999
334.714817271
334.796978297
334.714280557
334.701300562
334.6595051
334.632172376
334.58251542
334.507163116
334.430318973
334.371417016
334.329084685
334.293807162
334.262176746
334.232697996
334.202237968
334.170151675
334.136978609
334.105538988
334.081139772
334.067291802
334.059982158
334.049070969
334.031077205
334.020469344
334.015171091
334.000759527
334.007057592
333.987828286
333.853200428
333.843858699
333.845590291
333.847436258
333.846209404
333.848499572
333.848845149
333.849243647
333.850258806
333.851532274
333.852794036
333.853829398
333.854614684
333.854944422
252.529421797
252.744613625
253.1734491
253.807754576
254.62940769
255.618015438
256.752215777
258.011215725
259.375886107
260.829408998
262.357522952
263.948458027
265.592668371
267.282463219
269.011615691
270.775002092
272.568299986
274.387754372
276.230008842
278.091991493
279.970842479
281.863870016
283.768523584
285.682376171
287.603111165
289.528513185
291.45646455
293.384949568
295.31206598
297.23603891
299.155230379
301.068135713
302.973360637
304.869576328
306.755450602
308.62955383
310.4902362
312.335471931
314.162667211
315.968432911
317.748332015
319.496626944
321.206078658
322.867887614
324.471915202
326.007335973
327.463866901
328.83324422
330.110735671
331.296413952
332.396322368
333.428254416
334.449830049
334.596631359
334.694175976
334.738601103
334.694988632
334.655812182
334.606150684
334.555321533
334.493012236
334.419433081
334.347410058
334.287922926
334.241756977
334.205129221
334.175322299
334.149029947
334.123760762
334.099190125
334.0759748
334.055934747
334.041566178
334.03369902
334.029316306
334.023093332
334.012663024
334.003248267
333.995645627
333.983935692
333.976386378
333.963539983
333.968274738
333.954877869
333.855451892
333.850722651
333.84962511
333.856863175
333.856052091
333.855974301
333.857519292
333.859393828
333.86113721
333.862526636
333.86353296
333.863966171
250.264683336
250.511177534
251.000668083
251.720850402
252.647405817
253.753482834
255.0116962
256.396190124
257.883992073
259.455693161
261.095561048
262.791247189
264.533260503
266.314357087
268.128953285
269.972624401
271.841714158
273.733054805
275.643783088
277.571230922
279.512868212
281.46627741
283.42914324
285.399246471
287.374456709
289.352725419
291.332084977
293.31066067
295.286696971
297.258591525
299.224924889
301.184472427
303.136189341
305.079166718
307.01255841
308.935478473
310.846863155
312.745287013
314.628722103
316.494231644
318.337597423
320.152895161
321.932068049
323.664613762
325.337612766
326.936397026
328.446395681
329.855260663
331.154909583
332.34395551
333.435625531
334.488501486
334.600100313
334.64640719
334.683350287
334.681758765
334.632847784
334.571488858
334.502952135
334.432568044
334.359062991
334.284162076
334.21473395
334.156884995
334.111751095
334.078263957
334.053379548
334.03289366
334.015346773
334.000428095
333.988370108
333.979965909
333.976056134
333.976327525
333.978606392
333.979949567
333.979029045
333.977558307
333.97540743
333.969226473
333.961901652
333.953035443
333.948271352
333.939360949
333.94929415
333.935339041
333.847799256
333.868514792
333.862682494
333.861559345
333.864492705
333.867423708
333.869830083
333.87169617
333.872939206
333.873518698
247.744096546
248.031191161
248.598701299
249.42801586
250.485875613
251.736438282
253.144278923
254.677121738
256.307451136
258.013124687
259.777200203
261.587249124
263.434425366
265.312506988
267.217049986
269.144719083
271.092806805
273.058920668
275.040804214
277.036254232
279.043098997
281.059207592
283.082507199
285.110993425
287.1427281
289.175829396
291.208467576
293.238883816
295.26543733
297.286671171
299.301374261
301.308617268
303.307748956
305.298353615
307.280174754
309.253009991
311.216567426
313.170264193
315.112944204
317.04249221
318.9553226
320.845727502
322.705102966
324.521158856
326.277459751
327.953779571
329.52918127
330.984946824
332.307898595
333.501295999
334.622818857
334.69330716
334.678482548
334.662525138
334.640811054
334.592492315
334.517072222
334.431677932
334.343963361
334.258561195
334.176954196
334.10111854
334.034826175
333.981377282
333.941647551
333.914657061
333.896946919
333.884773648
333.877095822
333.873456239
333.87359859
333.877512304
333.885097721
333.895577386
333.907294561
333.918370197
333.927791886
333.935790662
333.941937119
333.944865454
333.945547063
333.943616237
333.940047576
333.935298473
333.935565253
333.931161445
333.936268392
333.914268089
333.866291098
333.864040266
333.871206995
333.875916107
333.87916616
333.881504689
333.88301825
333.88376358
244.926002237
245.26693915
245.936785347
246.907071599
248.131431917
249.561415937
251.15087322
252.859478205
254.654520152
256.511245865
258.412140245
260.345585661
262.304313196
264.283956615
266.281878304
268.296316969
270.325833174
272.368995855
274.42424484
276.489869312
278.564050997
280.644931152
282.730670163
284.819479822
286.909621757
288.999382229
291.087049737
293.170935962
295.249452806
297.321230861
299.385234146
301.440831995
303.487808605
305.526317135
307.556797628
309.579878319
311.596244808
313.606443212
315.610578948
317.607871136
319.596012536
321.570260747
323.522187369
325.438070231
327.297364301
329.071569226
330.73016087
332.245214641
333.604047108
334.860376991
334.891779249
334.798118301
334.711756408
334.633530092
334.549378585
334.452462016
334.344963357
334.2361151
334.131975403
334.036125934
333.950274209
333.875836446
333.814670774
333.768330634
333.737238841
333.719336555
333.710669171
333.708585132
333.712230151
333.720897482
333.733920936
333.750748487
333.77075186
333.792946377
333.815946073
333.838319302
333.859089955
333.877869562
333.894142956
333.907231255
333.917362398
333.924376705
333.928678199
333.930286138
333.930241605
333.92825921
333.929192991
333.936339218
333.91899971
333.857139623
333.877464205
333.885449019
333.889501314
333.892158361
333.893967607
333.89485321
241.755355637
242.169597254
242.976701747
244.132373389
245.57076605
247.225689916
249.036774259
250.953804682
252.938460833
254.964016469
257.01364818
259.078040674
261.152916323
263.236928543
265.330102367
267.432815408
269.545222092
271.667001753
273.797321971
275.934928991
278.078296993
280.225783536
282.375751088
284.526627305
286.676894001
288.825021326
290.969392874
293.108316534
295.24014589
297.363491426
299.477424215
301.581601204
303.676284809
305.762276317
307.840813573
309.913492265
311.982179452
314.048859222
316.115353556
318.182868712
320.251294403
322.318095628
324.376541659
326.412856171
328.402652508
330.304002522
332.072514809
333.677932282
335.170085323
335.189111487
335.007978436
334.838869069
334.689096206
334.543459292
334.399291483
334.257022726
334.119179383
333.990653703
333.875010074
333.774129311
333.688702727
333.619059524
333.565625583
333.528810116
333.508356231
333.500997068
333.502530885
333.511535018
333.527174197
333.548466341
333.574450832
333.604248727
333.636950328
333.671481233
333.706598292
333.741070966
333.773916912
333.804467577
333.832105084
333.856263246
333.876816488
333.893634407