/*--------------------------------*- C++ -*----------------------------------*\
| =========                 |                                                 |
| \\      /  F ield         | OpenFOAM: The Open Source CFD Toolbox           |
|  \\    /   O peration     | Version:  v1906                                 |
|   \\  /    A nd           | Web:      www.OpenFOAM.com                      |
|    \\/     M anipulation  |                                                 |
\*---------------------------------------------------------------------------*/
FoamFile
{
    version     2.0;
    format      ascii;
    class       surfaceScalarField;
    location    "500";
    object      phia;
}
// * * * * * * * * * * * * * * * * * * * * * * * * * * * * * * * * * * * * * //

dimensions      [0 3 -1 0 0 0 0];
oriented        oriented;


internalField   nonuniform List<scalar> 
18240
(
0.00134702943762
-0.00134724640397
0.00282168742705
-0.0014749277991
0.00429537481272
-0.00147390546729
0.00575033461967
-0.00145523817594
0.00717869557955
-0.00142856492082
0.008573594759
-0.00139518310342
0.00992914663499
-0.00135574047777
0.0112397409204
-0.00131088127578
0.0125006889724
-0.0012611204079
0.0137075213336
-0.00120711982721
0.0148567713789
-0.00114940530488
0.0159451471929
-0.00108866128992
0.0169704059332
-0.00102539665815
0.0179304041067
-0.000960279340346
0.0188240495601
-0.000893765837531
0.0196502488523
-0.000826474052998
0.0204089288303
-0.000758783210754
0.021099902439
-0.000691240068505
0.0217239509363
-0.000624134934989
0.0222816293751
-0.000557934985163
0.0227744000517
-0.000492841202107
0.0232033972266
-0.000429242449053
0.0235706000297
-0.00036725820754
0.0238775736724
-0.000307206601886
0.0241266694097
-0.000249137265952
0.0243197568341
-0.000193307290451
0.0244594370301
-0.000139708932857
0.0245477785279
-8.85477983922e-05
0.0245875310341
-3.97698956494e-05
0.0245808764176
6.46211646724e-06
0.0245306327642
5.02363943776e-05
0.0244390222826
9.14317634924e-05
0.0243088468654
0.000130176805739
0.0241423036104
0.000166378138779
0.0239421354542
0.000200176986033
0.0237104765895
0.000231506980546
0.0234499625968
0.000260528869775
0.0231626237952
0.000287199664896
0.0228509516476
0.000311691970201
0.0225168432366
0.000333981418336
0.022162619116
0.000354247665161
0.0217900223185
0.000372481294488
0.0214011838533
0.000388864802116
0.0209976788425
0.000403400287057
0.0205814375108
0.000416269454015
0.0201538600566
0.000427482797533
0.019716671399
0.000437217831348
0.0192710956791
0.00044549040537
0.0188186542344
0.000452470883356
0.0183603998239
0.000458177740659
0.017897657458
0.000462771520224
0.0174313179031
0.000466270843701
0.0169625218309
0.000468824352994
0.0164920115461
0.000470448884279
0.0160207589175
0.000471279641905
0.0155493739091
0.000471330289789
0.0150786773692
0.000470721859118
0.0146091645333
0.00046946420603
0.0141415237375
0.000467664148559
0.0136761528729
0.000465327746613
0.0132136256233
0.000462548337723
0.0127542586127
0.000459328854252
0.0122985268389
0.000455750418708
0.0118466791837
0.000451813920429
0.0113991052188
0.000447589971649
0.0109559965996
0.00044307878304
0.0105176675654
0.000438342300589
0.0100842596866
0.000433381425063
0.00965601882655
0.000428251280216
0.00923304056729
0.000422954685599
0.00881550655569
0.000417541554366
0.0084034678431
0.00041201752791
0.00799704387193
0.000406428617853
0.00759624079619
0.000400783811102
0.00720111647034
0.000395126124984
0.00681163070101
0.000389467984523
0.00642777979058
0.000383849941714
0.00604947552698
0.00037828756132
0.00567665284938
0.000372819084663
0.00530917432387
0.000367462561995
0.00494691453182
0.000362253760888
0.00458968677448
0.000357212258395
0.00423730770285
0.000352370848026
0.00388954318102
0.000347749301872
0.00354615669258
0.000343376366705
0.00320687192754
0.000339269722833
0.00287140923741
0.000335450978172
0.00253946528227
0.000331929026469
0.00221074760597
0.000328704664863
0.00188498804012
0.000325744840868
0.00156202796506
0.000322946249453
0.00124199718611
0.000320016684994
0.000925827429578
0.000316156380698
0.000617237680265
0.000308576839815
0.000330337497652
0.000286883674723
0.000330328021164
0.00148912406555
-0.00283661186286
0.00315136147512
-0.0031374335865
0.0048045711293
-0.0031273690725
0.00643404377154
-0.00308497981666
0.00803243243778
-0.00302720084626
0.00959276186323
-0.00295577908563
0.0111085253595
-0.0028717428067
0.0125736160291
-0.00277623402178
0.0139826782514
-0.00267041132127
0.0153308622494
-0.00255555936794
0.0166141590511
-0.002432919225
0.0178290688234
-0.00230381822606
0.0189729483472
-0.0021694804745
0.0200436134331
-0.00203118159752
0.0210397030956
-0.00189004610245
0.0219602301855
-0.00174722698159
0.0228049646324
-0.00160369388556
0.0235739462141
-0.00146043506456
0.0242678884309
-0.0013182386882
0.0248876665281
-0.00117791327016
0.0254347421394
-0.0010400635129
0.0259106377093
-0.000905324436819
0.0263173798895
-0.000774132439973
0.0266569690223
-0.000646968121331
0.0269318372153
-0.000524123195386
0.0271443189841
-0.000405947389172
0.0272971183527
-0.000292612326357
0.0273927850279
-0.00018435896168
0.0274341844527
-8.12603285617e-05
0.0274239824371
1.65330906808e-05
0.0273651099303
0.000109030025503
0.0272602671119
0.000196156416817
0.0271123907681
0.000277985498207
0.0269241582219
0.000354504724041
0.0266984354682
0.000425842292833
0.0264378111318
0.000492036777264
0.0261450339863
0.000553257777034
0.0258225650442
0.000609584654414
0.025472998327
0.000661218615441
0.0250986348954
0.000708270609623
0.0247018854182
0.000750964264177
0.0242848674852
0.00078943382849
0.023849788465
0.000823917170851
0.0233985670064
0.00085456432601
0.0229331952007
0.000881619962055
0.0224553847936
0.000905242942869
0.0219669079534
0.000925677890587
0.0214692684506
0.000943086020504
0.0209640207104
0.000957705621241
0.0204524658733
0.000969694336981
0.0199359489224
0.000979278556549
0.0194155792861
0.000986607207517
0.0188925060334
0.000991890177337
0.0183676623832
0.000995263608502
0.0178420189688
0.00099691755877
0.0173163514286
0.000996972674622
0.0167914718889
0.000995597348878
0.0162680186247
0.00099289555727
0.0157466659427
0.00098901378429
0.0152279348325
0.000984039694547
0.0147123816292
0.000978099107835
0.0142004285254
0.000971265090831
0.0136925315052
0.000963645260279
0.0131890296263
0.000955300798003
0.0126902929692
0.000946324385259
0.0121965896207
0.000936768593222
0.0117082145429
0.000926714778021
0.0112253732496
0.000916210261541
0.0107482927365
0.000905328575603
0.0102771208553
0.000894114832685
0.00981202057984
0.000882637763434
0.00935308409177
0.00087094267009
0.00890041181996
0.000859095776589
0.00845404021271
0.000847144156526
0.00801400704805
0.00083515297184
0.00758029182214
0.00082317176722
0.00715286889738
0.000811265231432
0.00673165936952
0.000799485247036
0.00631657360828
0.000787895835867
0.00590747341856
0.000776550350489
0.00550420551772
0.000765511276679
0.00510657278208
0.000754831941184
0.0047143601405
0.000744571799546
0.00432731373682
0.000734781991045
0.0039451606602
0.000725516589199
0.00356759494382
0.000716821121963
0.00319429235035
0.000708739721755
0.00282490170334
0.000701304834492
0.00245905337912
0.000694538314701
0.00209634559315
0.000688437422248
0.00173631357215
0.000682963342632
0.00137829704904
0.000678018289655
0.00102101693207
0.00067342194103
0.00066071478428
0.000668865005497
0.000286060546754
0.000661523480249
0.000616381134768
0.00151537332887
-0.00435223101913
0.0031988415903
-0.00482116727054
0.00487573025788
-0.00480451966405
0.00652878623978
-0.00473830002068
0.00814989168117
-0.00464856351403
0.00973178467079
-0.00453793169828
0.0112677436175
-0.00440795230174
0.0127515835173
-0.00426032704249
0.0141778106452
-0.0040968805468
0.0155415687087
-0.00391956216132
0.0168387620467
-0.00373034447761
0.0180659480158
-0.00353123887014
0.0192204417141
-0.00332419453284
0.0203001684059
-0.00311113148931
0.0213037582249
-0.00289384352608
0.0222303700534
-0.00267404941312
0.0230797836186
-0.00245330148862
0.0238522054753
-0.00223305405646
0.0245483646929
-0.0020145777292
0.0251693104457
-0.00179904212487
0.025716516066
-0.0015874344846
0.0261916755463
-0.00138065266627
0.026596818019
-0.00117942568142
0.0269341077911
-0.000984412258882
0.0272059689264
-0.000796120762606
0.0274148907414
-0.000615009363675
0.027563559951
-0.000441403979755
0.0276546720803
-0.000275597461107
0.0276910682637
-0.000117765607319
0.0276755526357
3.19355778569e-05
0.0276110313905
0.00017345484743
0.027500336048
0.000306751118532
0.0273463639709
0.000431872938414
0.027151908728
0.000548871030278
0.026919797702
0.000657879602914
0.0266527309527
0.000759025390685
0.0263534167234
0.000852508205708
0.0260244188861
0.000938514238895
0.0256682888957
0.00101729378829
0.0252874219486
0.00108907823588
0.0248841846466
0.00115415472982
0.0244607800829
0.00121278708898
0.0240193704786
0.00126528702771
0.0235619514096
0.00131193920812
0.0230904690613
0.00135306873752
0.0226067036701
0.00138897042944
0.0221123810166
0.00141997235631
0.0216090651346
0.00144636948468
0.0210982639178
0.00146848325007
0.0205813309594
0.00148659964685
0.0200595650142
0.00150102484956
0.0195341207466
0.0015120279245
0.0190061019081
0.00151989264975
0.018476480557
0.00152486490864
0.017946183646
0.00152720084496
0.0174160201977
0.00152711901488
0.0168867610916
0.00152484504084
0.016359073544
0.00152056844318
0.0158335938014
0.00151448387593
0.0153108682945
0.00150675252105
0.0147914191115
0.00149753996528
0.0142756911914
0.00148698189214
0.0137641104899
0.00147521858651
0.0132570366967
0.00146236463654
0.0127548142346
0.00144854005394
0.0122577300575
0.00143384361607
0.0117660577233
0.00141838057895
0.011280019967
0.00140223931834
0.0107998262917
0.00138551566515
0.0103256400708
0.00136829249212
0.00985761017846
0.00135066074476
0.00939584244933
0.00133270168119
0.00894042598911
0.00131450474692
0.00849140881788
0.00129615219426
0.00804881951088
0.00127773400218
0.00761264685322
0.00125933465493
0.00718285748948
0.00124104536272
0.00675937936951
0.00122295279161
0.00634211604154
0.0012051488657
0.00593093363471
0.00118772126455
0.00552567239955
0.00117076109656
0.00512613691922
0.00115435496916
0.00473210541723
0.00113859079286
0.00434332283442
0.00112355120022
0.00395950827244
0.00110931764922
0.00358035034607
0.00109596485508
0.0032055125452
0.00108356316208
0.00283462899746
0.00107217347408
0.00246730438553
0.00106184786264
0.0021031009919
0.00105262546611
0.00174151320663
0.00104453569763
0.00138190523561
0.0010376110322
0.00102338731213
0.00103192537656
0.000664705884099
0.00102753181103
0.000306166598501
0.00102004771889
0.000922540318006
0.00153863135251
-0.00589111036886
0.00324504604456
-0.00652784784988
0.00494500378858
-0.00650474233488
0.00662046204921
-0.00641402238428
0.00826282456243
-0.00629118657865
0.00986451943209
-0.00613988550074
0.0114185888117
-0.00596227586817
0.0129187067849
-0.00576069690372
0.0143592612179
-0.00553768090739
0.0157353591878
-0.00529590311095
0.0170428750731
-0.00503809631815
0.0182784137644
-0.00476700998413
0.0194393300068
-0.00448533524174
0.0205236596175
-0.00419568158105
0.0215301199106
-0.00390051562173
0.0224580198603
-0.00360215681116
0.023307251063
-0.00330273088327
0.0240781870745
-0.00300418366877
0.0247716733596
-0.00270824799233
0.0253889246672
-0.00241647266864
0.0259315204933
-0.00213019970033
0.0264013068991
-0.00185060369578
0.0268004011608
-0.00157867469311
0.0271311012206
-0.00131526235538
0.0273958998826
-0.0010610596816
0.0275974019837
-0.000816647167559
0.0277383461438
-0.00058247431852
0.027821528192
-0.000358901348659
0.0278498278919
-0.000146177963547
0.0278261372986
5.5517570404e-05
0.0277533908611
0.000246101409876
0.0276344970092
0.000425548833771
0.0274723715561
0.000593910486028
0.0272698741224
0.000751283939185
0.0270298424393
0.000897834418119
0.0267550338628
0.00103376011448
0.0264481603069
0.00115931498363
0.0261118345103
0.00127477589197
0.0257486056661
0.00138046495191
0.0253609100846
0.00147671841042
0.0249511069615
0.00156390831915
0.0245214332708
0.00164241316561
0.0240740393115
0.00171263865718
0.0236109477725
0.00177499001659
0.0231340888441
0.00182989167105
0.0226452634076
0.00187776117006
0.0221461775798
0.00191902769373
0.0216384099982
0.0019541076124
0.0211234456894
0.00198342182729
0.0206026473249
0.00200737307806
0.0200772882557
0.00202636224982
0.0195485275244
0.00204076758205
0.0190174418268
0.00205096012422
0.0184850039104
0.00205728501589
0.0179521131221
0.00206007628572
0.0174195767273
0.0020596403228
0.0168881386402
0.00205627015
0.0163584631158
0.00205023111354
0.0158311612373
0.00204177467702
0.0153067764497
0.00203112623769
0.0147858084418
0.0020184983743
0.0142687000429
0.00200408059158
0.0137558582401
0.00198805187338
0.0132476420894
0.00197057207565
0.0127443807659
0.00195179358173
0.0122463622731
0.00193185402886
0.0117538485737
0.00191088686066
0.0112670650288
0.00188901507999
0.0107862128101
0.00186636052762
0.0103114591062
0.00184303839891
0.00984294711746
0.00181916514455
0.00938078714693
0.00179485355441
0.00892506455376
0.00177021925391
0.00847583186902
0.00174537622768
0.00803311509907
0.00172044195995
0.00759690700312
0.0016955333317
0.00716717213187
0.00167077051326
0.00674384136362
0.00164627321014
0.00632681601986
0.00162216345376
0.00591596370688
0.00159856219438
0.00551112179836
0.00157559115243
0.00511209455961
0.00155336975884
0.00471865619628
0.00153201622158
0.00433054913081
0.0015116448003
0.00394748663712
0.00149236622172
0.0035691518528
0.00147428527067
0.00319519949555
0.00145750073478
0.00282525427997
0.00144210354503
0.00245890951034
0.00142817712751
0.00209572095874
0.00141579829528
0.00173519754004
0.00140504348485
0.00137678959134
0.00139600338854
0.00101990031631
0.00138879920519
0.000664113045429
0.00138330434215
0.00031130777741
0.00137283776065
0.00123384017719
0.00156848466428
-0.00745984458655
0.00330664813111
-0.00826627858974
0.00503776510822
-0.00823612629095
0.00674316893696
-0.008119691618
0.00841381885902
-0.00796209914333
0.0100417785507
-0.00776810516618
0.0116197993474
-0.00754055289707
0.0131413516
-0.00728250180299
0.0146006819421
-0.00699725918196
0.0159928342478
-0.00668829886311
0.0173136684878
-0.00635916838741
0.0185598413653
-0.00601341544092
0.0197287918167
-0.00565451191202
0.020818691489
-0.00528580158015
0.0218284079784
-0.00491044546509
0.0227574367467
-0.00453139256607
0.0236058531475
-0.00415134685602
0.0243742366182
-0.00377275999541
0.0250636213479
-0.00339781785292
0.0256754220816
-0.00302845163792
0.026211391308
-0.00266633929357
0.0266735532487
-0.00231292904632
0.0270641718915
-0.0019694488534
0.0273856957259
-0.0016369348394
0.0276407368194
-0.00131624165335
0.0278320249588
-0.0010080694971
0.0279623948946
-0.00071297088685
0.0280347468274
-0.000431373524148
0.0280520386657
-0.000163582808108
0.0280172505354
9.01987386873e-05
0.0279333803477
0.000329871493925
0.0278034102671
0.000555424425241
0.0276303072366
0.00076692544412
0.0274169924048
0.00096451586759
0.0271663427253
0.0011484071355
0.026881165376
0.00131886517733
0.026564201224
0.00147621228077
0.02621810251
0.00162081194634
0.0258454383719
0.00175307136071
0.0254486753968
0.00187342736284
0.0250301847641
0.0019823493543
0.024592225383
0.00208032620318
0.0241369523358
0.00216786931015
0.0236664024943
0.00224550027879
0.0231825041539
0.00231375392093
0.022687065096
0.0023731665607
0.0221817833262
0.00242427886447
0.0216682375862
0.0024676248082
0.0211478991588
0.00250373438229
0.0206221247531
0.00253312334613
0.0200921692134
0.00255629596765
0.0195591805995
0.00257373581277
0.0190242135553
0.0025859087699
0.0184882262379
0.00259325511883
0.017952093925
0.00259619307263
0.0174166073293
0.0025951123411
0.016882485966
0.00259037834842
0.0163503772977
0.00258232736173
0.0158208693204
0.00257127139773
0.0152944900047
0.00255749484961
0.014771718646
0.00254125995874
0.0142529851361
0.00252280470948
0.0137386797205
0.00250234861196
0.0132291517894
0.00248009154767
0.012724717876
0.00245621954748
0.0122256598128
0.00243090421218
0.0117322309597
0.00240430815638
0.0112446537463
0.00237658465777
0.010763124292
0.00234788249062
0.0102878094743
0.00231834551226
0.00981885020372
0.00228811669193
0.00935635824845
0.00225733744627
0.00890041849852
0.00222615077385
0.00845108580275
0.00219470024233
0.00800838655794
0.00216313223118
0.00757231580795
0.0021315945642
0.0071428384741
0.00210023793714
0.00671988692014
0.00206921424459
0.0063033620807
0.00203867731306
0.00589313164004
0.00200878101009
0.00548903124997
0.00197967942447
0.0050908633925
0.00195152485649
0.0046983987796
0.00192446759114
0.00431137586067
0.00189865388043
0.00392950233944
0.00187422546854
0.00355245507863
0.00185131773227
0.00317988138672
0.00183005925121
0.00281139870051
0.00181057058646
0.00244659502693
0.0017929648901
0.00208502809337
0.00177734907372
0.00172622664381
0.00176382858602
0.0013696989547
0.00175251494002
0.00101496912538
0.00174351368597
0.000661768418467
0.00173648934945
0.000311883186765
0.00172270686387
0.00154571544907
0.00160622993008
-0.00906632616915
0.0033854319646
-0.0100457497854
0.00515664143165
-0.0100076048796
0.00690042468158
-0.00986374209738
0.00860722006481
-0.00966915916488
0.0102686508698
-0.0094297976503
0.011877114599
-0.00914927469052
0.0134258245974
-0.00883146597911
0.0149088601884
-0.00848054431299
0.0163211881464
-0.00810087157622
0.0176586671253
-0.00769688657239
0.0189180254641
-0.00727300740869
0.0200968289063
-0.00683354265985
0.0211934275055
-0.00638262126966
0.0222068998842
-0.00592413201057
0.0231369823663
-0.00546168250022
0.023984002206
-0.00499856677563
0.0247488009383
-0.00453775175347
0.0254326678015
-0.0040818700981
0.0260372678207
-0.00363322978414
0.0265645845258
-0.00319382635631
0.0270168601991
-0.00276536777142
0.0273965528058
-0.00234929677521
0.0277062906587
-0.00194682077015
0.0279488428449
-0.00155893433177
0.0281270853228
-0.00118644541969
0.0282439802146
-0.000829991911319
0.0283025483392
-0.000490061012178
0.0283058527939
-0.000166999667356
0.0282569746319
0.000138970914336
0.0281589990475
0.000427747617303
0.0280149924199
0.000699337600312
0.0278279929929
0.000953837476514
0.0276009907335
0.00119143628493
0.0273369191158
0.00141240244826
0.0270386398187
0.0016170732414
0.0267089368945
0.00180584898221
0.0263505044707
0.00197918272632
0.0259659432207
0.00213757544613
0.025557750549
0.00228156696752
0.0251283188825
0.00241173192563
0.0246799279797
0.00252867164009
0.0242147448043
0.00263301050419
0.0237348178333
0.00272538845975
0.023242078461
0.00280645753985
0.022738337307
0.00287687474214
0.0222252871926
0.00293729862761
0.0217045014865
0.00298838257063
0.0211774386775
0.003030771497
0.0206454427228
0.00306509567257
0.0201097491367
0.00309196783657
0.0195714871696
0.00311197782272
0.0190316871619
0.00312569043203
0.0184912841894
0.00313364122786
0.0179511262528
0.00313633548582
0.0174119788682
0.00313424543521
0.0168745335247
0.00312781049908
0.0163394126055
0.00311743609318
0.0158071775045
0.00310349518566
0.0152783332746
0.00308632856366
0.0147533358557
0.00306624753249
0.0142325959488
0.00304353537489
0.0137164849483
0.00301845084944
0.0132053377191
0.00299123043682
0.0126994570218
0.00296209220236
0.0121991150691
0.00293123837438
0.0117045564317
0.00289885912727
0.011215998447
0.00286513506665
0.0107336327698
0.00283024055119
0.0102576248524
0.00279434575167
0.00978811442558
0.00275761924398
0.00932521435983
0.00272022943575
0.00886901042324
0.00268234629468
0.00841955985883
0.00264414206541
0.00797689076554
0.00260579211924
0.00754100070477
0.00256747499172
0.00711185601327
0.00252937243272
0.00668939069425
0.00249166886515
0.00627350590593
0.0024545507736
0.00586406931919
0.00241820572478
0.00546091495295
0.002382821261
0.00506384309357
0.00234858363896
0.00467262055698
0.00231567641009
0.00428698116504
0.00228427904765
0.00390662640181
0.00225456542588
0.00353122632359
0.00222670256026
0.00316042048927
0.00220084931791
0.00279381921662
0.00217715572437
0.00243100496106
0.00215576257293
0.00207153489711
0.00213680232929
0.00171494600829
0.00212040077459
0.0013607662529
0.00210667798058
0.00100854351801
0.00209571971818
0.000657985940912
0.00208703101517
0.000310683431662
0.00206999298095
0.0018563903196
0.00165269191756
-0.0107192716042
0.00348267310785
-0.0118760025697
0.0053034365219
-0.0118286395737
0.0070945538071
-0.0116551288448
0.00884581296636
-0.0114206850937
0.0105482977287
-0.0111325460965
0.0121939786097
-0.0107952156294
0.013775761635
-0.0104135049359
0.0152875348832
-0.00999256890161
0.0167241849688
-0.00953776788193
0.0180815882921
-0.00905453063605
0.0193565786928
-0.0085482325745
0.0205468983563
-0.00802409087225
0.0216511334737
-0.00748707826322
0.0226686409505
-0.00694185456181
0.0235994670588
-0.00639271649002
0.0244442639255
-0.00584356430416
0.0252042044137
-0.00529788535851
0.0258809011362
-0.00475875245159
0.0264763296488
-0.00422883620742
0.0269927609344
-0.00371042795956
0.0274327017339
-0.00320547114473
0.0277988462932
-0.00271559634176
0.0280940358044
-0.00224215766725
0.0283212274157
-0.00178626591951
0.0284834673673
-0.00134881796234
0.0285838697646
-0.000930519746915
0.0286255955604
-0.000531905204967
0.0286118344714
-0.000153350168119
0.0285457852595
0.000204915171816
0.0284306389804
0.000542795344388
0.028269561665
0.000860322523103
0.0280656778771
0.00115763482078
0.0278220575991
0.00143497576809
0.0275417038502
0.00169268085852
0.0272275408703
0.00193116598942
0.0268824061178
0.00215091844771
0.026509041163
0.00235248696338
0.0261100861514
0.00253647418071
0.0256880728099
0.00270352807343
0.025245420809
0.00285433563897
0.0247844324897
0.00298961521637
0.0243072908737
0.00311011086097
0.0238160560516
0.00321658510071
0.0233126648618
0.00330981359663
0.0227989290467
0.00339057807912
0.0222765367105
0.00345966113687
0.0217470523893
0.00351783933477
0.0212119203877
0.00356587822912
0.0206724668235
0.00360452589632
0.0201299047953
0.00363450848665
0.0195853382796
0.00365652458352
0.0190397688781
0.00367124174623
0.0184941012
0.0036792921729
0.0179491506905
0.00368127066614
0.0174056499197
0.00367773198873
0.016864256832
0.00366919053265
0.0163255612377
0.00365611952868
0.0157900927605
0.00363895244811
0.0152583268391
0.00361808396536
0.0147306917331
0.00359387285848
0.0142075734653
0.0035666443725
0.013689321418
0.00353669417533
0.0131762518594
0.00350429160663
0.0126686519039
0.00346968413564
0.0121667815051
0.00343310091423
0.0116708757907
0.00339475717614
0.0111811456313
0.00335485755878
0.0106977785692
0.00331359997349
0.0102209382413
0.00327117827989
0.00975076425105
0.00322778530622
0.00928737082059
0.00318361462794
0.00883084601615
0.00313886258966
0.00838125002155
0.00309372910426
0.00793861411243
0.00304841867816
0.00750293890692
0.0030031402853
0.0070741934274
0.00295810750867
0.00665231361183
0.00291353762948
0.00623720171743
0.002869651061
0.00582872529545
0.00282666984215
0.00542671710359
0.00278481656682
0.00503097466079
0.00274431249199
0.00464126074317
0.00270537617555
0.0042573035528
0.00266822142489
0.00387879778722
0.00263305587316
0.00350540540564
0.00260007903242
0.00313675728163
0.00256948109678
0.00277245467572
0.00254144144677
0.00241207196106
0.00251612810455
0.00205515984125
0.00249369698618
0.00170125098406
0.00247429190325
0.00134986936944
0.00245804209675
0.00100054912348
0.00244502332695
0.000652944778458
0.00243461818423
0.000308506602713
0.00241441359807
0.0021648883465
0.00170868013969
-0.0124282078171
0.00359990736576
-0.0137675034676
0.0054803772758
-0.0137093833783
0.00732841082523
-0.0135034341389
0.00913298770186
-0.0132255310945
0.010884535644
-0.0128843599321
0.0125745172241
-0.0124854593589
0.0141954824335
-0.0120347280922
0.0157411104145
-0.0115384500091
0.0172062153076
-0.0110031207395
0.0185867225011
-0.010435280013
0.0198796192769
-0.00984136553295
0.0210828877677
-0.00922758896386
0.0221954224978
-0.00859983591896
0.0232169394215
-0.00796358721411
0.0241478772568
-0.00732386287081
0.0249892977151
-0.00668518567818
0.0257427850792
-0.00605156612214
0.0264103519493
-0.00542650484696
0.0269943513942
-0.00481301349145
0.0274974016647
-0.00421364811937
0.0279223221857
-0.0036305538562
0.0282720845116
-0.00306551299029
0.0285497740964
-0.00251999399481
0.0287585634998
-0.00199519440744
0.0289016909112
-0.00149207711492
0.0289824435927
-0.00101139683437
0.0290041410451
-0.00055372004888
0.0289701190167
-0.000119438603385
0.0288837116422
0.000291218703048
0.0287482319577
0.000678177642261
0.0285669604707
0.00104150279097
0.0283431244724
0.00138138554335
0.0280798853058
0.00169813532934
0.0277803266715
0.00199216527572
0.0274474441578
0.00226397943548
0.0270841369619
0.00251416140482
0.0266932005177
0.00274336379405
0.0262773205487
0.00295229881468
0.0258390677103
0.00314172969308
0.0253808932014
0.00331246268451
0.0249051249469
0.00346533963766
0.0244139645885
0.00360123065154
0.023909485207
0.00372102709265
0.0233936298455
0.00382563438696
0.0228682109807
0.00391596513545
0.0223349108432
0.00399293188
0.0217952828816
0.00405744028947
0.0212507541092
0.00411038205004
0.0207026287016
0.00415262840225
0.0201520924282
0.00418502359562
0.0196002182909
0.0042083793053
0.0190479728108
0.00422346926838
0.0184962233026
0.00423102520239
0.0179457454719
0.00423173322679
0.0173972316422
0.00422623178588
0.0168512988887
0.00421511024041
0.0163084973767
0.00419890901186
0.0157693181859
0.00417812039383
0.0152342009371
0.00415319078309
0.0147035405482
0.00412452341188
0.0141776934899
0.00409248221848
0.013656982935
0.00405739593389
0.0131417032476
0.00401956293926
0.0126321232729
0.00397925599821
0.0121284889601
0.00393672738113
0.0116310248292
0.00389221353321
0.011139934901
0.00384593981002
0.0106554026134
0.00379812448907
0.0101775904287
0.00374898262611
0.00970663862382
0.00369872901513
0.0092426640444
0.00364758089105
0.00878575824691
0.00359575966068
0.00833598587584
0.00354349238934
0.00789338260373
0.00349101231845
0.00745795354609
0.00343855923467
0.00702967136775
0.00338637892353
0.00660847505269
0.00333472261828
0.00619426844681
0.00328384561133
0.00578691959767
0.00323400602385
0.00538625991016
0.00318546282666
0.00499208417471
0.0031384741828
0.00460415042574
0.0030932951392
0.00422218069577
0.00305017579465
0.00384586160365
0.00300935892967
0.00347484583936
0.00297107825209
0.00310875354407
0.00293555624107
0.00274717469714
0.00290300272189
0.00238967161551
0.00287361309657
0.00203578286131
0.00284756737067
0.00168502812949
0.00282502840125
0.0013369145048
0.00280613743329
0.00099094919711
0.00279097023536
0.000646739360885
0.00277881053098
0.000305643019784
0.00275549201366
0.00247052198863
0.00177514017435
-0.0142036061686
0.00373903721144
-0.0157316774035
0.00569025144674
-0.0156608738517
0.0076055632155
-0.0154190203257
0.00947296257207
-0.0150932019544
0.0112820893312
-0.0146937549298
0.0130238120757
-0.0142274464839
0.0146902802643
-0.0137014562578
0.0162749561198
-0.0131233809654
0.0177726041161
-0.012501018366
0.0191792457462
-0.0118421654595
0.0204920883194
-0.0111544455355
0.0217094342983
-0.0104451657832
0.0228305775261
-0.00972120286789
0.0238556897
-0.00898891592333
0.0247857020037
-0.0082540840601
0.0256221842081
-0.0075218691722
0.0263672266772
-0.00679680190256
0.0270233281153
-0.00608279176798
0.0275932951429
-0.00538315789154
0.02808015614
-0.0047006785987
0.0284870935882
-0.00403765271502
0.0288173941315
-0.00339596713875
0.0290744159465
-0.00277716152862
0.0292615683097
-0.00218248489599
0.0293822993177
-0.00161293866295
0.029440085812
-0.0010693065884
0.0294384226028
-0.000552172915436
0.0293808086055
-6.19337986544e-05
0.0292707303742
0.000401194461004
0.0291116414554
0.000837170524733
0.028906951515
0.00124610289061
0.0286600041551
0.00162824900199
0.0283740642478
0.00198399696765
0.0280523066243
0.00231385003673
0.0276978065576
0.00261841168909
0.0273135324904
0.00289837252332
0.0269023395669
0.00315449824429
0.0264669646811
0.00338761956108
0.0260100215414
0.00359862261754
0.0255339970146
0.00378844082146
0.0250412472393
0.00395804643294
0.0245339951529
0.00410844310896
0.0240143278374
0.00424065771718
0.0234841955316
0.00435573291682
0.0229454106098
0.00445471879609
0.0223996484781
0.00453866527264
0.021848448608
0.00460861355946
0.0212932176742
0.00466558855383
0.0207352329404
0.00471059051586
0.0201756477826
0.00474458799142
0.0196154974218
0.00476851042586
0.0190557066061
0.00478324242439
0.0184970972677
0.00478961815137
0.0179403977202
0.00478841771809
0.0173862514406
0.00478036405649
0.016835226844
0.00476612193753
0.0162878261858
0.00474629761734
0.0157444948856
0.00472144054583
0.0152056295633
0.0046920456187
0.0146715860085
0.00465855719152
0.0141426855735
0.00462137336477
0.0136192211629
0.00458085158332
0.0131014615313
0.00453731412508
0.012589655031
0.00449105440117
0.012084031723
0.00444234273821
0.0115848049718
0.00439143250607
0.0110921716055
0.00433856537507
0.010606311732
0.00428397656137
0.0101273874092
0.00422789895609
0.00965554122841
0.00417056703632
0.00919089406089
0.00411221954266
0.00873354299698
0.00405310188557
0.00828355872375
0.00399346731378
0.0078409833506
0.00393357788188
0.00740582788147
0.0038737042515
0.00697807034425
0.0038141254376
0.00655765369951
0.00375512749623
0.00614448456412
0.00369700233622
0.00573843178237
0.00364004559157
0.0053393259216
0.00358455480094
0.00494695863358
0.00353082677104
0.00456108300357
0.00347915541868
0.00418141375444
0.00342982892505
0.00380762845974
0.00338312751703
0.00343936861633
0.00333932069471
0.00307624175542
0.00329866518918
0.00271782345636
0.00326140247053
0.00236366061045
0.0032277570431
0.00201327463043
0.00319793411723
0.00166616574097
0.00317211771714
0.00132181809178
0.00315046577404
0.000979709358475
0.00313306059961
0.000639404681584
0.00311909612604
0.000302194497364
0.00309268281922
0.00277270706424
0.00185322309232
-0.0160570903041
0.00390241735383
-0.0177811503386
0.00593651560626
-0.0176952513607
0.00793042416205
-0.0174132056978
0.0098709325904
-0.0170339844897
0.0117467469519