/*--------------------------------*- C++ -*----------------------------------*\
| =========                 |                                                 |
| \\      /  F ield         | OpenFOAM: The Open Source CFD Toolbox           |
|  \\    /   O peration     | Version:  v1906                                 |
|   \\  /    A nd           | Web:      www.OpenFOAM.com                      |
|    \\/     M anipulation  |                                                 |
\*---------------------------------------------------------------------------*/
FoamFile
{
    version     2.0;
    format      ascii;
    class       volScalarField;
    location    "662";
    object      p;
}
// * * * * * * * * * * * * * * * * * * * * * * * * * * * * * * * * * * * * * //

dimensions      [0 2 -2 0 0 0 0];


internalField   nonuniform List<scalar> 
9216
(
273.587206516
273.666969163
273.832015531
274.083750515
274.42075431
274.841439933
275.343839977
275.925644312
276.584241527
277.316756157
278.12008925
278.990954482
279.925917103
280.921426569
281.973851193
283.079505268
284.234677969
285.435654255
286.678737797
287.960266016
289.276627639
290.624272837
291.999726406
293.399594149
294.820572719
296.259453313
297.713129042
299.178596771
300.652962653
302.133442697
303.617366954
305.102178654
306.585437223
308.064817719
309.538112312
311.003228322
312.458189043
313.901131437
315.330305943
316.74407367
318.140905346
319.519378118
320.878173743
322.2160751
323.531963757
324.824816303
326.093701439
327.337776234
328.556282892
329.748545029
330.913964267
332.052016613
333.162249003
334.244275857
335.297775668
336.322487776
337.318209079
338.284791025
339.222136501
340.13019702
341.008969791
341.858495077
342.67885342
343.47016311
344.232577544
344.966282739
345.671494787
346.348457347
346.997439165
347.618731502
348.212645686
348.779510461
349.31966955
349.833478925
350.321304391
350.783518795
351.220499645
351.632626305
352.020277677
352.383829434
352.723651802
353.040106892
353.333546636
353.604310278
353.852722513
354.079091239
354.283705983
354.466836088
354.628729715
354.769613125
354.889691747
354.989153935
355.068183277
355.127003344
355.166395886
355.182843775
273.507490415
273.587615427
273.753005638
274.005742565
274.344182008
274.766662289
275.271171179
275.855361436
276.516585474
277.251932671
278.058268934
278.932274668
279.870482947
280.869314032
281.925108874
283.034157931
284.192728543
285.39708736
286.643521498
287.928355006
289.247964534
290.598790867
291.977350216
293.380241996
294.804156849
296.245881735
297.702305613
299.170422641
300.647336163
302.130260556
303.61652385
305.103568852
306.588954721
308.070356562
309.545566309
311.012492073
312.469157857
313.913702103
315.344376638
316.759544617
318.15767874
319.537358663
320.897268591
322.236194272
323.553020084
324.846725731
326.116382966
327.361152107
328.580278532
329.773089141
330.938988748
332.077456586
333.188042717
334.270364661
335.324103912
336.349002743
337.344860889
338.311532555
339.248923291
340.1569872
341.035724003
341.885176414
342.705427367
343.496597512
344.258842561
344.992350849
345.697340745
346.374058225
347.022774312
347.64378261
348.237396746
348.80394784
349.343781939
349.857257422
350.344742425
350.80661221
351.243246596
351.655027331
352.042335573
352.4055493
352.745040892
353.06117464
353.354304469
353.624771613
353.872902534
354.099006821
354.303375365
354.486278558
354.647964765
354.788658784
354.908560196
355.007840284
355.086634529
355.145014388
355.182871822
355.199294022
273.341690538
273.422963849
273.589886722
273.844928409
274.186412739
274.612633251
275.121516402
275.710647194
276.377306472
277.118511001
277.931054497
278.81154783
279.756458012
280.762144336
281.824891925
282.940941533
284.106516313
285.317844751
286.571180795
287.862820562
289.189116796
290.546490561
291.931441318
293.340554895
294.770510412
296.218085645
297.680161753
299.153726858
300.635879224
302.123829554
303.614902992
305.106540485
306.596299843
308.081856067
309.561001569
311.031645832
312.491814739
313.939649463
315.373405028
316.791448527
318.192256997
319.574415048
320.936612156
322.277639811
323.59638836
324.891843802
326.163084311
327.409276814
328.629673329
329.823607455
330.990490652
332.129808756
333.241118309
334.324043191
335.378271089
336.403550303
337.399686407
338.366539268
339.304019911
340.212087754
341.090747672
341.940047407
342.760074804
343.550955345
344.312849502
345.045950342
345.750480939
346.426691986
347.074859223
347.695281022
348.28827578
348.854179456
349.393342929
349.90612947
350.39291208
350.85407092
351.289990647
351.70105784
352.08765838
352.450174923
352.788984362
353.104455402
353.396946169
353.666801931
353.914352901
354.139912162
354.343773687
354.526210479
354.687472754
354.827786081
354.947349142
355.046330502
355.124863037
355.183029724
355.220781087
355.238634959
273.086779134
273.169339374
273.338659554
273.59730548
273.943539769
274.375580273
274.891259576
275.488057786
276.163144443
276.913422763
277.73557394
278.626100348
279.581366588
280.597637392
281.671112009
282.797954641
283.974321064
285.1963814
286.46033948
287.762448973
289.099026828
290.466464276
291.861235905
293.27990703
294.719139772
296.175698004
297.646451452
299.128379033
300.618571612
302.11423421
303.612687746
305.111370278
306.607837923
308.099765394
309.584945962
311.061291122
312.526829819
313.979707342
315.418183788
316.840632246
318.245536568
319.63148894
320.997187074
322.341431272
323.663121172
324.961252446
326.23491324
327.483280641
328.705616953
329.901266077
331.069649748
332.210263948
333.322675218
334.406517202
335.461487123
336.487342519
337.48389794
338.451021912
339.388633866
340.296701332
341.175237087
342.024296539
342.843975055
343.63440548
344.395755578
345.12822563
345.832045919
346.507474338
347.154793873
347.774310172
348.36634898
348.931253646
349.469382506
349.981106316
350.46680559
350.926867993
351.361685657
351.77165257
352.157161921
352.518603534
352.856361294
353.170810681
353.462316334
353.731229734
353.977886951
354.202606526
354.405687415
354.587407062
354.748019487
354.887753377
355.006809977
355.105360693
355.18354416
355.241461411
355.279100697
355.297236553
272.741675309
272.825884321
272.998493759
273.26209321
273.614851872
274.054876825
274.579868592
275.187160705
275.873767748
276.636435246
277.471688808
278.37588135
279.34523718
280.375892082
281.463928937
282.605408717
283.796396949
285.032985947
286.311313197
287.627576396
288.97804562
290.359073129
291.767101219
293.198668567
294.650415339
296.119087379
297.601539652
299.094739104
300.595767025
302.101820998
303.610216445
305.118387665
306.623888711
308.12439396
309.617697916
311.10171483
312.574477872
314.034137952
315.478962113
316.907331617
318.317739631
319.708788662
321.079187658
322.427748921
323.753384748
325.055103976
326.332008315
327.583288666
328.808221306
330.006164122
331.176552783
332.31889702
333.432776907
334.517839292
335.573794272
336.60041185
337.597518661
338.564994884
339.502771238
340.410826145
341.289182969
342.137907395
342.957104853
343.746918051
344.507524512
345.239134184
345.941987009
346.616350545
347.262517506
347.880803325
348.471543637
349.035091755
349.571816069
350.082097444
350.566326549
351.024901193
351.458223627
351.866697864
352.250726994
352.610710551
352.947041901
353.260105708
353.550275456
353.817911069
354.063356617
354.28693813
354.488961507
354.669710543
354.829445018
354.968398871
355.08677839
355.184760592
355.262491885
355.320086553
355.357549694
355.375707631
272.304596541
272.390897039
272.567741953
272.837727893
273.198895004
273.649199469
274.186165218
274.806931411
275.508308425
276.286835145
277.138834515
278.06046599
279.047773526
280.096728298
281.203265761
282.363317075
283.572835194
284.827816098
286.124315792
287.458463715
288.826473194
290.224649565
291.649396463
293.097220752
294.564736446
296.048667901
297.545852467
299.053242757
300.567908564
302.087038504
303.60794135
305.128046892
306.64490677
308.156195064
309.659707938
311.153363218
312.635199515
314.10337495
315.55616547
316.991962796
318.409272005
319.806708804
321.182996493
322.536962695
323.867535861
325.173741613
326.454698942
327.70961634
328.93778785
330.138589136
331.311473543
332.455968243
333.571670429
334.658243652
335.715414246
336.74296793
337.740746527
338.708644861
339.646607786
340.554627369
341.432740193
342.281024785
343.099599124
343.88861823
344.648271793
345.378781838
346.080400375
346.753407056
347.398106782
348.014827273
348.603916588
349.165740586
349.700680328
350.209129439
350.691491412
351.14817689
351.579600923
351.98618022
352.368330412
352.72646334
353.060984388
353.372289873
353.660764504
353.92677894
354.170687433
354.392825586
354.593508231
354.773027414
354.931650518
355.069618508
355.187144352
355.284411789
355.36157456
355.418755396
355.455966689
355.4740388
271.773265827
271.862156955
272.044265842
272.322189389
272.693798803
273.156853034
273.708647219
274.346070555
275.065672653
275.863730434
276.736311899
277.679335123
278.688620994
279.759938942
280.889045453
282.07171565
283.303768515
284.581086546
285.899630716
287.255451615
288.644697603
290.063620712
291.508580923
292.976049331
294.462610582
295.964964878
297.479929708
299.004441435
300.535556749
302.070453989
303.606434256
305.140922177
306.67146671
308.195741727
309.711545529
311.216800412
312.709551722
314.187966482
315.650331604
317.095051691
318.520646468
319.92574787
321.309096821
322.669539764
324.006024953
325.317598591
326.603400824
327.862661664
329.094696858
330.298903768
331.474757281
332.62180579
333.739667287
334.828025577
335.886626643
336.915275187
337.91383133
338.882207507
339.820365528
340.728313801
341.606104707
342.453832107
343.271628943
344.059664921
344.818144239
345.547303343
346.247408663
346.918754338
347.561659879
348.17646778
348.763541056
349.323260706
349.856023102
350.362237314
350.842322375
351.296704502
351.725814283
352.13008386
352.509944106
352.865821837
353.198137059
353.507300273
353.79370986
354.057749561
354.299786047
354.520166627
354.71921706
354.897239533
355.054510765
355.191280313
355.307769069
355.404168168
355.480638256
355.537308179
355.574194474
355.592120969
271.144860827
271.236900208
271.425408717
271.712976054
272.097257148
272.575758278
273.145483424
273.80300599
274.544548796
275.366063316
276.263303808
277.231894283
278.267386796
279.365310385
280.521210815
281.730681738
282.989388299
284.293084351
285.63762451
287.018972209
288.433204811
289.876516672
291.345220889
292.835750305
294.344658184
295.868618833
297.404428318
298.949005325
300.499392152
302.052755772
303.606388644
305.157709693
306.704265024
308.243728364
309.773900698
311.292709755
312.798208999
314.288576163
315.762111325
317.217234546
318.652483112
320.066508406
321.458072456
322.826044215
324.16939561
325.487197418
326.778615017
328.042904059
329.279406113
330.487544324
331.666819124
332.816804043
333.937141642
335.027539614
336.087767051
337.117650927
338.117072773
339.085965578
340.024310877
340.932136051
341.80951178
342.656549657
343.473399909
344.260249203
345.0173185
345.744860923
346.443159609
347.112525515
347.753295154
348.365828255
348.950505323
349.507725103
350.03790195
350.541463111
351.018845933
351.470495009
351.896859284
352.298389141
352.675533487
353.028736859
353.358436568
353.665059915
353.949021473
354.210720479
354.450538326
354.668836193
354.865952807
355.042202365
355.197872628
355.333223206
355.448484078
355.543854467
355.619501985
355.67556096
355.712051752
355.72978989
270.415951548
270.511767161
270.707947888
271.007064309
271.406496664
271.903430412
272.494502319
273.175890752
273.943413503
274.792622847
275.718892517
276.717494216
277.783662098
278.912644876
280.099746156
281.34035423
282.629962903
283.964185067
285.338760694
286.749560763
288.192588432
289.663978522
291.159996171
292.677035256
294.211617031
295.760389207
297.320125587
298.887726232
300.460218048
302.034755679
303.608622146
305.179230074
306.744122478
308.300973111
309.84758621
311.381895959
312.901965424
314.405984984
315.892270247
317.3592595
318.805510721
320.229698186
321.63060875
323.007137822
324.358285118
325.683150237
326.980928105
328.250904368
329.49245075
330.705020457
331.888143654
333.041423061
334.164529712
335.257198904
336.319226364
337.350464653
338.350819821
339.320248308
340.258754095
341.166386074
342.043235621
342.889434346
343.705151958
344.490594238
345.246001045
345.971644336
346.66782615
347.334876522
347.973151315
348.583029928
349.164912888
349.719219315
350.246384258
350.746855931
351.221092839
351.669560841
352.092730145
352.491072287
352.865057093
353.215149666
353.541807412
353.845477135
354.12659221
354.385569866
354.622808589
354.83868566
355.033554844
355.207744256
355.361554397
355.495256412
355.609090553
355.703264988
355.777954796
355.833300025
355.869325555
355.886838351
269.582424691
269.682732772
269.888032892
270.200857359
270.618237987
271.136953807
271.753180022
272.462603106
273.260541986
274.142063191
275.102083617
276.135458143
277.237050703
278.401789011
279.624704338
280.900958386
282.225859665
283.594871779
285.00361585
286.447869007
287.923560546
289.426766993
290.953707027
292.500736897
294.064346766
295.641158145
297.227922461
298.821520613
300.418963318
302.017391983
303.614079355
305.206431091
306.791986868
308.368420576
309.933540286
311.485287719
313.021737137
314.541093645
316.041690945
317.521988544
318.980568495
320.416131698
321.827493843
323.213581043
324.573425224
325.906159345
327.211012495
328.487304933
329.734443134
330.95191488
332.139284461
333.296188024
334.422329121
335.517474483
336.581450059
337.614137346
338.615470006
339.585430792
340.524048755
341.431396733
342.307589063
343.1527795
343.967159284
344.750955303
345.504428304
346.227871099
346.921606713
347.585986441
348.22138778
348.828212207
349.406882808
349.957841728
350.481547479
350.978472099
351.449098192
351.893915871
352.313419629
352.708105181
353.078466279
353.424991559
353.748161425
354.048445
354.326297175
354.582155766
354.816438807
355.02954198
355.22183623
355.393665536
355.545344893
355.6771585
355.789358159
355.882161997
355.955753332
356.010278594
356.045768132
356.063019983
268.639388475
268.745017796
268.961107313
269.290121681
269.728649356
270.272953606
270.918629237
271.66075098
272.494025167
273.41293033
274.411839066
275.485118206
276.627206342
277.832669913
279.096240414
280.412836032
281.7775712
283.18575739
284.63289804
286.114680022
287.626963514
289.165771712
290.727281346
292.307814691
293.903833398
295.511934271
297.128846872
298.75143269
300.376685478
302.001732399
303.623834911
305.240390867
306.848936216
308.447145012
310.032829718
311.603940726
313.158565194
314.694925223
316.211375393
317.7063997
319.178607962
320.62673176
322.049619982
323.446234041
324.815642854
326.157017632
327.469626572
328.752829501
330.006072537
331.22888283
332.420863438
333.581688381
334.711097943
335.808894244
336.87493713
337.909140407
338.911468429
339.881933051
340.820590924
341.727541118
342.602923021
343.446914481
344.259730111
345.041619707
345.79286671
346.513786642
347.204725465
347.866057804
348.498185008
349.101533013
349.676549997
350.223703826
350.743479307
351.236375255
351.70290142
352.143575287
352.558918794
352.949454999
353.315704735
353.658183279
353.977397069
354.273840499
354.54799281
354.800315109
355.031247532
355.241206562
355.430582529
355.599737302
355.749002181
355.878676013
355.989023513
356.080273906
356.152619697
356.206214506
356.241095136
356.258050044
267.581051255
267.692975188
267.921810026
268.269908378
268.733291259
269.307564407
269.987590648
270.767683041
271.641796431
272.603700024
273.647122005
274.76586325
275.953880288
277.205340293
278.514652556
279.876481449
281.285745901
282.737609807
284.227467064
285.750924116
287.303782134
288.882020339
290.481781468
292.09935999
293.731193324
295.373856049
297.024056811
298.678637456
300.334573792
301.98897735
303.639096929
305.282321424
306.916182417
308.538353985
310.14665349
311.739041164
313.313618904
314.868628277
316.402447803
317.913589556
319.40069518
320.862531384
322.297985026
323.706057838
325.08586092
326.436609039
327.757614846
329.048283062
330.308104697
331.536651388
332.733569885
333.89857678
335.031453505
336.132041673
337.200238788
338.235994376
339.239306535
340.210218928
341.148818193
342.055231737
342.929625879
343.772204261
344.583206465
345.36290675
346.111612822
346.829664568
347.517432664
348.175317014
348.803744956
349.403169227
349.974065647
350.516930545
351.032277941
351.5206365
351.982546305
352.418555485
352.829216743
353.215083822
353.576707956
353.914634336
354.229398637
354.521523619
354.791515853
355.03986257
355.267028681
355.473453963
355.659550442
355.825699976
355.972252063
356.099521863
356.207788458
356.297293399
356.368239413
356.420788206
356.454983981
356.471604716
266.400565612
266.519945097
266.763850484
267.134456305
267.627051259
268.236397278
268.95642958
269.780510347
270.701672325
271.712831314
272.806957171
273.977201145
275.216981658
276.52003401
277.880431192
279.292583319
280.751222603
282.251379711
283.788356013
285.357695046
286.955155464
288.576686952
290.21841002
291.876600149
293.547676419
295.228194408
296.914842875
298.604443438
300.293952362
301.980463436
303.661210738
305.333572693
306.995075403
308.643392596
310.276346953
311.89190977
313.488199673
315.063480424
316.616157874
318.14477616
319.64801324
321.124675871
322.573694129
323.994115578
325.385099177
326.745909027
328.075908039
329.374551588
330.641381238
331.8760186
333.078159391
334.247567755
335.384070927
336.48755429
337.557956877
338.595267375
339.599520639
340.570794739
341.509208508
342.41491957
343.288122773
344.129048957
344.937963953
345.715167725
346.460993532
347.175807024
347.860005166
348.514014932
349.138291698
349.733317304
350.299597781
350.837660738
351.348052441
351.831334619
352.288081049
352.718873965
353.124300358
353.504948195
353.861402633
354.194242247
354.504035332
354.791336291
355.056682158
355.300589272
355.523550124
355.726030398
355.908466224
356.071261649
356.214786337
356.339373517
356.44531815
356.532875423
356.602259387
356.653640741
356.687072021
356.703319655
265.089826498
265.218068104
265.479850889
265.877072973
266.404068429
267.054507399
267.821142427
268.696144253
269.671413305
270.738841323
271.890511879
273.118839506
274.416653179
275.777233832
277.194317203
278.662072893
280.175069077
281.728230241
283.316793304
284.936265663
286.582387382
288.251098759
289.93851395
291.640900912
293.354667628
295.076354206
296.802630066
298.530295054
300.256283206
301.977666967
303.691662928
305.395637038
307.087107918
308.76374835
310.423386666
312.064006507
313.683745435
315.280892446
316.853884519
318.401302307
319.921865095
321.414425154
322.877961603
324.311573906
325.714475127
327.085985024
328.425523096
329.732601636
331.006818893
332.247852382
333.455452441
334.629436097
335.769681319
336.876121743
337.948741927
338.987573199
339.992690131
340.964207653
341.902278785
342.807092948
343.678874776
344.517883322
345.324411555
346.098785999
346.841366392
347.552545235
348.232747103
348.882427654
349.502072233
350.09219406
350.653331983
351.186047798
351.690923198
352.168556379
352.619558384
353.04454925
353.444154012
353.818998643
354.169705977
354.496891672
354.801160237
355.083101192
355.343285354
355.582261314
355.800552096
355.998652037
356.177023897
356.336096203
356.476260852
356.59787096
356.701238966
356.786635047
356.854285719
356.904371613
356.936954516
356.952788091
263.63920725
263.77804336
264.061145356
264.489988425
265.057647405
265.756366464
266.577379735
267.511358965
268.548813068
269.680409147
270.89720393
272.19078955
273.553365493
274.977753087
276.457369689
277.986178087
279.558623534
281.169567488
282.814223926
284.488101704
286.186954635
287.906740011
289.643585756
291.393766223
293.153686418
294.919874089
296.688978522
298.457774406
300.223168818
301.982207956
303.73208651
305.470154595
307.193921087
308.901056816
310.589395981
312.256935966
313.90183574
315.522412978
317.117140082
318.684639246
320.22367672
321.733156405
323.212112944
324.659704442
326.07520495
327.457996832
328.807563097
330.123479793
331.405408519
332.653089125
333.866332693
335.045014855
336.189069579
337.298483485
338.373290798
339.413569011
340.419435305
341.391043745
342.328583246
343.232276237
344.102377951
344.939176195
345.74299146
346.514177202
347.253120117
347.960240255
348.635990821
349.280857546
349.895357563
350.480037719
351.035472339
351.562260451
352.061022548
352.532396931
352.977035753
353.395600823
353.78875927
354.157179135
354.501524963
354.822453443
355.120609143
355.396620394
355.651095322
355.8846181
356.097745399
356.291003099
356.464883233
356.619841215
356.756293323
356.874614463
356.975136197
357.058145109
357.123881356
357.172536444
357.204182335
357.2195586
262.037210318
262.188811493
262.497522879
262.964176289
263.580163518
264.335846915
265.220496698
266.222890941
267.331828409
268.536519138
269.826844501
271.193498624
272.628033242
274.122832487
275.671043248
277.266482514
278.903537652
280.577070067
282.282328145
284.014872027
285.770510795
287.545251653
289.335260622
291.136834421
292.946383306
294.760424264
296.575583068
298.388602771
300.196355733
301.995854709
303.784266027
305.558919315
307.317310881
309.057108213
310.776151547
312.472453595
314.144197592
315.789733853
317.407575121
318.99639085
320.555000632
322.082366888
323.577587046
325.039885346
326.468604449
327.86319697
329.223217032
330.548311909
331.838213831
333.092731993
334.311744867
335.495192899
336.643071712
337.755425941
338.832343806
339.873952541
340.880414738
341.851925651
342.788711439
343.691028285
344.559162283
345.393429918
346.194178964
346.961789567
347.696675302
348.399283993
349.070098112
349.709634609
350.318444084
350.897109243
351.446242644
351.966483776
352.458495556
352.922960334
353.360575542
353.772049082
354.158094564
354.519426493
354.85675547
355.170783466
355.462199228
355.73167384
355.979856493
356.207370471
356.414809389
356.602733708
356.771667518
356.922095624
357.054460928
357.169162099
357.266551534
357.346933676
357.410563516
357.457644408
357.488259423
357.503132587
260.26999861
260.437134776
260.776896008
261.289135698
261.962963125
262.786230046
263.745647565
264.827593021
266.018766204
267.306657309
268.679825975
270.12801764
271.642155891
273.214252664
274.837273592
276.504987372
278.211818612
279.952715255
281.723035278
283.518453118
285.334884139
287.168424943
289.015307925
290.871869561
292.734532558
294.599801671
296.46427134
298.324641674
300.177738073
302.020529
303.850144007
305.663886243
307.459235783
309.233855153
310.985590865
312.712472893
314.412712132
316.084696179
317.726983795
319.338298259
320.917519771
322.463677076
323.975938549
325.453602938
326.896089966
328.302930933
329.673759416
331.008302108
332.306369835
333.567848812
334.792692176
335.980911954
337.13257157
338.247779071
339.326681233
340.369458675
341.376322103
342.347509732
343.28328587
344.183940608
345.049790457
345.881179739
346.678482473
347.442104486
348.172485453
348.870100605
349.535461872
350.169118261
350.771655383
351.343694043
351.885887935
352.398920487
352.883501003
353.340360211
353.770245407
354.173915319
354.552134838
354.905669716
355.235281318
355.541721485
355.825727564
356.088017625
356.329285921
356.550198605
356.751389721
356.933457515
357.096961049
357.242417143
357.370297649
357.48102704
357.57498031
357.652481241
357.713800899
357.759155446
357.78864001
357.802961504
258.32075661
258.507033089
258.884871018
259.452627824
260.196268535
261.100258022
262.147949406
263.32266925
264.608550498
265.991078626
267.457366653
268.996209845
270.597985352
272.254461324
273.95856861
275.70417245
277.485866361
279.298798155
281.13852947
283.000925171
284.882067083
286.778186896
288.685615212
290.6007463
292.520019999
294.439922008
296.357000495
298.267893934
300.169361652
302.058312602
303.931829271
305.787180462
307.621826003
309.43342179
311.219821115
312.979073704
314.709422277
316.409297211
318.077309908
319.712245045
321.313051762
322.87883401
324.408840335
325.902453365
327.359179264
328.778637316
330.160549705
331.504731508
332.811080895
334.079569523
335.31023321
336.503163015
337.6584969
338.776412194
339.857119083
340.900855321
341.907882313
342.878482658
343.812959164
344.711635235
345.574856471
346.402993204
347.196443656
347.955637351
348.68103841
349.373148376
350.032508271
350.659699656
351.255344549
351.820104152
352.35467641
352.859792527
353.336212597
353.784720555
354.206118659
354.601221708
354.970851152
355.315829222
355.63697317
355.935089671
356.210969436
356.465382057
356.699071131
356.912749668
357.107095837
357.282749046
357.440306382
357.580319413
357.703291354
357.809674582
357.89986849
357.974217722
358.033010643
358.07647721
358.104725571
358.118443825
256.168803206
256.379016085
256.804186948
257.440363303
258.26910644
259.270263006
260.422754149
261.706028065
263.101101149
264.591167979
266.161825999
267.801006698
269.498720197
271.246711123
273.038099148
274.867050173
276.728500489
278.617939232
280.531243677
282.464556687
284.414194461
286.376575014
288.3481623
290.325426429
292.304824648
294.282808178
296.255852735
298.220505067
300.17343016
302.111456847
304.031607453
305.931108102
307.807394541
309.658114637
311.481129441
313.274511772
315.036541406
316.765698109
318.46065366
320.120262907
321.743553539
323.32971488
324.878086107
326.388144248
327.859492316
329.291847794
330.685031483
332.038956655
333.353618402
334.629083125
335.865478206
337.062982026
338.22181457
339.342228915
340.424503917
341.468938362
342.475846807
343.445557249
344.378410642
345.274762173
346.134984063
346.959469581
347.748637824
348.502938799
349.222858316
349.908922221
350.561699607
351.181804678
351.769897128
352.326680963
352.852901829
353.349343029
353.816820447
354.256176689
354.668274724
355.053991278
355.414210206
355.749815964
356.061687273
356.350691023
356.61767643
356.863469482
357.088867692
357.294635186
357.481498166
357.650140759
357.801201274
357.935268864
358.052880595
358.154518904
358.240609411
358.311519148
358.367555034
358.408961789
358.435861547
358.448921756
253.788333627
254.029020595
254.513981317
255.235643912
256.169296233
257.288427783
258.566088182
259.97680793
261.497866568
263.109922988
264.797104759
266.546713949
268.348722004
270.195199663
272.079779611
273.997203356
275.942969003
277.913074326
279.903837636
281.911774328
283.933507805
285.965698423
288.004982559
290.047924465
292.090992563
294.130574836
296.163030749
298.1847675
300.19231582
302.182395931
304.151954645
306.098169859
308.018450454
309.910435341
311.771994897
313.601229643
315.396463188
317.156232636
318.879279147
320.564537917
322.211126322
323.818330768
325.385592999
326.912496269
328.398751957
329.844186911
331.248731422
332.612407616
333.935318013
335.217634051
336.459584603
337.661444704
338.8235248
339.946160975
341.029706554
342.074525483
343.080987801
344.049467411
344.980342192
345.873996382
346.730824916
347.551239325
348.335674611
349.084596481
349.798508279
350.477957023
351.123538037
351.73589781
352.315734875
352.86379867
353.380886479
353.867838702
354.325532811
354.754876383
355.156799647
355.532247856
355.882173772
356.207530395
356.509264008
356.788307542
357.04557427
357.281951812
357.498296497
357.695428099
357.874124998
358.035119782
358.179095314
358.306681269
358.418451117
358.514919536
358.596540226
358.663704136
358.716737961
358.755902149
358.781333801
358.793677708
251.14659108
251.426917191
251.988830657
252.818980293
253.883565752
255.147266137
256.575348972
258.136152475
259.802566998
261.552592063
263.369142568
265.239365141
267.153741726
269.105195619
271.088322379
273.098793042
275.132928753
277.187420329
279.259155552
281.345115246
283.44230299
285.547682096
287.658107405
289.770258637
291.880600589
293.985408887
296.080855057
298.163131802
300.228575741
302.273763845
304.295554539
306.291077277
308.257714546
310.193095692
312.095102257
313.961869035
315.791772577
317.583416867
319.335622672
321.047417325
322.718020897
324.346830481
325.933404107
327.477444587
328.978784342
330.437371661
331.853257984
333.226585779
334.557576461
335.846517941
337.093751793
338.299660349
339.464654206
340.589160763
341.673614363
342.718448598
343.724091215
344.690961923
345.619473227
346.510034163
347.36305662
348.178963658
348.958199102
349.701237559
350.408593989
351.080832035
351.718570441
352.322487107
352.893320524
353.431868566
353.9389848
354.415572683
354.862578135
355.280981094
355.671786601
356.036015919
356.374697966
356.688861234
356.979526196
357.247698134
357.494360356
357.720467746
357.926940699
358.114659473
358.284459013
358.437124294
358.573386206
358.693917963
358.799332032
358.890177535
358.966938083
359.030030044
359.079801102
359.116528361
359.140364839
359.151930507
248.201132482
248.534375189
249.197512197
250.167748897
251.397917011
252.840464208
254.450391976
256.188343081
258.02222147
259.92750438
261.886519144
263.887107956
265.921131095
267.98312361
270.06924155
272.176517411
274.302384746
276.44440931
278.600160444
280.767160685
282.942859635
285.124590504
287.309488278
289.494381433
291.675706336
293.849545655
296.011765797
298.158224571
300.284978571
302.388421833
304.465320635
306.512771783
308.528137617
310.509035294
312.45335794
314.359284607
316.225257963
318.049959986
319.832301948
321.571416929
323.266643139
324.917504328
326.523690776
328.085039951
329.601519124
331.073210842
332.50029994
333.883061388
335.221847957
336.517076794
337.769214978
338.978764491
340.146247418
341.272192205
342.357121814
343.401544513
344.405947925
345.370796768
346.296534508
347.183588805
348.032380344
348.843334318
349.616893554
350.353532173
351.053768577
351.718176715
352.347394757
352.942130588
353.503163825
354.031344385
354.527587812
354.992867908
355.428207366
355.834667277
356.213336315
356.565320271
356.891732293
357.193683969
357.472277128
357.728596202
357.963700964