/*--------------------------------*- C++ -*----------------------------------*\
| =========                 |                                                 |
| \\      /  F ield         | OpenFOAM: The Open Source CFD Toolbox           |
|  \\    /   O peration     | Version:  v1906                                 |
|   \\  /    A nd           | Web:      www.OpenFOAM.com                      |
|    \\/     M anipulation  |                                                 |
\*---------------------------------------------------------------------------*/
FoamFile
{
    version     2.0;
    format      ascii;
    class       surfaceScalarField;
    location    "177";
    object      phia;
}
// * * * * * * * * * * * * * * * * * * * * * * * * * * * * * * * * * * * * * //

dimensions      [0 3 -1 0 0 0 0];
oriented        oriented;


internalField   nonuniform List<scalar> 
18240
(
0.00139829188122
-0.00139677118642
0.00292959940698
-0.00152965087695
0.00446076471014
-0.00152955133426
0.00597406104814
-0.00151159580299
0.00746148981856
-0.00148580902002
0.00891666525965
-0.00145341458905
0.0103334214102
-0.00141512801118
0.0117067044918
-0.00137144043286
0.0130313064733
-0.00132296595542
0.0143034048526
-0.00127015657104
0.0155187361695
-0.0012136941133
0.016674780611
-0.00115399160091
0.017768197665
-0.00109178909498
0.0187977824457
-0.00102741516407
0.0197610320781
-0.000961646570267
0.0206580031701
-0.000894685330077
0.0214868958831
-0.000827331395703
0.0222489231784
-0.000759632215006
0.0229428282705
-0.000692405771278
0.0235708497334
-0.000625529225586
0.0241321111977
-0.00055984246687
0.0246297340048
-0.000495049941104
0.0250630735711
-0.000432020577357
0.025435998079
-0.000370290329849
0.0257479690366
-0.000310766955367
0.0260034721872
-0.000252828611239
0.0262019741869
-0.000197428004216
0.0263484640484
-0.000143795962583
0.0264423344002
-9.29351358052e-05
0.0264889696645
-4.39423365106e-05
0.0264876289888
2.12838156973e-06
0.0264439996351
4.63026737523e-05
0.0263571505108
8.74870051139e-05
0.0262329638975
0.000126823205331
0.0260702886087
0.000163160226547
0.02587514076
0.000197732870414
0.0256461251568
0.000229350443187
0.0253893126529
0.000259332854523
0.0251030476347
0.000286450746014
0.0247933961492
0.000312096012629
0.0244584361558
0.000335002809451
0.0241041743903
0.000356620495116
0.0237284257215
0.000375651995686
0.0233370978696
0.000393592123619
0.022927754111
0.000409115649597
0.0225061670439
0.000423748786764
0.0220696682354
0.000436144069662
0.0216238725367
0.000447847619525
0.0211659067121
0.000457493596414
0.0207012074386
0.00046663440457
0.0202267307606
0.000473892806395
0.0197477261988
0.000480816634853
0.0192610182659
0.000486022468069
0.0187716601557
0.000491041152435
0.0182763885233
0.00049449153193
0.0177800594122
0.00049787803563
0.0172793667968
0.000499828887307
0.0167789654822
0.000501811595508
0.0162755523674
0.000502473932091
0.0157735814368
0.000503239210152
0.0152697950844
0.000502783595315
0.0147684407578
0.00050247810667
0.0142663451274
0.000501038511156
0.0137675448667
0.000499778418268
0.0132689830748
0.000497462618257
0.0127744740077
0.000495341504437
0.0122811029172
0.00049223954251
0.0117924504926
0.000489340444036
0.0113057618497
0.000485536710846
0.0108243666627
0.000481941132536
0.0103456810846
0.000477522733724
0.00987276791283
0.000473320763781
0.00940321906721
0.000468386308058
0.00893981141612
0.000463681770267
0.00848031305658
0.00045834543616
0.00802719966049
0.000453260469013
0.00757841278516
0.000447654578839
0.00713611195494
0.000442328647763
0.00669840904632
0.000436601265266
0.0062671384201
0.000431188364594
0.00584058044229
0.000425498342642
0.00542023955344
0.000420158173796
0.00500456820882
0.000414663395789
0.00459474778536
0.000409545920307
0.00418941892008
0.000404379490186
0.00378947261516
0.000399585208304
0.00339379791252
0.000394784344259
0.0030031262215
0.000390226881452
0.00261684272287
0.00038544747537
0.00223610108364
0.000380230914223
0.00186204159492
0.00037330674888
0.0014993455681
0.000362164247407
0.00115991452975
0.000338836244681
0.000859563327707
0.000299754866996
0.000489600295534
0.000369033886867
0.000489054109864
0.00154533428301
-0.00294048659549
0.00327084508721
-0.0032534327525
0.00498804936568
-0.00324502256001
0.00668231688553
-0.00320409836614
0.00834642556986
-0.00314816097348
0.00997372249968
-0.00307890253613
0.0115576918922
-0.00299730548143
0.0130925080677
-0.00290438884857
0.0145726443225
-0.0028012678203
0.0159935005909
-0.00268907622194
0.0173507218084
-0.0025690363272
0.0186410439931
-0.00244230398826
0.0198613005419
-0.00231012634246
0.0210095565189
-0.00217358985557
0.0220837577829
-0.00203389685863
0.0230832112008
-0.001891993267
0.0240068375882
-0.0017489891491
0.0248550470807
-0.00160564442208
0.0256275654387
-0.00146295415392
0.0263257419582
-0.0013214728616
0.0269499300352
-0.00118207870129
0.0275022515018
-0.00104512187776
0.0279835223501
-0.00091137671742
0.0283964820141
-0.000781003840841
0.0287422658329
-0.000654692823844
0.0290240939414
-0.000532434023688
0.0292433017346
-0.000414851386243
0.0294034707167
-0.000301784441113
0.0295060368835
-0.00019380612726
0.0295548373457
-9.06214696014e-05
0.0295513231105
7.23681078725e-06
0.0294994895762
0.000100183915085
0.0294007415958
0.000187717806537
0.0292591683287
0.000270358198443
0.0290760650133
0.000347628527954
0.0288555228635
0.000420141131297
0.0285986793455
0.000487435734288
0.02830957273
0.000550202280048
0.02798914924
0.000607990629953
0.0276413448464
0.000661554202979
0.0272668898001
0.000710446981566
0.026869578353
0.000755472224679
0.0264499107626
0.00079618193269
0.026011510791
0.000833415590881
0.0255546437702
0.000866718377819
0.0250827433077
0.000896953266718
0.0245958444974
0.000923653885831
0.0240971808045
0.000947693926557
0.0235865700683
0.000968591988426
0.0230670430661
0.000987221009884
0.0225382211925
0.00100308188777
0.0220029377568
0.00101703571932
0.0214606446058
0.0010285647979
0.0209139875463
0.00103850934028
0.0203622807005
0.00104633345987
0.0198079967775
0.00105284879953
0.0192503460894
0.00105750427665
0.0186916433993
0.00106107766344
0.018131029566
0.001063007304
0.0175706767028
0.00106403379272
0.0170096881325
0.00106359177901
0.0164501052763
0.00106238359457
0.0158910217182
0.00105984835137
0.0153343567325
0.00105665055171
0.0147792159501
0.00105224302974
0.0142273993264
0.00104725416141
0.0136780396974
0.00104115983867
0.0131328158515
0.00103455447346
0.0125908960298
0.00102694592377
0.0120538305584
0.00101889683933
0.0115208252087
0.001009954529
0.0109932914536
0.00100065148232
0.010470469424
0.000990580242707
0.00995361851876
0.000980243763957
0.00944200678278
0.000969283602832
0.00893672850144
0.000958172355144
0.00843707167645
0.000946601996202
0.0079439529891
0.000935012877971
0.00745667305747
0.000923146417181
0.00697596223521
0.000911407092326
0.00650112883061
0.000899582625523
0.00603271243986
0.000888035525025
0.0055700297452
0.000876592955845
0.00511343351336
0.000865565480305
0.00466225821634
0.000854804907657
0.00421668754978
0.000844546154777
0.0037761017366
0.000834624453249
0.0033405616808
0.000825125580668
0.00290953867964
0.00081572466576
0.00248300957869
0.000806087974532
0.00206043538828
0.000795177892787
0.00164089142715
0.000781072545698
0.00121954239278
0.000759512789127
0.000791887346501
0.000726775015343
0.000367849946173
0.000792342164105
0.000856504637563
0.00157160562984
-0.00451046970398
0.00331807792259
-0.00499817442738
0.0050588604336
-0.00498406638239
0.00677665910467
-0.00492013698985
0.00846355070176
-0.00483328285825
0.0101125123862
-0.00472606389361
0.0117169322805
-0.00459991196175
0.0132707811047
-0.00445638302887
0.014768550006
-0.0042971695405
0.0162054513865
-0.00412406027944
0.017577245278
-0.00393890536711
0.018880481404
-0.00374355801734
0.0201122099494
-0.00353987404066
0.0212702928759
-0.00332962988369
0.0223529923194
-0.0031145674038
0.0233593749126
-0.0028962817062
0.0242887713264
-0.00267632089646
0.0251412940569
-0.00245603604723
0.0259171650724
-0.00223674169993
0.026617363416
-0.00201952088435
0.0272428187065
-0.00180545038658
0.027795199312
-0.00159535287002
0.0282759725937
-0.00139008701964
0.028687338121
-0.00119024088795
0.0290311546354
-0.000996486448669
0.0293100171234
-0.000809209087704
0.0295260537453
-0.000628924436561
0.029682140832
-0.000455843201662
0.029780573257
-0.000290350133398
0.0298244092469
-0.000132504151766
0.0298160223443
1.7422473665e-05
0.0297585670283
0.000159504448233
0.0296544194537
0.000293563900295
0.0295067537494
0.000419790167942
0.0293178839058
0.00053808739952
0.0290909388177
0.000648745663702
0.0288281154767
0.000751733265006
0.0285324426847
0.000847421685214
0.0282059582832
0.00093582952601
0.0278515489276
0.00101739336923
0.0274710615689
0.00109216734369
0.0270672076533
0.00116063619511
0.0266416223744
0.00122287654193
0.0261968207406
0.00127940585116
0.0257342147048
0.00133031023782
0.0252561093857
0.00137612447795
0.024763692146
0.00141693267641
0.0242590557152
0.00145327306978
0.0237431693578
0.00148521685258
0.0232179175095
0.00151329206731
0.0226840666739
0.00153754836968
0.0221433058738
0.00155849271202
0.0215962198811
0.00157614571901
0.0210443195119
0.00159098356949
0.0204880344123
0.0016029940535
0.0199287195414
0.00161261685439
0.0193666779123
0.00161980530084
0.0188031309965
0.00162495914669
0.018238284546
0.00162799981004
0.0176732496522
0.00162928784602
0.0171081613851
0.00162871760228
0.016544038964
0.00162661352614
0.0159809696505
0.00162285118283
0.0154198960176
0.00161772497457
0.0148608740753
0.00161110081738
0.0143047776847
0.00160325006248
0.0137516419913
0.00159403970749
0.0132022752052
0.00158372591497
0.0126566949447
0.00157218622977
0.0121156398586
0.00155966849814
0.0115791079037
0.00154606955385
0.0110477608386
0.00153163462401
0.0105215696666
0.0015162859622
0.010001107558
0.00150026946031
0.00948630918894
0.00148353639184
0.00897764716818
0.00146633449155
0.00847500877
0.00144864450235
0.00797875407539
0.00143071397673
0.00748871350842
0.00141255096765
0.00700512572623
0.00139439836689
0.00652775749869
0.00137628592959
0.00605671992183
0.0013584445518
0.00559171286834
0.00134091649566
0.00513271892399
0.0013239082832
0.00467937074238
0.00130745843112
0.0042315208957
0.00129172652436
0.00378872644883
0.00127671415927
0.00335067715448
0.00126248511531
0.00291675081603
0.00124893452165
0.00248619533177
0.00123594008448
0.00205743890139
0.00122321602087
0.00162725442759
0.00121057758317
0.00118766834347
0.00119846331915
0.000722601495887
0.00119115236336
0.000297347604408
0.0012169245529
0.00115354354885
0.00159422106579
-0.00610307471536
0.00336283870101
-0.00676507870545
0.00512597738568
-0.00674546895226
0.00686554685557
-0.00665795644803
0.00857318885787
-0.00653915532148
0.0102415545047
-0.00639263703985
0.0118638438442
-0.00622038303302
0.0134338501789
-0.0060245409192
0.0149459983715
-0.00580743958354
0.0163954020492
-0.00557155127195
0.0177778512887
-0.00531941168095
0.0190898548484
-0.00505358283882
0.0203285759008
-0.00477658949441
0.0214918734416
-0.00449088726042
0.0225781888362
-0.00419882230982
0.0235866009195
-0.00390260263019
0.0245166673851
-0.00360428558576
0.025368506888
-0.00330574871853
0.0261425989833
-0.00300870789197
0.0268399044641
-0.00271468263956
0.0274616279294
-0.00242504422825
0.0280093843431
-0.00214096948245
0.0284849261716
-0.00186351636376
0.0288903595524
-0.00159355958739
0.029227836848
-0.0013318895654
0.0294998216177
-0.00107912466331
0.0297087455157
-0.000835831384876
0.0298573188614
-0.000602411176196
0.0299481516752
-0.000379240474015
0.0299841061587
-0.000166532981923
0.0299678831156
3.5499740737e-05
0.0299024127987
0.00022680776179
0.0297904090203
0.000407321812272
0.0296347950123
0.000577134043258
0.0294382303825
0.000736297875732
0.0292035693813
0.00088502599722
0.0289333617152
0.00102347206022
0.0286303403572
0.00115194652479
0.0282969006311
0.00127068193429
0.0279356136774
0.00138006451207
0.0275486870041
0.00148038527179
0.0271385002644
0.00157208554892
0.0267070502408
0.00165549519769
0.0262565051933
0.00173109066999
0.025788638284
0.00179922196866
0.0253053968873
0.00186038201318
0.0248083269954
0.00191492359811
0.0242991542749
0.00196333808066
0.0237792030925
0.00200596502717
0.02324998527
0.00204327838175
0.0227126171909
0.00207559021297
0.0221684122866
0.00210334291154
0.0216182993992
0.00212680980246
0.0210634149217
0.00214639113201
0.0205045257959
0.00216231362459
0.0199426169541
0.00217492830494
0.019378321766
0.00218441213969
0.0188125004652
0.00219106493546
0.0182456815864
0.00219501480529
0.0176786266317
0.00219651247448
0.017111785429
0.00219564304505
0.0165458431841
0.00219261471832
0.0159811929035
0.00218747880104
0.0154184606309
0.00218041054773
0.0148579981123
0.00217143921783
0.0143003827935
0.00216071884773
0.013745933661
0.00214826981593
0.0131951832175
0.00213423662039
0.012648419463
0.00211864296221
0.0121061272128
0.00210163497329
0.0115685589446
0.00208325052168
0.0110361438388
0.00206364573696
0.0105090898558
0.00204288044846
0.00998775885922
0.00202112663545
0.00947230216376
0.00199847031355
0.00896300131203
0.00197510091883
0.008459938487
0.00195113090258
0.0079633021491
0.00192676536418
0.00747309387605
0.00190213975675
0.0069893985333
0.0018774691945
0.00651212813864
0.00185290493002
0.00604125640124
0.00182866330339
0.00557659969687
0.0018049004427
0.00511801520504
0.00178182078569
0.0046652166888
0.00175957025834
0.00421793273628
0.001738323691
0.00377575013872
0.00171819664308
0.00333821875451
0.00169931385092
0.00290468881444
0.00168174790368
0.00247430587576
0.00166560092738
0.00204578042927
0.00165104504208
0.00161712787954
0.0016385449748
0.00118546505102
0.00162941077186
0.000749313276414
0.00162663601269
0.000333700704019
0.00163187716227
0.00148689205704
0.00162309011927
-0.00772455974456
0.00342235866551
-0.0085626358818
0.00521563170547
-0.00853701995243
0.00698424521278
-0.00842482730645
0.00871942675167
-0.00827257618355
0.0104134838781
-0.00808490625069
0.0120593464915
-0.00786443153001
0.0136506069296
-0.00761395265369
0.0151815576361
-0.00733651083962
0.0166472340279
-0.00703530939252
0.0180434116129
-0.0067136393956
0.0193666209186
-0.00637480287531
0.0206141058756
-0.00602205595547
0.0217838194775
-0.00565854605448
0.0228743524287
-0.0052872767641
0.0238849198982
-0.0049110614582
0.0248152696052
-0.00453251084909
0.0256656694269
-0.00415400274853
0.0264368042462
-0.00377769100787
0.0271297732567
-0.00340548896016
0.027745982872
-0.00303909596435
0.0282871600191
-0.0026799890962
0.02875524587
-0.00232946064711
0.0291524272781
-0.00198861089911
0.029481031241
-0.00165838986271
0.0297435728357
-0.00133958463479
0.029942648258
-0.00103286129139
0.0300809958607
-0.00073874437823
0.0301613841515
-0.000457658611067
0.0301866837296
-0.000189901243873
0.030159749486
6.43141078124e-05
0.0300835025635
0.000304890101306
0.0299608064234
0.000531796677972
0.0297945588299
0.000745111127794
0.029587563068
0.00094496224378
0.0293426319701
0.00113157374867
0.029062452607
0.00130520438655
0.0287497014899
0.00146619675268
0.0284069045257
0.00161491216706
0.0280365626449
0.00175178495702
0.0276410069493
0.00187725250209
0.0272225338294
0.00199181483305
0.0267832567971
0.0020959604102
0.0263252495767
0.00219023058049
0.0258503949564
0.00227514095469
0.0253605350056
0.00235125055497
0.024857318428
0.00241908010697
0.0243423563787
0.00247918436963
0.0238170691077
0.00253206803021
0.0232828463034
0.00257826110464
0.0227408942683
0.00261823381114
0.0221923988788
0.00265247435169
0.0216383739068
0.00268140314847
0.0210798251853
0.00270545294312
0.0205176010195
0.00272498399827
0.019952555652
0.00274036539111
0.0193854019391
0.00275189210599
0.0188168722651
0.0027598672698
0.018247574248
0.00276452168314
0.0176781473771
0.00276609619625
0.0171091214953
0.00276476432185
0.0165410677766
0.00276071362181
0.0159744609853
0.00275407197506
0.0154098230313
0.00274498717348
0.0148475893817
0.00273355601477
0.0142882438118
0.00271990256907
0.0137321900847
0.00270410970244
0.0131798782993
0.00268629287234
0.0126316814673
0.00266653627283
0.0120880122519
0.00264496241986
0.011549206486
0.00262167071141
0.0110156306212
0.00259680170918
0.0104875722115
0.00257047974312
0.00996533799056
0.00254287154339
0.00944915307661
0.00251413154856
0.00893925008241
0.00248445469824
0.00843577713864
0.00245402562479
0.00793887807095
0.00242306565929
0.00744861039957
0.00239178539037
0.00696501707847
0.00236042537162
0.00648805447054
0.00232921310869
0.00601765531315
0.00229839819852
0.00555366650124
0.00226821311271
0.00509590257344
0.00223890286414
0.00464409146183
0.00221069093657
0.00419791578286
0.00218380398959
0.00375696329019
0.00215844533205
0.00332074574212
0.00213481918399
0.00288865036944
0.00211312605081
0.00245992550441
0.00209361042531
0.00203364056097
0.00207660139801
0.00160879336934
0.00206269922429
0.00118465968651
0.00205290254591
0.000762311605251
0.00204826337574
0.00035269137924
0.00204076988575
0.00183925984321
0.00165951104409
-0.00938247980016
0.00349836668236
-0.0103998097737
0.00533038700698
-0.0103673285591
0.00713618920914
-0.0102289032413
0.008906531169
-0.0100411656782
0.0106333058406
-0.00980990340596
0.0123091168687
-0.00953843102078
0.0139273036615
-0.00923029540508
0.0154819991905
-0.00888932241921
0.016968144703
-0.00851953497125
0.0183815071403
-0.00812504001466
0.0197186558505
-0.00770995416349
0.0209769454411
-0.00727830846078
0.0221544656295
-0.00683399731964
0.023249999321
-0.00638070773066
0.0242629577218
-0.00592189211142
0.0251933233435
-0.00546072396419
0.0260415824772
-0.00500009335657
0.0268086624256
-0.00454258880062
0.0274958721892
-0.00409051111486
0.0281048425471
-0.00364587756563
0.0286374828324
-0.00321044620976
0.0290959281745
-0.00278573426186
0.0294825147777
-0.00237304232353
0.0297997336603
-0.00197347713721
0.0300502214773
-0.00158796736368
0.0302367160654
-0.00121728504922
0.0303620568559
-0.000862049637826
0.0304291386047
-0.000522748195376
0.0304409177024
-0.000199730692905
0.0304003629515
0.000106768053291
0.0303104665696
0.000396637326949
0.030174194132
0.000669863833365
0.0299945001663
0.000926547208562
0.0297742775877
0.00116686727452
0.029516380212
0.00139109801847
0.0292235722522
0.00159957719451
0.028898556193
0.00179272030967
0.028543923105
0.00197098944043
0.0281621852201
0.002134908493
0.0277557274779
0.00228503175036
0.0273268442707
0.00242196043635
0.0268776918725
0.00254631071834
0.0264103292186
0.00265873160864
0.0259266710981
0.00275987261327
0.0254285329583
0.00285040255497
0.0249175854017
0.00293097657446
0.0243954022884
0.00300225657044
0.0238634164697
0.0030648777971
0.0233229711244
0.00311947067472
0.0227752768901
0.00316662722035
0.0222214660305
0.00320692483325
0.0216625506162
0.00324089329428
0.0210994785375
0.00326904072492
0.020533092675
0.00329182127613
0.0199641878444
0.00330966336216
0.0193934706081
0.00332293907165
0.0188216159513
0.00333199462322
0.0182492270188
0.00333712137879
0.0176768905677
0.0033385879877
0.017105136332
0.00333661386843
0.0165344899982
0.00333140200946
0.015965432736
0.00332311382601
0.0153984492982
0.00331190451446
0.0148339874965
0.00329789727048
0.0142725039027
0.00328121799933
0.0137144221816
0.003261972401
0.0131601738532
0.00324027795108
0.0126101573509
0.00321624261122
0.0120647744025
0.00318999472689
0.0115243904149
0.00316166152018
0.0109893663097
0.00313139616367
0.0104600209555
0.00309935759223
0.00993665932794
0.00306573355076
0.00941953736713
0.00303072114884
0.00890888624822
0.00299454606546
0.00840488160492
0.00295744328898
0.00790766488207
0.00291967318402
0.00741731600227
0.00288150378063
0.00693387188694
0.00284322229599
0.00645730407092
0.00280511851791
0.00598753446015
0.00276749413984
0.00552441658354
0.00273064754472
0.00506774892115
0.00269488000204
0.00461725848466
0.00266048430993
0.00417260970185
0.00262774950478
0.00373339024579
0.0025969543613
0.0032991158851
0.0025683767684
0.00286921794893
0.00254229819474
0.0024430554984
0.00251904135271
0.00201996773825
0.0024989926954
0.00159935832632
0.00248262162926
0.00118098186939
0.00247054991932
0.000765735357226
0.0024628296241
0.000358745867472
0.00244707419161
0.00219763894781
0.00170425905941
-0.0110851684305
0.00359204639215
-0.0122859205368
0.00547189155926
-0.0122454877645
0.00732351138646
-0.0120788107715
0.00913705998696
-0.0118529796731
0.0109039375961
-0.0115750128624
0.0126163423098
-0.0112490349084
0.0142673232313
-0.010879433559
0.0158508154296
-0.0104709335775
0.0173616722251
-0.0100284641689
0.0187956494587
-0.00955705017321
0.0201493972224
-0.00906168831237
0.021420404926
-0.00854726580363
0.0226069650454
-0.00801846498279
0.0237080932507
-0.00747971300074
0.024723475301
-0.00693511730374
0.0256533757411
-0.006388446057
0.0264985787839
-0.00584309517941
0.0272602986432
-0.00530209691877
0.0279401256357
-0.00476811630709
0.028539949842
-0.00424348128352
0.0290619206751
-0.00373020008293
0.0295083907379
-0.00323000060288
0.0298818902578
-0.00274435491946
0.0301850894869
-0.00227451375624
0.0304207825146
-0.00182152678498
0.0305918603379
-0.00138626333901
0.0307012956638
-0.000969424825102
0.0307521199898
-0.000571554503377
0.0307474056671
-0.000193046174018
0.0306902447928
0.000165850546237
0.0305837293948
0.000505020218436
0.0304309340437
0.000824473080195
0.0302348961969
0.00112434055078
0.0299986011859
0.00140486080618
0.0297249684565
0.00166636851162
0.0294168378146
0.0019092865003
0.0290769605301
0.00213411425975
0.0287079870156
0.00234141916926
0.0283124626557
0.00253182661232
0.0278928164796
0.00270601053794
0.0274513611077
0.00286468574044
0.026990282224
0.00300859790972
0.026511642532
0.0031385168479
0.0260173727523
0.0032552260799
0.0255092786269
0.00335951739736
0.0249890334952
0.0034521803177
0.0244581885675
0.00353399695917
0.0239181678168
0.00360573183068
0.0233702805454
0.00366812783084
0.0228157187072
0.00372189674513
0.0222555714335
0.00376771634369
0.0216908246511
0.00380622239512
0.0211223771638
0.00383800718625
0.0205510418162
0.00386361418835
0.0199775619792
0.00388353795725
0.0194026138411
0.00389822153896
0.0188268222868
0.00390805862476
0.0182507635673
0.00391339349803
0.0176749797014
0.00391452491205
0.0170999805196
0.00391170903092
0.0165262547098
0.00390516552329
0.0159542706307
0.00389508098061
0.0153844867157
0.00388161596193
0.0148173491912
0.00386491071984
0.0142532989457
0.00384509186977
0.0136927674147
0.00382227938082
0.0131361800635
0.00379659226101
0.0125839515983
0.0037681537193
0.0120364866371
0.00373709803533
0.0114941726941
0.0037035736406
0.0109573798497
0.00366774752598
0.0104264521346
0.00362980815
0.00990170648478
0.00358996736754
0.00938342424801
0.00354846069454
0.00887184945277
0.00350554893394
0.0083671799254
0.00346151527301
0.00786956677772
0.0034166653766
0.00737910651892
0.00337132308138
0.00689584147686
0.00332582912878
0.00641975232521
0.00328053523566
0.0059507600153
0.00323580274554
0.0054887193788
0.00319199538562
0.00503342185618
0.00314947807259
0.004584589797
0.00310861061924
0.00414188004654
0.00306974804974
0.0037048797232
0.00303323690734
0.00327311112863
0.00299941896699
0.00284604218841
0.00296863894375
0.00242310919963
0.00294125193771
0.00200373344065
0.00291762991504
0.00158745992316
0.00289819714662
0.00117406566806
0.00288330838226
0.000763775512265
0.00287238490876
0.000359505158403
0.00285059641466
0.00255681834635
0.00175808928657
-0.0128417118764
0.00370478176243
-0.0142309858413
0.00564217156388
-0.0141812113803
0.00754880464913
-0.013983760384
0.00941410782252
-0.0137165652803
0.0112288687013
-0.0133880250357
0.0129848153683
-0.013003189654
0.0146746472134
-0.0125674331749
0.0162920921507
-0.0120864959831
0.0178319040933
-0.0115663493003
0.0192898634942
-0.0110130303239
0.0206627252608
-0.0104325273823
0.0219481800786
-0.00983064846101
0.0231447709745
-0.00921294530586
0.024251829806
-0.00858461920828
0.0252693774653
-0.00795048244962
0.0261980476481
-0.00731490264423
0.0270389848673
-0.00668179994519
0.0277937685943
-0.00605463044081
0.0284643242513
-0.00543641545495
0.0290528610907
-0.00482975843983
0.0295618088077
-0.004236894763
0.0299937763301
-0.00365972649324
0.0303515163603
-0.00309987248792
0.0306379018854
-0.00255870187585
0.0308559084734
-0.00203736632374
0.0310085959196
-0.00153682061425
0.0310990958766
-0.00105783442806
0.0311305892439
-0.000601003996851
0.0311062926479
-0.000166753123269
0.0310294321312
0.000244653859073
0.0309032284475
0.000633113488041
0.0307308718072
0.000998660498113
0.030515509173
0.00134147688289
0.0302602216337
0.00166186051104
0.0299680174677
0.0019602254763
0.0296418124583
0.00223708145461
0.0292844263942
0.00249302976552
0.0288985670643
0.00272874469266
0.028486829474
0.00294496937351
0.0280516824227
0.0031424994307
0.0275954701763
0.00332217862729
0.0271204017795
0.00348488362555
0.0266285549045
0.00363151967479
0.0261218672691
0.00376300616745
0.0256021433066
0.00388027227676
0.0250710480713
0.00398424268907
0.0245301165776
0.00407583380326
0.0239807499711
0.00415593958561
0.0234242279034
0.00422542907936
0.0228617069432
0.00428513234371
0.022294236029
0.00433583984252
0.0217227564332
0.00437828981666
0.021148119657
0.00441316993433
0.0205710885933
0.00444110661048
0.0199923568249
0.00446266976015
0.0194125499082
0.00447836442801
0.0188322453336
0.00448863887573
0.0182519730804
0.00449387851502
0.0176722342561
0.00449441774424
0.0170934989473
0.00449053718465
0.0165162249947
0.0044824757201
0.0159408541312
0.00447042938282
0.0153678260754
0.00445456767314
0.0147975724805
0.00443503235478
0.014230527743
0.0044119540515
0.0136671210484
0.00438545163183
0.0131077842064
0.00435564780488
0.0125529406743
0.00432266829708
0.0120030106939
0.00428665635598
0.0114583989769
0.00424777074489
0.0109194974701
0.00420619619719
0.0103866728975
0.00416214202999
0.00986026680298
0.00411584938609
0.00934058405613
0.00406758702037
0.00882789185177
0.00401765654544
0.00832240950814
0.0039663865867
0.00782430713476
0.00391413416486
0.00733369740684
0.00386127905403
0.00685063401818
0.00380822212201
0.00637510636668
0.00375537866225
0.00590703871569
0.00370317528955
0.00544628678586
0.00365204395836
0.00499263768225
0.00360241727836
0.00454580883262
0.00355472450496
0.00410544929534
0.00350938703814
0.00367114236989
0.00346681743084
0.00324241322496
0.00342741676194
0.00281873792669
0.00339157500226
0.00239956690273
0.00335967902954
0.00198438099199
0.00333211518972
0.00157267741982
0.0033092080057
0.00116403755921
0.00329120388655
0.000758383122372
0.00327735591244
0.000357663243544
0.00325062748398
0.00291410869173
0.0018218483045
-0.0146620506665
0.00383831325281
-0.0162458359291
0.00584374928069
-0.016185024988
0.007815311375
-0.0159536650531
0.00974151006411
-0.0156410781877
0.0116124154992
-0.0152572011978
0.0134191904922
-0.0148081937484
0.0151541526929
-0.0143005708173
0.0168107947732
-0.0137412650745
0.0183837998727
-0.0131374223882
0.0198689922071
-0.0124962410171
0.0212633016132
-0.0118247966944
0.0225646700311
-0.0111299309122
0.0237719856708
-0.0104181225392
0.024884964713
-0.00969542192528
0.025904067951
-0.00896736734896
0.0268303723916
-0.00823896195261
0.0276654827656
-0.0075146368068
0.0284114103521
-0.0067982709376
0.0290704962872
-0.00609320143145
0.0296453172747
-0.00540227994051
0.0301386361686
-0.00472791743799
0.0305533464632
-0.00407215487919
0.0308924527174
-0.00343671566321
0.0311590473607
-0.00282306035696
0.0313563048187
-0.00223242048874
0.0314874712452
-0.00166582133312
0.0315558523319
-0.00112409436062
0.0315648014481
-0.000607878023023
0.031517694819
-0.000117624977158
0.0314179184772
0.000346399260914
0.0312688360076
0.000784105201568
0.0310737765349
0.00119557216225
0.0308360066636
0.00158103581075
0.0305587235037
0.00194087306568
0.0302450309534
0.00227558317223
0.0298979362568
0.00258578032962
0.0295203325153
0.00287217351736
0.0291149963886
0.00313555937047
0.0286845753777
0.00337680531161
0.0282315861852
0.00359684200609
0.0277584064378
0.00379664857665
0.0272672734792
0.00397724517319
0.026760279285
0.00413967940356
0.0262393710458
0.00428501816796
0.0257063492523
0.00441433451047
0.0251628703638
0.00452869991416
0.0246104474204
0.00462917123562
0.0240504560285
0.00471678298594
0.0234841378546
0.00479253474607
0.0229126095108
0.0048573853457
0.022336868417
0.00491224049448
0.0217578051385
0.00495794967829
0.0211762106492
0.00499529554962
0.0205927912719
0.00502499430221
0.0200081765099
0.00504768745777
0.0194229353272
0.00506394637644
0.0188375837075
0.00507426649851
0.0182525997653
0.00507907747071
0.0176684292299
0.00507873983149
0.0170855024362
0.00507355637543
0.0165042353892
0.00506377371757
0.0159250426131
0.00504959643563
0.0153483364411
0.00503118945796
0.0147745366662
0.00500869420851
0.0142040667773
0.00498223083894
0.0136373594575
0.00495191601798
0.0130748494077
0.00491786388265
0.012516976664
0.00488020142818
0.0119641771745
0.00483906987513
0.01141688205
0.00479463883086
0.0108755067568
0.00474710326753
0.0103404496871
0.00469669473966
0.0098120800955
0.00464367903272
0.00929073510256
0.00458836120393
0.0087767089626
0.00453108231753
0.00827024936657
0.00447222060484
0.00777154853616
0.00441218625469
0.00728073981114
0.00435141981481
0.00679789179177
0.00429038564602
0.00632300504332
0.00422956774955
0.0058560090164
0.00416946348261
0.00539676046643
0.00411057682011
0.00494504301729
0.00405341369244
0.00450056691698
0.00399847450037
0.00406297228507
0.00394625153965
0.00363183231177
0.00389722196121
0.00320666034752
0.00385184591236
0.00278692770997
0.00381056550164
0.00237207871039
0.00377379484653
0.00196153148922
0.00374190932617
0.00155475811144
0.00371527299907
0.00115124271905
0.00369408402374
0.000750508552483
0.00367734415778
0.000354197951911
0.00364617952388
0.00326798194051
0.00189659119268
-0.0165571733327
0.00399474469872
-0.0183424533675
0.00607975095932
-0.0182684439279
0.00812701950946
-0.0179993245753
0.0101239846781
-0.0176363889569
0.0120598461479
-0.0171913678448
0.0139251338336
-0.0166717302465
0.0157117288775