/*--------------------------------*- C++ -*----------------------------------*\
| =========                 |                                                 |
| \\      /  F ield         | OpenFOAM: The Open Source CFD Toolbox           |
|  \\    /   O peration     | Version:  v1906                                 |
|   \\  /    A nd           | Web:      www.OpenFOAM.com                      |
|    \\/     M anipulation  |                                                 |
\*---------------------------------------------------------------------------*/
FoamFile
{
    version     2.0;
    format      ascii;
    class       volVectorField;
    location    "560";
    object      Ua;
}
// * * * * * * * * * * * * * * * * * * * * * * * * * * * * * * * * * * * * * //

dimensions      [0 1 -1 0 0 0 0];


internalField   nonuniform List<vector> 
9216
(
(-0.0066310003469 0.00663441219728 0)
(-0.0068165818632 0.0206901318016 2.38284664889e-27)
(-0.00680219984201 0.0348248020094 -4.59007940215e-31)
(-0.00675371344653 0.0489497774769 0)
(-0.00668594484877 0.0629283659882 0)
(-0.006600363491 0.0767252115906 0)
(-0.00649845791626 0.0903007609112 0)
(-0.00638117251089 0.103618371351 0)
(-0.00624951744504 0.116643713841 0)
(-0.00610436784658 0.129344919673 0)
(-0.00594677965349 0.141692557203 0)
(-0.00577765036533 0.153659775491 0)
(-0.00559806023532 0.165222228713 0)
(-0.00540886676035 0.1763581292 0)
(-0.00521109803349 0.187048076499 0)
(-0.00500549337607 0.197275013988 0)
(-0.00479295410875 0.207023971008 0)
(-0.00457403497561 0.216281940446 0)
(-0.00434945413334 0.225037559178 0)
(-0.00411953923062 0.233280937097 0)
(-0.00388479788989 0.241003309405 0)
(-0.00364532032079 0.248196853253 0)
(-0.00340140937231 0.254854350096 0)
(-0.00315294053263 0.260969027468 0)
(-0.00290004981416 0.266534265262 0)
(-0.00264245001547 0.27154349294 0)
(-0.00238017329015 0.275989966891 0)
(-0.00211284314518 0.279866745869 0)
(-0.00184047019404 0.283166558024 0)
(-0.00156268096993 0.285881858253 0)
(-0.00127955496321 0.288004848235 0)
(-0.000990796789982 0.28952754137 0)
(-0.00069665820677 0.290441893396 0)
(-0.000397061451408 0.290740085493 0)
(-9.25301626356e-05 0.290414690841 0)
(0.000216722755196 0.28945904152 0)
(0.000529819565638 0.287867495185 0)
(0.000846183056596 0.285635865639 0)
(0.00116453031132 0.282761746898 0)
(0.0014838890322 0.279244966379 0)
(0.00180256416285 0.275087922083 0)
(0.00211919875872 0.270296011046 0)
(0.00243171402371 0.264877950053 0)
(0.00273839832619 0.258846156872 0)
(0.00303681739586 0.252217061693 0)
(0.00332490990651 0.24501146306 0)
(0.00359987092728 0.237254888291 0)
(0.0038592370132 0.228977985078 0)
(0.00409976637611 0.220216994713 0)
(0.00431852156613 0.211014202862 0)
(0.00451180661044 0.201418484526 0)
(0.00467628909118 0.191485666371 0)
(0.00480807866819 0.181278849187 0)
(0.00490393689686 0.170868259642 0)
(0.00496053978167 0.160330803172 0)
(0.00497574411525 0.149748872593 0)
(0.00494794375829 0.139208679208 0)
(0.00487725525327 0.128797867153 0)
(0.00476480438052 0.118602734758 0)
(0.00461374685187 0.108705081168 0)
(0.00442830309877 0.0991789350072 0)
(0.00421439160998 0.0900876816418 0)
(0.00397802195716 0.0814820958855 0)
(0.0037255788369 0.0734000282374 0)
(0.00346249737071 0.065867116864 0)
(0.00319431595931 0.0588978244191 0)
(0.00292578849145 0.0524961765443 0)
(0.00266179589261 0.0466563322574 0)
(0.00240616429959 0.0413635887035 0)
(0.002162451121 0.0365956335522 0)
(0.00193296660787 0.0323242663161 0)
(0.00171968269319 0.028516879564 0)
(0.00152346436788 0.0251381289048 0)
(0.00134490504231 0.0221511702229 0)
(0.00118364745458 0.0195191153276 0)
(0.00103916952022 0.0172060277792 0)
(0.000910290939316 0.0151779313469 0)
(0.000795921834465 0.0134032340536 0)
(0.000694602101798 0.0118531221663 0)
(0.000605071371245 0.0105015808775 0)
(0.000525747887442 0.00932558386547 0)
(0.000455007509161 0.00830522766174 0)
(0.000389998983292 0.0074255700853 0)
(0.00032362008093 0.0066708044816 0)
(0.000257714399699 0.00597838794867 0)
(0.000239851803257 0.00555511336385 0)
(0.000230068030658 0.00504121360987 0)
(0.000202865392983 0.0046072554578 0)
(0.000206500563896 0.00423378699578 0)
(0.000225326195994 0.00379838892081 0)
(0.000227182778564 0.0033577428152 0)
(0.000231932898076 0.0028851124458 0)
(0.000263970276738 0.00236923714078 0)
(0.000300178423909 0.00180260375777 0)
(0.000339687050951 0.00111541710065 0)
(0.000366033355047 0.00035735936138 0)
(-0.0207196160674 0.00685714581906 0)
(-0.0218742644077 0.0219769101075 0)
(-0.0218000839992 0.0370090000401 -2.44932685056e-27)
(-0.0216135455442 0.052043573852 0)
(-0.0213596814355 0.066910484021 0)
(-0.0210435589951 0.081580089194 0)
(-0.0206688819148 0.096012012243 0)
(-0.0202390738604 0.110167787072 0)
(-0.0197578914871 0.124011052152 0)
(-0.0192290537417 0.137507945314 0)
(-0.0186566383912 0.150627224842 0)
(-0.0180445374287 0.163340398073 0)
(-0.0173968968303 0.175621706145 0)
(-0.0167174803451 0.187448127114 0)
(-0.0160101900337 0.198799246085 0)
(-0.0152783607292 0.209657150256 0)
(-0.0145253738596 0.220006202169 0)
(-0.0137538943442 0.229832849091 0)
(-0.01296658485 0.239125327384 0)
(-0.0121652937483 0.247873419376 0)
(-0.0113518737311 0.256068126475 0)
(-0.0105273248212 0.263701414128 0)
(-0.00969271574567 0.270765895429 0)
(-0.00884828085091 0.277254604858 0)
(-0.00799443813232 0.283160730163 0)
(-0.00713083448407 0.288477448311 0)
(-0.00625745167868 0.29319773381 0)
(-0.00537359456233 0.29731427946 0)
(-0.00447907842598 0.300819398314 0)
(-0.0035731577807 0.303705046072 0)
(-0.00265579094028 0.305962803395 0)
(-0.00172647779839 0.307584087055 0)
(-0.000785628736519 0.308560211119 0)
(0.00016664794191 0.308882630035 0)
(0.00112916104237 0.308543190254 0)
(0.00210091711492 0.307534478127 0)
(0.00307968466912 0.305850157373 0)
(0.00406336537826 0.303485394845 0)
(0.00504853213574 0.300437256112 0)
(0.00603189381704 0.296705158401 0)
(0.00700881378402 0.292291272862 0)
(0.00797485392018 0.28720095119 0)
(0.00892426330321 0.281443092937 0)
(0.00985156079809 0.275030518251 0)
(0.0107499674515 0.267980302586 0)
(0.0116129720372 0.260314125713 0)
(0.0124326914256 0.25205864111 0)
(0.0132013860229 0.243245887929 0)
(0.0139097942258 0.233913789578 0)
(0.0145486503309 0.224106692453 0)
(0.0151071566597 0.2138759859 0)
(0.0155746774703 0.203280636492 0)
(0.0159396070652 0.192387623406 0)
(0.0161914385417 0.181271975696 0)
(0.0163201658558 0.170016358381 0)
(0.0163186511888 0.158709907875 0)
(0.0161822512435 0.147446377797 0)
(0.0159110056914 0.136321537107 0)
(0.0155089616709 0.125430049762 0)
(0.0149859433882 0.114861866616 0)
(0.0143561169929 0.104698342718 0)
(0.0136384778869 0.0950085160233 0)
(0.0128530744095 0.0858466542174 0)
(0.012019927355 0.0772522261382 0)
(0.0111565079465 0.069251472264 0)
(0.0102796456003 0.0618589737477 0)
(0.00940468575568 0.0550782923558 0)
(0.00854663621685 0.0489022603172 0)
(0.00771798923121 0.0433139063719 0)
(0.00692949614065 0.0382879882317 0)
(0.00618866717174 0.0337929471087 0)
(0.00550117711199 0.0297926936449 0)
(0.00486990365757 0.0262483059644 0)
(0.0042962098744 0.0231194327147 0)
(0.0037790280507 0.0203657913871 0)
(0.00331615564551 0.0179484165298 0)
(0.00290385261917 0.0158306944324 0)
(0.00253821381199 0.0139788422704 0)
(0.00221471045279 0.0123621402919 0)
(0.00192911079701 0.0109528827186 0)
(0.00167682300326 0.00972626002162 0)
(0.00145338638799 0.00865991987608 0)
(0.001253227668 0.00773295033445 0)
(0.00106734122776 0.00692568729877 0)
(0.000894955763637 0.0061533665334 0)
(0.000794067745078 0.00548207674705 0)
(0.000701396859309 0.00494471677355 0)
(0.000615221933134 0.0045185843227 0)
(0.000610109505044 0.00407784568802 0)
(0.000655782440205 0.00371961461262 0)
(0.000680496641596 0.003338064027 0)
(0.000719582139394 0.00284195135856 0)
(0.000792123434166 0.00231271648661 0)
(0.000976231746898 0.00183118708826 0)
(0.00119368850173 0.00117001735343 0)
(0.00108107947487 0.000320067519088 0)
(-0.0350144177644 0.00691252022059 0)
(-0.036987177139 0.0221597179181 0)
(-0.036835359265 0.0372840858942 -2.45268059398e-27)
(-0.0365144252803 0.0524282432296 0)
(-0.0360864101152 0.0674026458627 0)
(-0.0355564140943 0.0821762670195 0)
(-0.0349292011088 0.0967077502352 0)
(-0.0342101316008 0.11095810374 0)
(-0.0334051867335 0.124890575471 0)
(-0.0325206510156 0.138470999221 0)
(-0.03156316852 0.151667944613 0)
(-0.0305393942082 0.164452826782 0)
(-0.0294560808788 0.176799918184 0)
(-0.028319697587 0.188686324028 0)
(-0.0271365608541 0.200091870403 0)
(-0.0259124372308 0.21099896461 0)
(-0.0246527344672 0.221392379188 0)
(-0.0233621043432 0.231259021075 0)
(-0.0220447074652 0.240587641413 0)
(-0.0207038294043 0.249368549134 0)
(-0.0193422277484 0.257593286934 0)
(-0.0179617672783 0.265254333207 0)
(-0.0165638488567 0.272344789896 0)
(-0.015149059585 0.278858117202 0)
(-0.0137176737898 0.284787873711 0)
(-0.012269306722 0.290127518667 0)
(-0.0108034738513 0.294870233044 0)
(-0.00931923642466 0.299008811439 0)
(-0.00781580813961 0.302535580924 0)
(-0.00629218405071 0.305442390989 0)
(-0.00474780615762 0.307720658719 0)
(-0.00318214315993 0.309361457623 0)
(-0.00159539137375 0.310355663275 0)
(1.19409334645e-05 0.310694192208 0)
(0.00163833494975 0.310368267352 0)
(0.00328172746539 0.309369761325 0)
(0.00493881873026 0.307691571085 0)
(0.00660561110315 0.305328048689 0)
(0.00827675126699 0.302275439654 0)
(0.0099461579653 0.29853234446 0)
(0.011606407076 0.294100156366 0)
(0.0132494342881 0.288983486493 0)
(0.014865934819 0.283190543051 0)
(0.0164460827184 0.276733479981 0)
(0.0179788788191 0.269628710186 0)
(0.0194528002159 0.261897211853 0)
(0.0208550326224 0.253564860128 0)
(0.0221720031114 0.244662818108 0)
(0.0233885308781 0.23522804068 0)
(0.0244883519783 0.225303893228 0)
(0.0254534369146 0.214940905499 0)
(0.0262648595473 0.204197556387 0)
(0.0269027446811 0.193140990812 0)
(0.0273479293697 0.181847401244 0)
(0.0275828415232 0.17040185043 0)
(0.0275938798379 0.158897234089 0)
(0.0273726474272 0.147432326195 0)
(0.0269180406407 0.136108944273 0)
(0.0262368559372 0.125028574379 0)
(0.0253453974885 0.114288259535 0)
(0.0242690679166 0.103975834517 0)
(0.0230418713855 0.0941645245313 0)
(0.0217005500233 0.0849092804774 0)
(0.0202796222968 0.0762477043031 0)
(0.018808778966 0.0682038054837 0)
(0.01731556273 0.0607907941977 0)
(0.0158266475396 0.0540111062592 0)
(0.0143676687998 0.0478556707839 0)
(0.0129607739513 0.042304600858 0)
(0.0116239171048 0.0373292017287 0)
(0.0103700832397 0.0328944286253 0)
(0.00920826698649 0.028961000619 0)
(0.00814352032994 0.02548704952 0)
(0.00717765246567 0.0224294818069 0)
(0.00630885734359 0.0197455383318 0)
(0.00553261913542 0.0173943687251 0)
(0.00484238319309 0.0153381786617 0)
(0.00423094436548 0.0135426243999 0)
(0.00369073136184 0.0119767771554 0)
(0.00321438988256 0.0106129445849 0)
(0.00279472750267 0.00942643821292 0)
(0.00242519808092 0.00839512016714 0)
(0.00209990707515 0.00749841593858 0)
(0.00181462565855 0.00672142907629 0)
(0.00157379097745 0.00597305893539 0)
(0.00139430339641 0.00534699730492 0)
(0.00124396492112 0.00491725497902 0)
(0.00108280338344 0.004317235931 0)
(0.000988045895849 0.00379852922385 0)
(0.00102453842411 0.00347865355799 0)
(0.00116890207851 0.00321563988184 0)
(0.00119999143497 0.00256852232049 0)
(0.00136393816467 0.00211370300449 0)
(0.00159045551673 0.00153812554863 0)
(0.00178857567277 0.000923049586494 0)
(0.00174109053058 0.000284313828976 0)
(-0.0495065118814 0.00697003978362 0)
(-0.05231935255 0.022363687303 0)
(-0.0521022148941 0.0376121157807 2.45235616187e-27)
(-0.0516440704106 0.052885565815 0)
(-0.0510337647432 0.0679856245599 0)
(-0.0502789622802 0.0828800567488 0)
(-0.0493863424416 0.097526339908 0)
(-0.0483635531328 0.11188466766 0)
(-0.047219097497 0.125917688519 0)
(-0.0459620491262 0.139590817024 0)
(-0.0446019081337 0.15287238479 0)
(-0.0431483139384 0.165733738669 0)
(-0.0416109194471 0.17814925852 0)
(-0.0399991011935 0.190096316202 0)
(-0.0383218638746 0.201555161446 0)
(-0.0365875659757 0.212508756844 0)
(-0.0348038748326 0.222942550485 0)
(-0.0329775290852 0.232844211394 0)
(-0.0311143647543 0.242203320103 0)
(-0.0292191333623 0.25101104283 0)
(-0.0272956131655 0.259259784948 0)
(-0.0253464911885 0.26694285367 0)
(-0.0233735597392 0.274054126068 0)
(-0.0213776550756 0.280587750343 0)
(-0.019358924332 0.286537873639 0)
(-0.0173168016074 0.291898419434 0)
(-0.0152503240679 0.296662903612 0)
(-0.0131581267464 0.300824307759 0)
(-0.0110387927801 0.304374997744 0)
(-0.00889085703148 0.307306693888 0)
(-0.00671319979868 0.309610531532 0)
(-0.00450501891824 0.311277119759 0)
(-0.00226625796872 0.312296703522 0)
(2.39441753605e-06 0.312659402247 0)
(0.00229910910781 0.312355493215 0)
(0.00462095156686 0.311375768967 0)
(0.00696352352634 0.309711947718 0)
(0.00932107690999 0.30735713445 0)
(0.0116862371439 0.304306305992 0)
(0.0140502271752 0.300556807919 0)
(0.0164026882294 0.296108832133 0)
(0.0187320014412 0.290965859285 0)
(0.0210251629918 0.28513504298 0)
(0.0232681198995 0.278627531923 0)
(0.025445586412 0.271458734947 0)
(0.0275412552314 0.263648555632 0)
(0.0295374249003 0.255221645026 0)
(0.031414990112 0.246207733329 0)
(0.0331528790759 0.236642120561 0)
(0.0347279593877 0.226566383581 0)
(0.0361146249544 0.216029340318 0)
(0.0372851762322 0.205088215535 0)
(0.0382103281836 0.193809868369 0)
(0.0388609073877 0.182271761537 0)
(0.0392099377335 0.170562264632 0)
(0.0392357070888 0.158779843773 0)
(0.0389244584637 0.147030912452 0)
(0.0382729213467 0.135426599302 0)
(0.0372896173312 0.124079140086 0)
(0.035997500214 0.113097248375 0)
(0.0344345780221 0.102580121248 0)
(0.0326547955828 0.0926082594363 0)
(0.0307164654027 0.0832365432848 0)
(0.0286706556435 0.0744974621425 0)
(0.0265577381918 0.0664103263859 0)
(0.0244147278324 0.0589867241864 0)
(0.0222802151528 0.0522283147077 0)
(0.0201922095686 0.0461233914667 0)
(0.0181836085368 0.040647273717 0)
(0.016279965281 0.0357655147195 0)
(0.0144992817882 0.0314375428878 0)
(0.0128534798162 0.0276192744504 0)
(0.0113494389007 0.0242645354529 0)
(0.00998932655328 0.0213260472649 0)
(0.00877003136177 0.0187571327828 0)
(0.00768379785047 0.0165140100966 0)
(0.00672019794583 0.014557311894 0)
(0.00586812066089 0.0128521792052 0)
(0.00511654528654 0.0113676890623 0)
(0.00445477289375 0.0100764659255 0)
(0.00387268499385 0.00895446522684 0)
(0.00336129388895 0.00798059291881 0)
(0.0029132507665 0.00713615952989 0)
(0.00252636600175 0.00640975824983 0)
(0.00218791014735 0.00567207516936 0)
(0.00196677565331 0.00517259618004 0)
(0.00176206320743 0.0046516665167 0)
(0.00156956968248 0.00405807082071 0)
(0.00148815142898 0.00365007584587 0)
(0.00143190004583 0.00311788389631 0)
(0.00152567895105 0.00267050339375 0)
(0.00178534312846 0.00235590355524 0)
(0.00186805896889 0.0017073056658 0)
(0.00210235413154 0.00118751318202 0)
(0.00233932893398 0.000719343621911 0)
(0.00232714284486 0.000234982612028 0)
(-0.0641456439807 0.00704432328817 0)
(-0.0677949334582 0.0226332180773 0)
(-0.0675110443885 0.0380537788835 0)
(-0.066912431117 0.0535017952669 0)
(-0.0661150276546 0.0687707944812 0)
(-0.0651292805572 0.0838273249724 0)
(-0.0639641061672 0.0986274781126 0)
(-0.0626296727058 0.113130358506 0)
(-0.0611372413722 0.127297783567 0)
(-0.0594988639426 0.141094586857 0)
(-0.0577271214819 0.154488768497 0)
(-0.0558348160095 0.167451586868 0)
(-0.0538347183497 0.179957573331 0)
(-0.0517392692598 0.191984477457 0)
(-0.0495603554407 0.203513139856 0)
(-0.0473090430981 0.214527302043 0)
(-0.044995408191 0.225013353717 0)
(-0.0426283308432 0.23496003088 0)
(-0.0402154086694 0.24435806998 0)
(-0.0377628388475 0.253199836261 0)
(-0.0352754357121 0.261478935788 0)
(-0.032756612961 0.269189832012 0)
(-0.0302085063857 0.276327476948 0)
(-0.0276320448371 0.282886975401 0)
(-0.0250271555074 0.288863287644 0)
(-0.0223928939504 0.29425098248 0)
(-0.019727700028 0.299044039575 0)
(-0.017029558924 0.303235707221 0)
(-0.0142962874074 0.306818412564 0)
(-0.0115257148996 0.309783715043 0)
(-0.00871601214056 0.312122371732 0)
(-0.00586585080477 0.313824372393 0)
(-0.0029747758091 0.314879108012 0)
(-4.3407402695e-05 0.315275612328 0)
(0.00292622943611 0.315002862293 0)
(0.00593053097286 0.314050161302 0)
(0.00896404221665 0.312407592725 0)
(0.012019381054 0.310066532375 0)
(0.0150870902744 0.307020196915 0)
(0.0181557142412 0.303264202902 0)
(0.0212118078971 0.298797102169 0)
(0.0242401608155 0.293620861418 0)
(0.0272239093171 0.287741255567 0)
(0.0301447943791 0.281168157809 0)
(0.0329832060955 0.27391572822 0)
(0.0357182575469 0.266002531225 0)
(0.0383275306612 0.25745164622 0)
(0.0407867697732 0.248290868608 0)
(0.0430692436347 0.238553128906 0)
(0.0451451694607 0.228277260969 0)
(0.0469811003081 0.217509229816 0)
(0.0485398763325 0.206303837444 0)
(0.0497812443998 0.194726756361 0)
(0.050663844298 0.182856489272 0)
(0.051148461145 0.170785561677 0)
(0.0512025269013 0.158620090909 0)
(0.0508045933348 0.146477296322 0)
(0.0499475032079 0.134481278839 0)
(0.0486394483789 0.122759753734 0)
(0.046909166298 0.111439255769 0)
(0.0448081279802 0.100638616372 0)
(0.0424199967331 0.0904513743298 0)
(0.0398348964519 0.0809296129421 0)
(0.0371233867342 0.0720929986236 0)
(0.0343309295023 0.0639514863075 0)
(0.0315000999972 0.0565165007717 0)
(0.0286831115148 0.0497914691376 0)
(0.0259340509858 0.0437616260298 0)
(0.0232987612752 0.0383946279375 0)
(0.0208105917595 0.0336468840064 0)
(0.0184914197638 0.0294697166549 0)
(0.0163550845563 0.0258127208559 0)
(0.014409950282 0.0226242726758 0)
(0.0126588193994 0.0198512863912 0)
(0.0110966787598 0.0174410782995 0)
(0.00971076951983 0.0153454790944 0)
(0.00848498635034 0.013523336277 0)
(0.00740341970394 0.0119397111078 0)
(0.0064512924628 0.0105640850795 0)
(0.00561425202554 0.00936966672212 0)
(0.00487872592736 0.00833347745232 0)
(0.00423254377918 0.0074361429151 0)
(0.00366516684297 0.00666375013266 0)
(0.00317352290847 0.0059927230002 0)
(0.00275856669356 0.00533479569968 0)
(0.00254181252189 0.00492952609967 0)
(0.00235514289386 0.00441859884749 0)
(0.00214060867253 0.00384465835669 0)
(0.00192603835858 0.00318876298492 0)
(0.00191229798038 0.00275644345519 0)
(0.00193131319111 0.00221897249346 0)
(0.00220102054923 0.00188915826066 0)
(0.00250341267243 0.00147646581034 0)
(0.00257034783833 0.00093391177392 0)
(0.00270002842932 0.000541168047164 0)
(0.00268385261131 0.000178853919634 0)
(-0.078981823671 0.00713695997672 0)
(-0.0834744706888 0.0229736947235 0)
(-0.0831205581838 0.038614471085 0)
(-0.0823761243742 0.0542846953408 0)
(-0.0813844930315 0.069768218211 0)
(-0.0801590431122 0.0850302089641 0)
(-0.0787111934239 0.100025097051 0)
(-0.0770539046297 0.114710630176 0)
(-0.0752014855581 0.12904756928 0)
(-0.0731692421043 0.143000006862 0)
(-0.0709731273979 0.156535521361 0)
(-0.0686293751631 0.169625266416 0)
(-0.0661541530461 0.182243979489 0)
(-0.0635632096026 0.194369912964 0)
(-0.0608715572652 0.205984687789 0)
(-0.0580931618982 0.217073074362 0)
(-0.0552406884738 0.227622704393 0)
(-0.0523252704569 0.23762372327 0)
(-0.0493563577864 0.24706839295 0)
(-0.046341604309 0.255950661807 0)
(-0.0432868495499 0.264265717903 0)
(-0.0401961433441 0.272009546456 0)
(-0.0370718635794 0.279178509046 0)
(-0.0339148613974 0.28576896227 0)
(-0.0307246810557 0.291776926461 0)
(-0.0274997804007 0.297197812394 0)
(-0.0242378047302 0.302026206343 0)
(-0.0209358412963 0.306255713059 0)
(-0.0175907200689 0.309878854529 0)
(-0.0141992918019 0.312887005303 0)
(-0.0107587763206 0.315270457864 0)
(-0.00726702633424 0.317018426746 0)
(-0.00372293833814 0.318119219373 0)
(-0.000126778586884 0.31856047796 0)
(0.00351944800046 0.31832949676 0)
(0.00721169223126 0.31741363872 0)
(0.0109435620176 0.3158008441 0)
(0.0147061405057 0.3134802161 0)
(0.0184878590158 0.310442658448 0)
(0.0222745287091 0.306681529295 0)
(0.0260494480421 0.30219326617 0)
(0.029793662165 0.296977931567 0)
(0.0334862489607 0.291039631026 0)
(0.0371046609818 0.284386767714 0)
(0.0406249486333 0.277032123441 0)
(0.044021855052 0.268992794749 0)
(0.0472685954213 0.260290065251 0)
(0.0503363353436 0.250949353404 0)
(0.0531932702178 0.24100043337 0)
(0.055803474488 0.230478167118 0)
(0.0581256889173 0.219423995374 0)
(0.0601125488823 0.207888335302 0)
(0.061710880151 0.195933842756 0)
(0.0628638824158 0.183639014623 0)
(0.0635158245911 0.171101008257 0)
(0.0636190247455 0.158436053089 0)
(0.0631411743656 0.145775972367 0)
(0.0620694745142 0.133261535094 0)
(0.0604073520986 0.121040871381 0)
(0.0581864813173 0.109265973679 0)
(0.0554676862956 0.098090963693 0)
(0.0523855394408 0.08763500518 0)
(0.0490844203762 0.0779398879193 0)
(0.0456587467957 0.0689934464369 0)
(0.0421416436978 0.0607870011613 0)
(0.0385713505496 0.0533388812786 0)
(0.0350192980894 0.0466622509704 0)
(0.0315641810666 0.0407390321055 0)
(0.0282688435812 0.0355238081028 0)
(0.0251738406106 0.0309581681892 0)
(0.0223020211776 0.0269820308952 0)
(0.0196668391357 0.0235377990282 0)
(0.0172780779019 0.0205682623605 0)
(0.0151407323551 0.0180127666488 0)
(0.0132477281315 0.0158090749882 0)
(0.0115776434072 0.0139023130537 0)
(0.0101054112143 0.0122499612979 0)
(0.00880921034828 0.0108184876613 0)
(0.00767080822291 0.00957852580687 0)
(0.00667197742494 0.00850390509055 0)
(0.00579511303432 0.00757276209289 0)
(0.00502437865763 0.00676699346933 0)
(0.00434498560533 0.00607560079742 0)
(0.00375032343849 0.00545277687449 0)
(0.00329184373678 0.00487644326459 0)
(0.00304957250531 0.00445349130696 0)
(0.00279078046257 0.00387174399091 0)
(0.00265164460915 0.00342796063878 0)
(0.00255390172099 0.00295284594026 0)
(0.00253132304098 0.00248529632253 0)
(0.00237695646879 0.0018465005629 0)
(0.00250367429705 0.00141408279512 0)
(0.00288208127428 0.00114838399273 0)
(0.00300286525529 0.000774404876755 0)
(0.00302883765807 0.000432014030265 0)
(0.00301585157945 0.000142699208115 0)
(-0.0940612034386 0.00724950511597 0)
(-0.0994081617739 0.0233892777281 0)
(-0.098979670422 0.0392996179834 2.47019607355e-27)
(-0.0980822635147 0.0552415592583 0)
(-0.096887130428 0.0709870189056 0)
(-0.0954107645466 0.0864994729745 0)
(-0.0936673637893 0.101731334232 0)
(-0.0916729996215 0.11663869268 0)
(-0.0894453750081 0.131181015328 0)
(-0.0870034018137 0.14532148844 0)
(-0.0843667655315 0.159027180328 0)
(-0.081555481639 0.172269130236 0)
(-0.0785894608341 0.18502234986 0)
(-0.0754880806569 0.197265739285 0)
(-0.0722697820813 0.208981917514 0)
(-0.0689516897396 0.220156969795 0)
(-0.0655492798744 0.230780115149 0)
(-0.0620760972156 0.240843302187 0)
(-0.058543548392 0.250340745156 0)
(-0.054960770142 0.259268418414 0)
(-0.0513345952447 0.267623531161 0)
(-0.047669602265 0.275404007924 0)
(-0.0439682593146 0.282607999083 0)
(-0.040231131657 0.289233442903 0)
(-0.0364571525269 0.295277692891 0)
(-0.032643919486 0.300737216818 0)
(-0.0287880189838 0.30560736501 0)
(-0.024885350043 0.309882201207 0)
(-0.0209314659927 0.313554389492 0)
(-0.0169219184521 0.316615108753 0)
(-0.0128526537133 0.319054112864 0)
(-0.00872035157289 0.320859691621 0)
(-0.0045229147038 0.322018836883 0)
(-0.000259899899161 0.322517476255 0)
(0.0040670215146 0.322340804297 0)
(0.00845363611426 0.321473737764 0)
(0.0128928050548 0.319901492907 0)
(0.0173741877373 0.317610269491 0)
(0.0218840846468 0.314588012724 0)
(0.0264054555501 0.310825206803 0)
(0.0309181030974 0.306315638046 0)
(0.0353990400353 0.301057053104 0)
(0.0398229727218 0.295051634914 0)
(0.0441628471541 0.288306229996 0)
(0.0483903094688 0.280832290092 0)
(0.0524759541461 0.272645545849 0)
(0.0563891639241 0.263765500919 0)
(0.0600974179436 0.254214932951 0)
(0.0635649494896 0.244019683256 0)
(0.0667508180748 0.233209132435 0)
(0.069606594633 0.221817806571 0)
(0.0720742938337 0.209888590852 0)
(0.0740855085261 0.197477717855 0)
(0.0755633975191 0.184661126974 0)
(0.0764290593879 0.1715404548 0)
(0.076612938947 0.158245235758 0)
(0.0760681164948 0.144927571988 0)
(0.0747764746299 0.13174730204 0)
(0.0727276552812 0.118876613145 0)
(0.0699499617623 0.106499435302 0)
(0.0664882627662 0.0948374842614 0)
(0.0625778334992 0.0840678742396 0)
(0.0584688556068 0.0742025623047 0)
(0.05428708122 0.0651499786407 0)
(0.0500011428036 0.0568638867091 0)
(0.0456225651529 0.0493939944132 0)
(0.0412605510719 0.0427841710184 0)
(0.0370380326373 0.0370110636725 0)
(0.0330416864425 0.0320041944197 0)
(0.0293158120655 0.0276799811009 0)
(0.0258771291031 0.0239626450653 0)
(0.0227336040089 0.0207887139669 0)
(0.0198972124516 0.0180981047942 0)
(0.0173806286733 0.0158208774178 0)
(0.0151764228314 0.0138779356806 0)
(0.0132460951179 0.0122031180452 0)
(0.0115492039756 0.010754869531 0)
(0.0100571001094 0.00950508292297 0)
(0.00875055271767 0.0084268329831 0)
(0.00760742466482 0.00749395668851 0)
(0.00660516877588 0.00668586400054 0)
(0.00572459891493 0.00598589607446 0)
(0.00494662001198 0.00538605120766 0)
(0.00426193732927 0.00482013671969 0)
(0.00382040281254 0.00436092327642 0)
(0.00355132769141 0.00391688421292 0)
(0.00330930618947 0.00343058147339 0)
(0.00309252717997 0.00292191165593 0)
(0.00303364177179 0.00249942607045 0)
(0.00293359242077 0.0019912245592 0)
(0.00298251504025 0.00160221567435 0)
(0.00288486293012 0.0011053326068 0)
(0.0030458768154 0.000815926097646 0)
(0.00329880043941 0.000605236206879 0)
(0.00328970710677 0.000337745654417 0)
(0.00327663105042 0.000111563744414 0)
(-0.10943331024 0.00738319367952 0)
(-0.115648511196 0.0238844623108 0)
(-0.115139833495 0.0401160014929 -2.46981668276e-27)
(-0.114080499092 0.0563815821212 0)
(-0.112670271889 0.0724386238094 0)
(-0.110929038044 0.08824852206 0)
(-0.108874115878 0.103761247363 0)
(-0.106525077211 0.118930893648 0)
(-0.103903439545 0.133715374817 0)
(-0.101032154599 0.148076796647 0)
(-0.0979350803375 0.161981628543 0)
(-0.0946364485031 0.175400792768 0)
(-0.091160338071 0.188309658367 0)
(-0.087530158967 0.200687941363 0)
(-0.0837681567437 0.212519510135 0)
(-0.0798949465669 0.223792095142 0)
(-0.0759290948945 0.234496904217 0)
(-0.0718867645698 0.244628149459 0)
(-0.0677814473889 0.254182498703 0)
(-0.0636237993875 0.263158472727 0)
(-0.0594215958077 0.271555816841 0)
(-0.0551798053246 0.279374880396 0)
(-0.0509007795072 0.286616038001 0)
(-0.0465845332637 0.293279181029 0)
(-0.0422290926808 0.299363297524 0)
(-0.0378308752018 0.304866145117 0)
(-0.0333850820691 0.30978400874 0)
(-0.0288860845754 0.314111526432 0)
(-0.0243278103941 0.317841568109 0)
(-0.019704137033 0.320965126041 0)
(-0.015009339467 0.323471362572 0)
(-0.0102384930929 0.325347509023 0)
(-0.00538806080368 0.326579014141 0)
(-0.000456436331335 0.327149753026 0)
(0.00455546737369 0.327042363913 0)
(0.00964364523722 0.326238742856 0)
(0.0148004847714 0.324720703586 0)
(0.0200143694382 0.322470789277 0)
(0.0252694517061 0.319473204638 0)
(0.0305456542595 0.315714810562 0)
(0.0358189284843 0.311186098104 0)
(0.041061782495 0.305882034027 0)
(0.0462440316399 0.299802657795 0)
(0.0513336791176 0.292953313269 0)
(0.0562977540377 0.285344432058 0)
(0.061102885182 0.276990849164 0)
(0.0657153347312 0.267910735325 0)
(0.0701002219791 0.258124362509 0)
(0.0742197079818 0.247653088354 0)
(0.078030020515 0.236519115034 0)
(0.0814774663096 0.22474683941 0)
(0.0844939817162 0.212366698693 0)
(0.086993730386 0.199422487019 0)
(0.0888733621644 0.18598219688 0)
(0.0900200647506 0.172150259231 0)
(0.0903306240749 0.158074875332 0)
(0.0897393162753 0.143939309902 0)
(0.0882338170982 0.129920902847 0)
(0.0857703288733 0.116214202897 0)
(0.0823691571766 0.103026430154 0)
(0.0779536782845 0.0907186155654 0)
(0.0729880678658 0.0796152810515 0)
(0.0679513757588 0.0696487564253 0)
(0.0630178858783 0.0605253793221 0)
(0.0579371019972 0.0521222079494 0)
(0.0526507603712 0.0445980903189 0)
(0.0473649060164 0.0380775705351 0)
(0.0422908495503 0.0325200457959 0)
(0.0375474424573 0.0278014821257 0)
(0.0331712877558 0.0237935212981 0)
(0.0291561597928 0.0203997483048 0)
(0.025493558163 0.0175578160556 0)
(0.0222002807033 0.0152152187108 0)
(0.019312764601 0.0132919028457 0)
(0.0168314519544 0.0116744694965 0)
(0.0146791691479 0.0102750348374 0)
(0.012786755851 0.00906092283404 0)
(0.011119743359 0.00801980521296 0)
(0.00966674255087 0.00712882666741 0)
(0.00840150386528 0.00635850245105 0)
(0.00729349096635 0.00568991575184 0)
(0.00632207865189 0.00510822955781 0)
(0.00546353548007 0.00460618492816 0)
(0.00470475119188 0.00410314906905 0)
(0.00430337526568 0.00374697335715 0)
(0.00399362386691 0.00330871063041 0)
(0.00380652390271 0.00292204332037 0)
(0.00361241439503 0.00246884808171 0)
(0.00347461526008 0.00202816453791 0)
(0.00332637483822 0.00157199588233 0)
(0.00328192535387 0.00120428574614 0)
(0.00333950821315 0.000905326087706 0)
(0.00326352260942 0.000591879784052 0)
(0.00352913056495 0.000432915167627 0)
(0.00349024835327 0.000256622972619 0)
(0.0034656112796 8.14444543081e-05 0)
(-0.125150868199 0.00753932326334 0)
(-0.132250884574 0.0244645202868 0)
(-0.131655226281 0.0410719359886 0)
(-0.13042302636 0.057716094572 0)
(-0.128783536197 0.0741371039616 0)
(-0.126760411766 0.0902938218024 0)
(-0.124374522559 0.106133294064 0)
(-0.121649419643 0.121607237949 0)
(-0.118610945422 0.136671732073 0)
(-0.115286616585 0.151287616383 0)
(-0.111704993528 0.165420671806 0)
(-0.107895049392 0.179041708376 0)
(-0.103885545896 0.192126551311 0)
(-0.0997044191351 0.204655926316 0)
(-0.0953781825289 0.216615240255 0)
(-0.0909313574968 0.227994251705 0)
(-0.0863859520267 0.238786627455 0)
(-0.0817610119956 0.248989387386 0)
(-0.0770722767559 0.258602250185 0)
(-0.0723319668861 0.267626905237 0)
(-0.0675487272254 0.276066248219 0)
(-0.0627277314403 0.283923626902 0)
(-0.0578709388834 0.291202145296 0)
(-0.0529774724097 0.297904067186 0)
(-0.0480440748298 0.304030343673 0)
(-0.0430655940944 0.309580267544 0)
(-0.0380354593225 0.314551235473 0)
(-0.0329461261779 0.318938584999 0)
(-0.0277894989099 0.322735474615 0)
(-0.0225573531846 0.325932748293 0)
(-0.0172418231725 0.328518958939 0)
(-0.0118358589337 0.330480177673 0)
(-0.00633392360806 0.331800100879 0)