/*--------------------------------*- C++ -*----------------------------------*\
| =========                 |                                                 |
| \\      /  F ield         | OpenFOAM: The Open Source CFD Toolbox           |
|  \\    /   O peration     | Version:  v1906                                 |
|   \\  /    A nd           | Web:      www.OpenFOAM.com                      |
|    \\/     M anipulation  |                                                 |
\*---------------------------------------------------------------------------*/
FoamFile
{
    version     2.0;
    format      ascii;
    class       volScalarField;
    location    "913";
    object      p;
}
// * * * * * * * * * * * * * * * * * * * * * * * * * * * * * * * * * * * * * //

dimensions      [0 2 -2 0 0 0 0];


internalField   nonuniform List<scalar> 
9216
(
268.52263142
268.608304274
268.782200784
269.044683387
269.394331959
269.829413467
270.347806207
270.947030522
271.624311642
272.376601599
273.200647429
274.093006972
275.050118328
276.068305608
277.143846287
278.272964451
279.451894573
280.676861594
281.944141187
283.250027361
284.590890275
285.963132714
287.363246878
288.787761328
290.233298208
291.696512173
293.174149266
294.662979262
296.159857264
297.661650756
299.165304772
300.667764933
302.166047284
303.657158852
305.138172652
306.606147299
308.05820831
309.491468282
310.903114877
312.290332881
313.65039872
314.980604909
316.278359738
317.541113638
318.766461397
319.952068976
321.095774756
322.19551556
323.249424323
324.255756325
325.212983973
326.119728813
326.974859024
327.777436324
328.526823187
329.222649226
329.864925121
330.454014963
330.990734213
331.476299947
331.912394132
332.301082946
332.644841979
332.946447272
333.208979743
333.435686842
333.629917648
333.794982445
333.934152528
334.05058268
334.147301692
334.22711687
334.292599974
334.346024786
334.389397552
334.424449991
334.452708243
334.475492864
334.493947461
334.509004583
334.521423837
334.531799246
334.540613643
334.548238581
334.555000398
334.560935559
334.565941764
334.570026882
334.573246416
334.575691556
334.577472317
334.578728526
334.579589656
334.580121921
334.580393518
334.580488913
268.437049327
268.523147779
268.697675819
268.961371451
269.312666518
269.749774509
270.270526655
270.872404396
271.55258744
272.30798996
273.135314183
274.031084142
274.991697418
276.013451493
277.092589939
278.225318853
279.407846051
280.636387063
281.907197564
283.216569735
284.560859137
285.936472898
287.339892586
288.767655842
290.216376772
291.682722519
293.163432494
294.655291206
296.155147442
297.659884522
299.16644047
300.671776917
302.172901179
303.666834965
305.150639677
306.621386309
308.076184919
309.512157117
310.926470654
312.316315539
313.678944016
315.011650534
316.311816261
317.576891902
318.804444476
319.992140723
321.13779288
322.239340236
323.29489139
324.302703683
325.261223095
326.16906646
327.025066145
327.828265473
328.577978374
329.273805712
329.915709276
330.504035005
331.03957324
331.523551133
331.957658782
332.34400413
332.685102945
332.983791956
333.24322631
333.466761863
333.657824405
333.819778794
333.955927979
334.069480557
334.16351232
334.240881446
334.304180604
334.355690792
334.397392548
334.430989158
334.457976257
334.479674633
334.497226973
334.511558114
334.523396679
334.533311533
334.541759087
334.549089519
334.555574959
334.561348686
334.566272201
334.570254214
334.5734371
334.575874172
334.577625082
334.578862063
334.579723136
334.580237822
334.580488437
334.5805903
268.26242544
268.34961597
268.525888834
268.792180997
269.146879337
269.588138434
270.113713893
270.721007055
271.407111315
272.168857195
273.002862093
273.905573316
274.873313842
275.902318182
276.988770354
278.128830136
279.31866202
280.554451617
281.832426136
283.148862084
284.500098756
285.882538921
287.292657085
288.726994887
290.182165769
291.654846592
293.141780049
294.639763765
296.145651579
297.656341189
299.168775317
300.679928977
302.186811589
303.686455035
305.175917914
306.65227571
308.112628542
309.554094851
310.97382385
312.368993877
313.736830196
315.074608264
316.379676338
317.649462428
318.881499415
320.073432691
321.223043963
322.328255754
323.387150353
324.397969321
325.35912814
326.269215257
327.127011547
327.931502649
328.681920139
329.3777826
330.018964632
330.605752885
331.138902797
331.61964301
332.049697663
332.431244516
332.766901746
333.05959914
333.312664865
333.529692155
333.71428876
333.869898566
333.999884389
334.10755529
334.196103431
334.268491199
334.32736719
334.375016899
334.413366903
334.444037502
334.468458761
334.487955356
334.503694083
334.516578978
334.527271424
334.536277176
334.544011712
334.550790834
334.556860065
334.562322805
334.566929605
334.570696747
334.573808461
334.576207066
334.577907224
334.579135776
334.579973304
334.580470066
334.580738565
334.580871581
267.996601286
268.085195221
268.264166158
268.534471444
268.89442103
269.342073251
269.87506846
270.490682201
271.185875661
271.957347454
272.801585815
273.714917188
274.693552424
275.733626856
276.831236713
277.982468458
279.183424577
280.430242454
281.719110632
283.046278856
284.408066753
285.800867124
287.221149084
288.665456526
290.130407464
291.612689217
293.10905532
294.616318614
296.131346775
297.651054301
299.172397561
300.692366655
302.207981078
303.716282574
305.214332591
306.699207503
308.16799945
309.617815568
311.04578375
312.449057326
313.824826848
315.170330793
316.482873119
317.75983875
318.998714377
320.197104943
321.352752658
322.463548778
323.527545113
324.54295675
325.508164584
326.421712853
327.28231325
328.08885697
328.840447892
329.536460111
330.17662329
330.761115816
331.290644808
331.766427528
332.190251146
332.564392897
332.89166469
333.17505924
333.41820032
333.625140597
333.799814154
333.945705242
334.066220802
334.164830189
334.244942073
334.309703989
334.361865972
334.403714728
334.437070222
334.463371071
334.483908395
334.500048065
334.51306273
334.523823819
334.5328524
334.540532458
334.547233881
334.553221759
334.558705348
334.563675406
334.567877431
334.571411384
334.574332776
334.576631531
334.578357458
334.579578776
334.580403615
334.58092282
334.581222614
334.581369881
267.638265909
267.728722103
267.911388063
268.187193351
268.554334452
269.010731296
269.553862488
270.180827167
270.888402787
271.6731044
272.531242453
273.45897676
274.452365762
275.507409541
276.620086832
277.786385289
279.002326057
280.263982346
281.567493455
282.909074044
284.285020221
285.691712094
287.125614342
288.583274237
290.061318579
291.55644877
293.06543545
294.585111727
296.112366455
297.644136452
299.177399177
300.709164794
302.236469279
303.756367405
305.265927418
306.762226431
308.242348533
309.703384532
311.142435478
312.556618754
313.943078711
315.29900027
316.621626927
317.908280827
319.156385413
320.363487273
321.527276762
322.645603225
323.716484405
324.738106477
325.708817011
326.627110545
327.491616627
328.301096706
329.054470795
329.750885371
330.389837999
330.971329048
331.496015337
331.965067939
332.380380814
332.74434683
333.060182523
333.330683099
333.559935847
333.752922446
333.914143588
334.046880756
334.154470732
334.240642111
334.309196127
334.363595387
334.406756961
334.440966248
334.467849948
334.488462082
334.503780264
334.515331634
334.52474138
334.532823489
334.539785257
334.545780604
334.551179516
334.55617924
334.560925746
334.565284331
334.569021388
334.572259649
334.575042234
334.577273718
334.578976572
334.580226526
334.581092495
334.581654813
334.581996635
334.582166216
267.185482109
267.278323492
267.465754693
267.748654692
268.125065048
268.592718349
269.148876947
269.790405487
270.51383892
271.315451305
272.191321525
273.137393702
274.149530855
275.223560855
276.35531455
277.540656175
278.775506781
280.055861308
281.377800358
282.737497372
284.131222215
285.555341713
287.006317956
288.480704665
289.975142236
291.48635155
293.011127013
294.546328773
296.088874517
297.63573072
299.183903742
300.730430776
302.272371152
303.806797961
305.330790672
306.841429029
308.335789121
309.810941929
311.263955417
312.691900458
314.091861564
315.460952306
316.796335798
318.09524916
319.355031048
320.573149658
321.747228542
322.87506624
323.954646025
324.984132323
325.961851595
326.886260062
327.755903382
328.569385693
329.325372151
330.022663088
330.660380397
331.23822874
331.756881777
332.217346593
332.621723216
332.972439305
333.273820372
333.527393193
333.737981135
333.912659257
334.056965404
334.173132718
334.264104802
334.334109265
334.387688901
334.428832633
334.460713032
334.485632143
334.504901662
334.518770194
334.527425895
334.532883248
334.537842617
334.542951332
334.547654394
334.551646066
334.555534439
334.55941297
334.563273643
334.566947198
334.570279574
334.573311907
334.575937634
334.578061855
334.579796591
334.581136
334.582079268
334.582745646
334.583155717
334.583362721
266.635768453
266.731579176
266.924949472
267.216687238
267.604630405
268.086266385
268.658576447
269.318122568
270.061129024
270.883563549
271.781213308
272.749753202
273.784804905
274.881985895
276.036948596
277.245410251
278.503174562
279.80614627
281.150339943
282.531884087
283.947021666
285.392107841
286.863605663
288.358080216
289.872191632
291.402687213
292.946392873
294.500204
296.061075815
297.6260133
299.192060716
300.756290992
302.315795111
303.867671753
305.40901756
306.936918747
308.44844469
309.940644361
311.410546556
312.855164914
314.271508643
315.656599678
317.007496487
318.321324108
319.595308977
320.826815796
322.013382478
323.152747533
324.242863991
325.281892704
326.268170859
327.200152333
328.076326149
328.895128922
329.654890847
330.353886105
330.990607619
331.564214673
332.075744825
332.52563681
332.916475656
333.250156648
333.53473153
333.766678069
333.952081639
334.103357652
334.227990995
334.324477649
334.394701264
334.444126541
334.478788791
334.503510083
334.521807089
334.536088072
334.547287626
334.553997939
334.554219558
334.55124607
334.550986914
334.553446275
334.556107548
334.557677497
334.559917725
334.562658879
334.56553116
334.568567179
334.571516384
334.574354322
334.576884811
334.579070424
334.580914826
334.582385315
334.583470332
334.584267574
334.584762733
334.585011333
265.986034581
266.085470479
266.286089853
266.588603292
266.990585946
267.48920936
268.081095187
268.762421074
269.52902026
270.376478626
271.300223579
272.295601882
273.357944793
274.482620124
275.665071805
276.900848216
278.185620893
279.515195379
280.885515893
282.292665335
283.732861902
285.202453296
286.697909322
288.215813366
289.752853144
291.305810912
292.871553238
294.447020361
296.029215114
297.615191367
299.202041907
300.786885988
302.366856572
303.939087463
305.500700764
307.048795373
308.580437364
310.092653255
311.582427514
313.046705649
314.48240442
315.886430366
317.255707603
318.587214792
319.878030078
321.12538084
322.326693073
323.479632814
324.582130083
325.632374465
326.628771663
327.569851686
328.454126387
329.279904375
330.04511331
330.747227985
331.383637111
331.952258293
332.45590741
332.893022999
333.267640017
333.578422184
333.847076587
334.051668908
334.200797553
334.32206295
334.426327005
334.500801559
334.545244907
334.568564025
334.579831787
334.584749645
334.587197822
334.589985772
334.594183136
334.595039272
334.584002918
334.567686015
334.561746847
334.563483433
334.565210486
334.563290071
334.563843906
334.565665667
334.567391579
334.569925784
334.572555807
334.575326606
334.577911211
334.580282383
334.582335121
334.584032706
334.585343079
334.586267426
334.586882463
334.587181511
265.232508079
265.336315685
265.545669591
265.861148568
266.279990227
266.798962079
267.414229063
268.121485099
268.916076275
269.793118261
270.747601153
271.774478487
272.868738923
274.025460792
275.239850897
276.507269706
277.823245427
279.183479449
280.583845399
282.020383776
283.48929365
284.986922586
286.509755591
288.054403574
289.617591615
291.19614715
292.78698805
294.387110497
295.993576491
297.603500835
299.214037314
300.822364278
302.425669452
304.021134148
305.605917242
307.177139755
308.731870913
310.267117031
311.77981485
313.266831343
314.724972093
316.151000521
317.541669669
318.893767562
320.20417534
321.469935188
322.688321623
323.85690632
324.973602697
326.036674158
327.044686613
327.996386587
328.890482164
329.72531221
330.498417836
331.206103589
331.843750383
332.405670185
332.901764445
333.323609009
333.679951403
333.953531008
334.218079513
334.388230539
334.479822193
334.573893586
334.674820419
334.729382888
334.737100443
334.719870656
334.696019528
334.673681817
334.655575785
334.64541781
334.647439257
334.648500881
334.61861848
334.576301487
334.565869075
334.57311462
334.576729195
334.567350558
334.566510899
334.568410525
334.568428827
334.570822834
334.573195581
334.576183664
334.57899245
334.581663776
334.584077381
334.586112945
334.587707656
334.588809902
334.589584394
334.589942169
264.370641144
264.479682911
264.699483344
265.030441404
265.46936159
266.012495012
266.655428043
267.39324812
268.220697921
269.132318654
270.122574346
271.185953566
272.317047557
273.510605961
274.761572784
276.065106043
277.416584755
278.811606722
280.245980079
281.715711002
283.216989367
284.746173568
286.299775304
287.874444723
289.466956096
291.074193983
292.693139718
294.320857946
295.954482899
297.591204041
299.228250649
300.86287537
302.492336425
304.11387844
305.724712312
307.321994849
308.902809239
310.464147856
312.002899533
313.515843871
314.999655781
316.450923609
317.866184221
319.241977497
320.574921005
321.861802364
323.099682508
324.285997136
325.418638738
326.495995095
327.516918671
328.480592774
329.386247624
330.232650034
331.017275434
331.734938551
332.377488049
332.926921237
333.419343198
333.822720896
334.165152304
334.367035599
334.725531448
334.849755113
334.778489082
334.63332176
334.634653885
334.683511851
334.710381411
334.71364029
334.707038553
334.700071312
334.698631987
334.707739495
334.728219358
334.736009387
334.671470998
334.552026526
334.546187675
334.583158588
334.596454259
334.566378203
334.566657075
334.572015257
334.567696334
334.571174098
334.573122283
334.576848264
334.579982533
334.583221588
334.586212823
334.58872341
334.590646213
334.592008769
334.592946549
334.5933831
263.394990878
263.510279501
263.742530328
264.091897123
264.554626024
265.126306619
265.801791504
266.575408296
267.441154367
268.392872831
269.424400088
270.529681372
271.702854281
272.938303154
274.230688863
275.574959333
276.966346053
278.400351239
279.872729488
281.379466778
282.916758817
284.480989981
286.068713488
287.676633065
289.301586048
290.940527693
292.590516319
294.248698839
295.912296131
297.578587684
299.244894812
300.908562326
302.566938013
304.217349773
305.857080649
307.483342484
309.093249189
310.683791447
312.251815235
313.794007645
315.306894169
316.786852632
318.230149165
319.63300148
320.991672584
322.302594842
323.562517413
324.768662878
325.918868932
327.011685613
328.046395247
329.02291499
329.941522824
330.802251628
331.603668432
332.339650361
332.997622493
333.51306707
334.021057889
334.426987932
334.819192952
334.651156047
334.674597405
334.761258699
334.765588077
334.724229643
334.701640617
334.709394664
334.7154225
334.711859098
334.703787228
334.696340513
334.691743966
334.690168438
334.688757878
334.675645543
334.644109894
334.621762278
334.638173864
334.680373417
334.674741625
334.539314911
334.55448893
334.579660575
334.561958628
334.571457273
334.571699875
334.577482916
334.580787849
334.584959601
334.58883694
334.591973022
334.594323733
334.595985152
334.597074073
334.597598337
262.299064664
262.421807838
262.668892048
263.040133871
263.531055409
264.136394289
264.850069375
265.665455014
266.575628981
267.573589401
268.65242949
269.805467071
271.026330863
272.30900911
273.647868044
275.037648115
276.473445396
277.950684333
279.465086609
281.012639422
282.589565265
284.192294274
285.817439541
287.46177532
289.122217785
290.795807828
292.479695337
294.171124231
295.8674175
297.565961403
299.264187811
300.959554291
302.649521012
304.331523912
306.00294433
307.661075488
309.303086874
310.925988246
312.526596141
314.101506868
315.647081632
317.159450844
318.634546233
320.068169757
321.456107384
322.794291436
324.079007463
325.307128617
326.476347434
327.585365096
328.634002612
329.623216844
330.554992274
331.431990582
332.256579619
333.026196229
333.736667318
334.147255268
334.758586423
334.663135287
334.70438011
334.748328541
334.732416458
334.755345843
334.751520452
334.727290909
334.710941873
334.70933288
334.708132769
334.702107857
334.69432965
334.687799705
334.6825712
334.677966745
334.671995806
334.660461972
334.643067799
334.631516216
334.634967777
334.645013774
334.631969973
334.625172201
334.656106006
334.641940572
334.533356962
334.572318658
334.566586082
334.579062528
334.58103343
334.586877956
334.592144541
334.596073357
334.598887372
334.600835614
334.602035451
334.602630982
261.07511919
261.206780997
261.471576466
261.868856443
262.393195445
263.038226345
263.796673686
264.660712592
265.62228627
266.673373696
267.806194996
269.013353257
270.287918286
271.623462293
273.014059245
274.454259561
275.939050249
277.463808504
279.024254422
280.616406451
282.236541448
283.881160017
285.546956994
287.230796511
288.929690887
290.640782529
292.361328002
294.088683354
295.820289655
297.553657609
299.28634979
301.0159598
302.740086937
304.456305433
306.162128195
307.85496511
309.532076637
311.190524351
312.827121251
314.438386454
316.020510983
317.569344191
319.080413116
320.548989779
321.970221628
323.339337592
324.651930716
325.904300549
327.093812799
328.219211644
329.280854292
330.280890213
331.223531568
332.1157673
332.970446982
333.818298397
334.822696233
334.684374536
334.691847168
334.752992937
334.741007705
334.750744322
334.742271383
334.744610622
334.735252616
334.715827876
334.700883859
334.693749296
334.687996544
334.680556905
334.673613159
334.668424878
334.663932994
334.659533782
334.654106656
334.646155977
334.636297044
334.62990936
334.630617828
334.633591123
334.628580207
334.626280273
334.632634894
334.626454978
334.638330133
334.63909733
334.548139074
334.583899122
334.578517672
334.588947094
334.596610152
334.601387623
334.604502367
334.606637843
334.60787505
334.608526112
259.713897162
259.856281112
260.142319326
260.570712794
261.134783484
261.826719288
262.637707669
263.558409771
264.57936876
265.691339336
266.885525706
268.153730604
269.488427063
270.882769717
272.33056369
273.826207721
275.364625098
276.941192363
278.551672232
280.192154219
281.859004238
283.548822994
285.258412155
286.984747008
288.724954289
290.476294032
292.236144358
294.001988121
295.771400115
297.542033301
299.311602154
301.077861887
302.838581653
304.591510166
306.334333436
308.064624056
309.779782364
311.47697051
313.153042001
314.80447117
316.427290214
318.017045332
319.568788966
321.077130591
322.536373459
323.940763683
325.284867601
326.564063084
327.775078954
328.916460568
329.988879889
330.99527134
331.940776189
332.832911044
333.686202845
334.550440001
334.726674127
334.797835425
334.747804565
334.752910964
334.743043824
334.736822062
334.726152588
334.717360339
334.703238339
334.684824378
334.669127882
334.658343779
334.649672841
334.642355011
334.637426633
334.634035115
334.631367949
334.628994219
334.626292539
334.622814879
334.619338889
334.618302911
334.620795548
334.624168303
334.62414088
334.623436955
334.626014402
334.624642561
334.627956491
334.62242003
334.634152192
334.636076299
334.564154559
334.591366576
334.603457878
334.608508976
334.611412079
334.613411543
334.614644568
334.615327225
258.204278702
258.359644613
258.67132891
259.137117917
259.748657491
260.496227546
261.369023413
262.355787674
263.445336204
264.626961028
265.890699254
267.227478387
268.629160029
270.08850924
271.599116631
273.155296457
274.751978363
276.384604663
278.049039826
279.741494873
281.458466583
283.196689843
284.953100759
286.724808179
288.50907163
290.303284199
292.104959176
293.911719311
295.721287216
297.531474918
299.340170019
301.145316528
302.944887799
304.736849358
306.519110921
308.289466411
310.045521419
311.784608266
313.503690003
315.199256988
316.867223238
318.502835441
320.100615634
321.654369607
323.157304771
324.602310869
325.98244952
327.291656356
328.525574039
329.682241863
330.76249607
331.769960149
332.710992618
333.598914257
334.480915612
334.617496187
334.703330546
334.75253379
334.739602421
334.731724779
334.718187311
334.70239631
334.684221498
334.666410896
334.647281443
334.627726105
334.611104033
334.598782077
334.589550991
334.583952678
334.58195672
334.581532684
334.582202263
334.583657773
334.585494133
334.587553993
334.590320178
334.594747723
334.60091201
334.607303058
334.612016374
334.615946116
334.620579997
334.622735283
334.624553049
334.624411086
334.630210888
334.631602868
334.62760798
334.607077101
334.616489197
334.618241813
334.619539808
334.621058061
334.62234383
334.623034477
256.532814344
256.704043028
257.046956767
257.55803797
258.226660341
259.040557833
259.986325067
261.050264721
262.219064468
263.480282901
264.822640667
266.236141302
267.71206058
269.242847546
270.821976896
272.443784413
274.103307557
275.796144413
277.518336828
279.266278438
281.036644998
282.826342925
284.632471638
286.452295903
288.283225411
290.122799898
291.968678854
293.818634908
295.670549377
297.52240747
299.37228967
301.21835636
303.058822305
304.89191799
306.715836911
308.528666765
310.32830305
312.112343501
313.877962745
315.621768288
317.339642937
319.026585082
320.676569915
322.282471976
323.836115145
325.328544745
326.750631131
328.094081135
329.352788792
330.523888486
331.608227506
332.610624389
333.544575891
334.459951353
334.58228071
334.642634627
334.693928565
334.718242701
334.708180215
334.689005101
334.664425493
334.637839945
334.610924055
334.585601424
334.562032191
334.541011085
334.524194409
334.512269594
334.504955983
334.502855206
334.50471581
334.508614998
334.514186425
334.521117881
334.52903285
334.537737637
334.547342313
334.558051767
334.569568781
334.580925878
334.591127372
334.600340961
334.608867722
334.615423598
334.620698704
334.624177308
334.627182376
334.628778524
334.627874037
334.639076248
334.639240979
334.629970803
334.628015082
334.629152652
334.630790853
334.63160593
254.683090243
254.873923183
255.255269488
255.821728422
256.5595482
257.453028378
258.485343678
259.639685517
260.900128138
262.252201167
263.683180824
265.182149342
266.739888257
268.34867228
270.002020603
271.69444744
273.42123801
275.178262888
276.96183376
278.768597324
280.595460615
282.439539973
284.298126335
286.168661161
288.048719398
289.935997932
291.828309372
293.723581157
295.619858716
297.515309503
299.40822301
301.297002197
303.18014194
305.056190759
306.92369498
308.781122745
310.626765073
312.458610212
314.27418728
316.070376229
317.843183716
319.587490742
321.296790474
322.962959146
324.576146674
326.124938511
327.597024503
328.980631365
330.266884252
331.451361152
332.535141973
333.53052884
334.490232411
334.593219546
334.625583609
334.651817776
334.671220635
334.669133606
334.645049951
334.611675859
334.574665794
334.537624225
334.502711819
334.471553848
334.444851604
334.423258137
334.407546784
334.39787062
334.394847573
334.397962744
334.404685875
334.414153138
334.426020469
334.439838271
334.455141832
334.471590048
334.488981246
334.507109622
334.525507198
334.543426509
334.560166222
334.575527076
334.589400653
334.601205881
334.61112058
334.618882759
334.624930883
334.629298036
334.631454461
334.637642094
334.642224756
334.637647081
334.633769764
334.636631605
334.63989051
334.641088975
252.634851676
252.850244393
253.279489049
253.914420347
254.736921206
255.726606388
256.862123821
258.122692984
259.489199971
260.944845244
262.475389106
264.069086845
265.716421298
267.409733696
269.142832226
270.91063108
272.708848291
274.533771767
276.382090405
278.250780116
280.137031652
282.03820708
283.951813633
285.875486845
287.806978553
289.744149067
291.684965278
293.627506877
295.569980231
297.510735765
299.448281482
301.381285339
303.308560595
305.229030119
307.141669593
309.045427202
310.939115855
312.821271132
314.689966676
316.542577557
318.375482775
320.183699267
321.960450101
323.696694015
325.380701855
326.997890418
328.531338454
329.963664702
331.281494888
332.478307437
333.561971433
334.587977298
334.66523609
334.657929805
334.648443858
334.639175792
334.621101369
334.589278825
334.545322827
334.496301687
334.447032157
334.400702431
334.359347557
334.324306642
334.296277286
334.275695421
334.26286678
334.25771789
334.260328241
334.269158528
334.281999846
334.29832842
334.317719082
334.339590959
334.363364149
334.388534459
334.414661194
334.441286112
334.467826967
334.493595682
334.517961357
334.540536722
334.561029614
334.579043751
334.594521512
334.607331516
334.617672088
334.625571071
334.630775119
334.635131885
334.637488933
334.634018409
334.631609535
334.642880525
334.650466766
334.651895658
250.362770121
250.609429642
251.099257148
251.819955419
252.747210723
253.854178729
255.113483383
256.49928054
257.988612238
259.562087548
261.203995857
262.902014277
264.646681265
266.430786072
268.248781431
270.096281844
271.969672668
273.865829936
275.781936214
277.715371316
279.663655385
281.624423909
283.595418168
285.574479952
287.559545574
289.548640351
291.539879378
293.531481496
295.521797924
297.509349723
299.492862276
301.471284147
303.443782487
305.409711821
307.368558239
309.319859003
311.263092466
313.197527952
315.122021724
317.034742776
318.932807036
320.811792715
322.66510535
324.483165297
326.252449696
327.954573578
329.565990337
331.059631182
332.415287986
333.63089591
334.763553938
334.813117921
334.751787818
334.693758471
334.643402284
334.591197275
334.534402405
334.472605809
334.40753173
334.343227462
334.283108086
334.229535958
334.184004178
334.147398217
334.120134745
334.102365406
334.094094951
334.095030293
334.104230478
334.119388545
334.139230462
334.163304772
334.191037626
334.221732172
334.254695197
334.28927448
334.324847778
334.360783869
334.396402659
334.430997588
334.463920182
334.49466461
334.522820641
334.54800544
334.570028089
334.588748921
334.604209383
334.61645649
334.625468025
334.631963555
334.635684019
334.635004141
334.631476983
334.652184504
334.667027101
334.665048541
247.834673016
248.121895685
248.689667184
249.519382667
250.577787456
251.829045586
253.237740161
254.771605747
256.403140155
258.110218138
259.875919035
261.687840428
263.537166859
265.417711076
267.325067189
269.255940804
271.2076675
273.17789959
275.164426893
277.165093934
279.177778376
281.200400824
283.230942854
285.267458365
287.308072686
289.350974279
291.394412272
293.436717101
295.476349393
297.51196863
299.54250022
301.567178669
303.585555808
305.597473728
307.603010277
309.60240376
311.595950725
313.58386132
315.566052852
317.541858809
319.509622304
321.466121981
323.405744146
325.319284689
327.19222083
329.002356914
330.716851097
332.291026222
333.703114504
335.009488906
335.041239788
334.914697018
334.796464784
334.694126202
334.595875565
334.499802365
334.406835988
334.317604434
334.233338472
334.156194623
334.088078183
334.030248357
333.983390958
333.947789249
333.923452329
333.91026177
333.908098569
333.915912372
333.931716777
333.95356015
333.980849722
334.013043622
334.049420709
334.089194565
334.131580023
334.175809053
334.221127167
334.266778414
334.311994372
334.356014348
334.398133517
334.437748416
334.47434988
334.507505525
334.536924504
334.562410638
334.583906162
334.601442439
334.61509996
334.625322308
334.632414651
334.636935467
334.640026937
334.639600141
334.702213775
334.679846313
245.008940212
245.349966363
246.019995181
246.990562707
248.215307083
249.64578311
251.235846689
252.94518063
254.741085728
256.598824635
258.50090334
260.43573093
262.396070637
264.377593036
266.377701001
268.39467637
270.42712463
272.47366077
274.532771388
276.602793014
278.681955452
280.768449213
282.860485896
284.956331539
287.054306514
289.15276204
291.250059798
293.344594502
295.434871083
297.519624548
299.597939106
301.669327082
303.733750803
305.791593422
307.843600924
309.890817659
311.934506617
313.976029754
316.016662545
318.057320325
320.098164314
322.138018726
324.173476857
326.197437578
328.196616496
330.147016569
332.004960926
333.700750819
335.280726037
335.327907065
335.138159399
334.956383476
334.796353124
334.6436337
334.49788309
334.362205059
334.238296114
334.126731264
334.027910859
333.942370364
333.870445823
333.812138054
333.767189634
333.735210026
333.715772519
333.708556467
333.713395035
333.728058585
333.749931745
333.778428211
333.81307903
333.853161162
333.897863398
333.946354239
333.997794708
334.051344923
334.10616523
334.161412774
334.216242991
334.269828092
334.321389504
334.370229209
334.415739765
334.457408055
334.494846487
334.527780946
334.556066678
334.57967289
334.598657478
334.613275177
334.623801604
334.630860175
334.635459761
334.633702087
334.621039415
334.666267964
241.830567668
242.244858163
243.052063627
244.207892859
245.646503641
247.301709824
249.113144474
251.030598494
253.015760082
255.041916653
257.092265038
259.157517468
261.23343067
263.318697961
265.413388207
267.517925279
269.632511042
271.756872549
273.890224771
276.031360771
278.178801028
280.33094932
282.486215043
284.643074645
286.800062182
288.955705566
291.108454385
293.256692754
295.398857226
297.533646429
299.660227461
301.778367512
303.888464834
305.991498171
308.088947446
310.182746982
312.275250662
314.36916238
316.467396807
318.572858902
320.688134003
322.815040858
324.953924971
327.102413303
329.252903288
331.387936812
333.474245789
335.46670312
335.599631931
335.379155936
335.151713052
334.94195298
334.734657166
334.53373844
334.347106448
334.179403482
334.032414927
333.906124099
333.799637747
333.711780018
333.64126353
333.586777886
333.547099175
333.521182303
333.50822686
333.507813079
333.519317832
333.539988493
333.567483297
333.602145006
333.643424108
333.690487843
333.742514169
333.798680851
333.85814708
333.920053709
333.983523805
334.047663381
334.111568596
334.174344282
334.235131238
334.293134206