/*--------------------------------*- C++ -*----------------------------------*\
| =========                 |                                                 |
| \\      /  F ield         | OpenFOAM: The Open Source CFD Toolbox           |
|  \\    /   O peration     | Version:  v1906                                 |
|   \\  /    A nd           | Web:      www.OpenFOAM.com                      |
|    \\/     M anipulation  |                                                 |
\*---------------------------------------------------------------------------*/
FoamFile
{
    version     2.0;
    format      ascii;
    class       surfaceScalarField;
    location    "458";
    object      phi;
}
// * * * * * * * * * * * * * * * * * * * * * * * * * * * * * * * * * * * * * //

dimensions      [0 3 -1 0 0 0 0];
oriented        oriented;


internalField   nonuniform List<scalar> 
18240
(
-0.000352325350967
0.000352320394971
-0.000738103003458
0.000385773140693
-0.00112353369677
0.000385424872706
-0.00150400224924
0.000380464165243
-0.00187743234728
0.000373423767295
-0.00224208676829
0.000364650085663
-0.0025964442115
0.000354350689435
-0.00293915184927
0.000342703256905
-0.0032690404751
0.000329881466555
-0.00358510319049
0.00031605817639
-0.00388651432282
0.000301403581192
-0.00417260089626
0.000286081765759
-0.00444285730875
0.000270248510588
-0.00469691020692
0.000254047715992
-0.00493453006318
0.000237611668031
-0.00515559340377
0.000221057688175
-0.00536009306173
0.000204491279612
-0.00554810153622
0.000188002269608
-0.00571978078464
0.000171670805484
-0.00587534962106
0.00015556201898
-0.00601509280293
0.000139734832319
-0.00613933447478
0.000124234208807
-0.00624844539265
0.000109102854099
-0.00634282376178
9.43702617449e-05
-0.00642289888924
8.00675688838e-05
-0.00648912036628
6.62127639887e-05
-0.00654195623787
5.28290717879e-05
-0.00658189133161
3.99258548751e-05
-0.00660941812115
2.75210161953e-05
-0.0066250450867
1.56173224943e-05
-0.00662927918943
4.22965233547e-06
-0.00662264299514
-6.6460795571e-06
-0.00660564497902
-1.70008523093e-05
-0.00657881183427
-2.68430708797e-05
-0.00654264936194
-3.61633830305e-05
-0.00649768398583
-4.49751044847e-05
-0.00644441103334
-5.32716509005e-05
-0.00638334912212
-6.10711658932e-05
-0.00631497644043
-6.83688690685e-05
-0.00623979774377
-7.51871709413e-05
-0.00615826852833
-8.1522638674e-05
-0.00607087447442
-8.74014129302e-05
-0.00597804390268
-9.28209774497e-05
-0.00588023919065
-9.78106036857e-05
-0.00577785817023
-0.00010236822181
-0.00567133668934
-0.000106525540826
-0.00556104000664
-0.000110280505866
-0.0054473753127
-0.000113666561464
-0.00533067440546
-0.000116681264031
-0.00521131465589
-0.000119359076284
-0.00508959460892
-0.000121696876438
-0.00496586157846
-0.000123729501047
-0.00484038196813
-0.000125452952542
-0.00471347345412
-0.000126901857612
-0.00458537208047
-0.000128071308135
-0.00445636682071
-0.000128995271844
-0.00432666551989
-0.000129668013813
-0.00419652957221
-0.000130122499406
-0.00406614088314
-0.000130352408839
-0.00393573442599
-0.000130389510362
-0.0038054682499
-0.000130227225328
-0.00367555183324
-0.000129896023631
-0.00354612108176
-0.000129389479801
-0.00341736062166
-0.00012873676441
-0.00328938543008
-0.000127932010032
-0.00316235553721
-0.000127003116164
-0.00303636569736
-0.000125945155958
-0.00291155132044
-0.000124784806701
-0.00278798719694
-0.000123518363585
-0.00266578387192
-0.000122171293864
-0.00254499613067
-0.00012074129695
-0.00242570938912
-0.000119252610346
-0.00230795825249
-0.000117704383461
-0.0021918028434
-0.000116119548249
-0.00207725746052
-0.000114498644761
-0.00196435704572
-0.000112863191509
-0.00185309566007
-0.000111214954094
-0.00174348352992
-0.000109573896342
-0.00163549486476
-0.000107942780814
-0.00152911608515
-0.000106339865217
-0.00142430233477
-0.000104768623403
-0.00132101760839
-0.000103245435733
-0.00121919925914
-0.000101774157531
-0.00111879080095
-0.000100369067522
-0.00101971375438
-9.90339445448e-05
-0.000921894013743
-9.77804775987e-05
-0.000825240755822
-9.66113399276e-05
-0.000729667989789
-9.55338124369e-05
-0.000635082178376
-9.45452033005e-05
-0.000541405443103
-9.36384579338e-05
-0.000448586668733
-9.27799610459e-05
-0.000356667770883
-9.18819702846e-05
-0.00026593319084
-9.06989041596e-05
-0.000177523030999
-8.83770745112e-05
-9.5724832591e-05
-8.17591149536e-05
-9.57022953934e-05
-0.000389442179389
0.00074175756266
-0.000824231064606
0.00082055723353
-0.00125654978079
0.000817737999202
-0.00168256586406
0.00080647510232
-0.0021003539918
0.000791206085834
-0.00250813300106
0.000772423769459
-0.00290424627449
0.000750457899838
-0.00328720060901
0.000725652062713
-0.00365569258076
0.000698367068752
-0.00400860829856
0.000668968095156
-0.00434502990848
0.000637818476159
-0.00466422154439
0.000605267269333
-0.00496562688491
0.0005716467713
-0.00524884804985
0.000537262365099
-0.00551363865038
0.00050239482464
-0.00575988024523
0.000467292350827
-0.00598757409321
0.000432177345602
-0.00619681871405
0.00039723953029
-0.00638780226805
0.00036264629064
-0.00656078352116
0.000328535499598
-0.00671608549695
0.000295028538716
-0.00685408102777
0.000262221602222
-0.00697518730938
0.00023020078176
-0.00707985643876
0.000199030971688
-0.00716856991028
0.000168772758872
-0.00724183412024
0.000139468393074
-0.00730017359382
0.000111160521138
-0.00734413129388
8.38749706222e-05
-0.00737425938021
5.76415607453e-05
-0.00739112405068
3.24736002398e-05
-0.00739529213854
8.39092536744e-06
-0.00738734277916
-1.46034132186e-05
-0.00736785208936
-3.64973531334e-05
-0.00733740543244
-5.72970274414e-05
-0.00729657556254
-7.69977767089e-05
-0.00724594298136
-9.56140305376e-05
-0.00718607007636
-0.000113147485029
-0.00711752606522
-0.000129620264042
-0.00704085611311
-0.000145039852981
-0.00695661152848
-0.000159435267653
-0.00686531406957
-0.00017281891827
-0.00676749139136
-0.000185225701064
-0.00666363675017
-0.000196671934977
-0.00655424951738
-0.000207197218657
-0.00643979060475
-0.000216820659205
-0.006320727704
-0.000225585277786
-0.00619748686848
-0.000233511825974
-0.00607050197319
-0.000240645451098
-0.00594016299584
-0.000247007464452
-0.00580686904861
-0.000252643910913
-0.00567097400395
-0.00025757572077
-0.00553284231114
-0.000261848757673
-0.00539279268998
-0.000265482839738
-0.00525115584604
-0.000268522783841
-0.00510821702541
-0.000270986830806
-0.00496427466515
-0.000272918150171
-0.00481958263033
-0.000274333228783
-0.00467440881422
-0.000275273268743
-0.0045289778992
-0.000275753114287
-0.00438352893488
-0.000275811952577
-0.00423825943246
-0.000275463337322
-0.00409338102371
-0.000274744610497
-0.00394906566136
-0.00027366855764
-0.00380549856909
-0.00027227099049
-0.00366282722865
-0.000270564514658
-0.00352121098263
-0.000268583770743
-0.00338077339768
-0.000266341740252
-0.00324164804247
-0.000263872210949
-0.00310393467756
-0.000261188968527
-0.00296774090448
-0.000258325147842
-0.00283314250582
-0.000255295585296
-0.00270022081663
-0.000252132811152
-0.00256902738324
-0.000248852749952
-0.00243961705064
-0.000245487213312
-0.00231201698105
-0.000242053059484
-0.00218625556274
-0.000238581132912
-0.00206233569752
-0.000235088911528
-0.0019402597269
-0.000231605922155
-0.00182000680704
-0.000228149838634
-0.0017015541093
-0.000224748459247
-0.00158485802509
-0.000221419154831
-0.00146987193833
-0.000218187537813
-0.00135653097567
-0.000215070111358
-0.00124476666473
-0.000212089762632
-0.00113449494315
-0.00020926140219
-0.00102562802516
-0.000206604347242
-0.000918065395479
-0.000204130589351
-0.000811703022864
-0.00020185383991
-0.000706426388114
-0.000199779497482
-0.000602114400781
-0.000197909162612
-0.000498623647893
-0.000196229969434
-0.000395752738722
-0.000194713369081
-0.000293109936092
-0.000193303818124
-0.000189541841999
-0.000191909255169
-8.15373228053e-05
-0.000189728922781
-0.000177222704321
-0.00039640055139
0.00113815347357
-0.000836833380896
0.00126098494199
-0.00127540808465
0.00125630771886
-0.00170760961566
0.00123867152199
-0.00213130862512
0.00121489983328
-0.00254463663367
0.00118574651055
-0.00294589061246
0.00115170636458
-0.00333355197782
0.0011133079258
-0.00370630159317
0.00107111088094
-0.0040630240581
0.00102568475513
-0.00440280622632
0.000977594503019
-0.0047249284897
0.000927383370918
-0.00502885327605
0.000875565042087
-0.00531420953804
0.000822612069037
-0.00558077649143
0.000768954868364
-0.00582846621139
0.000714975096982
-0.0060573065246
0.000661010357599
-0.00626742515981
0.000607350778819
-0.0064590341452
0.00055424761205
-0.00663241742943
0.000501911017058
-0.00678791768476
0.000450520827193
-0.00692592804924
0.000400223885125
-0.00704688118676
0.000351145745524
-0.00715124498765
0.000303386479021
-0.00723951314139
0.000257032663085
-0.00731220423765
0.00021215112392
-0.00736985291385
0.000168801043221
-0.00741301173214
0.000127025530081
-0.00744224202044
8.68639934211e-05
-0.00745811802556
4.83416669619e-05
-0.00746121689431
1.14824770538e-05
-0.00745212481133
-2.37028692134e-05
-0.00743142561822
-5.72030638377e-05
-0.00739970878541
-8.90203965286e-05
-0.00735755636625
-0.000119155624262
-0.00730555285613
-0.000147622947171
-0.00724427056574
-0.00017443381484
-0.00717428146177
-0.000199613332153
-0.00709614095276
-0.000223182690501
-0.00701040169276
-0.000245176726236
-0.00691759586528
-0.000265625046272
-0.00681825096536
-0.000284570704499
-0.00671287072834
-0.000302050118689
-0.00660195283546
-0.000318112796665
-0.00648596862288
-0.00033280016243
-0.006365382591
-0.000346166264312
-0.0062406310821
-0.000358255676481
-0.00611214339685
-0.000369125076168
-0.00598031961247
-0.000378820394848
-0.00584555305291
-0.000387399145654
-0.00570820747256
-0.000394907038006
-0.00556864056078
-0.000401400884807
-0.00542718069222
-0.000406924895399
-0.00528415111039
-0.000411533988274
-0.00513984649362
-0.000415270004056
-0.00499455742099
-0.000418185201681
-0.00484854697118
-0.000420318619621
-0.0047020750749
-0.000421719533991
-0.00455537540421
-0.000422424203415
-0.00440867921652
-0.000422479028423
-0.00426219275733
-0.000421917885616
-0.00411612024906
-0.000420784740579
-0.00397064206245
-0.000419111768239
-0.00382593654825
-0.000416941155183
-0.00368215919416
-0.000414304168375
-0.00353946307798
-0.000411241919239
-0.00339797924223
-0.000407785531223
-0.00325783561014
-0.000403975652902
-0.0031191387584
-0.000399843845768
-0.00298199121528
-0.000395430691292
-0.0028464748008
-0.000390768510201
-0.00271266627457
-0.000385897942702
-0.00258062234589
-0.000380852083909
-0.00245039369046
-0.000375671476375
-0.00232201170112
-0.00037038973043
-0.00219550091611
-0.000365046899804
-0.00207086751464
-0.000359676624333
-0.0019481102269
-0.000354317903258
-0.0018272105466
-0.000349003773364
-0.00170814220123
-0.00034377151105
-0.00159086300747
-0.000338652825563
-0.00147532299108
-0.000333682540975
-0.0013614577923
-0.000328890256243
-0.00124919551253
-0.00032430754902
-0.00113845152794
-0.000319961014019
-0.0010291340872
-0.000315878000559
-0.000921140247261
-0.000312080881524
-0.000814359844183
-0.000308591276439
-0.000708671373783
-0.000305425398889
-0.000603941690725
-0.000302597028385
-0.000500015472248
-0.000300115139617
-0.000396698337478
-0.000297990562531
-0.000293717767792
-0.000296246114302
-0.000190687289211
-0.0002949032256
-8.76631411099e-05
-0.000292717687952
-0.00026486869906
-0.000402603842915
0.00154075304098
-0.0008491529069
0.00170752987675
-0.00129382840375
0.00170097856356
-0.00173188771644
0.00167672624952
-0.00216106588444
0.00164407320666
-0.00257940378775
0.00160407957527
-0.00298514098541
0.00155743855434
-0.00337672660796
0.00150488844916
-0.00375282896328
0.00144720794165
-0.00411233787971
0.00138518825582
-0.0044543590761
0.00131961005635
-0.00477820358866
0.00125122209726
-0.00508337195076
0.00118072736524
-0.0053695368874
0.00110877080815
-0.00563652327703
0.00103593479272
-0.0058842895296
0.000962734718394
-0.00611290779702
0.000889621724898
-0.00632254760722
0.000816983525267
-0.00651345882359
0.000745151510943
-0.00668595922493
0.000674403952849
-0.00684042102327
0.000604974942244
-0.0069772626567
0.000537057716425
-0.00709693854319
0.000470813669102
-0.00719993452039
0.000406374420881
-0.0072867599539
0.000343849982001
-0.00735794592814
0.000283328972466
-0.00741403869187
0.000224885704821
-0.00745559972678
0.000168578531032
-0.00748319967126
0.000114456054554
-0.00749741963001
6.25539029064e-05
-0.00749884504807
1.2900466687e-05
-0.00748806761987
-3.44874577776e-05
-0.0074656787632
-7.95986234289e-05
-0.00743227245728
-0.000122433021965
-0.00738843814322
-0.000162995626904
-0.0073347641716
-0.000201302096392
-0.00727183008525
-0.000237372259461
-0.00720021088124
-0.000271236250681
-0.00712046885461
-0.000302927419701
-0.00703315868827
-0.00033248881083
-0.00693881894186
-0.000359965499322
-0.00683797802078
-0.00038541140835
-0.00673114539633
-0.000408881120121
-0.00661881846672
-0.000430437038949
-0.00650147358952
-0.000450140755763
-0.00637957380742
-0.000468060566872
-0.00625355975413
-0.000484262480481
-0.00612385817177
-0.00049881809103
-0.00599087274479
-0.000511795328623
-0.00585499330064
-0.000523266675948
-0.00571658661299
-0.000533299762835
-0.00557600613766
-0.000541965896234
-0.00543358282227
-0.000549330608903
-0.00528963520373
-0.000555462457062
-0.0051444602533
-0.00056042362666
-0.00499834363572
-0.000564278932574
-0.00485155061811
-0.000567086581598
-0.0047043362862
-0.000568907284206
-0.00455693654864
-0.00056979525715
-0.00440957810812
-0.0005698073332
-0.00426246960514
-0.000568994268997
-0.00411581116965
-0.000567409719695
-0.00396978576763
-0.000565101898044
-0.00382456819355
-0.000562122267645
-0.00368031670284
-0.000558517585974
-0.00353718135622
-0.000554338175415
-0.00339529604088
-0.000549630376111
-0.00325478612193
-0.000544444269713
-0.00311576096014
-0.000538826568854
-0.00297832086938
-0.000532827702116
-0.00284255023666
-0.00052649517176
-0.00270852380973
-0.000519879943436
-0.00257630050411
-0.000513030307907
-0.00244592906223
-0.000505997557919
-0.00231744260743
-0.000498830389727
-0.00219086371781
-0.000491579876799
-0.00206619975383
-0.000484294439728
-0.00194344738901
-0.000477024147262
-0.00182258871056
-0.00046981627173
-0.00170359524201
-0.000462718954477
-0.00158642479011
-0.000455777347742
-0.00147102498555
-0.000449036683063
-0.00135733082657
-0.000442538985018
-0.00124526774013
-0.00043632557256
-0.00113474971841
-0.000430434316277
-0.00102568183678
-0.000424901599481
-0.000917958744684
-0.000419760105218
-0.000811466289817
-0.000415040335328
-0.000706079672958
-0.000410769136082
-0.000601663022863
-0.000406971472236
-0.000498065534279
-0.00040367128882
-0.000395118769303
-0.00040089704871
-0.000292639839275
-0.000398686355019
-0.000190498741553
-0.000397007407083
-8.92354649807e-05
-0.000393945163692
-0.000354086758614
-0.000410601528604
0.00195135097375
-0.000865638825078
0.00216256300759
-0.00131857729717
0.00215391320004
-0.00176448272575
0.00212262757229
-0.00220095508268
0.00208054143371
-0.00262592990505
0.00202905012416
-0.00303757375958
0.00196907801987
-0.00343429375871
0.00190160391841
-0.00381474416505
0.00182765365899
-0.00417782500782
0.00174826423931
-0.00452267218376
0.00166445218274
-0.00484864219295
0.00157718685528
-0.00515529182326
0.00148737153182
-0.00544235638552
0.00139582967809
-0.00570972608633
0.00130329857616
-0.0059574240415
0.00121042650934
-0.00618558438761
0.00111777568125
-0.00639443385804
0.00102582635256
-0.00658427413829
0.000934984937475
-0.00675546843337
0.000845591150306
-0.00690842855729
0.000757927790241
-0.00704360630552
0.000672227973013
-0.00716148456829
0.000588684314518
-0.00726257249482
0.000507454563209
-0.00734739941828
0.000428669067827
-0.00741651256036
0.000352434180615
-0.00747047254143
0.000278837792296
-0.00750985252233
0.000207950613563
-0.00753523434114
0.000139830127521
-0.00754720833289
7.45202560195e-05
-0.00754636954163
1.20543197544e-05
-0.00753331755339
-4.75465660857e-05
-0.00750865274123
-0.000104270129293
-0.00747297631521
-0.000158115762663
-0.00742688613057
-0.000209091542916
-0.00737097705704
-0.000257216366739
-0.00730583653018
-0.000302517234155
-0.00723204522911
-0.000345031297016
-0.00715017260943
-0.00038480286066
-0.0070607779723
-0.000421885392827
-0.00696440608188
-0.00045633823435
-0.00686158869965
-0.000488228579445
-0.0067528403789
-0.000517627951931
-0.00663866050355
-0.000544614193421
-0.00651952931226
-0.000569267779131
-0.00639591044336
-0.000591673863753
-0.00626824722375
-0.000611918521478
-0.006136965686
-0.000630090889169
-0.00600247112153
-0.000646279408415
-0.00586515150825
-0.000660574104611
-0.00572537431842
-0.000673062909215
-0.00558349026678
-0.000683834097548
-0.00543983033242
-0.000692972757943
-0.00529470971847
-0.000700563408058
-0.00514842504163
-0.000706686671229
-0.00500125837502
-0.000711422068468
-0.00485347453651
-0.000714844937674
-0.00470532508417
-0.000717029385517
-0.00455704564391
-0.000718045463174
-0.00440885973345
-0.000717962227597
-0.00426097607005
-0.000716845153438
-0.00411359212856
-0.000714759235958
-0.00396689140533
-0.000711766595306
-0.00382104665111
-0.000707929529906
-0.00367621708966
-0.000703308250902
-0.00353255131424
-0.00069796379792
-0.0033901845034
-0.000691955845198
-0.00324924100595
-0.000685345398653
-0.0031098316139
-0.00067819262943
-0.00297205589049
-0.000670559300931
-0.00283599958319
-0.000662506615166
-0.00270173675569
-0.000654097343167
-0.00256932741525
-0.000645393696316
-0.00243881950569
-0.000636459165079
-0.0023102468169
-0.000627356451108
-0.00218363087681
-0.000618149033168
-0.00205897918439
-0.000608899204203
-0.00193628702226
-0.000599669394888
-0.00181553603636
-0.000590520358667
-0.00169669597195
-0.000581512279688
-0.00157972359869
-0.000572703137648
-0.00146456435945
-0.000564149624125
-0.00135115161817
-0.000555905707909
-0.00123940818825
-0.000548023378673
-0.00112924583177
-0.000540551428632
-0.00102056659823
-0.000533536058944
-0.000913262436161
-0.000527019931634
-0.000807216169663
-0.000521042772609
-0.000702301057718
-0.000515640958867
-0.000598381286226
-0.000510848652948
-0.000495311957486
-0.000506698866008
-0.000392942084275
-0.000503226269824
-0.000291125647514
-0.000500463799195
-0.00018977815128
-0.000498317568203
-8.94105148478e-05
-0.0004942765138
-0.000443479709409
-0.000420770943824
0.00237211885815
-0.000886833022102
0.00262862234922
-0.00135044922251
0.00261752606405
-0.00180644394637
0.00257861903875
-0.00225225428254
0.00252634830645
-0.00268568775299
0.00246248006119
-0.00310482226066
0.00238820884804
-0.00350801555697
0.00230479340435
-0.00389390939795
0.00221354351905
-0.00426142315899
0.00211577384963
-0.00460973822466
0.00201276288946
-0.00493827599148
0.00190572006288
-0.0052466714709
0.00179576220811
-0.0055347452967
0.00168389847762
-0.00580247545175
0.00157102343222
-0.00604997076292
0.0014579162852
-0.00627744649928
0.00134524559193
-0.0064852033322
0.00123357712307
-0.00667360915658
0.00112338440671
-0.00684308452095
0.00101505993904
-0.00699409061437
0.000908927032543
-0.00712712036307
0.000805250685195
-0.00724269127253
0.000704247950995
-0.00734134061512
0.000606096503733
-0.00742362143136
0.000510942308602
-0.00749010014805
0.000418905269898
-0.00754135418463
0.00033008411441
-0.00757797065627
0.000244559417643
-0.00760054446572
0.000162396292564
-0.00760967724329
8.36455536181e-05
-0.00760597541186
8.34516073463e-06
-0.00759004863613
-6.34803697853e-05
-0.00756250789102
-0.000131817601978
-0.00752396390681
-0.000196666027562
-0.00747502460986
-0.000258036658124
-0.00741629371365
-0.000315952473219
-0.00734836801044
-0.000370447507756
-0.00727183611034
-0.000421566989088
-0.00718727579781
-0.000469366138401
-0.00709525306574
-0.000513910133257
-0.00699631966683
-0.000555272619682
-0.00689101255267
-0.000593535543065
-0.00677985170373
-0.000628787432319
-0.00666334003594
-0.000661123176153
-0.00654196155495
-0.000690642162468
-0.00641618175086
-0.000717448082487
-0.00628644608356
-0.000741647007137
-0.00615318084974
-0.000763347295116
-0.00601679198232
-0.000782657684043
-0.00587766634556
-0.000799687367896
-0.00573617080638
-0.000814544172069
-0.00559265388516
-0.00082733485566
-0.0054474450397
-0.000838163435541
-0.0053008565745
-0.000847131756198
-0.00515318305749
-0.00085433801517
-0.00500470336724
-0.000859877623432
-0.00485568015228
-0.000863841966827
-0.00470636188545
-0.000866319547959
-0.00455698227448
-0.000867394987651
-0.00440776219506
-0.000867150400801
-0.00425890898067
-0.000865664606877
-0.00411061813176
-0.000863014653748
-0.00396307244535
-0.000859275175803
-0.00381644343793
-0.000854519950726
-0.00367089031884
-0.000848821327519
-0.00352656111612
-0.000842251694611
-0.00338359154113
-0.000834882902886
-0.00324210585184
-0.00082678753873
-0.00310221568633
-0.000818038289351
-0.00296402073252
-0.000808708952006
-0.00282760762133
-0.000798873719942
-0.00269305048387
-0.000788607904467
-0.00256040998666
-0.000777987152721
-0.00242973385195
-0.000767087902256
-0.00230105609558
-0.00075598656349
-0.00217439756621
-0.000744759754695
-0.00204976541809
-0.000733483490472
-0.00192715370188
-0.00072223325557
-0.00180654307894
-0.000711083237497
-0.0016879014742
-0.000700106293273
-0.00157118401882
-0.000689373253391
-0.00145633375697
-0.000678952825695
-0.00134328178644
-0.000668910989668
-0.00123194799283
-0.000659310873164
-0.00112224132869
-0.000650212258614
-0.0010140605383
-0.000641671480261
-0.000907294515488
-0.000633741101305
-0.000801822995424
-0.000626469944841
-0.000697517083219
-0.000619903118071
-0.000594240215293
-0.000614082462984
-0.000491849717545
-0.000609047226265
-0.000390200336016
-0.000604834586603
-0.000289153292268
-0.00060147136521
-0.000188616849066
-0.000598816314019
-8.90416402018e-05
-0.000593815106414
-0.000532503532593
-0.000433375412683
0.00280549217251
-0.000913167455684
0.00310841171799
-0.00139005429322
0.00309441067156
-0.00185854558548
0.00304710778529
-0.00231587080435
0.00298367097956
-0.00275968023012
0.00290628678151
-0.00318794598939
0.00281647179186
-0.00359897167357
0.0027158161186
-0.00399139249552
0.0026059612095
-0.00436416219814
0.00248854023006
-0.00471652917606
0.00236512634383
-0.00504800554778
0.00223719267762
-0.00535833218433
0.0021060848533
-0.00564744292965
0.00197300495784
-0.00591542987595
0.00183900585445
-0.00616251178221
0.00170499336108
-0.00638900607192
0.0015717347794
-0.00659530549963
0.0014398711227
-0.00678185881307
0.00130993202327
-0.00694915596322
0.00118235106527
-0.00709771653046
0.00105748132932
-0.00722808179739
0.000935609375843
-0.00734080881783
0.000816968192881
-0.00743646703957
0.000701747687208
-0.00751563570846
0.000590103803888
-0.00757890285971
0.000482165059903
-0.0076268641195
0.000378037968087
-0.00766012241918
0.000277810221249
-0.00767928689853
0.000181553343291
-0.00768497236603
8.93236239834e-05
-0.007677798017
1.16361387449e-06
-0.00765838590031
-8.28995107384e-05
-0.00762735895285
-0.000162851226306
-0.00758533983969
-0.000238691484855
-0.00753294820846
-0.000310434123064
-0.00747079903308
-0.000378106973767
-0.0073995000347
-0.000441751145015
-0.00731965003234
-0.000501420931222
-0.00723183649411
-0.000557182743245
-0.00713663411458
-0.000609114679534
-0.00703460266985
-0.00065730516546
-0.00692628594754
-0.000701852258797
-0.00681221001126
-0.000742862100898
-0.00669288254816
-0.000780448055101
-0.00656879159064
-0.000814729083226
-0.00644040529688
-0.000845828817873
-0.00630817113884
-0.000873873971549
-0.00617251609522
-0.000898993431046
-0.00603384628108
-0.00092131679149
-0.00589254750609
-0.000940973551
-0.00574898529927
-0.000958091852102
-0.00560350576121
-0.000972797845634
-0.00545643590854
-0.000985214710941
-0.00530808472445
-0.000995462252495
-0.00515874372384
-0.00100365625639
-0.00500868808366
-0.0010099083646
-0.00485817730409
-0.00101432579498
-0.00470745628982
-0.00101701150843
-0.0045567559771
-0.00101806427691
-0.00440629424466
-0.00101757911316
-0.00425627638726
-0.00101564761692
-0.00410689576934
-0.0010123585946
-0.00395833406375
-0.00100779856804
-0.00381076161304
-0.00100205247601
-0.00366433740128
-0.000995204203599
-0.00351920915033
-0.000987337249989
-0.00337551305063
-0.00097853514181
-0.00323337367176
-0.000968881968764
-0.00309290351967
-0.000958462579301
-0.00295420287082
-0.000947362925629
-0.0028173592521
-0.000935669996337
-0.00268244730775
-0.000923471958534
-0.00254952829645
-0.000910857839146
-0.00241865007611
-0.000897917493349
-0.00228984669765
-0.000884741090087
-0.00216313855456
-0.000871418957073
-0.0020385321238
-0.00085804094559
-0.00191602029159
-0.000844696206969
-0.00179558226527
-0.000831472509755
-0.0016771840599
-0.000818455991834
-0.00156077858265
-0.000805730487711
-0.00144630624996
-0.000793377288735
-0.00133369522899
-0.000781474522219
-0.00122286214811
-0.000770096944955
-0.00111371245966
-0.000759315410059
-0.00100614122385
-0.000749196728131
-0.00090003358298
-0.000739803272797
-0.000795265660323
-0.000731192976245
-0.000691705334038
-0.000723419162532
-0.000589213523798
-0.000716530745118
-0.000487645847726
-0.000710572248926
-0.000386855571495
-0.000705583345435
-0.000286699484624
-0.000701587640334
-0.000187069523347
-0.000698408135537
-8.83732661839e-05
-0.00069247425093
-0.000620858827427
-0.000448693840904
0.00325418462468
-0.000945177746242
0.00360489478013
-0.00143816491821
0.00358739630983
-0.00192176102612
0.00353070247828
-0.00239293449756
0.00345484281468
-0.00284914315181
0.0033624937356
-0.00328823615729
0.00325556295037
-0.003708461668
0.00313603964603
-0.00410846082918
0.00300595821179
-0.0044872447874
0.00286732184428
-0.00484415923002
0.00272203821745
-0.00517884122216
0.00257187187315
-0.00549117288809
0.00241841344604
-0.00578123548678
0.0022630642189
-0.00604926675236
0.00210703345891
-0.00629562305391
0.00195134570921
-0.00652074752869
0.0017968549411
-0.00672514412481
0.0016442630994
-0.00690935763519
0.00149414053548
-0.00707395876522
0.00134694689553
-0.00721953391279
0.00120305080184
-0.00734667837942
0.00106274789297
-0.00745599269132
0.000926276209563
-0.00754808072813
0.000793829206318
-0.0076235495106
0.000665565780566
-0.00768300946705
0.000541618065308
-0.00772707527217
0.000422096619952
-0.00775636628986
0.000307094042942
-0.00777150697326
0.000196686741808
-0.0077731264848
9.09359331251e-05
-0.00776185790957
-1.01121162518e-05
-0.00773833733908
-0.000106427008109
-0.00770320203667
-0.000197993250199
-0.00765708841037
-0.000284811443652
-0.0076006300006
-0.00036689848355
-0.00753445508399
-0.000444287274468
-0.00745918445953
-0.00051702657707
-0.00737542909705
-0.00058518034362
-0.0072837880475
-0.000648827057255
-0.0071848463806
-0.00070805865171
-0.00707917340779
-0.000762979437895
-0.00696732106414
-0.00081370473559
-0.00684982254741
-0.000860359519015
-0.00672719122158
-0.000903076906704
-0.00659991971042
-0.000941996660876
-0.00646847934335
-0.000977263671519
-0.00633331969474
-0.00100902642685
-0.00619486855381
-0.00103743560659
-0.00605353187364
-0.00106264262192
-0.00590969422007
-0.00108479841443
-0.00576371907214
-0.0011040521517
-0.00561594967805
-0.0011205503193
-0.00546670962663
-0.00113443565538
-0.00531630400636
-0.00114584661423
-0.00516502013758
-0.00115491661355
-0.00501312889595
-0.00116177392705
-0.0048608854729
-0.0011665412919
-0.00470853070001
-0.00116933624295
-0.00455629169626
-0.00117027107912
-0.00440438303031
-0.00116945358916
-0.0042530071352
-0.00116698731513
-0.00410235517703
-0.00116297255129
-0.00395260716563
-0.0011575067887
-0.00380393245841
-0.00115068581701
-0.00365648956388
-0.00114260420481
-0.00351042628465
-0.00113335631774
-0.0033658792801
-0.0011230366966
-0.00322297392124
-0.0011117408307
-0.00308182372564
-0.00109956533774
-0.0029425300437
-0.00108660839401
-0.00280518149706
-0.0010729696803
-0.00266985362624
-0.00105875044922
-0.00253660844662
-0.00104405326027
-0.00240549416774
-0.00102898173475
-0.00227654494133
-0.00101364014171
-0.00214978072342
-0.000998132932165
-0.00202520724579
-0.000982564249024
-0.00190281605046
-0.00096703734053
-0.00178258467985
-0.000951654057202
-0.00166447688235
-0.000936514228044
-0.00154844299695
-0.000921715187808
-0.00143442031037
-0.000907351175056
-0.0013223336033
-0.000893512917319
-0.0012120956341
-0.000880287090286
-0.00110360780816
-0.000867755983258
-0.000996760785027
-0.000855997051791
-0.000891435275776
-0.000845082691602
-0.000787502830216
-0.000835079914517
-0.000684826910342
-0.000826050247313
-0.000583264054792
-0.000818049519706
-0.000482665485658
-0.000811127719337
-0.000382879007526
-0.000805327830761
-0.000283753144946
-0.000800673134135
-0.00018516513715
-0.000796957619665
-8.7494369118e-05
-0.000790107570938
-0.000708334946846
-0.00046706437029
0.00372124886112
-0.000983546881459
0.00412137660913
-0.00149576994944
0.00409961925631
-0.00199733331498
0.00403226537336
-0.00248487917744
0.00394238823138
-0.00295563365291
0.00383324760437
-0.00340730661564
0.00370723520112
-0.0038380956243
0.00356682778976
-0.00424666961902
0.00341453117354
-0.00463213158456
0.00325278257797
-0.0049939666232
0.00308387180284
-0.0053319823122
0.00290988585046
-0.00564624724786
0.00273267639893
-0.00593703247306
0.00255384714159
-0.0062047588454
0.00237475721478
-0.0064499523149
0.00219653618714
-0.00667320753952
0.00202010682923
-0.00687515997032
0.00184621177734
-0.00705646528866
0.00167544174307
-0.00721778562834
0.00150826268842
-0.00735978087758
0.00134504115628
-0.00748310452593
0.00118606621822
-0.0075884022633
0.00103156831188
-0.00767631310116
0.000881734019047
-0.00774747131471
0.000736717720558
-0.00780250934394
0.000596649500685
-0.00784206014421
0.00046164066946
-0.00786675952614
0.000331786454686
-0.00787724724176
0.000207167448272
-0.00787416771758
8.78493092016e-05
-0.00785816912045
-2.61177113198e-05
-0.00782990339812
-0.000134699665308
-0.00779002365991
-0.000237879660845
-0.00773918249423
-0.000335659044277
-0.00767802938107
-0.000428057590289
-0.00760720841668
-0.00051511379942
-0.00752735551834
-0.000596884398584