/*--------------------------------*- C++ -*----------------------------------*\
| =========                 |                                                 |
| \\      /  F ield         | OpenFOAM: The Open Source CFD Toolbox           |
|  \\    /   O peration     | Version:  v1906                                 |
|   \\  /    A nd           | Web:      www.OpenFOAM.com                      |
|    \\/     M anipulation  |                                                 |
\*---------------------------------------------------------------------------*/
FoamFile
{
    version     2.0;
    format      ascii;
    class       volVectorField;
    location    "81";
    object      U;
}
// * * * * * * * * * * * * * * * * * * * * * * * * * * * * * * * * * * * * * //

dimensions      [0 1 -1 0 0 0 0];


internalField   nonuniform List<vector> 
9216
(
(-0.0937659160251 0.0938299185655 0)
(-0.0964292356105 0.291961731439 4.51325768709e-26)
(-0.095978307322 0.491522501285 -6.50400988455e-30)
(-0.094890908732 0.690465112585 0)
(-0.0934045070183 0.886655092352 0)
(-0.0915561497553 1.07940075412 0)
(-0.0893783800717 1.26798883311 0)
(-0.0868999335922 1.45176220305 0)
(-0.0841496565398 1.63012236381 0)
(-0.0811574210281 1.80253114773 0)
(-0.0779538077697 1.96851289564 0)
(-0.074569812433 2.12765577063 0)
(-0.0710361613158 2.27961207526 0)
(-0.0673829987322 2.42409741508 0)
(-0.0636392641379 2.56088895703 0)
(-0.0598325283695 2.68982277946 0)
(-0.0559885044804 2.81079060692 0)
(-0.0521310536942 2.92373596297 0)
(-0.0482818296966 3.02865001441 0)
(-0.0444604343872 3.12556713802 0)
(-0.0406841700839 3.2145604388 0)
(-0.0369683098223 3.29573723255 0)
(-0.033325924089 3.36923466906 0)
(-0.0297682281774 3.43521548755 0)
(-0.0263044509743 3.49386403047 0)
(-0.0229422267486 3.54538248932 0)
(-0.0196874804 3.58998746561 0)
(-0.0165448394842 3.62790681074 0)
(-0.0135175210056 3.65937679676 0)
(-0.0106077570493 3.68463958531 0)
(-0.00781670342615 3.70394104574 0)
(-0.00514496401376 3.71752894342 0)
(-0.00259286848835 3.7256522114 0)
(-0.000162512741334 3.72855427328 0)
(0.00215190415833 3.72650249603 0)
(0.00435814349218 3.71971345258 0)
(0.00645668914993 3.7084191718 0)
(0.00844861468101 3.6928463448 0)
(0.010336384185 3.67321641398 0)
(0.0121228820936 3.64974495746 0)
(0.013811402676 3.6226409434 0)
(0.0154052502301 3.59210635451 0)
(0.0169079481188 3.55833597319 0)
(0.0183229201874 3.5215172753 0)
(0.0196537341585 3.48183038114 0)
(0.0209038053703 3.43944807717 0)
(0.0220766486429 3.3945358633 0)
(0.0231755947038 3.34725205516 0)
(0.0242040444761 3.29774789283 0)
(0.0251651960294 3.24616769528 0)
(0.0260622981708 3.19264900677 0)
(0.0268983873151 3.13732278317 0)
(0.0276765382294 3.08031355948 0)
(0.0283996104065 3.02173965388 0)
(0.029070494021 2.96171334419 0)
(0.0296918658289 2.90034107937 0)
(0.0302664288721 2.83772365704 0)
(0.0307966778834 2.77395643565 0)
(0.031285131357 2.70912950768 0)
(0.0317341067462 2.64332790777 0)
(0.0321459438841 2.57663177859 0)
(0.0325227901578 2.50911657256 0)
(0.0328668142925 2.44085320844 0)
(0.0331800019097 2.37190826517 0)
(0.0334643589693 2.30234412881 0)
(0.0337217179884 2.23221917815 0)
(0.03395393043 2.16158792203 0)
(0.0341626840296 2.09050117673 0)
(0.0343496836242 2.01900619444 0)
(0.0345164799008 1.94714683322 0)
(0.0346646381356 1.87496367722 0)
(0.0347955788068 1.80249419992 0)
(0.0349107338631 1.72977287738 0)
(0.0350113995148 1.65683134568 0)
(0.0350988796313 1.58369850814 0)
(0.0351743511026 1.51040068777 0)
(0.0352389940887 1.43696172966 0)
(0.0352938702019 1.36340314945 0)
(0.0353400393437 1.28974423176 0)
(0.0353784509575 1.21600217537 0)
(0.0354100472951 1.14219218901 0)
(0.0354356677919 1.06832763399 0)
(0.0354561385671 0.994420118526 0)
(0.0354721897853 0.920479639189 0)
(0.0354845308375 0.846514675724 0)
(0.0354937796194 0.772532334966 0)
(0.0355005205989 0.698538452709 0)
(0.0355052395869 0.62453775458 0)
(0.0355083475092 0.550533999241 0)
(0.0355100750549 0.47653023795 0)
(0.0355103295417 0.402529247487 0)
(0.0355081890506 0.328534325039 0)
(0.0354999495701 0.254553251136 0)
(0.0354807286901 0.180564111776 0)
(0.0353778385605 0.107049526457 0)
(0.034324649094 0.0343248046088 0)
(-0.292323935263 0.097072586582 0)
(-0.308623849218 0.310091426523 0)
(-0.307111133581 0.522276232552 -4.56905366603e-26)
(-0.303594720489 0.733946219352 0)
(-0.298839920954 0.942525193351 0)
(-0.292959055887 1.14738369066 0)
(-0.286034318486 1.34778953537 0)
(-0.278150108786 1.54305185747 0)
(-0.269395799514 1.7325369212 0)
(-0.259865397877 1.91567380516 0)
(-0.249655867586 2.09195792215 0)
(-0.238865607368 2.26095282871 0)
(-0.227592466605 2.42229061567 0)
(-0.215932393895 2.57567101006 0)
(-0.203977770178 2.72085942604 0)
(-0.191816527024 2.85768408271 0)
(-0.179530942522 2.98603242626 0)
(-0.167197273053 3.10584698061 0)
(-0.154884999298 3.21712084393 0)
(-0.142656908861 3.31989293708 0)
(-0.130568708013 3.41424318141 0)
(-0.118669449003 3.50028767994 0)
(-0.107001398195 3.57817403278 0)
(-0.095600693162 3.64807682665 0)
(-0.0844973624063 3.7101933855 0)
(-0.0737161114975 3.7647397928 0)
(-0.0632764094532 3.81194723613 0)
(-0.053193327768 3.85205866332 0)
(-0.043477636496 3.88532577145 0)
(-0.0341366544992 3.91200629886 0)
(-0.0251743459127 3.93236159863 0)
(-0.0165922269788 3.94665438934 0)
(-0.00838961698104 3.95514603996 0)
(-0.000565560597896 3.95809839207 0)
(0.00688847937463 3.95574675422 0)
(0.0139831806552 3.94836402348 0)
(0.0207249594864 3.93620196266 0)
(0.0271213288373 3.91950489684 0)
(0.0331815191502 3.89850970082 0)
(0.0389154763619 3.87344581371 0)
(0.0443339156173 3.84453522462 0)
(0.0494477194549 3.81199232711 0)
(0.0542681804393 3.77602377951 0)
(0.0588064977311 3.73682842909 0)
(0.0630740754704 3.69459728084 0)
(0.0670820643833 3.6495135283 0)
(0.0708416861815 3.60175261467 0)
(0.0743638059045 3.55148234257 0)
(0.0776592710179 3.4988629986 0)
(0.0807385084052 3.44404751516 0)
(0.0836118709316 3.38718163494 0)
(0.0862892555084 3.32840410429 0)
(0.0887804516907 3.26784686017 0)
(0.091094778222 3.2056352403 0)
(0.0932414291847 3.14188818011 0)
(0.095229127387 3.07671842912 0)
(0.0970664645578 3.01023274954 0)
(0.09876157041 2.9425321318 0)
(0.100322443944 2.87371198912 0)
(0.101756637632 2.80386236781 0)
(0.103071577581 2.73306813442 0)
(0.104274262511 2.66140917819 0)
(0.105371570874 2.58896058906 0)
(0.106369974695 2.51579285091 0)
(0.107275832223 2.44197200981 0)
(0.108095116768 2.36755985784 0)
(0.108833693654 2.29261409163 0)
(0.10949706445 2.21718848701 0)
(0.110090627299 2.14133304851 0)
(0.110619436929 2.06509417559 0)
(0.111088447534 1.98851480395 0)
(0.111502289111 1.91163456425 0)
(0.111865492269 1.8344899163 0)
(0.112182281368 1.75711430132 0)
(0.112456780698 1.67953827011 0)
(0.112692824974 1.6017896298 0)
(0.112894146457 1.52389356711 0)
(0.113064203239 1.44587279064 0)
(0.113206346949 1.3677476502 0)
(0.113323669188 1.2895362755 0)
(0.113419149568 1.21125469258 0)
(0.113495520386 1.13291695983 0)
(0.113555394604 1.05453528253 0)
(0.113601148377 0.976120147121 0)
(0.113635027761 0.897680435057 0)
(0.113659046842 0.819223556788 0)
(0.113675067757 0.740755566004 0)
(0.113684703072 0.662281293273 0)
(0.113689342175 0.583804454346 0)
(0.113689994599 0.505327747582 0)
(0.113687106486 0.426852868917 0)
(0.113679971083 0.348379834386 0)
(0.113665045214 0.269907294709 0)
(0.113628677952 0.191369755174 0)
(0.113352213641 0.113396817033 0)
(0.107074314278 0.035401067065 0)
(-0.494458848708 0.0980931367784 0)
(-0.522263007019 0.313221341691 0)
(-0.519312326636 0.527158911728 -4.53983843191e-26)
(-0.513235918811 0.740753365799 0)
(-0.50513807979 0.951197606558 0)
(-0.495157571627 1.15783294508 0)
(-0.483416256405 1.35990726061 0)
(-0.470051390565 1.55671705114 0)
(-0.455213087421 1.74761922784 0)
(-0.439060775927 1.93203625047 0)
(-0.421759575739 2.10945956764 0)
(-0.403477009953 2.27945134706 0)
(-0.384379770186 2.44164466986 0)
(-0.364631020964 2.59574238059 0)
(-0.344387884098 2.74151481733 0)
(-0.32379957776 2.87879660622 0)
(-0.303005755919 3.00748274037 0)
(-0.282135512519 3.12752411908 0)
(-0.261306524762 3.23892274213 0)
(-0.240624805855 3.3417267038 0)
(-0.220184494359 3.43602513896 0)
(-0.200068169398 3.52194322346 0)
(-0.180347091701 3.59963733374 0)
(-0.161081885785 3.66929042649 0)
(-0.142323048766 3.73110770051 0)
(-0.12411182971 3.78531256703 0)
(-0.106480857719 3.83214295719 0)
(-0.0894550895598 3.87184796735 0)
(-0.0730524510091 3.90468484648 0)
(-0.0572847642707 3.93091630822 0)
(-0.0421583267155 3.95080815155 0)
(-0.0276747259889 3.96462716861 0)
(-0.0138311598961 3.9726392597 0)
(-0.000620331368828 3.97510858545 0)
(0.0119661636975 3.97229721167 0)
(0.0239375076844 3.96445872242 0)
(0.03530812393 3.95184359831 0)
(0.0460936258855 3.93469639173 0)
(0.0563106041179 3.91325478906 0)
(0.0659764631115 3.88774919389 0)
(0.0751094027835 3.85840246485 0)
(0.0837280497049 3.8254297172 0)
(0.0918514235522 3.78903819194 0)
(0.0994986111746 3.749427192 0)
(0.106688782973 3.70678807323 0)
(0.113440918201 3.66130428661 0)
(0.11977386414 3.61315145861 0)
(0.125706102766 3.56249750793 0)
(0.131255841443 3.50950278618 0)
(0.136440811571 3.45432024318 0)
(0.141278381365 3.39709560499 0)
(0.145785379118 3.33796756801 0)
(0.149978220574 3.27706799766 0)
(0.153872751106 3.21452213703 0)
(0.157484381775 3.15044881414 0)
(0.160827946155 3.08496065515 0)
(0.16391784048 3.0181642922 0)
(0.166767891935 2.9501605745 0)
(0.169391499353 2.88104477138 0)
(0.171801510712 2.81090677714 0)
(0.17401036171 2.73983130619 0)
(0.176029960881 2.66789808931 0)
(0.177871824034 2.59518205924 0)
(0.17954696598 2.52175353731 0)
(0.181066029362 2.44767840899 0)
(0.182439182363 2.37301830068 0)
(0.183676240847 2.29783074552 0)
(0.184786571762 2.22216935071 0)
(0.185779207832 2.14608395418 0)
(0.186662756563 2.06962078346 0)
(0.187445506943 1.99282260402 0)
(0.18813534415 1.91572887061 0)
(0.188739847901 1.8383758685 0)
(0.189266213034 1.76079685831 0)
(0.189721339263 1.68302221126 0)
(0.190111757891 1.60507954853 0)
(0.19044371282 1.52699387156 0)
(0.190723093648 1.44878769708 0)
(0.190955507823 1.37048118336 0)
(0.191146220342 1.29209226179 0)
(0.191300216958 1.21363676003 0)
(0.191422150511 1.13512853093 0)
(0.191516394914 1.05657957333 0)
(0.191586997739 0.978000158885 0)
(0.191637723986 0.899398950791 0)
(0.191672013219 0.820783128018 0)
(0.19169300971 0.742158499824 0)
(0.191703518445 0.663529620971 0)
(0.191706012287 0.584899885574 0)
(0.191702575869 0.506271588613 0)
(0.191694890427 0.427645949013 0)
(0.1916842497 0.349022573269 0)
(0.191671621598 0.270401658346 0)
(0.191651931293 0.191721263854 0)
(0.191328579916 0.113690379119 0)
(0.180638146376 0.0355072873438 0)
(-0.699825569643 0.0992916424541 0)
(-0.739453026002 0.316987622994 0)
(-0.735227372931 0.533375923325 4.50561844793e-26)
(-0.726539582168 0.749404494982 0)
(-0.714972818886 0.962184126128 0)
(-0.700730486402 1.17102664347 0)
(-0.683986812614 1.37515363147 0)
(-0.66493819821 1.57384246567 0)
(-0.643800082105 1.76643612334 0)
(-0.620801459797 1.95234777683 0)
(-0.596179469967 2.13106392903 0)
(-0.570174380473 2.30214583092 0)
(-0.543024950988 2.46522927892 0)
(-0.514964412164 2.62002300262 0)
(-0.4862169806 2.76630587795 0)
(-0.456995098449 2.903923193 0)
(-0.427497234723 3.03278219999 0)
(-0.397906387571 3.15284716282 0)
(-0.36838906451 3.26413409894 0)
(-0.3390948551 3.36670538064 0)
(-0.310156341907 3.46066434305 0)
(-0.281689462741 3.54615001147 0)
(-0.253794061147 3.62333204209 0)
(-0.226554751646 3.69240594073 0)
(-0.200041841263 3.75358860862 0)
(-0.174312454087 3.80711424197 0)
(-0.149411610552 3.85323060127 0)
(-0.125373428955 3.89219565039 0)
(-0.102222211387 3.92427455976 0)
(-0.0799735984806 3.94973705727 0)
(-0.0586355605907 3.96885510904 0)
(-0.0382094183962 3.98190092562 0)
(-0.0186906226639 3.98914515959 0)
(-6.99503257715e-05 3.99085557587 0)
(0.0176665485257 3.98729997603 0)
(0.0345344324032 3.97873192628 0)
(0.0505534623883 3.9654046491 0)
(0.0657456221129 3.94756419332 0)
(0.0801345604307 3.92544946956 0)
(0.0937452096284 3.8992918837 0)
(0.106603503904 3.86931503221 0)
(0.118736016739 3.83573452149 0)
(0.130169746964 3.79875786933 0)
(0.140931834973 3.75858447201 0)
(0.151049423084 3.71540562556 0)
(0.160549440672 3.6694045934 0)
(0.16945852508 3.62075671086 0)
(0.177802861208 3.56962952101 0)
(0.18560814844 3.5161829338 0)
(0.192899481506 3.46056940502 0)
(0.199701351107 3.40293412833 0)
(0.206037555373 3.34341523875 0)
(0.211931224357 3.28214402176 0)
(0.217404753664 3.21924512792 0)
(0.222479845072 3.15483678798 0)
(0.227177455919 3.08903102939 0)
(0.231517849956 3.02193388995 0)
(0.235520557592 2.95364563028 0)
(0.239204432496 2.88426094118 0)
(0.242587619159 2.81386914838 0)
(0.245687611948 2.74255441095 0)
(0.248521227395 2.67039591642 0)
(0.251104663284 2.59746806884 0)
(0.25345347393 2.52384067357 0)
(0.255582627614 2.44957911482 0)
(0.257506483645 2.37474453006 0)
(0.259238846984 2.29939397753 0)
(0.260792946403 2.22358060085 0)
(0.262181485545 2.14735378725 0)
(0.263416621774 2.0707593235 0)
(0.26451001322 1.99383954575 0)
(0.265472798202 1.91663348785 0)
(0.266315638017 1.83917702411 0)
(0.267048696954 1.76150301102 0)
(0.267681680725 1.68364142409 0)
(0.268223817231 1.60561949417 0)
(0.268683890648 1.52746183932 0)
(0.269070223109 1.44919059687 0)
(0.269390704504 1.37082555129 0)
(0.269652775276 1.29238426282 0)
(0.26986345198 1.21388219226 0)
(0.270029311284 1.13533282682 0)
(0.270156511208 1.05674780244 0)
(0.270250776204 0.978137027157 0)
(0.270317413694 0.899508800788 0)
(0.270361299691 0.820869934778 0)
(0.270386889895 0.742225866453 0)
(0.270398205801 0.663580769356 0)
(0.270398842985 0.584937650456 0)
(0.270391969965 0.506298425608 0)
(0.270380372906 0.427664015754 0)
(0.270366574146 0.34903400124 0)
(0.270352808932 0.270409682422 0)
(0.270330383646 0.191730669483 0)
(0.269876486384 0.113721085287 0)
(0.25468314745 0.0355246661195 0)
(-0.907999191847 0.100876087022 0)
(-0.959436376251 0.322021048234 0)
(-0.953885318566 0.541792378746 0)
(-0.942487584527 0.761122056587 0)
(-0.927315378944 0.977056925068 0)
(-0.908643315273 1.18887513655 0)
(-0.886704681188 1.39576525538 0)
(-0.861761103173 1.59697903511 0)
(-0.834098979561 1.79184055664 0)
(-0.8040221984 1.97975054573 0)
(-0.771844868899 2.16018915874 0)
(-0.737884528652 2.33271692529 0)
(-0.702455972321 2.49697394701 0)
(-0.665865883103 2.65267759642 0)
(-0.628408300956 2.79961898545 0)
(-0.590361010539 2.93765847494 0)
(-0.551982782695 3.06672048988 0)
(-0.513511474443 3.18678788105 0)
(-0.475162855317 3.29789604789 0)
(-0.43713012501 3.40012700302 0)
(-0.399583962391 3.49360352775 0)
(-0.3626730638 3.57848353394 0)
(-0.326525010984 3.65495471975 0)
(-0.291247440176 3.72322957891 0)
(-0.256929368237 3.78354080252 0)
(-0.223642669909 3.83613709213 0)
(-0.191443582731 3.88127938954 0)
(-0.160374257004 3.91923751584 0)
(-0.130464246614 3.95028720502 0)
(-0.101731977519 3.97470751091 0)
(-0.0741861039022 3.99277856166 0)
(-0.0478268072963 4.00477967834 0)
(-0.0226468954519 4.01098729358 0)
(0.00136635936472 4.01167517336 0)
(0.0242325543106 4.0071141659 0)
(0.0459734320098 3.99756156592 0)
(0.0666150621002 3.98327374776 0)
(0.0861864563369 3.96449906088 0)
(0.104718799607 3.94147812738 0)
(0.122244900825 3.91444363923 0)
(0.138798754314 3.883620104 0)
(0.154415127017 3.8492237111 0)
(0.169129236779 3.81146227976 0)
(0.182976447221 3.7705352686 0)
(0.195992043123 3.72663383591 0)
(0.20821101262 3.6799409416 0)
(0.219667899719 3.63063148244 0)
(0.230396654524 3.57887245408 0)
(0.24043054452 3.5248231334 0)
(0.249802055963 3.46863527683 0)
(0.258542848524 3.41045332947 0)
(0.26668369411 3.35041464227 0)
(0.274254462529 3.28864969353 0)
(0.281284086911 3.22528231284 0)
(0.28780057078 3.16042990482 0)
(0.293830971752 3.09420367172 0)
(0.299401422641 3.02670883281 0)
(0.304537127177 2.95804484049 0)
(0.309262389627 2.88830559136 0)
(0.313600617894 2.81757963268 0)
(0.317574357624 2.74595036305 0)
(0.321205299327 2.67349622793 0)
(0.324514314092 2.60029090891 0)
(0.327521462404 2.526403508 0)
(0.330246029451 2.45189872563 0)
(0.332706534071 2.37683703402 0)
(0.334920762327 2.30127484465 0)
(0.336905775613 2.22526467145 0)
(0.338677941661 2.14885528881 0)
(0.340252941246 2.07209188576 0)
(0.341645796183 1.99501621558 0)
(0.342870874393 1.91766674224 0)
(0.343941914686 1.84007878284 0)
(0.344872030168 1.76228464761 0)
(0.345673729808 1.68431377633 0)
(0.346358920296 1.60619287295 0)
(0.346938924506 1.5279460373 0)
(0.347424482011 1.44959489535 0)
(0.347825764592 1.37115872707 0)
(0.348152375657 1.29265459332 0)
(0.348413362983 1.2140974607 0)
(0.348617217223 1.13550032572 0)
(0.348771882062 1.05687433708 0)
(0.348884751992 0.97822891746 0)
(0.348962680072 0.899571883171 0)
(0.349011975438 0.820909562622 0)
(0.349038409695 0.742246911615 0)
(0.349047216905 0.663587625571 0)
(0.349043105221 0.584934246352 0)
(0.349030274594 0.506288260441 0)
(0.349012465418 0.427650252429 0)
(0.348993045299 0.349019654652 0)
(0.348974714956 0.270398123508 0)
(0.348944618671 0.191725251117 0)
(0.348354165732 0.113725403804 0)
(0.328714626116 0.0355296314278 0)
(-1.1199227052 0.10288085001 0)
(-1.18331667748 0.32842323987 0)
(-1.17635839735 0.552530241836 0)
(-1.16210970869 0.776078065714 0)
(-1.14314530859 0.996035520634 0)
(-1.11981716831 1.21163945553 0)
(-1.09242473531 1.42203782972 0)
(-1.06130233862 1.62645030705 0)
(-1.02681478915 1.82417732808 0)
(-0.989348068697 2.01460434113 0)
(-0.949299991463 2.19720420349 0)
(-0.907071475555 2.37153748528 0)
(-0.863058690613 2.53725084054 0)
(-0.817646275764 2.69407375571 0)
(-0.771201710455 2.84181400596 0)
(-0.724070880014 2.98035214829 0)
(-0.676574785157 3.10963536136 0)
(-0.629007332393 3.22967090874 0)
(-0.581634076255 3.34051946303 0)
(-0.53469180122 3.44228848501 0)
(-0.488388787833 3.53512581085 0)
(-0.442905645698 3.61921356089 0)
(-0.39839656637 3.69476244946 0)
(-0.354990899092 3.76200654559 0)
(-0.31279492814 3.82119851058 0)
(-0.271893784701 3.87260531883 0)
(-0.232353401912 3.91650445435 0)
(-0.19422247557 3.95318056406 0)
(-0.157534365739 3.98292254223 0)
(-0.122308925985 4.00602101624 0)
(-0.0885542153286 4.02276619639 0)
(-0.0562681033837 4.03344613544 0)
(-0.0254396412973 4.03834423925 0)
(0.00394884414708 4.03774198876 0)
(0.0319229501392 4.03191362472 0)
(0.0585111563364 4.02112111711 0)
(0.0837468324417 4.00562452828 0)
(0.107666701496 3.98567495437 0)
(0.130310025685 3.96151509205 0)
(0.151717941566 3.93337915456 0)
(0.17193290557 3.90149269599 0)
(0.190998212045 3.8660725461 0)
(0.208957593628 3.82732681946 0)
(0.225854874594 3.78545497937 0)
(0.241733690984 3.74064794664 0)
(0.256637249936 3.6930882442 0)
(0.270608142927 3.64295016975 0)
(0.283688186464 3.59039999024 0)
(0.295918305736 3.53559615229 0)
(0.307338436018 3.47868950435 0)
(0.317987458088 3.41982352636 0)
(0.327903143712 3.359134564 0)
(0.337122127997 3.29675206465 0)
(0.345679885887 3.23279881314 0)
(0.353610729969 3.16739116539 0)
(0.360947807946 3.10063927872 0)
(0.367723117147 3.03264733773 0)
(0.373967515457 2.96351377507 0)
(0.379710745992 2.89333148637 0)
(0.384981455949 2.8221880393 0)
(0.3898072267 2.75016587617 0)
(0.39421459656 2.67734251045 0)
(0.398229092932 2.6037907168 0)
(0.401875256216 2.52957871512 0)
(0.405176671697 2.45477034855 0)
(0.408155992731 2.37942525588 0)
(0.410834970868 2.30359903837 0)
(0.413234477155 2.22734342172 0)
(0.415374529588 2.150706413 0)
(0.417274311882 2.07373245339 0)
(0.418952197763 1.99646256658 0)
(0.420425766944 1.91893450373 0)
(0.421711826098 1.84118288467 0)
(0.422826422 1.76323933631 0)
(0.423784859242 1.68513262803 0)
(0.424601710696 1.60688880479 0)
(0.425290832158 1.5285313178 0)
(0.425865370381 1.45008115346 0)
(0.426337774915 1.37155696029 0)
(0.42671980403 1.29297517464 0)
(0.427022534054 1.21435014475 0)
(0.427256363526 1.13569425382 0)
(0.427431020391 1.05701804177 0)
(0.427555564825 0.978330326092 0)
(0.427638394878 0.899638321338 0)
(0.427687248911 0.820947757555 0)
(0.427709211351 0.742262997077 0)
(0.427710717843 0.663587150036 0)
(0.427697566766 0.584922189391 0)
(0.427674936945 0.50626906376 0)
(0.427647419343 0.42762787622 0)
(0.427619050068 0.348997652115 0)
(0.427592786774 0.270379820083 0)
(0.427551847936 0.191713104881 0)
(0.426822926498 0.113719118041 0)
(0.402751429908 0.0355276454587 0)
(-1.33651015169 0.105343083032 0)
(-1.41207700612 0.336289888684 0)
(-1.40360040237 0.565730370516 4.42565179547e-26)
(-1.38631401143 0.794463183537 0)
(-1.36331448882 1.01935684305 0)
(-1.33503887102 1.23959643367 0)
(-1.30186128119 1.45428028985 0)
(-1.26419804483 1.66258902907 0)
(-1.22250187912 1.86379473377 0)
(-1.17725010305 2.05726511132 0)
(-1.12893287586 2.2424653881 0)
(-1.07804227709 2.41895774478 0)
(-1.02506258982 2.58639856653 0)
(-0.970462011573 2.74453391883 0)
(-0.914685893332 2.89319366833 0)
(-0.858151519633 3.03228465414 0)
(-0.801244355889 3.1617832785 0)
(-0.744315643643 3.28172783612 0)
(-0.687681178441 3.39221084577 0)
(-0.631621097484 3.49337159124 0)
(-0.576380489346 3.58538902596 0)
(-0.522170655438 3.66847514823 0)
(-0.469170855553 3.74286891428 0)
(-0.417530399071 3.80883072319 0)
(-0.367370952274 3.86663748245 0)
(-0.318788964222 3.91657824349 0)
(-0.271858121734 3.95895038244 0)
(-0.226631773801 3.99405629272 0)
(-0.183145269865 4.02220054997 0)
(-0.14141818204 4.04368750868 0)
(-0.101456379648 4.05881928036 0)
(-0.0632539516351 4.06789418098 0)
(-0.0267948247303 4.07120370794 0)
(0.00794519850474 4.06903888325 0)
(0.0409981733284 4.06167679332 0)
(0.0724004341666 4.04938562989 0)
(0.102193553403 4.03242944554 0)
(0.130422742691 4.01106239438 0)
(0.15713600307 3.98552949833 0)
(0.182383357799 3.95606664143 0)
(0.206216205884 3.92290048872 0)
(0.228686773244 3.88624850582 0)
(0.24984765191 3.84631904187 0)
(0.269751410858 3.80331145889 0)
(0.288450275835 3.757416298 0)
(0.305995863784 3.70881547453 0)
(0.322438970644 3.6576824946 0)
(0.337829399556 3.6041826875 0)
(0.352215829572 3.54847344889 0)
(0.365645713265 3.49070449072 0)
(0.378165204511 3.43101809456 0)
(0.389819106083 3.36954936565 0)
(0.400650839291 3.30642648545 0)
(0.410702426425 3.24177096101 0)
(0.420014488995 3.17569786967 0)
(0.428626253465 3.10831609839 0)
(0.436575568072 3.03972857665 0)
(0.443898923187 2.97003250259 0)
(0.450631479281 2.89931956211 0)
(0.4568070956 2.82767614072 0)
(0.462458363876 2.75518352814 0)
(0.467616640773 2.68191811582 0)
(0.472312083573 2.60795158748 0)
(0.476573683255 2.53335110296 0)
(0.480429299564 2.45817947569 0)
(0.483905692663 2.38249534411 0)
(0.487028555929 2.30635333741 0)
(0.489822544896 2.22980423597 0)
(0.492311306805 2.15289512683 0)
(0.494517506146 2.07566955477 0)
(0.496462850483 1.99816766906 0)
(0.498168112317 1.92042636661 0)
(0.49965315108 1.84247943161 0)
(0.500936931325 1.76435767218 0)
(0.502037540994 1.68608905421 0)
(0.502972206165 1.60769883286 0)
(0.503757305866 1.52920968184 0)
(0.5044083837 1.45064182087 0)
(0.50494015958 1.37201314145 0)
(0.505366538633 1.29333933121 0)
(0.505700620278 1.21463399703 0)
(0.505954704886 1.13590878701 0)
(0.506140300697 1.05717351152 0)
(0.506268128837 0.978436263341 0)
(0.506348128847 0.899703536966 0)
(0.506389463103 0.820980347183 0)
(0.50640052251 0.74227034709 0)
(0.506388932669 0.663575946069 0)
(0.506361563075 0.584898429198 0)
(0.506324539252 0.506238076087 0)
(0.506283258003 0.427594346142 0)
(0.506242384261 0.348965631659 0)
(0.506205170339 0.27035279947 0)
(0.506151260062 0.191693400432 0)
(0.505283405257 0.113705827982 0)
(0.476784742173 0.0355223661824 0)
(-1.55875140951 0.108299586331 0)
(-1.64676284269 0.345731820739 0)
(-1.63662956393 0.581570567254 -4.38941786482e-26)
(-1.61607067845 0.816518998782 0)
(-1.58873126786 1.04731970895 0)
(-1.55514402342 1.27309355855 0)
(-1.51576870593 1.49287888977 0)
(-1.47111542854 1.70580972873 0)
(-1.42173681997 1.91112509746 0)
(-1.36821317448 2.10817298456 0)
(-1.31113780022 2.29641149536 0)
(-1.25110356911 2.47540708418 0)
(-1.18869111465 2.64483029249 0)
(-1.12445892964 2.80444954153 0)
(-1.05893545875 2.95412351978 0)
(-0.992613158526 3.09379266835 0)
(-0.925944399412 3.22347020613 0)
(-0.85933902286 3.34323306307 0)
(-0.793163326473 3.45321301225 0)
(-0.727740238361 3.5535882176 0)
(-0.663350441342 3.64457534747 0)
(-0.60023422554 3.72642234776 0)
(-0.538593867141 3.79940192209 0)
(-0.47859636081 3.86380573072 0)
(-0.420376357754 3.91993929345 0)
(-0.364039191891 3.96811756275 0)
(-0.309663898281 4.00866112166 0)
(-0.257306153881 4.04189295375 0)
(-0.207001086622 4.06813572969 0)
(-0.158765918549 4.08770955666 0)
(-0.112602417529 4.10093012723 0)
(-0.0684991476984 4.10810740762 0)
(-0.0264333428385 4.10954200107 0)
(0.0136276692869 4.10553622155 0)
(0.0517228210006 4.09636901333 0)
(0.0878977603999 4.0823164642 0)
(0.122203284169 4.06364675792 0)
(0.154693962408 4.04061730196 0)
(0.185427288661 4.01347558633 0)
(0.214462816969 3.98245921938 0)
(0.241861438463 3.94779595748 0)
(0.267684774167 3.90970382341 0)
(0.29199466544 3.8683912748 0)
(0.314852748635 3.82405740868 0)
(0.33632010536 3.77689219381 0)
(0.356456976878 3.72707672328 0)
(0.375322535753 3.67478348098 0)
(0.392974705134 3.62017661688 0)
(0.40947002048 3.56341222703 0)
(0.424863525737 3.50463863463 0)
(0.439208700244 3.44399666977 0)
(0.452557409771 3.38161994551 0)
(0.464959879187 3.3176351287 0)
(0.476464681321 3.25216220432 0)
(0.487118740538 3.1853147324 0)
(0.496967346523 3.11720009695 0)
(0.506054177587 3.04791974642 0)
(0.51442132978 2.97756942566 0)
(0.522109351711 2.90623939913 0)
(0.529157281991 2.8340146657 0)
(0.535602689657 2.76097516509 0)
(0.541481714991 2.68719597628 0)
(0.546829111418 2.61274750819 0)
(0.551678286287 2.53769568317 0)
(0.55606134149 2.46210211351 0)
(0.560009111985 2.3860242716 0)
(0.563551203372 2.30951565406 0)
(0.566716026834 2.23262594041 0)
(0.569530832672 2.15540114667 0)
(0.572021740969 2.0778837743 0)
(0.574213770643 2.00011295502 0)
(0.576130865596 1.9221245918 0)
(0.577795919223 1.84395149653 0)
(0.579230796133 1.76562352461 0)
(0.580456352316 1.68716770694 0)
(0.581492452732 1.60860837954 0)
(0.582357987502 1.52996731115 0)
(0.58307088579 1.45126382903 0)
(0.583648128486 1.37251494322 0)
(0.584105758895 1.29373546958 0)
(0.584458892439 1.21493815157 0)
(0.584721724722 1.13613378122 0)
(0.584907538875 1.05733131919 0)
(0.585028711674 0.978538014279 0)
(0.585096719327 0.89975952228 0)
(0.585122142621 0.821000024609 0)
(0.585114672331 0.742262346823 0)
(0.585083114816 0.663548077654 0)
(0.585035398514 0.584857690001 0)
(0.584978580749 0.506190660403 0)
(0.584918852635 0.427545652063 0)
(0.5848615179 0.348920247955 0)
(0.584810194848 0.270314560029 0)
(0.584741161104 0.191664846239 0)
(0.583733546899 0.113686249506 0)
(0.550809351925 0.0355147398602 0)
(-1.7877174974 0.111793253024 0)
(-1.88849759664 0.356883038592 0)
(-1.87653754437 0.600271042384 0)
(-1.85241654423 0.842545519164 0)
(-1.8203616428 1.08029447034 0)
(-1.78101520001 1.31256016141 0)
(-1.7349367628 1.53830922711 0)
(-1.68274521425 1.75662097834 0)
(-1.62510819517 1.9666968021 0)
(-1.56272347049 2.16786370616 0)
(-1.4963008038 2.35957435057 0)
(-1.42654556151 2.54140360054 0)
(-1.35414457397 2.71304222641 0)
(-1.27975451877 2.87428848475 0)
(-1.20399288799 3.02503827762 0)
(-1.12743144469 3.16527451535 0)
(-1.0505919595 3.2950562108 0)
(-0.973943949175 3.41450772631 0)
(-0.897904103092 3.52380848863 0)
(-0.822837078534 3.62318339125 0)
(-0.749057358815 3.71289402095 0)
(-0.676831896479 3.79323077876 0)
(-0.60638329772 3.86450591308 0)
(-0.537893342776 3.92704744539 0)
(-0.471506673477 3.98119394199 0)
(-0.407334515038 4.02729006899 0)
(-0.345458329571 4.06568285853 0)
(-0.285933326996 4.0967186105 0)
(-0.22879178112 4.12074035513 0)
(-0.174046118835 4.13808580678 0)
(-0.121691766186 4.14908573339 0)
(-0.0717097390123 4.15406292846 0)
(-0.0240688578663 4.15332799862 0)
(0.0212743589418 4.147196234 0)
(0.0643661761723 4.13594700808 0)
(0.105263286026 4.11986603297 0)
(0.144026828072 4.09922554169 0)
(0.180721693072 4.07428626979 0)
(0.215415705509 4.04529820506 0)
(0.248178667626 4.01250062629 0)
(0.27908157176 3.97612226515 0)
(0.308195946053 3.93638153741 0)
(0.335593308277 3.8934868076 0)
(0.361344714073 3.84763667796 0)
(0.385520388038 3.79902029452 0)
(0.408189426004 3.74781766352 0)
(0.429419559126 3.69419997293 0)
(0.449276970447 3.63832991489 0)
(0.467826156626 3.5803620058 0)
(0.485129827419 3.52044290145 0)
(0.50124883732 3.45871170517 0)
(0.516242143533 3.39530026767 0)
(0.530166786126 3.33033347744 0)
(0.543077885803 3.26392954093 0)
(0.555028656324 3.19620025232 0)
(0.566070428017 3.12725125246 0)
(0.576252680351 3.05718227713 0)
(0.585623080819 2.98608739474 0)
(0.594227528802 2.9140552337 0)
(0.602110202327 2.84116919991 0)
(0.609313606918 2.76750768473 0)
(0.615878624955 2.69314426395 0)
(0.621844565149 2.61814788832 0)
(0.627249210937 2.54258306613 0)
(0.632128867695 2.46651003837 0)
(0.636518407879 2.38998494718 0)
(0.640451314209 2.31305999794 0)
(0.643959720212 2.2357836157 0)
(0.647074448408 2.1582005964 0)
(0.64982504562 2.08035225339 0)
(0.652239815779 2.00227655975 0)
(0.654345849849 1.92400828685 0)
(0.656169053276 1.84557913958 0)
(0.657734170707 1.76701788862 0)
(0.659064808406 1.68835050021 0)
(0.660183454152 1.60960026363 0)
(0.661111495099 1.53078791678 0)
(0.661869233398 1.45193177014 0)
(0.66247590007 1.37304782934 0)
(0.662949666974 1.29414991655 0)
(0.663307657325 1.21524979091 0)
(0.663565954676 1.13635726826 0)
(0.663739610776 1.05748034012 0)
(0.663842652293 0.978625292351 0)
(0.663888086804 0.899796823443 0)
(0.66388790808 0.820998162761 0)
(0.663853101063 0.742231188973 0)
(0.663793646493 0.663496549123 0)
(0.663718525245 0.584793779278 0)
(0.663635721686 0.50612142242 0)
(0.663552223531 0.42747720829 0)
(0.663473993013 0.348857767364 0)
(0.663405067397 0.270262320618 0)
(0.663318458335 0.191625760592 0)
(0.662169789531 0.113659949963 0)
(0.624820693161 0.0355048714208 0)
(-2.02457703882 0.115875779662 0)
(-2.1385035456 0.369906627031 0)