/*--------------------------------*- C++ -*----------------------------------*\
| =========                 |                                                 |
| \\      /  F ield         | OpenFOAM: The Open Source CFD Toolbox           |
|  \\    /   O peration     | Version:  v1906                                 |
|   \\  /    A nd           | Web:      www.OpenFOAM.com                      |
|    \\/     M anipulation  |                                                 |
\*---------------------------------------------------------------------------*/
FoamFile
{
    version     2.0;
    format      ascii;
    class       volVectorField;
    location    "81";
    object      U;
}
// * * * * * * * * * * * * * * * * * * * * * * * * * * * * * * * * * * * * * //

dimensions      [0 1 -1 0 0 0 0];


internalField   nonuniform List<vector> 
9216
(
(0.0021487102021 -0.00215615168071 0)
(0.00156047951049 -0.00505981434987 7.43365025832e-28)
(0.00161916100349 -0.00867771975871 1.21762813462e-31)
(0.00162219148245 -0.0120653585548 0)
(0.00159947681019 -0.0154421892944 0)
(0.00156328362661 -0.0187540889113 0)
(0.00151950474787 -0.0219813930616 0)
(0.00146814355663 -0.0251092153293 0)
(0.00141275890995 -0.0281249571008 0)
(0.00135178701584 -0.0310191939021 0)
(0.00128878799359 -0.0337832571666 0)
(0.00122095543593 -0.036412073344 0)
(0.0011526018317 -0.0388960948238 0)
(0.00108131829806 -0.0412376435775 0)
(0.00101086766703 -0.0434285374867 0)
(0.0009376806434 -0.0454720567738 0)
(0.000866416388999 -0.0473632429734 0)
(0.000793654408281 -0.0491049327209 0)
(0.000723902584508 -0.0506979005368 0)
(0.000652613324382 -0.0521434058613 0)
(0.00058466760275 -0.0534407861354 0)
(0.000513540394355 -0.0545971453035 0)
(0.000445741917757 -0.055605096628 0)
(0.000376814674192 -0.0564721037369 0)
(0.000312731894566 -0.0572001394919 0)
(0.000246793812805 -0.0577907280477 0)
(0.000184757607436 -0.0582495439441 0)
(0.00011949399982 -0.0585733690528 0)
(5.837396662e-05 -0.0587652432451 0)
(-5.60944060599e-06 -0.0588287758675 0)
(-6.37559876176e-05 -0.0587589519417 0)
(-0.000126624565916 -0.0585716422504 0)
(-0.000186795266321 -0.0582499382701 0)
(-0.000247251578542 -0.0578016285725 0)
(-0.000301847634425 -0.0572398740717 0)
(-0.000359420380276 -0.0565537862353 0)
(-0.000411494851376 -0.0557560616362 0)
(-0.000466223466709 -0.0548446046163 0)
(-0.000515203492762 -0.0538241688242 0)
(-0.000566230670948 -0.0526987543568 0)
(-0.000610267786445 -0.0514722695192 0)
(-0.000656096633863 -0.0501513930582 0)
(-0.000696297547816 -0.0487414448484 0)
(-0.000737287538692 -0.047245637149 0)
(-0.000769157650199 -0.0456722550788 0)
(-0.000800612638357 -0.0440343079514 0)
(-0.000824046718679 -0.0423372961325 0)
(-0.000846562086996 -0.0405916702372 0)
(-0.000860310440088 -0.0388077705542 0)
(-0.000872351299462 -0.0369966447154 0)
(-0.000875022254945 -0.0351697538383 0)
(-0.000875648314854 -0.0333392854726 0)
(-0.000867382974269 -0.0315167425098 0)
(-0.00085691947401 -0.029713067579 0)
(-0.000837585358284 -0.0279404710412 0)
(-0.000817127976181 -0.0262084737133 0)
(-0.000789736840503 -0.0245268561875 0)
(-0.00076237016206 -0.0229017695272 0)
(-0.000728700060698 -0.0213405694151 0)
(-0.000695180442778 -0.0198490604416 0)
(-0.000656898727052 -0.018432128197 0)
(-0.00062041847414 -0.0170931364723 0)
(-0.000580527991514 -0.0158339010711 0)
(-0.000543675208809 -0.0146544192764 0)
(-0.000505259957617 -0.0135538821906 0)
(-0.000470488836794 -0.0125296002791 0)
(-0.00043389936054 -0.0115801972752 0)
(-0.00040071736949 -0.0107015719793 0)
(-0.000367212856647 -0.00989396323082 0)
(-0.000339054774225 -0.00915012736578 0)
(-0.000310848700273 -0.00846548206633 0)
(-0.000286704893641 -0.00783626865301 0)
(-0.000261875343928 -0.00725824466266 0)
(-0.000240631669722 -0.0067275360202 0)
(-0.000219389421681 -0.00624051298268 0)
(-0.000201351219732 -0.00579359400456 0)
(-0.000182290203661 -0.00538426582613 0)
(-0.000166465927085 -0.00500916041882 0)
(-0.000151176047237 -0.00466573343215 0)
(-0.000137266561065 -0.00434346551059 0)
(-0.000123956181704 -0.00403536648704 0)
(-0.000115444072543 -0.00379812320796 0)
(-0.000101265056074 -0.00355070813263 0)
(-9.56745760949e-05 -0.00334981378691 0)
(-9.97342458026e-05 -0.00316011417022 0)
(-9.72475566244e-05 -0.00293404743889 0)
(-8.13243843558e-05 -0.00272154665874 0)
(-6.56836920898e-05 -0.00256785142927 0)
(-7.91638038704e-05 -0.00244278049738 0)
(-0.000106954992937 -0.00223341986764 0)
(-0.000113059855095 -0.00200359226464 0)
(-0.000119898281696 -0.001734976616 0)
(-0.000147666812285 -0.00142488006371 0)
(-0.000167121014074 -0.0010670757691 0)
(-0.00017807233184 -0.000628372973357 0)
(-0.000186229662994 -0.000185714092512 0)
(0.00505907662101 -0.00158381385636 0)
(0.00522596909397 -0.0052807459484 0)
(0.00528042520728 -0.00911755714302 -7.6432816841e-28)
(0.00523208154952 -0.0128171220329 0)
(0.00514254017263 -0.0164371477127 0)
(0.0050215303482 -0.0199725491514 0)
(0.00487794894468 -0.0234112210276 0)
(0.00471306686858 -0.0267413993633 0)
(0.00453320530773 -0.029949821691 0)
(0.00433774047353 -0.033027263987 0)
(0.00413332432115 -0.0359647776119 0)
(0.00391747891377 -0.0387557589344 0)
(0.00369738695969 -0.0413963925559 0)
(0.0034692668647 -0.0438816822617 0)
(0.00324124208853 -0.0462073238175 0)
(0.00300910436227 -0.0483753517664 0)
(0.00277898027764 -0.0503827971359 0)
(0.00254740944617 -0.0522313334887 0)
(0.00232097446389 -0.0539196960106 0)
(0.00209280187665 -0.0554526392698 0)
(0.00187132792639 -0.056823163003 0)
(0.00164800046213 -0.0580449785453 0)
(0.00143004565274 -0.059113893453 0)
(0.00121186999763 -0.0600341178528 0)
(0.00100221757626 -0.0608052580379 0)
(0.000791516912271 -0.0614299241417 0)
(0.000588929858234 -0.0619105983933 0)
(0.00038389020534 -0.0622507504151 0)
(0.00018701632422 -0.0624511733334 0)
(-1.37698574211e-05 -0.0625181346289 0)
(-0.000206320721562 -0.0624472608259 0)
(-0.000404296392713 -0.062238699282 0)
(-0.000595749188391 -0.0618998040081 0)
(-0.000785380156566 -0.061431756178 0)
(-0.000965212787794 -0.0608351656572 0)
(-0.00114732140322 -0.0601118193934 0)
(-0.00131844968017 -0.0592636711027 0)
(-0.00149119561687 -0.0582985078475 0)
(-0.00165268502122 -0.0572126495237 0)
(-0.00181394820664 -0.0560177751202 0)
(-0.00196144725409 -0.0547113142499 0)
(-0.00210654494475 -0.05330249856 0)
(-0.00223685946459 -0.0517963875334 0)
(-0.00236349749226 -0.0502066316912 0)
(-0.00247092307005 -0.0485320132063 0)
(-0.002569674152 -0.0467855317074 0)
(-0.00264881765186 -0.0449759518446 0)
(-0.00271802979607 -0.0431137163098 0)
(-0.00276588367409 -0.0412101908781 0)
(-0.00280064043553 -0.0392770197333 0)
(-0.00281179773446 -0.0373276642153 0)
(-0.00281039688465 -0.0353749392636 0)
(-0.00278607191747 -0.0334305106133 0)
(-0.00274933981433 -0.0315089720455 0)
(-0.00269136653091 -0.0296196565834 0)
(-0.00262293939187 -0.0277727428033 0)
(-0.00253684485524 -0.0259812019717 0)
(-0.00244426553404 -0.0242513792058 0)
(-0.00233859564315 -0.0225945578629 0)
(-0.00222952512158 -0.0210104898241 0)
(-0.0021097168323 -0.0195057233361 0)
(-0.00199015305053 -0.018084038457 0)
(-0.00186498225692 -0.0167482526575 0)
(-0.00174404351228 -0.0154965154903 0)
(-0.00162170422366 -0.014330121737 0)
(-0.0015069251884 -0.0132469718229 0)
(-0.00139275049269 -0.0122438173109 0)
(-0.00128647516385 -0.011314437319 0)
(-0.00118237039115 -0.0104565708253 0)
(-0.00108797175777 -0.00966552244061 0)
(-0.000995787561384 -0.00894056973023 0)
(-0.000914688786928 -0.00827728145775 0)
(-0.000836218888883 -0.00766960969292 0)
(-0.000767499207231 -0.00711250695342 0)
(-0.000703429560105 -0.00660026410788 0)
(-0.000645605177188 -0.00612867903724 0)
(-0.000590229515639 -0.00569487712819 0)
(-0.000542892217238 -0.00529084099054 0)
(-0.000496454175826 -0.00491106526414 0)
(-0.000457431469246 -0.00455794731281 0)
(-0.000420984360528 -0.00419501837627 0)
(-0.000386574399723 -0.00387920014975 0)
(-0.000341484362656 -0.00358774898703 0)
(-0.000312459527805 -0.00332855505707 0)
(-0.000306646127174 -0.00309910387529 0)
(-0.000299101091834 -0.00288906015095 0)
(-0.000238654265122 -0.00265288904742 0)
(-0.000193140727323 -0.00253018227638 0)
(-0.000223895649193 -0.00235317550658 0)
(-0.000295560380581 -0.00222182934851 0)
(-0.000336859160641 -0.00205668189924 0)
(-0.000384151838426 -0.00176931845511 0)
(-0.000452342627774 -0.00145278854202 0)
(-0.000581187884672 -0.00116266079306 0)
(-0.000703898314513 -0.000724444983655 0)
(-0.000599374031071 -0.000180317727101 0)
(0.00873374241764 -0.00167523759242 0)
(0.00908679117303 -0.00544098119235 0)
(0.00900817614862 -0.00921811238249 -7.63338570238e-28)
(0.0088773197531 -0.0129541042947 0)
(0.00870586949739 -0.0166147099315 0)
(0.00849334744441 -0.0201878041761 0)
(0.00824500577536 -0.0236604106168 0)
(0.00796395330101 -0.027019522227 0)
(0.00765623528532 -0.0302537385054 0)
(0.0073250577495 -0.0333529898266 0)
(0.0069762871656 -0.0363099349646 0)
(0.00661178015078 -0.0391160196923 0)
(0.00623709298101 -0.0417675003425 0)
(0.00585337288601 -0.0442595981128 0)
(0.00546673444467 -0.0465987891412 0)
(0.00507509614774 -0.0487687732992 0)
(0.00468497895253 -0.0507809512302 0)
(0.00429538431098 -0.0526309567389 0)
(0.00390992275468 -0.0543204109819 0)
(0.00352598082583 -0.0558512988699 0)
(0.00314847392538 -0.0572249934314 0)
(0.00277506207525 -0.0584435082496 0)
(0.00240745289278 -0.0595078405518 0)
(0.00204293921113 -0.0604269223758 0)
(0.00168649968821 -0.0611937809663 0)
(0.00133416808288 -0.0618206147517 0)
(0.000989108892424 -0.0623027856248 0)
(0.000645971025512 -0.0626443987689 0)
(0.000310148942927 -0.062842370272 0)
(-2.3404078824e-05 -0.0629015145544 0)
(-0.000352774540542 -0.0628282043953 0)
(-0.000681148503582 -0.0626158072612 0)
(-0.00100258849044 -0.0622779787936 0)
(-0.00131986049536 -0.061803924256 0)
(-0.00162882662029 -0.0612016544227 0)
(-0.00193427443042 -0.0604710612002 0)
(-0.00222849744083 -0.0596149289408 0)
(-0.00251690700344 -0.0586369142549 0)
(-0.00279440985903 -0.0575411657481 0)
(-0.00306473775113 -0.0563313210887 0)
(-0.0033195477826 -0.0550124037815 0)
(-0.00356054949075 -0.053588352549 0)
(-0.00378295302386 -0.0520726000252 0)
(-0.00399041939993 -0.0504599234509 0)
(-0.00417734186933 -0.0487733920486 0)
(-0.00434260497153 -0.0470044638712 0)
(-0.00448187581029 -0.0451783766109 0)
(-0.00459635447746 -0.0432913307423 0)
(-0.00468094382033 -0.0413664073235 0)
(-0.00473921458159 -0.0394116837106 0)
(-0.00476304368775 -0.0374336388226 0)
(-0.0047572535481 -0.0354518795522 0)
(-0.00471894117768 -0.0334783507984 0)
(-0.00465261618061 -0.031526348607 0)
(-0.00455705816403 -0.0296089158135 0)
(-0.00443730074687 -0.027737467191 0)
(-0.00429211258529 -0.0259222193896 0)
(-0.00412903227776 -0.0241730469894 0)
(-0.00394970257414 -0.0224974728843 0)
(-0.00376142905671 -0.0209022382887 0)
(-0.00356079889822 -0.0193891160123 0)
(-0.00335489870281 -0.0179620781106 0)
(-0.0031443093851 -0.0166236960038 0)
(-0.00293596244886 -0.0153741836379 0)
(-0.00273007384041 -0.0142122479866 0)
(-0.00253246508183 -0.0131348007268 0)
(-0.00234158704553 -0.0121388936346 0)
(-0.00216102250325 -0.0112202176545 0)
(-0.00198913650883 -0.0103753850076 0)
(-0.00182869076089 -0.00959935243931 0)
(-0.00167692676786 -0.00888742420141 0)
(-0.00153652091534 -0.0082256790812 0)
(-0.00140708641091 -0.00762871990183 0)
(-0.00128786101575 -0.00706770601457 0)
(-0.00117991313189 -0.00656452022774 0)
(-0.00108160784078 -0.00610302262319 0)
(-0.000993036552033 -0.00567872243067 0)
(-0.000917042728572 -0.00528823202656 0)
(-0.000850129460386 -0.00492704089095 0)
(-0.000801078057301 -0.00457435110493 0)
(-0.000746821828349 -0.00420032762236 0)
(-0.000677569850961 -0.0038959490819 0)
(-0.000602966894949 -0.00360666606168 0)
(-0.000549745663196 -0.00333540412656 0)
(-0.000521605569832 -0.00309828582169 0)
(-0.000491378209256 -0.00286941483947 0)
(-0.000433011999223 -0.00272755980525 0)
(-0.000368544080105 -0.00244387093199 0)
(-0.000349424189564 -0.00220147913727 0)
(-0.000410123093872 -0.00209271309632 0)
(-0.000572296403153 -0.00204790475368 0)
(-0.000635691563697 -0.00162621975067 0)
(-0.0007731254989 -0.0013803842694 0)
(-0.000948184385715 -0.00102327578668 0)
(-0.00108626780599 -0.000618956974445 0)
(-0.00101619334436 -0.000179005359792 0)
(0.0122655298559 -0.00172901459716 0)
(0.0129023196437 -0.00555460600941 0)
(0.0127865387264 -0.00935942374209 7.63215884792e-28)
(0.01259189956 -0.0131428198175 0)
(0.0123396179268 -0.0168513899934 0)
(0.0120314753243 -0.0204696712485 0)
(0.0116733148517 -0.0239830764712 0)
(0.0112706072194 -0.0273778239976 0)
(0.0108303564359 -0.0306432379109 0)
(0.0103576003253 -0.0337676174568 0)
(0.00985909676693 -0.0367437545533 0)
(0.00933983286768 -0.0395653108567 0)
(0.00880684687269 -0.0422275094308 0)
(0.00826471487386 -0.0447315389355 0)
(0.00771418402663 -0.0470688246228 0)
(0.00715971351444 -0.0492432308465 0)
(0.00660680863572 -0.0512540363675 0)
(0.00605596778058 -0.0531015936166 0)
(0.00550955078298 -0.0547873616095 0)
(0.00496829978879 -0.0563137005283 0)
(0.00443452654081 -0.0576819055515 0)
(0.00390721854876 -0.0588977920411 0)
(0.00338842045911 -0.0599564974806 0)
(0.00287712996843 -0.0608693233053 0)
(0.00237538656729 -0.0616352595367 0)
(0.00188023094156 -0.0622557186876 0)
(0.00139139233042 -0.0627333332095 0)
(0.00090802595406 -0.0630651577441 0)
(0.000431160256124 -0.0632637036562 0)
(-3.9952358386e-05 -0.0633174483507 0)
(-0.000505168862842 -0.0632354173996 0)
(-0.000965898765858 -0.0630178734298 0)
(-0.0014192130138 -0.0626675470206 0)
(-0.00186582205294 -0.0621865774391 0)
(-0.00230390496985 -0.0615770394138 0)
(-0.00273412890466 -0.0608379340261 0)
(-0.00315377220751 -0.0599790603104 0)
(-0.00356337907042 -0.0589909423218 0)
(-0.00395719437132 -0.0578851210699 0)
(-0.00433397211694 -0.0566619045255 0)
(-0.00469504417826 -0.0553422107472 0)
(-0.00503803681649 -0.0539068769505 0)
(-0.00535944297719 -0.0523740044761 0)
(-0.00565648648891 -0.0507381694612 0)
(-0.00592329239437 -0.049017037941 0)
(-0.00615770779593 -0.0472181457048 0)
(-0.00635754602907 -0.0453528113334 0)
(-0.00652038699571 -0.04343080637 0)
(-0.00664097016619 -0.0414649041772 0)
(-0.00672167935309 -0.0394666060861 0)
(-0.00675953288745 -0.0374575161311 0)
(-0.00675261320939 -0.0354372274437 0)
(-0.00669949405773 -0.0334266659091 0)
(-0.00660269030408 -0.0314387986657 0)
(-0.00646598088069 -0.0294880571485 0)
(-0.00629263826372 -0.0275858537461 0)
(-0.00608496975185 -0.0257432859605 0)
(-0.00584924745041 -0.023969884765 0)
(-0.00559040991754 -0.0222728426419 0)
(-0.00531648150021 -0.0206622546552 0)
(-0.00502897139567 -0.0191399498901 0)
(-0.00473282768237 -0.0177086469396 0)
(-0.00443152854859 -0.0163708640431 0)
(-0.00413209361673 -0.0151245475794 0)
(-0.00383887360104 -0.0139686133216 0)
(-0.00355599029319 -0.0128998224746 0)
(-0.00328474657368 -0.0119149131273 0)
(-0.00302748103251 -0.0110089347818 0)
(-0.0027840732935 -0.0101763300818 0)
(-0.00255617724606 -0.00941354147068 0)
(-0.00234447325691 -0.008714935755 0)
(-0.00214959134817 -0.0080754521753 0)
(-0.0019709492004 -0.00749221994801 0)
(-0.00180316824161 -0.00694933393168 0)
(-0.00164758618695 -0.00646039550011 0)
(-0.00150657560098 -0.00601126903126 0)
(-0.00138228481133 -0.00560092332129 0)
(-0.00127324867065 -0.00522568125796 0)
(-0.00117838653414 -0.00488552179258 0)
(-0.00110642741411 -0.00455157441865 0)
(-0.00105480598212 -0.00428320600761 0)
(-0.000991368512871 -0.00405194042037 0)
(-0.000903283971756 -0.00372897429419 0)
(-0.000826487837236 -0.00343344637599 0)
(-0.000758707127589 -0.00313752064568 0)
(-0.000701553183819 -0.00290717146589 0)
(-0.000639532110232 -0.0026741487845 0)
(-0.000573895559083 -0.00236889587899 0)
(-0.000566218927598 -0.00220705533045 0)
(-0.000574191710754 -0.00190996872507 0)
(-0.000706388080414 -0.0016818371821 0)
(-0.000963937086104 -0.00157766548397 0)
(-0.00105269725461 -0.00114878264421 0)
(-0.00125585406797 -0.000822308035082 0)
(-0.0014681927904 -0.000516600297805 0)
(-0.0014326887604 -0.000162956201469 0)
(0.0159097237651 -0.00177365400824 0)
(0.0167685012827 -0.0056811706263 0)
(0.016619054486 -0.00955185951669 0)
(0.016361233667 -0.0134034105743 0)
(0.0160254318996 -0.0171767513676 0)
(0.0156170511523 -0.0208552793375 0)
(0.0151437156169 -0.024422714886 0)
(0.0146136617724 -0.0278655675229 0)
(0.0140339573256 -0.0311701371389 0)
(0.013413246068 -0.0343274722222 0)
(0.0127598907942 -0.0373298120468 0)
(0.0120816253027 -0.0401707535627 0)
(0.0113870119941 -0.0428507462428 0)
(0.0106785536932 -0.045360513257 0)
(0.00996215810533 -0.0477031988084 0)
(0.00924291243796 -0.0498787362854 0)
(0.00852478935888 -0.0518875477129 0)
(0.00781092997877 -0.0537313029155 0)
(0.00710380765026 -0.0554114135722 0)
(0.00640423349108 -0.0569338202912 0)
(0.00571317203796 -0.0582943230913 0)
(0.00503211531181 -0.0594983365385 0)
(0.00436327980369 -0.060552931351 0)
(0.00370557518504 -0.0614568832569 0)
(0.00305805743019 -0.0622181203913 0)
(0.00241824806995 -0.0628265507556 0)
(0.00178598339483 -0.0632987909026 0)
(0.00116179099059 -0.0636229112116 0)
(0.000545711854137 -0.0638084311987 0)
(-6.39873273189e-05 -0.0638554558368 0)
(-0.000664680823872 -0.0637667899418 0)
(-0.00125714957512 -0.0635423187835 0)
(-0.00184265611563 -0.0631912761345 0)
(-0.00241986601761 -0.0627019532499 0)
(-0.00298780211305 -0.0620831897309 0)
(-0.00354450649052 -0.0613339379571 0)
(-0.0040851191751 -0.0604579183817 0)
(-0.00461291849276 -0.059463742651 0)
(-0.00512537616492 -0.0583563469181 0)
(-0.0056168987161 -0.0571236183758 0)
(-0.00608858793863 -0.0557690061365 0)
(-0.00653880273099 -0.0543039469603 0)
(-0.00696021384254 -0.0527347822071 0)
(-0.00734835536667 -0.0510668275878 0)
(-0.00770043701705 -0.0493185122122 0)
(-0.00800958018396 -0.0474808980545 0)
(-0.00827403797844 -0.0455740197922 0)
(-0.00848783152609 -0.0436062401249 0)
(-0.00864691458031 -0.0415911976712 0)
(-0.0087511155796 -0.0395427284831 0)
(-0.0087981272752 -0.0374761186575 0)
(-0.00878843628256 -0.035404458568 0)
(-0.00872002667237 -0.0333492281213 0)
(-0.00859168793717 -0.0313126468044 0)
(-0.00841128597768 -0.0293174054936 0)
(-0.00818040395132 -0.0273740509629 0)
(-0.00790555799059 -0.0254951296797 0)
(-0.00759257247851 -0.0236914009094 0)
(-0.0072486039265 -0.0219693307429 0)
(-0.006885424446 -0.0203426129304 0)
(-0.00650205909073 -0.0188076901904 0)
(-0.00610858926575 -0.0173721871712 0)
(-0.00571139789488 -0.0160361814796 0)
(-0.00531877290756 -0.0147954988548 0)
(-0.0049355375448 -0.0136474693256 0)
(-0.00456737779235 -0.0125916789764 0)
(-0.00421382623754 -0.0116185179119 0)
(-0.00387818905617 -0.0107251957044 0)
(-0.00356375370913 -0.00991019054712 0)
(-0.0032690512272 -0.00916470500853 0)
(-0.00299551482841 -0.00848350425015 0)
(-0.00274191184749 -0.00785855437491 0)
(-0.00251082303858 -0.00729190801886 0)
(-0.00229593006126 -0.00677313816496 0)
(-0.00209722225857 -0.0063004405292 0)
(-0.00191950547327 -0.00586840755885 0)
(-0.0017591227098 -0.00546586703958 0)
(-0.00161405049295 -0.00510293397547 0)
(-0.00148302197947 -0.00477325664965 0)
(-0.00137128870974 -0.00444077256202 0)
(-0.00130413460327 -0.00417311837562 0)
(-0.00124924403203 -0.00393638304773 0)
(-0.00115106978532 -0.00362572396296 0)
(-0.00107490246615 -0.0034114526348 0)
(-0.00101154680809 -0.00318551334288 0)
(-0.000957637595819 -0.00296964277528 0)
(-0.000932729906589 -0.00273357888058 0)
(-0.000873768087293 -0.00240929478578 0)
(-0.000792301382802 -0.00199720816608 0)
(-0.000818227622386 -0.00177963734769 0)
(-0.000881088098806 -0.00145509160098 0)
(-0.00115477379805 -0.00131824728722 0)
(-0.00146942987032 -0.00109678316194 0)
(-0.00156880386965 -0.000696344172044 0)
(-0.00171394171124 -0.000411873799569 0)
(-0.00169135305884 -0.000133644306786 0)
(0.0196479379302 -0.00182298942378 0)
(0.0207177378525 -0.00583279818525 0)
(0.0205319795393 -0.00979702116106 0)
(0.0202075297535 -0.0137389056855 0)
(0.0197828475182 -0.0175961245043 0)
(0.0192675687057 -0.0213515825907 0)
(0.018672049419 -0.024988182798 0)
(0.018005266463 -0.0284894109159 0)
(0.0172782949 -0.0318438669155 0)
(0.016501875251 -0.0350418501455 0)
(0.0156864116385 -0.0380756379355 0)
(0.0148428898761 -0.0409416759669 0)
(0.0139786542437 -0.0436368693246 0)
(0.0130990440542 -0.0461569035594 0)
(0.0122126813394 -0.0485046456682 0)
(0.0113249450876 -0.0506808781855 0)
(0.0104398228821 -0.0526864596385 0)
(0.00956136973938 -0.0545269733149 0)
(0.00869133396711 -0.0561991420678 0)
(0.00783116041252 -0.0577094965287 0)
(0.00698203053295 -0.0590589230469 0)
(0.00614840388932 -0.060255477666 0)
(0.00533067964053 -0.0612985947088 0)
(0.0045260506427 -0.0621950432179 0)
(0.00373088305213 -0.0629435341018 0)
(0.00294541260332 -0.0635426109847 0)
(0.00217034964067 -0.0639992167727 0)
(0.00140453475901 -0.0643140360654 0)
(0.000650433796859 -0.0644906273905 0)
(-9.35554865042e-05 -0.064529030737 0)
(-0.00082917241378 -0.0644383520545 0)
(-0.0015555357335 -0.0642055798919 0)
(-0.00227421538883 -0.0638396693262 0)
(-0.00298302897692 -0.0633415249562 0)
(-0.00367988872142 -0.0627117735878 0)
(-0.00436242731661 -0.0619556402955 0)
(-0.00502719361232 -0.0610810298502 0)
(-0.00567526486473 -0.0600631074801 0)
(-0.00630959852527 -0.0589318442247 0)
(-0.00692518575518 -0.0576682046652 0)
(-0.00751420635904 -0.0562886905701 0)
(-0.00807123196074 -0.0547928712104 0)
(-0.00859637977493 -0.0531983774114 0)
(-0.00908043662965 -0.0514910882355 0)
(-0.00951818981383 -0.0496905106542 0)
(-0.00990489314967 -0.0478051777296 0)
(-0.0102352883192 -0.0458440651489 0)
(-0.0105063900107 -0.0438273401147 0)
(-0.010709110691 -0.0417509712825 0)
(-0.0108405460463 -0.0396392627017 0)
(-0.0108982292736 -0.0375064787194 0)
(-0.0108822928853 -0.0353678831548 0)
(-0.0107948825302 -0.0332478376472 0)
(-0.0106331343242 -0.0311494039346 0)
(-0.0104025899467 -0.0290954563414 0)
(-0.0101109337085 -0.0271061837517 0)
(-0.00976212814222 -0.0251805225216 0)
(-0.00936940524394 -0.0233443747895 0)
(-0.0089307113139 -0.0215924120152 0)
(-0.00845865574946 -0.0199408402849 0)
(-0.00797495415601 -0.0184072616893 0)
(-0.00748289100438 -0.0169724317799 0)
(-0.00698766930214 -0.0156392716505 0)
(-0.00650259951626 -0.0144058094674 0)
(-0.00602602957383 -0.0132660399246 0)
(-0.00556641879992 -0.0122169023703 0)
(-0.00513238682996 -0.0112644920697 0)
(-0.00471844213707 -0.0103865715964 0)
(-0.00432825799258 -0.00958898733509 0)
(-0.00396480876446 -0.00886336348231 0)
(-0.00363012737692 -0.00820390995243 0)
(-0.00332061088033 -0.0076049344013 0)
(-0.00303589563318 -0.00705842558869 0)
(-0.00277572331481 -0.00656090166704 0)
(-0.00253614380184 -0.00610368631253 0)
(-0.002318357521 -0.00568161267147 0)
(-0.00212354618215 -0.00530220519268 0)
(-0.00194647425387 -0.00495974903348 0)
(-0.00178830478175 -0.00464206905402 0)
(-0.00164812054058 -0.00430958990672 0)
(-0.00154708656545 -0.00403059317878 0)
(-0.00149705176665 -0.00382419371067 0)
(-0.00140851609048 -0.00358452487645 0)
(-0.00128142184469 -0.00329057013305 0)
(-0.00121562837533 -0.0030584752558 0)
(-0.00118887389515 -0.00284783475332 0)
(-0.0011374445617 -0.00251173125681 0)
(-0.00115168460902 -0.00230430383164 0)
(-0.00114866819519 -0.00204236646064 0)
(-0.00118288103126 -0.00177961517901 0)
(-0.00113299823079 -0.00132571582611 0)
(-0.00129210412185 -0.00105244005531 0)
(-0.00169833472705 -0.000928033345191 0)
(-0.0019048499599 -0.000647037242367 0)
(-0.00197327265532 -0.000361268425071 0)
(-0.00196028386846 -0.000117625159074 0)
(0.0234970679136 -0.00188140883286 0)
(0.0247768680577 -0.00601678845176 0)
(0.0245495711099 -0.0100999816799 7.58226441834e-28)
(0.0241516603509 -0.014155099572 0)
(0.0236307014069 -0.0181169284214 0)
(0.0230000385908 -0.0219677661883 0)
(0.0222705533673 -0.0256868118157 0)
(0.0214567668845 -0.0292594882663 0)
(0.0205721007209 -0.032673600913 0)
(0.0196296178481 -0.0359194617726 0)
(0.018643022004 -0.0389898466573 0)
(0.0176256429379 -0.0418848973692 0)
(0.016583530288 -0.0445960272198 0)
(0.0155274516617 -0.0471268801499 0)
(0.0144667149669 -0.0494812230511 0)
(0.0134052601575 -0.0516557837803 0)
(0.0123495128684 -0.0536561593979 0)
(0.0113025373963 -0.055484904379 0)
(0.0102671249268 -0.0571459961951 0)
(0.00924554230394 -0.058643533418 0)
(0.00824049405719 -0.0599786607147 0)
(0.00725499226888 -0.061165055812 0)
(0.00628715419587 -0.0621961807468 0)
(0.00533321425648 -0.0630779940092 0)
(0.00438968612317 -0.0638085016042 0)
(0.00345932793148 -0.0643955516038 0)
(0.00254240342912 -0.0648402934175 0)
(0.00163902468417 -0.0651437401291 0)
(0.000748437749999 -0.0653160688222 0)
(-0.000131727185438 -0.0653447455759 0)
(-0.00100294473017 -0.0652383413342 0)
(-0.00186525971069 -0.0649966645663 0)
(-0.0027156670769 -0.064620038436 0)
(-0.00355552237598 -0.0641183938225 0)
(-0.00437945485983 -0.0634742407218 0)
(-0.0051868080368 -0.0627138605723 0)
(-0.00598328127292 -0.0618161060904 0)
(-0.00676469298334 -0.0607817142472 0)
(-0.00752417649757 -0.0596201595185 0)
(-0.00825971362755 -0.0583309043375 0)
(-0.00896791168076 -0.0569298215051 0)
(-0.00963878505875 -0.0553986448834 0)
(-0.0102710805194 -0.0537556521126 0)
(-0.0108565187146 -0.0520020331751 0)
(-0.0113888567281 -0.0501574462401 0)
(-0.0118592460422 -0.04821202528 0)
(-0.0122612162532 -0.0461862948691 0)
(-0.012588977483 -0.0440905748207 0)
(-0.0128360701386 -0.0419381560657 0)
(-0.013000630007 -0.0397553935223 0)
(-0.0130717161794 -0.0375406051053 0)
(-0.0130494804705 -0.0353193917049 0)
(-0.0129406018404 -0.033119398036 0)
(-0.0127398055225 -0.0309417236324 0)
(-0.0124564936404 -0.0288225508974 0)
(-0.0120922178249 -0.02675949913 0)
(-0.0116666395722 -0.0247876627633 0)
(-0.0111639549977 -0.022894894408 0)
(-0.0106182356939 -0.0211237675324 0)
(-0.0100511610636 -0.0194781069635 0)
(-0.00945339358158 -0.0179140260907 0)
(-0.00886209783674 -0.0164816083208 0)
(-0.00826182490004 -0.015140208744 0)
(-0.00767276818598 -0.0139078442035 0)
(-0.00710480351158 -0.0127867483518 0)
(-0.00655105892277 -0.011752457942 0)
(-0.00602582857535 -0.0108133379433 0)
(-0.00552916539252 -0.0099577887594 0)
(-0.0050668548897 -0.00918890724718 0)
(-0.00463308317085 -0.00848469039394 0)
(-0.00423238022333 -0.00784932155812 0)
(-0.00386576741588 -0.00727526258989 0)
(-0.00353114378705 -0.00675484722853 0)
(-0.00322762918925 -0.00628119204197 0)
(-0.00295208285382 -0.00585196754223 0)
(-0.0026947287989 -0.00545293840586 0)
(-0.00246368334933 -0.00509823763108 0)
(-0.00225502860415 -0.00477654876294 0)
(-0.00207021464811 -0.00447539911404 0)
(-0.0019087172912 -0.00416445595993 0)
(-0.00182583194894 -0.00397799301879 0)
(-0.00171979214651 -0.00368923057637 0)
(-0.00164912285365 -0.00349571750797 0)
(-0.00155238600775 -0.00323971279856 0)
(-0.00146853453186 -0.00297830081726 0)
(-0.0014475873333 -0.00274035586774 0)
(-0.00141641115243 -0.00246564566973 0)
(-0.00136618564503 -0.00214961972867 0)
(-0.0014134685788 -0.00192328250545 0)
(-0.00143504601873 -0.00157066150826 0)
(-0.00154878952592 -0.00132809486335 0)
(-0.00154530026468 -0.000932174468595 0)
(-0.00178076006226 -0.000721756628287 0)
(-0.00213783014731 -0.000570610926436 0)
(-0.00219741676482 -0.000318525189254 0)
(-0.00219164470437 -0.000103758753097 0)
(0.0274793085632 -0.00195142770074 0)
(0.0289720944429 -0.00623883149754 0)
(0.0286968429192 -0.0104675631065 -7.5810529982e-28)
(0.0282167748687 -0.0146604416855 0)
(0.0275886624731 -0.0187487704698 0)
(0.0268286490177 -0.0227124406423 0)
(0.0259528868455 -0.0265303356018 0)
(0.0249796250312 -0.0301879346183 0)
(0.023923781452 -0.033671093485 0)
(0.0228027420806 -0.0369712015152 0)
(0.0216342465169 -0.0400845200993 0)
(0.0204300992247 -0.0430062885051 0)
(0.0192023363964 -0.0457356338961 0)
(0.0179638239838 -0.0482786439704 0)
(0.0167201035833 -0.0506319202163 0)
(0.0154796076922 -0.0528022109722 0)
(0.0142486745586 -0.0547933325237 0)
(0.013031034926 -0.0566097161765 0)
(0.0118293712785 -0.0582563626639 0)
(0.0106457817225 -0.0597365465999 0)
(0.00948554122693 -0.0610581855054 0)
(0.00834784508298 -0.0622256892338 0)
(0.00722760416954 -0.0632421218038 0)
(0.00612232365984 -0.0641022456324 0)
(0.00503283402316 -0.0648180702939 0)
(0.00395995546357 -0.0653902557996 0)
(0.00290410101234 -0.0658202088091 0)
(0.00186428035673 -0.0661177602997 0)
(0.000835579530805 -0.0662712740569 0)
(-0.000182379669461 -0.0662898124802 0)
(-0.00118922577112 -0.0661725578196 0)
(-0.00218320452662 -0.0659193117753 0)
(-0.00316550536881 -0.0655401176297 0)
(-0.00413505062763 -0.0650169606044 0)
(-0.00508817192774 -0.0643764030462 0)
(-0.00602955989028 -0.0635946740517 0)
(-0.00696197945006 -0.0626735102595 0)
(-0.0078742128003 -0.0616189371156 0)
(-0.00876333514878 -0.060442529043 0)
(-0.00962486321872 -0.0591249469602 0)
(-0.0104565626631 -0.0576802389708 0)
(-0.0112483805759 -0.0561100237086 0)
(-0.0119920922527 -0.0544177530976 0)
(-0.0126854786051 -0.052620661468 0)
(-0.0133177278384 -0.0507045603756 0)
(-0.0138789643251 -0.0486915224552 0)
(-0.0143583481015 -0.0465871691089 0)
(-0.014755236003 -0.0444162900446 0)
(-0.0150510283378 -0.0421729815118 0)
(-0.0152438444786 -0.039884771624 0)
(-0.0153335596914 -0.0375802466217 0)
(-0.0153065299857 -0.0352565602507 0)
(-0.0151734062883 -0.0329586473256 0)
(-0.0149287060017 -0.0306844093729 0)
(-0.0145861162066 -0.0284767351322 0)
(-0.0141369882799 -0.0263360906337 0)
(-0.0135941929555 -0.0242837294239 0)
(-0.0130029483164 -0.0223848776292 0)
(-0.0123404585398 -0.0205628712282 0)
(-0.0116541715637 -0.0188733892338 0)
(-0.010943086801 -0.0172910555615 0)
(-0.0102378953499 -0.0158503120605 0)
(-0.00952778265614 -0.0145133304185 0)
(-0.00883723665624 -0.0133075902613 0)
(-0.0081553807677 -0.0121935008508 0)
(-0.00751422823194 -0.0112010027798 0)
(-0.00689677598085 -0.0102892519065 0)
(-0.00632327165527 -0.00947667979513 0)
(-0.00578020747733 -0.0087323982634 0)
(-0.00527688109443 -0.00806039750012 0)
(-0.00481908211126 -0.00746338237762 0)
(-0.00439147143817 -0.00691172679395 0)
(-0.00400465973582 -0.00641831349003 0)
(-0.00365783871028 -0.00597256438575 0)
(-0.00334274194648 -0.00556936213842 0)