/*--------------------------------*- C++ -*----------------------------------*\
| =========                 |                                                 |
| \\      /  F ield         | OpenFOAM: The Open Source CFD Toolbox           |
|  \\    /   O peration     | Version:  v1906                                 |
|   \\  /    A nd           | Web:      www.OpenFOAM.com                      |
|    \\/     M anipulation  |                                                 |
\*---------------------------------------------------------------------------*/
FoamFile
{
    version     2.0;
    format      ascii;
    class       volVectorField;
    location    "219";
    object      U;
}
// * * * * * * * * * * * * * * * * * * * * * * * * * * * * * * * * * * * * * //

dimensions      [0 1 -1 0 0 0 0];


internalField   nonuniform List<vector> 
9216
(
(0.00176173328356 -0.00176288285802 0)
(0.00158299457371 -0.00491902048992 6.58139616474e-28)
(0.00159517039761 -0.00832657944118 1.12743784142e-31)
(0.00157991285196 -0.0116378757506 0)
(0.00154982644867 -0.0149040618388 0)
(0.00151034249739 -0.0180961734211 0)
(0.00146346078427 -0.0211976257676 0)
(0.00141052774523 -0.0241945672568 0)
(0.00135249708284 -0.0270754940856 0)
(0.00129036687311 -0.0298308107309 0)
(0.00122490216267 -0.0324528343987 0)
(0.00115700055075 -0.0349355245693 0)
(0.00108727228178 -0.0372745132336 0)
(0.00101649615179 -0.0394667786621 0)
(0.000945094258617 -0.0415106640233 0)
(0.000873709313099 -0.0434055042237 0)
(0.000802563325171 -0.0451516597743 0)
(0.000732170887983 -0.0467501263205 0)
(0.000662565816171 -0.0482026069101 0)
(0.000594161245783 -0.049511123627 0)
(0.000526827186576 -0.0506781406987 0)
(0.000460908707918 -0.0517061894034 0)
(0.000396140902125 -0.0525980419065 0)
(0.000332834737454 -0.0533563512362 0)
(0.000270617147068 -0.0539838713759 0)
(0.000209794292661 -0.0544831142134 0)
(0.000149909480974 -0.0548566059468 0)
(9.12899595659e-05 -0.0551065608931 0)
(3.34174122388e-05 -0.0552351657172 0)
(-2.33389976167e-05 -0.0552442800857 0)
(-7.95412751463e-05 -0.0551357331177 0)
(-0.00013475782404 -0.0549110412876 0)
(-0.000189565373378 -0.0545717383273 0)
(-0.000243450247159 -0.054119131148 0)
(-0.000296982586415 -0.0535546161727 0)
(-0.000349549445787 -0.0528794909747 0)
(-0.000401687977913 -0.0520952602403 0)
(-0.000452672121683 -0.0512035081904 0)
(-0.000502980525339 -0.0502061779157 0)
(-0.000551765935254 -0.0491055091245 0)
(-0.000599428785425 -0.0479042750257 0)
(-0.000645003261324 -0.0466057902863 0)
(-0.000688798225942 -0.0452140826925 0)
(-0.000729742766938 -0.0437339683345 0)
(-0.00076805204356 -0.0421711405981 0)
(-0.000802578845597 -0.0405323068729 0)
(-0.000833457393219 -0.0388251719472 0)
(-0.000859513701973 -0.0370586123279 0)
(-0.000880844198613 -0.0352425303385 0)
(-0.000896334770229 -0.0333880202884 0)
(-0.000906133700706 -0.0315070560091 0)
(-0.000909318978615 -0.0296125776167 0)
(-0.000906227181318 -0.0277179894942 0)
(-0.000896279578105 -0.0258371182501 0)
(-0.000880128069159 -0.023983557631 0)
(-0.000857625586958 -0.0221705309475 0)
(-0.000829768685002 -0.0204102167106 0)
(-0.000796795819313 -0.0187136398483 0)
(-0.000759938283392 -0.0170901395199 0)
(-0.000719649024585 -0.0155474123074 0)
(-0.000677202571128 -0.0140912160287 0)
(-0.000633069175581 -0.0127255923296 0)
(-0.00058840674433 -0.0114527703801 0)
(-0.000543578386061 -0.0102734874053 0)
(-0.000499553567139 -0.00918699780207 0)
(-0.000456541637787 -0.00819141080194 0)
(-0.000415305145824 -0.00728374560724 0)
(-0.000375884976179 -0.00646025631806 0)
(-0.00033883722513 -0.00571651138386 0)
(-0.00030403879959 -0.00504769467739 0)
(-0.000271861598118 -0.00444867649549 0)
(-0.000242051984675 -0.0039142662801 0)
(-0.000214845816957 -0.00343924124586 0)
(-0.000189910266585 -0.00301853928554 0)
(-0.00016739609276 -0.00264723675516 0)
(-0.000146935501642 -0.00232069279898 0)
(-0.000128630836677 -0.00203448973131 0)
(-0.00011210598654 -0.0017845492578 0)
(-9.74270861534e-05 -0.00156705752398 0)
(-8.41933308695e-05 -0.00137858863983 0)
(-7.23517276347e-05 -0.00121607627024 0)
(-6.11086380029e-05 -0.00107772022535 0)
(-4.90477990391e-05 -0.00095606815833 0)
(-4.08009915193e-05 -0.000860003644401 0)
(-4.00861059282e-05 -0.000789510959706 0)
(-3.78276408251e-05 -0.000707266713692 0)
(-3.26055492058e-05 -0.00063220212666 0)
(-2.72486457188e-05 -0.000573892698362 0)
(-2.72978580644e-05 -0.000525986209312 0)
(-2.97231139791e-05 -0.00046946408373 0)
(-2.96958098969e-05 -0.000412946347501 0)
(-2.98751982925e-05 -0.000352722280011 0)
(-3.37909303709e-05 -0.000287687071268 0)
(-3.7848314561e-05 -0.000217081779958 0)
(-4.1619417806e-05 -0.00013245883975 0)
(-4.34407881023e-05 -4.18687225277e-05 0)
(0.00493319398876 -0.00160158866135 0)
(0.00515948597332 -0.00520031460697 0)
(0.00514971989833 -0.00882572571287 -6.76746615717e-28)
(0.00507910499213 -0.012387982599 0)
(0.00497613862635 -0.015876008205 0)
(0.00484682658343 -0.0192784320163 0)
(0.0046951183758 -0.0225810575817 0)
(0.00452437527336 -0.0257704020614 0)
(0.00433751386574 -0.0288346466679 0)
(0.00413752146043 -0.0317638213436 0)
(0.00392699599977 -0.0345498898603 0)
(0.00370863807483 -0.0371866132056 0)
(0.00348461359397 -0.0396694890067 0)
(0.00325719589391 -0.0419955143695 0)
(0.00302799291353 -0.0441630800917 0)
(0.00279878118074 -0.0461716945047 0)
(0.00257057883652 -0.0480218788554 0)
(0.0023446874691 -0.0497148893597 0)
(0.00212158178287 -0.0512526422434 0)
(0.00190216973584 -0.0526374556473 0)
(0.00168646968126 -0.0538720171021 0)
(0.00147510033325 -0.0549591535113 0)
(0.00126772190856 -0.0559018426106 0)
(0.0010647678888 -0.0567030115179 0)
(0.000865631702216 -0.0573655873237 0)
(0.000670653017454 -0.0578923211416 0)
(0.000479038697364 -0.0582858709231 0)
(0.000291113335831 -0.0585486485849 0)
(0.000105968201472 -0.058682929297 0)
(-7.60188203864e-05 -0.058690718298 0)
(-0.000255807271978 -0.0585738862691 0)
(-0.000432900121908 -0.0583340711781 0)
(-0.000608232374278 -0.0579728139248 0)
(-0.000781122007942 -0.0574914920289 0)
(-0.000952407816443 -0.0568914817427 0)
(-0.00112115896081 -0.056174122585 0)
(-0.00128804196174 -0.0553408906282 0)
(-0.0014518209104 -0.0543934023726 0)
(-0.00161292100457 -0.0533335899186 0)
(-0.00176976238663 -0.0521637439649 0)
(-0.00192247880025 -0.0508866792217 0)
(-0.00206913646532 -0.0495058122696 0)
(-0.00220955373482 -0.048025302032 0)
(-0.00234146711421 -0.046450155051 0)
(-0.00246439069 -0.0447863264569 0)
(-0.00257579917294 -0.0430408421392 0)
(-0.00267496284055 -0.0412218422731 0)
(-0.00275922899742 -0.0393386989775 0)
(-0.00282777726019 -0.0374019743556 0)
(-0.00287808202649 -0.0354234879409 0)
(-0.00290953880021 -0.0334161387963 0)
(-0.00292016526578 -0.0313938489449 0)
(-0.00291003482779 -0.0293711948807 0)
(-0.0028782051208 -0.0273631735938 0)
(-0.00282586167016 -0.0253846561141 0)
(-0.0027534057376 -0.0234500303941 0)
(-0.00266323434553 -0.0215726174421 0)
(-0.00255694663334 -0.019764356708 0)
(-0.00243777967765 -0.0180353763637 0)
(-0.00230796341 -0.0163938823937 0)
(-0.00217092501984 -0.0148459954718 0)
(-0.00202887290892 -0.0133958755248 0)
(-0.00188489110365 -0.0120457690913 0)
(-0.00174077524236 -0.0107962555977 0)
(-0.00159903682595 -0.00964637794418 0)
(-0.001460928174 -0.00859390962447 0)
(-0.00132833123196 -0.00763550857915 0)
(-0.0012019189331 -0.00676698247159 0)
(-0.00108293767629 -0.00598345678448 0)
(-0.00097149677495 -0.00527962911915 0)
(-0.000868275395095 -0.00464992130313 0)
(-0.000772932381249 -0.00408868597392 0)
(-0.000685738058844 -0.00359030149566 0)
(-0.000606072814165 -0.0031493113409 0)
(-0.000533965210942 -0.00276045831938 0)
(-0.000468662744336 -0.00241877164826 0)
(-0.00041007134417 -0.00211955880631 0)
(-0.000357397369804 -0.0018584581532 0)
(-0.000310484713165 -0.00163139923699 0)
(-0.000268512962778 -0.00143461634231 0)
(-0.00023118538091 -0.00126452399335 0)
(-0.000197351231839 -0.00111761519609 0)
(-0.000165195997702 -0.000989217558076 0)
(-0.000138561171432 -0.000865336284306 0)
(-0.000125837830907 -0.000771212989093 0)
(-0.000115600069782 -0.000691244516362 0)
(-9.64614122275e-05 -0.000611302982022 0)
(-8.13975921202e-05 -0.000557836721374 0)
(-7.9438313963e-05 -0.000501353529836 0)
(-8.54384209625e-05 -0.000457656575645 0)
(-8.83512565004e-05 -0.000410955057917 0)
(-9.23947089271e-05 -0.000347887889446 0)
(-0.000100769762218 -0.000282009667505 0)
(-0.000123333145657 -0.000224054687137 0)
(-0.000147880827102 -0.000142725878386 0)
(-0.000129527754673 -3.8413949762e-05 0)
(0.00841037987822 -0.00164848004626 0)
(0.00882055213567 -0.00530179467293 0)
(0.00873953189849 -0.00893203509298 -6.75787388118e-28)
(0.00860049037135 -0.0125343697342 0)
(0.00841780895569 -0.016061954551 0)
(0.00819458514186 -0.0195010637722 0)
(0.00793499458738 -0.0228365249783 0)
(0.0076437426751 -0.0260546727994 0)
(0.00732561462674 -0.0291436689994 0)
(0.00698545454274 -0.0320936448476 0)
(0.00662783148297 -0.0348967290526 0)
(0.00625714666974 -0.0375469413943 0)
(0.00587729661062 -0.0400400719152 0)
(0.00549189514055 -0.0423734730749 0)
(0.0051039255778 -0.0445458841559 0)
(0.00471608255883 -0.0465571925492 0)
(0.00433039362549 -0.0484082580175 0)
(0.00394867357339 -0.0501006852156 0)
(0.00357208879496 -0.0516366779402 0)
(0.003201714475 -0.0530188434936 0)
(0.00283801748171 -0.0542500891066 0)
(0.00248151064938 -0.0553334641784 0)
(0.00213213670773 -0.0562720983927 0)
(0.0017900191689 -0.0570690786729 0)
(0.00145473687451 -0.0577274234818 0)
(0.00112617500501 -0.0582499892335 0)
(0.000803685675377 -0.0586394733488 0)
(0.000487044033324 -0.0588983448858 0)
(0.000175494325764 -0.0590288717233 0)
(-0.000131183920275 -0.0590330748586 0)
(-0.000433741526626 -0.0589127745106 0)
(-0.000732283241769 -0.0586695666542 0)
(-0.00102744092604 -0.0583048943588 0)
(-0.00131908920895 -0.0578200504375 0)
(-0.00160761909818 -0.0572162678375 0)
(-0.00189255729605 -0.0564947530296 0)
(-0.00217393317501 -0.0556567977264 0)
(-0.00245081687642 -0.0547038433929 0)
(-0.00272276996475 -0.0536376086034 0)
(-0.00298832414342 -0.0524601805004 0)
(-0.00324650153604 -0.0511741495777 0)
(-0.00349525853806 -0.049782720361 0)
(-0.00373305523584 -0.0482898403428 0)
(-0.00395729145989 -0.0467003194899 0)
(-0.00416590092438 -0.0450199426566 0)
(-0.00435581156021 -0.0432555887334 0)
(-0.00452454459473 -0.0414153138035 0)
(-0.00466874535091 -0.039508453728 0)
(-0.00478578509031 -0.0375456539093 0)
(-0.00487242238119 -0.035538912749 0)
(-0.00492641327057 -0.0335014931694 0)
(-0.00494533873891 -0.0314478169898 0)
(-0.00492818015696 -0.0293931644561 0)
(-0.00487424502318 -0.0273533340311 0)
(-0.00478456350326 -0.025344111262 0)
(-0.00466075321757 -0.0233807531607 0)
(-0.00450609645996 -0.0214773955221 0)
(-0.0043242719505 -0.0196465876409 0)
(-0.0041201282073 -0.0178988804624 0)
(-0.00389836422817 -0.0162426362046 0)
(-0.00366417685562 -0.0146839474723 0)
(-0.00342209588054 -0.013226759677 0)
(-0.00317670855011 -0.0118730251132 0)
(-0.00293172592096 -0.0106229497994 0)
(-0.00269076942454 -0.00947519579121 0)
(-0.0024565649535 -0.00842712131029 0)
(-0.00223170001223 -0.00747497874141 0)
(-0.00201787267656 -0.00661415080437 0)
(-0.00181661312681 -0.00583936559888 0)
(-0.00162860975978 -0.00514493862054 0)
(-0.00145444117414 -0.00452497071523 0)
(-0.00129399181967 -0.00397353931698 0)
(-0.00114717632216 -0.00348481941574 0)
(-0.00101339044878 -0.00305319279858 0)
(-0.000892182318003 -0.0026732982807 0)
(-0.000782712160234 -0.00234008455631 0)
(-0.000684365761746 -0.00204881967983 0)
(-0.000596229755947 -0.00179511033312 0)
(-0.000517657419359 -0.00157487965955 0)
(-0.000447771960402 -0.00138434681972 0)
(-0.000386008586519 -0.00121992105393 0)
(-0.000331696557383 -0.00107810681095 0)
(-0.000285110286995 -0.000955015134918 0)
(-0.00024354495386 -0.000835067444017 0)
(-0.000215770946293 -0.000748136829593 0)
(-0.000192236377294 -0.000666958246798 0)
(-0.000168659828684 -0.000605634738203 0)
(-0.000142223232629 -0.000526369936402 0)
(-0.000126719276531 -0.000459676474399 0)
(-0.000130869443513 -0.000421706987051 0)
(-0.000150936318732 -0.000394227149868 0)
(-0.000152406209897 -0.000311139532132 0)
(-0.000172245827474 -0.000257241223281 0)
(-0.00019904702642 -0.000188122155567 0)
(-0.000221081584968 -0.00011373946587 0)
(-0.000210688184601 -3.48413861978e-05 0)
(0.0118823502569 -0.00168588488239 0)
(0.0125144854798 -0.0053998170984 0)
(0.0123968478214 -0.00907701632036 6.75696284492e-28)
(0.0121941928952 -0.0127320193847 0)
(0.0119294642647 -0.0163099027232 0)
(0.0116076976872 -0.0197952099729 0)
(0.0112347443398 -0.0231716775574 0)
(0.0108171877371 -0.0264251746049 0)
(0.0103618976143 -0.0295437216822 0)
(0.00987577809009 -0.0325175470736 0)
(0.00936546041519 -0.0353390430866 0)
(0.00883719500017 -0.0380026322443 0)
(0.00829663051399 -0.0405045915294 0)
(0.0077488254105 -0.0428428259862 0)
(0.00719809405251 -0.0450166427038 0)
(0.00664812126798 -0.0470265050001 0)
(0.00610184724426 -0.0488738148349 0)
(0.00556165929054 -0.0505606918885 0)
(0.00502928281322 -0.0520897953417 0)
(0.00450602504008 -0.0534641470715 0)
(0.00399264486254 -0.0546870016747 0)
(0.00348963163823 -0.0557617153119 0)
(0.00299703698437 -0.0566916602709 0)
(0.00251478099271 -0.0574801328727 0)
(0.00204243830043 -0.0581303036851 0)
(0.00157957162525 -0.0586451555563 0)
(0.00112547145336 -0.0590274611534 0)
(0.000679520449874 -0.0592797446808 0)
(0.000240889673992 -0.0594042809369 0)
(-0.000191060891674 -0.0594030793633 0)
(-0.000617125203591 -0.059277900136 0)
(-0.00103781060285 -0.0590302578093 0)
(-0.00145371585904 -0.0586614659012 0)
(-0.00186505209626 -0.0581726635608 0)
(-0.00227205224286 -0.0575648817381 0)
(-0.00267445872895 -0.0568391007569 0)
(-0.00307196591976 -0.0559963429927 0)
(-0.00346368424855 -0.0550377600755 0)
(-0.00384861757943 -0.0539647493924 0)
(-0.00422511773987 -0.0527790663399 0)
(-0.00459139748998 -0.051482955639 0)
(-0.00494498801846 -0.0500792779385 0)
(-0.00528328264523 -0.0485716432917 0)
(-0.00560300753981 -0.0469645407545 0)
(-0.00590078724193 -0.045263464404 0)
(-0.00617264074832 -0.0434750400373 0)
(-0.00641456801024 -0.0416071398404 0)
(-0.0066221056485 -0.03966900239 0)
(-0.00679096538518 -0.037671321772 0)
(-0.00691671759268 -0.0356263228514 0)
(-0.00699553694987 -0.0335477497128 0)
(-0.00702406331364 -0.0314507736704 0)
(-0.00700023289719 -0.0293517230013 0)
(-0.00692320248546 -0.0272676691038 0)
(-0.00679403747809 -0.0252158187086 0)
(-0.00661541047888 -0.0232128363662 0)
(-0.00639189232052 -0.0212741270635 0)
(-0.00612930788435 -0.0194132168194 0)
(-0.00583464434937 -0.0176412715993 0)
(-0.00551519350331 -0.0159668598265 0)
(-0.00517836624737 -0.014395943734 0)
(-0.0048310110622 -0.0129320809248 0)
(-0.00447949278541 -0.0115767033437 0)
(-0.00412932431752 -0.0103294257262 0)
(-0.00378542543039 -0.00918830438781 0)
(-0.00345186145304 -0.00815007515677 0)
(-0.00313208985679 -0.00721036257927 0)
(-0.00282869300605 -0.00636390985208 0)
(-0.00254360444409 -0.00560482452591 0)
(-0.00227790752406 -0.00492684355011 0)
(-0.00203214171348 -0.00432357529022 0)
(-0.001806208433 -0.00378869869758 0)
(-0.00159971680788 -0.00331609379255 0)
(-0.00141189083764 -0.00289992809514 0)
(-0.00124186389955 -0.00253469977859 0)
(-0.00108855109643 -0.00221526707844 0)
(-0.000950894862754 -0.00193685570416 0)
(-0.000827723501053 -0.00169506389923 0)
(-0.000717971710706 -0.00148585071118 0)
(-0.000620554229564 -0.00130552588464 0)
(-0.000534602366997 -0.00115070366902 0)
(-0.000459439543175 -0.00101869996898 0)
(-0.000395753858306 -0.000902637332632 0)
(-0.000343033704586 -0.000800999078118 0)
(-0.000301416167988 -0.000715174964745 0)
(-0.000267887600125 -0.000638418548778 0)
(-0.000236375932042 -0.000566408989847 0)
(-0.000205327538126 -0.000488136400331 0)
(-0.000191465299793 -0.000437791413686 0)
(-0.00018068871361 -0.000370225437047 0)
(-0.000191413404776 -0.000316850960652 0)
(-0.000225655965138 -0.000283955695613 0)
(-0.000231963564322 -0.000204340385809 0)
(-0.00025982911059 -0.000143147155681 0)
(-0.000289411013026 -8.83156273905e-05 0)
(-0.000284601786881 -2.90068029492e-05 0)
(0.0154376773665 -0.00172646153302 0)
(0.0162701746429 -0.00552301591525 0)
(0.0161153270297 -0.00927493316156 0)
(0.0158465556834 -0.0130030826576 0)
(0.0154954211676 -0.0166493191315 0)
(0.015069439466 -0.0201968150362 0)
(0.0145767014284 -0.0236282416783 0)
(0.0140261042818 -0.0269288960748 0)
(0.0134268984658 -0.030086618164 0)
(0.0127883095876 -0.0330917771649 0)
(0.0121191925218 -0.0359371550515 0)
(0.01142780613 -0.038617753884 0)
(0.0107216084045 -0.0411305554155 0)
(0.0100071792308 -0.0434742462838 0)
(0.00929013608505 -0.0456489393029 0)
(0.00857517404888 -0.0476558960636 0)
(0.00786606056548 -0.0494972738607 0)
(0.00716574908272 -0.0511758922397 0)
(0.00647640783803 -0.0526950351725 0)
(0.0057995681218 -0.0540582766417 0)
(0.00513615270158 -0.0552693418783 0)
(0.00448663334705 -0.0563319877454 0)
(0.00385103939258 -0.0572499133434 0)
(0.00322911340692 -0.0580266827608 0)
(0.0026202933247 -0.0586656719862 0)
(0.00202386539958 -0.0591700217492 0)
(0.00143892152013 -0.0595426096666 0)
(0.000864514340711 -0.0597860243637 0)
(0.000299595712442 -0.059902556282 0)
(-0.000256819249016 -0.0598941923391 0)
(-0.000805726187233 -0.0597626201189 0)
(-0.00134795132391 -0.0595092399869 0)
(-0.00188423327077 -0.0591351988444 0)
(-0.00241502722505 -0.0586414237301 0)
(-0.00294059191126 -0.0580286789891 0)
(-0.00346078136188 -0.0572976325895 0)
(-0.00397514261701 -0.0564489443557 0)
(-0.00448270487977 -0.055483365325 0)
(-0.00498209686854 -0.0544018556115 0)
(-0.00547134669476 -0.0532057113436 0)
(-0.00594802731967 -0.0518967025789 0)
(-0.00640907752057 -0.0504772145632 0)
(-0.00685097670877 -0.0489503900513 0)
(-0.0072695888929 -0.0473202704691 0)
(-0.00766035901306 -0.0455919338839 0)
(-0.00801817882837 -0.0437716349319 0)
(-0.00833760639825 -0.0418669478272 0)
(-0.00861278327174 -0.0398869206629 0)
(-0.00883773186364 -0.0378422332214 0)
(-0.00900642412224 -0.035745347435 0)
(-0.00911327570538 -0.0336105964596 0)
(-0.00915347740527 -0.0314541643099 0)
(-0.00912370934164 -0.0292938489691 0)
(-0.00902258899685 -0.0271485787834 0)
(-0.00885124692102 -0.0250376559262 0)
(-0.00861337831798 -0.0229798435099 0)
(-0.00831523508043 -0.02099243032 0)
(-0.00796510084465 -0.0190903825479 0)
(-0.00757271884084 -0.0172857185954 0)
(-0.007148353841 -0.0155872247778 0)
(-0.00670209827076 -0.0140005507339 0)
(-0.00624324054886 -0.0125285959844 0)
(-0.00578010862898 -0.0111719773832 0)
(-0.00531995106136 -0.00992945588209 0)
(-0.00486907341177 -0.00879824594171 0)
(-0.00443280382109 -0.00777424334953 0)
(-0.00401556769292 -0.00685221737422 0)
(-0.00362075832831 -0.00602602657893 0)
(-0.00325076001291 -0.00528889982427 0)
(-0.00290689667279 -0.0046337582528 0)
(-0.00258962304204 -0.00405352051466 0)
(-0.00229865890385 -0.00354133341226 0)
(-0.00203326078963 -0.00309069424016 0)
(-0.00179232300449 -0.00269550875526 0)
(-0.00157455715424 -0.00235010660688 0)
(-0.00137851581137 -0.00204924528787 0)
(-0.00120271342306 -0.00178810581223 0)
(-0.0010456184521 -0.0015622868973 0)
(-0.000905753800252 -0.00136779790397 0)
(-0.000781692324383 -0.00120105417284 0)
(-0.00067216515437 -0.00105886630499 0)
(-0.000576182061872 -0.000939069970999 0)
(-0.000493156226957 -0.000830920415864 0)
(-0.000432315864398 -0.000746643558255 0)
(-0.00038588143715 -0.000672307964331 0)
(-0.000348223488683 -0.000601591700888 0)
(-0.000317378599834 -0.000534326144686 0)
(-0.000281091862857 -0.000458933648523 0)
(-0.000245476736817 -0.000373754922163 0)
(-0.000240071119465 -0.000320936076905 0)
(-0.000238273657608 -0.000255578733512 0)
(-0.000272123122171 -0.000221155261227 0)
(-0.000311091128557 -0.000175997956678 0)
(-0.000315881347816 -0.000110588293664 0)
(-0.000331381174063 -6.46622348272e-05 0)
(-0.000327046019189 -2.16262465492e-05 0)
(0.0190850605562 -0.00177577828253 0)
(0.0201158092442 -0.00567782679978 0)
(0.0199202260913 -0.00952940805576 0)
(0.0195802505279 -0.0133528111601 0)
(0.0191360309013 -0.017087071181 0)
(0.018597856357 -0.020713962097 0)
(0.0179765247437 -0.024215049569 0)
(0.0172837072014 -0.0275750193687 0)
(0.0165314232946 -0.0307815629492 0)
(0.0157315516206 -0.0338253041357 0)
(0.0148954122365 -0.0366996019663 0)
(0.0140334601426 -0.0394002758485 0)
(0.0131550619039 -0.0419252817286 0)
(0.0122683821094 -0.0442743651688 0)
(0.0113803291528 -0.04644871806 0)
(0.0104965873604 -0.0484506537602 0)
(0.00962167108249 -0.0502833158572 0)
(0.00875903822561 -0.0519504232512 0)
(0.00791119062096 -0.053456057274 0)
(0.00707981507579 -0.0548044852879 0)
(0.00626588582275 -0.0560000214086 0)
(0.00546980057563 -0.0570469152463 0)
(0.00469146267252 -0.0579492682892 0)
(0.00393039938442 -0.0587109682691 0)
(0.00318581816908 -0.0593356420669 0)
(0.0024567078497 -0.0598266185889 0)
(0.00174187350326 -0.0601869041035 0)
(0.00104002795127 -0.0604191628558 0)
(0.000349814277641 -0.0605257068011 0)
(-0.00033010273823 -0.0605084934188 0)
(-0.00100101670298 -0.060369123802 0)
(-0.0016640781133 -0.060108855824 0)
(-0.00232027130237 -0.0597286318487 0)
(-0.00297030131548 -0.0592291111369 0)
(-0.00361456446963 -0.0586107234791 0)
(-0.00425302694973 -0.0578737375178 0)
(-0.00488519756558 -0.0570183508065 0)
(-0.00551001001274 -0.0560447966441 0)
(-0.00612581229416 -0.0549534713549 0)
(-0.00673026993561 -0.0537450745674 0)
(-0.00732038750291 -0.052420761688 0)
(-0.00789244516525 -0.0509822998287 0)
(-0.00844205667755 -0.0494322243061 0)
(-0.00896413512765 -0.0477739897022 0)
(-0.00945297220271 -0.0460121178858 0)
(-0.00990221514 -0.0441523477819 0)
(-0.0103049551779 -0.0422018014131 0)
(-0.0106537351589 -0.0401691817321 0)
(-0.0109407175795 -0.0380650132681 0)
(-0.0111578733195 -0.0359019141496 0)
(-0.01129744694 -0.0336948473501 0)
(-0.0113525669158 -0.0314612486562 0)
(-0.011318151021 -0.0292208730708 0)
(-0.0111918033419 -0.0269952424054 0)
(-0.010974592362 -0.0248066411382 0)
(-0.0106713182616 -0.0226768551512 0)
(-0.0102903612312 -0.0206258778725 0)
(-0.00984308748256 -0.0186707266537 0)
(-0.00934284320424 -0.0168245486047 0)
(-0.00880358258976 -0.0150962613347 0)
(-0.00823864622761 -0.0134908507304 0)
(-0.00765998062647 -0.0120101098888 0)
(-0.00707796653547 -0.0106534308874 0)
(-0.00650151844541 -0.00941840605943 0)
(-0.00593832111722 -0.00830117131247 0)
(-0.0053949379771 -0.00729658230081 0)
(-0.00487683332782 -0.00639832873125 0)
(-0.00438822397922 -0.0055991126616 0)
(-0.00393195020157 -0.00489097227351 0)
(-0.0035094343253 -0.00426571496307 0)
(-0.00312088465539 -0.00371534496245 0)
(-0.00276561338284 -0.00323234302127 0)
(-0.00244238479135 -0.00280976368679 0)
(-0.0021496185433 -0.00244122955332 0)
(-0.00188554140044 -0.00212089705376 0)
(-0.00164825679139 -0.00184342726175 0)
(-0.00143582233192 -0.00160396177337 0)
(-0.00124627924295 -0.00139810727785 0)
(-0.00107770962658 -0.00122192718999 0)
(-0.000928270425001 -0.00107193885005 0)
(-0.000796272830204 -0.000945174896991 0)
(-0.000680671263622 -0.000839071617557 0)
(-0.000579088430123 -0.000739955583408 0)
(-0.000509108731506 -0.000664606118305 0)
(-0.00045595145885 -0.000591995340329 0)
(-0.000415758555212 -0.000528413544954 0)
(-0.000371038693577 -0.000453545614699 0)
(-0.000346237242669 -0.000399931427112 0)
(-0.000327359523561 -0.000341555984539 0)
(-0.000318587017407 -0.000285151371171 0)
(-0.000290274060055 -0.000207252799925 0)
(-0.000302968634047 -0.000158095488758 0)
(-0.000353438171704 -0.000132367213885 0)
(-0.000368593121023 -9.02083395228e-05 0)
(-0.000370078203998 -5.01940840661e-05 0)
(-0.000366813026914 -1.67569957772e-05 0)
(0.0228460238629 -0.00183623825839 0)
(0.0240771320637 -0.0058693003409 0)
(0.023835467735 -0.00984604502056 6.70879965523e-28)
(0.0234168337119 -0.0137883487048 0)
(0.0228702786809 -0.0176317467376 0)
(0.0222092434681 -0.0213563234408 0)
(0.0214477520278 -0.0249423921285 0)
(0.0206007883731 -0.0283739987543 0)
(0.0196836280505 -0.0316387749275 0)
(0.0187112137654 -0.0347277893576 0)
(0.0176976410936 -0.0376352476188 0)
(0.0166557807864 -0.0403581052701 0)
(0.015597029407 -0.0428956344685 0)
(0.0145311870491 -0.0452489800322 0)
(0.0134664311024 -0.0474207350358 0)
(0.012409376002 -0.0494145551123 0)
(0.0113651809538 -0.0512348239755 0)
(0.0103377002744 -0.0528863736926 0)
(0.00932964068278 -0.0543742593327 0)
(0.00834273127968 -0.05570358248 0)
(0.00737787522335 -0.0568793574613 0)
(0.00643530037115 -0.0579064120419 0)
(0.00551468077693 -0.0587893157539 0)
(0.00461525572426 -0.059532328572 0)
(0.00373591803596 -0.060139364928 0)
(0.00287530533362 -0.0606139679459 0)
(0.00203186353412 -0.0609592912349 0)
(0.00120392178909 -0.0611780854098 0)
(0.00038974427368 -0.0612726884177 0)
(-0.000412397896154 -0.0612450246602 0)
(-0.00120417261004 -0.0610965963166 0)
(-0.00198710411266 -0.0608284951236 0)
(-0.00276250895783 -0.0604414222584 0)
(-0.00353139815618 -0.0599357167496 0)
(-0.00429439862807 -0.0593114040705 0)
(-0.00505164401822 -0.0585682646942 0)
(-0.00580269251724 -0.0577059259467 0)
(-0.00654642218629 -0.0567239780526 0)
(-0.00728096608658 -0.0556221129686 0)
(-0.00800363665676 -0.0544002833983 0)
(-0.00871090212729 -0.0530588740592 0)
(-0.00939835923781 -0.0515988793733 0)
(-0.0100607587879 -0.0500220750347 0)
(-0.0106920173523 -0.0483311804078 0)
(-0.0112852626046 -0.0465300077256 0)
(-0.0118328376335 -0.0446236111854 0)
(-0.0123263194098 -0.0426184606307 0)
(-0.0127565040776 -0.0405226754334 0)
(-0.0131134658728 -0.0383463634442 0)
(-0.0133867301981 -0.0361020686796 0)
(-0.0135657404271 -0.0338052819026 0)
(-0.013640708895 -0.0314748603398 0)
(-0.0136039175678 -0.0291330775844 0)
(-0.0134512310239 -0.0268050126694 0)
(-0.0131833824854 -0.02451716385 0)
(-0.0128064229505 -0.0222956059153 0)
(-0.0123314510983 -0.0201641936672 0)
(-0.0117739193578 -0.0181428592737 0)
(-0.0111520696114 -0.016246209131 0)
(-0.0104847229039 -0.0144830239168 0)
(-0.00978920446367 -0.0128569455513 0)
(-0.00908034364214 -0.0113679137071 0)
(-0.00837049601555 -0.0100135131902 0)
(-0.00767005681846 -0.00878980896713 0)
(-0.00698797589916 -0.00769166443832 0)
(-0.0063320393445 -0.00671275491554 0)
(-0.00570886346198 -0.00584550305343 0)
(-0.00512360424315 -0.00508114336877 0)
(-0.0045795851706 -0.00441011024077 0)
(-0.00407814665918 -0.00382269285851 0)
(-0.00361895005597 -0.00330969975873 0)
(-0.00320057543804 -0.00286283374212 0)
(-0.00282107398855 -0.00247469958609 0)
(-0.00247824290972 -0.00213866553455 0)
(-0.00216974005296 -0.00184874500815 0)
(-0.00189314932424 -0.00159952635142 0)
(-0.00164603170654 -0.00138612837666 0)
(-0.00142595016009 -0.00120417428448 0)
(-0.00123049988742 -0.00104978906923 0)
(-0.00105733153475 -0.000919614659268 0)
(-0.000904185085922 -0.000811188063704 0)
(-0.000769628033946 -0.000719706285493 0)
(-0.000662754542163 -0.000641026801768 0)
(-0.000589466765637 -0.000576275935883 0)
(-0.000526613579477 -0.000507529393 0)
(-0.000480125735067 -0.000448450028665 0)
(-0.000437167094419 -0.000389337604614 0)
(-0.000398722116714 -0.000327514599343 0)
(-0.000384780867966 -0.000278650334758 0)
(-0.000364003680152 -0.00021956555666 0)
(-0.000365008517048 -0.000176101842553 0)
(-0.000346105168014 -0.000118126993531 0)
(-0.000366052328603 -8.77134164092e-05 0)
(-0.000402015863673 -6.73847126201e-05 0)
(-0.000399591730442 -3.76310176314e-05 0)
(-0.000396897664888 -1.25779241449e-05 0)
(0.0267458693216 -0.00190975582181 0)
(0.0281814301712 -0.00610259419891 0)
(0.0278868453536 -0.0102322629898 -6.70774428981e-28)
(0.0273796965585 -0.0143192813989 0)
(0.0267186420652 -0.0182947006285 0)
(0.0259208916797 -0.0221364904171 0)
(0.0250043899727 -0.0258235049946 0)
(0.0239881236803 -0.0293391434176 0)
(0.0228912428466 -0.0326711374037 0)
(0.0217322637161 -0.0358112907292 0)
(0.0205284361581 -0.0387550343926 0)
(0.0192952964334 -0.0415008868132 0)
(0.0180463987225 -0.0440498745938 0)
(0.0167932071039 -0.0464049624753 0)
(0.0155451148312 -0.0485705279986 0)
(0.014309560341 -0.0505519027066 0)
(0.0130922034168 -0.0523549903047 0)
(0.0118971371979 -0.0539859621786 0)
(0.0107271083727 -0.055451024879 0)
(0.00958373441362 -0.0567562493294 0)
(0.0084677010631 -0.0579074508926 0)
(0.00737894094618 -0.058910108282 0)
(0.00631678394488 -0.0597693115585 0)
(0.00528008807287 -0.060489729681 0)
(0.00426734462111 -0.0610755912017 0)
(0.00327677064053 -0.0615306719375 0)
(0.00230638285422 -0.0618582866224 0)
(0.00135406846909 -0.0620612812308 0)
(0.000417645961811 -0.0621420250035 0)
(-0.000505067782247 -0.0621024086739 0)
(-0.00141619022739 -0.0619438277259 0)
(-0.00231769163179 -0.061667189596 0)
(-0.00321131090949 -0.0612729230067 0)
(-0.0040984506487 -0.0607609975691 0)
(-0.00498006917213 -0.0601309657196 0)
(-0.00585655668288 -0.0593820273527 0)
(-0.00672761645105 -0.0585131244391 0)
(-0.00759214283294 -0.0575230651702 0)
(-0.00844812068595 -0.0564106802435 0)
(-0.00929254078357 -0.05517500446 0)
(-0.010121355 -0.0538154775372 0)
(-0.010929460706 -0.0523321491626 0)
(-0.0117107284491 -0.0507258744897 0)
(-0.0124580435094 -0.0489984849982 0)
(-0.0131633567496 -0.0471529290681 0)
(-0.0138176923215 -0.0451933949411 0)
(-0.0144111102774 -0.0431254577144 0)
(-0.0149325893857 -0.0409563176357 0)
(-0.015369916384 -0.0386952285266 0)
(-0.0157096864534 -0.0363541776917 0)
(-0.0159376913083 -0.0339488150675 0)
(-0.0160399743137 -0.0314994150139 0)
(-0.0160047297041 -0.0290313847712 0)
(-0.0158249075991 -0.0265746973755 0)
(-0.0155004160527 -0.024161823723 0)
(-0.0150387946249 -0.0218249151095 0)
(-0.0144546093154 -0.0195933663659 0)
(-0.0137689330547 -0.0174913380603 0)
(-0.0130070209809 -0.0155353458841 0)
(-0.0121944607677 -0.0137333908051 0)
(-0.0113535616906 -0.0120864669367 0)
(-0.0105020709179 -0.0105913977042 0)
(-0.00965390842221 -0.00924314105042 0)
(-0.0088204796466 -0.0080358835837 0)
(-0.0080117374851 -0.00696315207669 0)
(-0.00723668388274 -0.00601746864674 0)
(-0.00650332943935 -0.0051898928671 0)
(-0.00581809466531 -0.00446983395456 0)
(-0.00518491384431 -0.00384551449828 0)
(-0.00460478156023 -0.00330507978107 0)