/*--------------------------------*- C++ -*----------------------------------*\
| =========                 |                                                 |
| \\      /  F ield         | OpenFOAM: The Open Source CFD Toolbox           |
|  \\    /   O peration     | Version:  v1906                                 |
|   \\  /    A nd           | Web:      www.OpenFOAM.com                      |
|    \\/     M anipulation  |                                                 |
\*---------------------------------------------------------------------------*/
FoamFile
{
    version     2.0;
    format      ascii;
    class       volScalarField;
    location    "295";
    object      p;
}
// * * * * * * * * * * * * * * * * * * * * * * * * * * * * * * * * * * * * * //

dimensions      [0 2 -2 0 0 0 0];


internalField   nonuniform List<scalar> 
9216
(
269.51007835
269.594332122
269.767748292
270.02878539
270.376356183
270.808773129
271.323909585
271.919301346
272.59214612
273.33940622
274.157791017
275.043868263
275.994030292
277.004611686
278.071836444
279.191939887
280.361095284
281.575539531
282.831479294
284.125221213
285.453058509
286.811407216
288.196674675
289.605403412
291.034122897
292.479502678
293.938188724
295.406967155
296.882586242
298.361932021
299.841836944
301.319268424
302.791125583
304.254441564
305.706169444
307.143399415
308.563135422
309.962527795
311.3386423
312.688708359
314.009882072
315.299509599
316.554885813
317.773531424
318.952948955
320.090911509
321.185218378
322.233992406
323.235438071
324.188143161
325.090842039
325.942714039
326.743151898
327.492044087
328.189543928
328.836318552
329.433312251
329.981948146
330.483885423
330.941172664
331.356009459
331.730864313
332.068256365
332.370853577
332.641283616
332.882221577
333.096230645
333.285843798
333.453431238
333.601279404
333.731481763
333.846018306
333.946666518
334.035082818
334.112729261
334.18095527
334.240934653
334.293745143
334.340311734
334.381482611
334.41797706
334.450459399
334.479495186
334.505729058
334.528694095
334.54793767
334.563898018
334.576805988
334.5867648
334.594145094
334.599369441
334.602959019
334.605376764
334.606856904
334.607609332
334.607878178
269.425889955
269.510570876
269.683975359
269.946072112
270.295239061
270.729665347
271.247164079
271.845213189
272.520974025
273.271356306
274.093038915
274.982539418
275.936227007
276.950390814
278.021241044
279.144973587
280.317757864
281.535797273
282.795303953
284.092555925
285.423859964
286.785606954
288.1742244
289.586231657
291.018183608
292.466727303
293.928538128
295.400379175
296.879031062
298.36135516
299.844218221
301.324560539
302.799316215
304.26548748
305.720062073
307.160094577
308.582622139
309.984753899
311.363586353
312.716301536
314.040083153
315.332223679
316.590042064
317.81099927
318.992618182
320.132606631
321.228780294
322.279192025
323.282058907
324.235896223
325.139449309
325.991828062
326.792440917
327.541120278
328.238049896
328.883865766
329.479565031
330.02656917
330.526610245
330.981757054
331.394289358
331.766703177
332.101591737
332.40164718
332.669558935
332.90801896
333.119638797
333.306959987
333.472388231
333.618209792
333.746541362
333.859353907
333.958437335
334.045432035
334.121805104
334.188886296
334.247850757
334.299755639
334.345525692
334.385988264
334.421859398
334.453774931
334.482270693
334.507824766
334.530477263
334.549614946
334.565244021
334.577783586
334.587590701
334.594896622
334.599967085
334.60344015
334.605818398
334.607216515
334.607891103
334.608171543
269.251688099
269.338111606
269.513268159
269.777947913
270.130510521
270.569089568
271.091424369
271.694905882
272.376612724
273.133364461
273.96176085
274.858235789
275.819090995
276.840544811
277.918756222
279.049865969
280.230009609
281.455350711
282.722083509
284.026459323
285.364780286
286.733420734
288.128813763
289.547469349
290.985955355
292.44091393
293.909038352
295.387088969
296.871866983
298.360231061
299.84906911
301.335316573
302.815927172
304.287894045
305.748220703
307.193946128
308.622117191
310.029818926
311.414149671
312.772257457
314.101318799
315.398581687
316.661348512
317.887025443
319.073109522
320.217243906
321.317209252
322.370984522
323.37674343
324.332920987
325.238215825
326.091660927
326.89262895
327.640898995
328.336653328
328.98052243
329.573555043
330.117224487
330.613363503
331.064132845
331.471933928
331.839362405
332.169124757
332.463998803
332.726766102
332.960183867
333.16693268
333.349598378
333.510633198
333.652346823
333.776880085
333.886206625
333.982120186
334.066247354
334.140045711
334.204822586
334.261737792
334.311823575
334.355988201
334.395034712
334.42966332
334.460486728
334.48802631
334.512752668
334.534707235
334.553148791
334.567895083
334.579734442
334.589256164
334.596315245
334.601087977
334.604432363
334.606649783
334.60792835
334.60861251
334.608961535
268.987218745
269.075206931
269.253094175
269.521801826
269.8796285
270.32461818
270.854397619
271.466230359
272.157063961
272.923583853
273.76226232
274.66941008
275.641218976
276.673805676
277.763244082
278.905598848
280.096946632
281.333399682
282.611117004
283.926319686
285.275293927
286.654400194
288.060070169
289.488811674
290.937201311
292.401886739
293.879576362
295.367040196
296.86109768
298.358618141
299.856507668
301.351710141
302.841194187
304.321955841
305.791006756
307.245379769
308.682119725
310.098293305
311.490983805
312.857306399
314.194407882
315.499487975
316.769804333
318.002699695
319.195611799
320.346105699
321.451888316
322.510845976
323.521064736
324.480875015
325.388880216
326.244010026
327.045556424
327.793228847
328.487183363
329.128056576
329.716960071
330.25546693
330.745556547
331.189553147
331.590038794
331.949779039
332.271644892
332.558556541
332.813426357
333.03911973
333.238413375
333.413968208
333.568299541
333.703759552
333.822518462
333.926558961
334.01767235
334.09746774
334.167380226
334.228686739
334.282517107
334.329870069
334.37162366
334.408549564
334.441321765
334.470528309
334.496676629
334.520257522
334.541057268
334.558200746
334.571888252
334.582986119
334.591734161
334.598262381
334.602884737
334.60601985
334.608047293
334.609268803
334.609958718
334.610305841
268.630816693
268.72073239
268.902349767
269.176584868
269.541630018
269.995395337
270.53534823
271.158576034
271.861843138
272.641650791
273.494293957
274.415916041
275.402557138
276.450197991
277.55479587
278.712315924
279.918754477
281.170158823
282.46263983
283.79238258
285.155650887
286.548791386
287.968232417
289.410483752
290.872131744
292.349836323
293.840323766
295.340382099
296.846852452
298.356623754
299.866623488
301.373812537
302.875176293
304.367720663
305.848464705
307.314439187
308.762682233
310.190242008
311.594176953
312.971564041
314.319504788
315.635139818
316.915660917
318.158331478
319.360503739
320.519643927
321.633353791
322.699400427
323.715743762
324.680574866
325.592355148
326.449869569
327.252281281
327.999196372
328.690717745
329.327488748
329.91070239
330.442081144
330.92381498
331.358472714
331.748893278
332.098086232
332.409146648
332.685191465
332.92930627
333.144503859
333.333686948
333.499618941
333.644897757
333.771934727
333.882936735
333.979897856
334.064600046
334.138625415
334.203372765
334.260075995
334.309820622
334.353559984
334.392129039
334.426258126
334.456584626
334.483664792
334.50798972
334.530034506
334.549159966
334.564681121
334.577105532
334.587186865
334.595258622
334.601245543
334.605423695
334.608289174
334.61019654
334.611357884
334.612029339
334.612371609
268.180498908
268.272831012
268.459243993
268.740606274
269.114956863
269.580020764
270.133050482
270.770899379
271.490089698
272.286881604
273.157338662
274.097388431
275.102875831
276.169609304
277.293398593
278.470085389
279.695566364
280.965810503
282.276870435
283.624889906
285.006106883
286.416854447
287.853558583
289.312734976
290.79098355
292.284982801
293.791482368
295.307295919
296.829292559
298.354388956
299.879540202
301.401731885
302.917971259
304.425280177
305.920687738
307.401225591
308.863923764
310.30581019
311.723911654
313.11525938
314.476896639
315.805891388
317.09935076
318.354440033
319.568402427
320.738582138
321.862447385
322.937616677
323.961886886
324.933268718
325.850030277
326.710756008
327.514419165
328.260468638
328.948914354
329.580396688
330.156211839
330.678290982
331.149122271
331.571622588
331.948986008
332.284549718
332.581698129
332.843798326
333.074152096
333.275956685
333.452270585
333.605985792
333.739803693
333.856211681
333.957461859
334.045558881
334.122264204
334.189117156
334.247462055
334.298473335
334.343176061
334.382464165
334.417115951
334.447808426
334.475130343
334.499594511
334.521672856
334.541641022
334.558639012
334.572399126
334.583634121
334.592787025
334.599916586
334.605023951
334.608809887
334.611427115
334.613140466
334.614329179
334.61500697
334.615357272
267.633756345
267.729077236
267.921457783
268.211693772
268.597620775
269.076719201
269.645961147
270.301897619
271.0407404
271.858443366
272.750778452
273.713404027
274.741923827
275.831936021
276.979072206
278.179027283
279.427580925
280.720612144
282.054107884
283.424167123
284.827001187
286.258931488
287.716385028
289.195888569
290.694061481
292.207607953
293.73330835
295.268010259
296.808618907
298.35208746
299.89540686
301.435595838
302.969690847
304.494736592
306.007777186
307.50584887
308.985974338
310.445159898
311.880395429
313.288658424
314.6669217
316.012165762
317.321394642
318.591655455
319.82005976
321.003806288
322.140203533
323.22669253
324.260871411
325.240525797
326.163671992
327.028621612
327.834073914
328.579237755
329.263965766
329.888870109
330.455372495
330.965689555
331.422730846
331.829906934
332.190896024
332.509459479
332.789337999
333.034198746
333.247600157
333.432958369
333.593515956
333.732317744
333.852191003
333.955719408
334.045211347
334.122678238
334.18984213
334.248173511
334.298937595
334.343228291
334.381992162
334.416047872
334.44610282
334.472767412
334.496568828
334.517963543
334.537399515
334.554830449
334.5695151
334.581521685
334.59139582
334.59931274
334.60535558
334.60984657
334.613237778
334.615618861
334.617141622
334.618278945
334.618941766
334.619278757
266.98748013
267.086442487
267.286100465
267.587151934
267.987168795
268.483315677
269.072205123
269.750003906
270.512532815
271.355363887
272.273909362
273.263499552
274.319447958
275.437103302
276.611889005
277.839331444
279.115078527
280.434910452
281.794744215
283.190633518
284.61876521
286.075453411
287.557131926
289.060345663
290.581741224
292.118057092
293.666113312
295.222800941
296.78507102
298.349923323
299.914394608
301.475546783
303.030454865
304.576195157
306.109833982
307.628417684
309.128964417
310.608458725
312.06384959
313.492052926
314.889958952
316.254444888
317.582392442
318.870709327
320.116352924
321.316353914
322.467837849
323.568043128
324.614337374
325.604236624
326.535439725
327.405892898
328.213903116
328.958310905
329.638702655
330.255613797
330.810608532
331.306289369
331.746174502
332.13438488
332.475261017
332.773095519
333.032043283
333.256111119
333.449148884
333.614822987
333.756584235
333.87765165
333.981002539
334.069345507
334.145064799
334.210171882
334.266315316
334.314853925
334.356938631
334.393558548
334.42556167
334.453674756
334.478519729
334.500626628
334.52044615
334.538359538
334.554732844
334.569366403
334.581611431
334.591746585
334.600078291
334.60673629
334.611845461
334.615810572
334.618676283
334.620824882
334.622275656
334.623205201
334.623857198
334.624166468
266.237881663
266.341231379
266.549654423
266.863715571
267.280648782
267.79721417
268.409567409
269.113391371
269.904019588
270.776553825
271.725969028
272.747202389
273.835225023
274.985096477
276.19200344
277.451284838
278.758445764
280.109162782
281.499282823
282.924817658
284.38193543
285.866950412
287.376311781
288.906591912
290.454474489
292.016742536
293.590266404
295.171991573
296.758926229
298.348128372
299.936692486
301.521735601
303.100383062
304.669753873
306.226946489
307.769025369
309.293009431
310.795863246
312.274492318
313.725743588
315.146412071
316.533254427
317.883008836
319.192420424
320.458269011
321.677395951
322.846725381
323.963275888
325.024163064
326.026596229
326.967889264
327.845507774
328.657199193
329.401231219
330.076738529
330.684097734
331.225006263
331.702589199
332.121265526
332.486223267
332.802718026
333.075673301
333.309684217
333.509111114
333.678123236
333.820665808
333.940416987
334.040781173
334.124911922
334.195691076
334.255621446
334.306705902
334.35045609
334.388043363
334.420455679
334.448552924
334.473065466
334.494611411
334.513714068
334.530810639
334.54626512
334.560378769
334.573440102
334.585024236
334.594730391
334.602927196
334.609677543
334.615089506
334.61934279
334.622649577
334.625162739
334.626990491
334.628322838
334.629081751
334.629727375
334.63000218
265.380396791
265.488997652
265.707900277
266.037489847
266.474566154
267.015372485
267.655485438
268.389981052
269.213589175
270.120836947
271.106173215
272.164070312
273.289102196
274.476000113
275.719688461
277.015304309
278.358204215
279.743961843
281.168359307
282.627374708
284.117167567
285.634063463
287.174538579
288.735204653
290.312794391
291.904147437
293.506196613
295.115954336
296.730498764
298.346959534
299.962502679
301.5743147
303.179585662
304.775491479
306.359175909
307.927732976
309.47819088
311.007498761
312.512518008
313.990019802
315.436690597
316.849146723
318.223958136
319.557680093
320.846888876
322.088215937
323.278371979
324.414152794
325.49242069
326.51006447
327.463955533
328.350948299
329.167990975
329.91245136
330.582682995
331.178784467
331.702511177
332.157664419
332.550063028
332.886596515
333.173800018
333.417269921
333.621970976
333.792587622
333.933632281
334.049368733
334.143707422
334.220227192
334.282277353
334.333004613
334.375135216
334.410656852
334.440817765
334.466457891
334.488336842
334.50717806
334.523578785
334.538032206
334.550952914
334.562673456
334.573460368
334.583529861
334.59302009
334.601449287
334.608727958
334.614994496
334.620141635
334.624278353
334.627612056
334.630290568
334.632506224
334.634158334
334.63524931
334.635930066
334.636511502
334.636774537
264.409565171
264.524431144
264.755821242
265.103874547
265.56483204
266.134274617
266.807044481
267.577457252
268.439497028
269.386992573
270.413765016
271.513743472
272.68104856
273.910046715
275.195379844
276.531975681
277.91504409
279.340064018
280.802764923
282.299105546
283.825252031
285.377556618
286.952537558
288.546860501
290.157321292
291.780829943
293.414395458
295.055111021
296.70013915
298.34669613
299.992035575
301.633430293
303.268152702
304.893453439
306.506538997
308.104548753
309.684533152
311.243434289
312.778071595
314.285134858
315.761187396
317.202681799
318.605988787
319.967439114
321.283372853
322.550188869
323.764379652
324.922535561
326.021302618
327.057281576
328.026892766
328.926246488
329.751169984
330.497588475
331.162437271
331.745495195
332.248245582
332.675301932
333.03476306
333.336468051
333.588767656
333.797729081
333.968405649
334.105697582
334.214523356
334.299539799
334.364882994
334.414221632
334.451088491
334.479078742
334.501405337
334.520057976
334.535740365
334.548670462
334.559304732
334.568288479
334.576080266
334.583026161
334.589429718
334.595505508
334.601411138
334.607253288
334.613041489
334.618386762
334.623269011
334.627547129
334.631136274
334.634165931
334.636739066
334.638878264
334.640659438
334.642096851
334.643108077
334.6437257
334.644189737
334.644454626
263.318874818
263.44121607
263.687480488
264.057470414
264.546701484
265.149901814
265.860978868
266.673294182
267.579911595
268.57381446
269.648080563
270.796011724
272.01122007
273.287676561
274.619729277
276.002099432
277.429862523
278.898420823
280.403471977
281.940977032
283.507129937
285.098329641
286.711155085
288.342343102
289.988768747
291.647427702
293.315420004
294.989934622
296.668233955
298.347637629
300.025504835
301.699214408
303.366142269
305.023636148
306.668987811
308.299403673
309.911975262
311.503651591
313.071216613
314.611275131
316.120251659
317.594406096
319.02986931
320.422699415
321.768953702
323.064766457
324.306410231
325.490314469
326.61300204
327.670916011
328.660120879
329.575927437
330.412634721
331.163804874
331.823605758
332.391993362
332.869095042
333.260227433
333.577387466
333.836129949
334.047303481
334.216543578
334.348232357
334.447306556
334.51928981
334.569450758
334.602096811
334.62072905
334.628919629
334.631066905
334.631576564
334.632518557
334.633403739
334.63318634
334.631980908
334.630636618
334.629465131
334.62860402
334.628271619
334.628544735
334.629466942
334.631029016
334.633151765
334.635495131
334.637989091
334.640351621
334.642592912
334.644688273
334.64659745
334.648230593
334.649642711
334.650775028
334.651704049
334.65233645
334.65266282
334.652901832
262.100561001
262.231843659
262.495865658
262.891962551
263.414701568
264.057704631
264.813683668
265.674799818
266.632981434
267.680192124
268.808636341
270.01090131
271.280040729
272.609610315
273.993666916
275.426742918
276.903806062
278.420212726
279.97166034
281.554142537
283.163908935
284.797430188
286.451368147
288.122550549
289.807949434
291.504662482
293.209896411
294.920951534
296.63520652
298.350102124
300.06312315
301.771776953
303.473568249
305.165969383
306.84638658
308.512122366
310.160336434
311.78800663
313.391894709
314.968521022
316.514155028
318.024828349
319.496376688
320.924515549
322.304945925
323.63348105
324.906162259
326.119324967
327.269544592
328.353390632
329.366905863
330.30479194
331.159423321
331.920502902
332.575882804
333.128931509
333.574739332
333.918449187
334.178926611
334.384308523
334.548277729
334.673062974
334.760742789
334.816120635
334.846066256
334.856995381
334.853315507
334.837619627
334.812949377
334.785161304
334.761721026
334.745112047
334.732009675
334.718629472
334.704902031
334.69286463
334.682561735
334.673701913
334.66654309
334.660972846
334.65692099
334.654260897
334.652809995
334.652352857
334.652613765
334.653378064
334.654449529
334.655674946
334.656913068
334.658093554
334.659210501
334.660156386
334.660928435
334.661576639
334.661785635
334.662010227
260.745342216
260.887373151
261.172689538
261.599977292
262.162549094
262.852580301
263.661243937
264.579185596
265.596932334
266.705222655
267.895244773
269.158785723
270.488303071
271.876935976
273.318473765
274.807298656
276.338316296
277.906884077
279.5087437
281.139961493
282.796877724
284.476064719
286.174292699
287.888502064
289.615780658
291.353344968
293.098523986
294.848744872
296.601518903
298.354426445
300.105099335
301.851198867
303.590388075
305.320297747
307.038485554
308.742389097
310.429274218
312.096181186
313.739873565
315.356795497
316.943047291
318.4943894
320.006287815
321.474011168
322.892784488
324.257990581
325.565387903
326.811283614
327.992564329
329.106440529
330.14971979
331.117306938
331.99977055
332.780687083
333.431034479
333.972040674
334.380611333
334.658800396
334.837258026
334.976153772
335.088489507
335.165616746
335.204195606
335.209473038
335.191343371
335.15889437
335.116192323
335.063108124
335.000198605
334.935776846
334.885761151
334.854084704
334.830271915
334.804195772
334.776457339
334.753427269
334.734184389
334.717175221
334.703251797
334.691922637
334.683021493
334.676345186
334.671568879
334.668586639
334.66696935
334.666351524
334.666429405
334.666860747
334.667527998
334.668355809
334.669228401
334.670030086
334.670737941
334.671317699
334.671514468
334.671725882
259.242071514
259.397113569
259.708135022
260.172905461
260.783059696
261.528862554
262.399492594
263.383674671
264.470206851
265.648363869
266.908166402
268.240526513
269.63729118
271.091211337
272.595863496
274.145547304
275.735176778
277.360177092
279.016393677
280.700016278
282.407517914
284.135606984
285.881190106
287.641343268
289.413289206
291.194379485
292.982080057
294.773959144
296.567676015
298.360968591
300.151638045
301.937527306
303.716491927
305.486361726
307.244892621
308.989708343
310.718233852
312.42762187
314.114678522
315.775794361
317.406894109
319.003419931
320.560370167
322.072415478
323.534109323
324.940199337
326.286006071
327.56780509
328.783082329
329.930473146
331.009033872
332.016182231
332.942800992
333.765116563
334.399146174
334.944017819
335.309398366
335.492312873
335.540432019
335.619653333
335.701970434
335.739884409
335.723752373
335.664444122
335.582980703
335.496423538
335.408119739
335.309633461
335.19407648
335.075484292
334.993603894
334.955113791
334.929341995
334.890882162
334.844269129
334.810161871
334.783291747
334.757767637
334.737356942
334.720488089
334.706940784
334.696617151
334.688968924
334.683819497
334.680673944
334.67893026
334.678174204
334.678008727
334.678325361
334.678955142
334.679646701
334.680343908
334.680975432
334.68150966
334.6818305
334.681995207
257.577268449
257.748207211
258.090524948
258.600686785
259.268051942
260.080336156
261.024113901
262.085667213
263.251663662
264.509643091
265.848309204
267.257650466
268.728929212
270.254582154
271.828072105
273.443722673
275.09655817
276.78216196
278.496559147
280.236124276
281.997511472
283.777602848
285.573470673
287.382349467
289.201615013
291.028768665
292.861425695
294.697307038
296.534232609
298.370114014
300.202943423
302.030774863
303.851694776
305.663780354
307.465043491
309.253360547
311.026387659
312.781463234
314.515502229
316.224889109
317.905385452
319.5520725
321.159362434
322.721116288
324.230913255
325.682498164
327.070399275
328.390645281
329.641452375
330.823726949
331.941028337
332.997963456
333.99476482
334.916719638
335.489956762
336.186347295
336.540139825
336.56773449
336.273724337
335.914640431
335.772619135
335.746832923
335.741432611
335.719701003
335.679178198
335.628315402
335.563744153
335.470366991
335.334358327
335.165356157
335.053772483
335.042562601
335.040358047
334.985425333
334.903662897
334.85986146
334.830056201
334.793894651
334.767709955
334.745772793
334.727704698
334.714272844
334.704265858
334.697526235
334.693249123
334.690793862
334.689486032
334.689051
334.689260469
334.689749389
334.690330441
334.690993075
334.691613192
334.692163078
334.692580589
334.692721264
255.734483993
255.925065805
256.305893888
256.871547242
257.608255861
258.500296326
259.530818743
260.682989875
261.940860788
263.289940482
264.717487613
266.212569974
267.765957329
269.369914508
271.017951742
272.704574177
274.425056959
276.175258808
277.951477289
279.750342403
281.568741845
283.403770002
285.252693313
287.112926137
288.982013302
290.857617715
292.737512647
294.619578748
296.501804526
298.382287116
300.259229008
302.130924881
303.995734282
305.852037623
307.698173211
309.532354163
311.352564361
313.156432171
314.94108506
316.702989816
318.437795997
320.140205766
321.803919153
323.421715239
324.985753265
326.488172631
327.922022058
329.282432045
330.567957987
331.782120081
332.935346491
334.049253679
335.177647571
336.50619637
336.565675793
336.330640154
336.374189545
336.399982145
336.268978709
336.07387246
335.92438063
335.834878763
335.771247444
335.7075505
335.63935439
335.567903942
335.48957379
335.404762051
335.322877544
335.26274571
335.244635484
335.258398021
335.241747523
335.116333856
334.923499038
334.88641528
334.8770338
334.822826387
334.79320729
334.767226632
334.743970024
334.728492317
334.716557033
334.709070557
334.70428988
334.701595653
334.70022056
334.699831196
334.700014204
334.700491253
334.70113134
334.701859042
334.702582162
334.703162454
334.70365119
334.703805894
253.693422371
253.908610216
254.337427242
254.971685532
255.79324345
256.781686561
257.915631844
259.174268701
260.538455955
261.991371006
263.518755959
265.108852693
266.752134694
268.440936705
270.169061863
271.931419313
273.723720807
275.542245789
277.383671948
279.244960999
281.12328661
283.015991222
284.920560338
286.834605957
288.755854472
290.682138117
292.611391387
294.541654792
296.471085377
298.397970317
300.320736284
302.237946377
304.148277649
306.050477059
307.943292326
309.825377668
311.695169956
313.550731854
315.389559284
317.208353516
319.002772115
320.767182376
322.494475857
324.176034952
325.801997449
327.361980101
328.846390925
330.248108103
331.564387464
332.798683523
333.963081352
335.08600787
336.261985253
336.451163068
336.556902072
336.481952506
336.409434569
336.347175494
336.214329911
336.046440221
335.90386501
335.80246787
335.723925342
335.652406187
335.582888612
335.512143228
335.438574762
335.364306451
335.295910042
335.243080648
335.211800183
335.192581196
335.162303193
335.121416306
335.106962514
335.105078941
335.010405189
334.828745941
334.804712682
334.784638861
334.753111442
334.738913252
334.724753632
334.718049953
334.713409343
334.711125053
334.710170395
334.710043883
334.710416647
334.71114536
334.712035417
334.712937644
334.713782413
334.71446618
334.715014563
334.715199175
251.428707195
251.675216687
252.164725179
252.884907044
253.811416139
254.917369806
256.175352457
257.559482465
259.046769148
260.617795454
262.256831972
263.951544129
265.692464603
267.472380937
269.28574612
271.128174815
272.996050836
274.88624573
276.795934011
278.72248368
280.663399762
282.616300078
284.578906686
286.549041571
288.524621064
290.503649931
292.484220356
294.464522778
296.442870557
298.417733062
300.387765573
302.351822259
304.308942682
306.258309305
308.199174522
310.13075768
312.052105905
313.961908103
315.858253192
317.738320839
319.59801212
321.431526867
323.230955054
324.985993051
326.684014651
328.310836363
329.852570954
331.29797841
332.640814933
333.882832886
335.042242648
336.184203692
336.349097698
336.458203864
336.49151878
336.42959837
336.342276597
336.244807627
336.110217515
335.957151018
335.820539672
335.712912033
335.626321708
335.552479213
335.485718597
335.420962681
335.35757788
335.297343693
335.244029911
335.202182537
335.173166841
335.150274399
335.122170901
335.088500856
335.06272774
335.042023906
335.018422879
335.010854115
334.974340222
334.824306172
334.738805695
334.745418337
334.726573754
334.724662644
334.720341188
334.719396409
334.719428238
334.719769704
334.720683742
334.721885605
334.723120444
334.724259344
334.725225452
334.726072789
334.726659085
334.726917069
248.908108306
249.195248704
249.762832677
250.592220526
251.650112848
252.900622904
254.308282226
255.840777893
257.470567807
259.175496725
260.938624818
262.747540839
264.593428909
266.470106879
268.373176343
270.299349955
272.245967679
274.210681974
276.191277847
278.185590073
280.191482432
282.206858866
284.229683424
286.25799352
288.289900521
290.323581612
292.357275487
294.38929892
296.418090405
298.442274278
300.460723142
302.472596171
304.477338326
306.474640669
308.464364111
310.446434551
312.420695591
314.386707235
316.343456968
318.288971837
320.219802854
322.130368664
324.012204071
325.8531813
327.637110067
329.344219026
330.95407129
332.448605419
333.816069953
335.062656408
336.249340593
336.360770541
336.40233045
336.430372674
336.40766861
336.322872654
336.211020089
336.085787423
335.943638147
335.796550179
335.664021781
335.555196603
335.467823835
335.396907259
335.336506587
335.281661578
335.231678434
335.187511336
335.150919793
335.123449836
335.104344271
335.088885071
335.070715456
335.048250768
335.026728031
335.00646148
334.983113502
334.962839848
334.942504174
334.932393648
334.904486591
334.792992714
334.708666825
334.729775192
334.724112448
334.726781358
334.728345715
334.729110171
334.730895676
334.73280209
334.734481313
334.735889853
334.737036908
334.73802126
334.738686189
334.739039222
246.089935749
246.430963816
247.100969173
248.071440982
249.295956036
250.72600038
252.315361879
254.023662313
255.81815307
257.674062002
259.573876069
261.506000235
263.463205379
265.441176974
267.437335438
269.449978753
271.477724204
273.519192256
275.57286798
277.637079452
279.710042478
281.789930171
283.874936428
285.963312916
288.053371912
290.143464522
292.231958416
294.317254172
296.397855169
298.472482288
300.540190064
302.600443166
304.653131823
306.698530347
308.737216368
310.769969675
312.79764028
314.820946723
316.840169691
318.85470107
320.8623789
322.858593889
324.834996916
326.77797959
328.66707864
330.474323622
332.169259604
333.723838479
335.125996708
336.42932484
336.493339897
336.447843643
336.405956211
336.355024179
336.269440929
336.146289671
336.004430922
335.856227565
335.70589137
335.561720581
335.434615765
335.330592918
335.249555738
335.18722415
335.137348999
335.095718455
335.061454368
335.034569676
335.015299967
335.003491657
334.997598185
334.994268617
334.989805635
334.982866327
334.97486804
334.965056901
334.950250933
334.932801509
334.913917455
334.895890584
334.877872041
334.872168339
334.85355803
334.772349127
334.717768924
334.733870482
334.737446368
334.737779311
334.741088268
334.744024681
334.746222456
334.747927045
334.7492877
334.750380509
334.751194019
334.751633841
242.919097789
243.333499088
244.140889255
245.296914332
246.735645485
248.390802704
250.201928202
252.118733685
254.102845506
256.12751035
258.175907051
260.23875134
262.311819913
264.393835334
266.484897962
268.585459851
270.695743924
272.815488928
274.943911318
277.079795823
279.221646612
281.367846339
283.51678326
285.666918526
287.816782943
289.964917307
292.109799062
294.24984478
296.383514927
298.509518315
300.627018917
302.73577073
304.836147923
306.929086577
309.01598254
311.098610444
313.179031676
315.259437862
317.341872769
319.427739
321.517123102
323.607575112
325.692424081
327.757857542
329.779302084
331.715766209
333.522502101
335.16775583
336.697619809
336.739260988
336.595578638
336.463145226
336.341862126
336.210250137
336.060099392
335.894092331
335.723489324
335.557796872
335.40227472
335.26233084
335.143708482
335.04968968
334.980493038
334.931196264
334.895102276
334.869033048
334.852000212
334.843239458
334.841970641
334.847132663
334.856924475
334.868754211
334.880055815
334.889454596
334.89676538
334.90111189
334.900973548
334.896856569
334.888573596
334.876283332
334.862594441
334.851904063