/*--------------------------------*- C++ -*----------------------------------*\
| =========                 |                                                 |
| \\      /  F ield         | OpenFOAM: The Open Source CFD Toolbox           |
|  \\    /   O peration     | Version:  v1906                                 |
|   \\  /    A nd           | Web:      www.OpenFOAM.com                      |
|    \\/     M anipulation  |                                                 |
\*---------------------------------------------------------------------------*/
FoamFile
{
    version     2.0;
    format      ascii;
    class       volVectorField;
    location    "295";
    object      Ua;
}
// * * * * * * * * * * * * * * * * * * * * * * * * * * * * * * * * * * * * * //

dimensions      [0 1 -1 0 0 0 0];


internalField   nonuniform List<vector> 
9216
(
(-0.0070695709441 0.00708226693008 0)
(-0.00692874681766 0.0212216564441 2.43199109583e-27)
(-0.00695449841557 0.0358163291196 -4.76060380905e-31)
(-0.00692167889678 0.0502922276127 0)
(-0.00686107343741 0.0646512208569 0)
(-0.0067789731465 0.0788376886684 0)
(-0.00668099857259 0.0928087404414 0)
(-0.00656587400575 0.10652778671 0)
(-0.00643788985242 0.119958973443 0)
(-0.00629444635399 0.133071137292 0)
(-0.00614034481373 0.145833277007 0)
(-0.005972239711 0.158219000077 0)
(-0.00579561701071 0.170202044962 0)
(-0.00560640104007 0.181760701511 0)
(-0.00541071071244 0.19287328338 0)
(-0.00520367411471 0.203522444907 0)
(-0.00499197198918 0.213690617816 0)
(-0.00476989134486 0.22336415161 0)
(-0.00454459283047 0.23252881867 0)
(-0.00430949385211 0.241173764035 0)
(-0.00407218304715 0.249287154664 0)
(-0.00382523760596 0.256859872143 0)
(-0.00357662861491 0.26388145269 0)
(-0.00331815419387 0.270343507198 0)
(-0.00305815852659 0.276236041349 0)
(-0.00278778275979 0.28155052031 0)
(-0.00251573318841 0.286276719919 0)
(-0.00223263917376 0.290405404115 0)
(-0.00194758442648 0.293925783334 0)
(-0.00165088521518 0.296827693257 0)
(-0.00135200100896 0.299099866334 0)
(-0.00104111685944 0.300731463144 0)
(-0.000728095429739 0.301711171212 0)
(-0.000403277390245 0.30202824974 0)
(-7.69240107306e-05 0.301672430451 0)
(0.000260247115688 0.300634338604 0)
(0.000597570617134 0.298906310167 0)
(0.000943699687896 0.296482088879 0)
(0.00128760292091 0.293358597868 0)
(0.00163709556265 0.289534892509 0)
(0.00198084207923 0.285014811304 0)
(0.00232564372364 0.279805137386 0)
(0.00265997401587 0.273919077679 0)
(0.00298950975129 0.267373674971 0)
(0.003302669921 0.260193950867 0)
(0.0036039615558 0.252409612629 0)
(0.00388194862728 0.244059666634 0)
(0.00414006998748 0.235188513672 0)
(0.00436735188144 0.225850641005 0)
(0.00456651786849 0.216106097531 0)
(0.0047276268534 0.206024726967 0)
(0.0048534190036 0.195680967732 0)
(0.00493582779245 0.185156974037 0)
(0.0049786208296 0.174536757724 0)
(0.00497646249548 0.163907866761 0)
(0.00493498389477 0.153355339505 0)
(0.00485186394633 0.142962315397 0)
(0.00473462487538 0.132804742347 0)
(0.00458330204029 0.122951952928 0)
(0.00440646210006 0.113462967887 0)
(0.00420530676679 0.104387784045 0)
(0.0039884532038 0.0957651577929 0)
(0.00375738123733 0.087624478334 0)
(0.00352015966561 0.0799843874752 0)
(0.003278005197 0.0728549744359 0)
(0.00303800466054 0.0662369444092 0)
(0.0028006967681 0.0601241550548 0)
(0.00257185786895 0.0545031501862 0)
(0.00235111978633 0.0493559403565 0)
(0.00214282756539 0.0446596158783 0)
(0.00194572438417 0.0403891589356 0)
(0.00176284531157 0.0365168939411 0)
(0.00159227054244 0.0330150664256 0)
(0.00143601605967 0.0298550008148 0)
(0.00129180915703 0.027009303617 0)
(0.00116096309697 0.024450778238 0)
(0.00104110512168 0.0221542486594 0)
(0.000933074817803 0.0200953672424 0)
(0.000834497439132 0.0182521595729 0)
(0.000745697012423 0.0166040029014 0)
(0.000663733028826 0.0151334480378 0)
(0.00058671745368 0.0138262625169 0)
(0.000502988229676 0.0126926605083 0)
(0.000389791462577 0.0115399399376 0)
(0.000377585126427 0.010954312713 0)
(0.000402845166375 0.010119901117 0)
(0.000364068579931 0.00927403332099 0)
(0.000316236180233 0.00859950245812 0)
(0.00033807723599 0.00802549169076 0)
(0.000393326672213 0.00728699195534 0)
(0.000409630738953 0.00651280756392 0)
(0.000431418825678 0.00564523887424 0)
(0.000509432656441 0.00466296035051 0)
(0.000589033940953 0.00355586452093 0)
(0.0006649649868 0.00218983035893 0)
(0.00071030384863 0.000694848938719 0)
(-0.0212220685344 0.00697864819411 0)
(-0.0223511881553 0.0224823466479 0)
(-0.0223325887702 0.0379919979474 -2.49983680867e-27)
(-0.0221655658745 0.0534454207353 0)
(-0.0219248248187 0.0687276139442 0)
(-0.0216170881635 0.0838144462506 0)
(-0.0212515923731 0.0986675948981 0)
(-0.0208283161925 0.113249750695 0)
(-0.0203556424261 0.127524256502 0)
(-0.0198321046756 0.141457528557 0)
(-0.0192670619217 0.155017455635 0)
(-0.018658097314 0.16817534996 0)
(-0.0180155859058 0.180904132078 0)
(-0.0173359916794 0.193180153379 0)
(-0.0166304530303 0.204981272234 0)
(-0.0158940477004 0.216288556937 0)
(-0.0151384054482 0.227084290681 0)
(-0.0143570028162 0.237353552067 0)
(-0.0135617278534 0.247082200337 0)
(-0.0127443303305 0.256258334246 0)
(-0.011916818149 0.264870321507 0)
(-0.0110692287262 0.272908145946 0)
(-0.0102136419435 0.280361559297 0)
(-0.00933852342568 0.287221323398 0)
(-0.00845608170993 0.293477556069 0)
(-0.00755348525969 0.299120868824 0)
(-0.0066431879626 0.304140979049 0)
(-0.00571142283273 0.308527733389 0)
(-0.00477106584417 0.312270039036 0)
(-0.00380786873852 0.315356756665 0)
(-0.00283533592059 0.317775981682 0)
(-0.00183922050056 0.319515897813 0)
(-0.000833871098796 0.320564405186 0)
(0.000194349277366 0.320909727695 0)
(0.0012300113598 0.320540607864 0)
(0.00228559298626 0.319446710736 0)
(0.00334437891243 0.317619282434 0)
(0.00441714165473 0.315051335704 0)
(0.00548576646468 0.311738768024 0)
(0.00655888279804 0.307680291075 0)
(0.00761697193681 0.302878956128 0)
(0.00866620593472 0.29734178567 0)
(0.00968579182097 0.291081649936 0)
(0.0106792849754 0.284116588002 0)
(0.0116248545544 0.27647194677 0)
(0.012523453323 0.268179392146 0)
(0.0133526350359 0.25927919661 0)
(0.0141111301118 0.249818925274 0)
(0.0147767260458 0.239855623242 0)
(0.0153470511575 0.22945403076 0)
(0.0158018399025 0.218688228775 0)
(0.0161398963479 0.20763908395 0)
(0.0163456391696 0.196394774481 0)
(0.0164222371381 0.185047200929 0)
(0.0163617348201 0.173691117401 0)
(0.0161742442447 0.162419794127 0)
(0.0158605876668 0.151323318534 0)
(0.0154376952818 0.140484617143 0)
(0.0149131345361 0.129978235202 0)
(0.0143075967863 0.119867900237 0)
(0.0136315336956 0.110206617062 0)
(0.0129060702653 0.101035710139 0)
(0.0121418303033 0.0923857270534 0)
(0.0113585461892 0.0842761227503 0)
(0.0105654952891 0.0767165499584 0)
(0.00977966428498 0.0697070294982 0)
(0.00900772468221 0.0632396731819 0)
(0.00826286905122 0.0572992554928 0)
(0.00754843420377 0.0518652065992 0)
(0.00687346967736 0.0469123006875 0)
(0.00623802353453 0.0424126471734 0)
(0.00564742598513 0.0383362075526 0)
(0.00509918313568 0.0346524982548 0)
(0.00459586713141 0.0313307487385 0)
(0.00413347177966 0.0283411915643 0)
(0.00371281676871 0.0256548908325 0)
(0.00332923697845 0.0232446694977 0)
(0.00298254161534 0.021084712655 0)
(0.00266788399341 0.0191511836205 0)
(0.00238428628747 0.0174216030904 0)
(0.00212620515477 0.0158749540352 0)
(0.00188985643685 0.0144895496535 0)
(0.0016630832506 0.0132455117073 0)
(0.00141590367647 0.0120386074148 0)
(0.00128023778872 0.0108066473566 0)
(0.00126093365407 0.0100177703546 0)
(0.00108959027384 0.00907564798973 0)
(0.000950725916345 0.00845691967428 0)
(0.000988861045015 0.00774664679344 0)
(0.00113114315864 0.00717942697582 0)
(0.00122324771716 0.00653987652791 0)
(0.0013425851281 0.00562002336317 0)
(0.0015273707474 0.00461031214301 0)
(0.00192975767805 0.00368774021919 0)
(0.00237599933216 0.00236234176451 0)
(0.00212631779092 0.000639136978335 0)
(-0.0359539254856 0.00707184577476 0)
(-0.0379193960307 0.0227145194427 0)
(-0.0377723525197 0.0382620834423 -2.5032744266e-27)
(-0.0374604940262 0.0538221341399 0)
(-0.0370445553954 0.0692121249158 0)
(-0.0365267156722 0.0844038630274 0)
(-0.0359128352285 0.099357592563 0)
(-0.0352062685394 0.114035296123 0)
(-0.0344145046563 0.128400370489 0)
(-0.0335412697355 0.142418728478 0)
(-0.0325949975088 0.156058416123 0)
(-0.0315793216486 0.169290368704 0)
(-0.0305031837963 0.182087833507 0)
(-0.0293696533391 0.194426971126 0)
(-0.0281876881993 0.206286155275 0)
(-0.0269593099038 0.217646454295 0)
(-0.0256930271995 0.228490830507 0)
(-0.0243894087776 0.238804510849 0)
(-0.0230561535429 0.248574131011 0)
(-0.021692124116 0.257788026245 0)
(-0.0203040183334 0.266435359887 0)
(-0.0188889419768 0.27450636045 0)
(-0.0174525960276 0.281991503238 0)
(-0.015990489663 0.28888173538 0)
(-0.0145075196222 0.295167753385 0)
(-0.0129979442884 0.300840233897 0)
(-0.0114661920019 0.30588926437 0)
(-0.0099057539282 0.310304600738 0)
(-0.00832103169948 0.314075271841 0)
(-0.00670533694503 0.317189851701 0)
(-0.00506358533457 0.319636310784 0)
(-0.00338959003268 0.321402305599 0)
(-0.00168932941915 0.32247523618 0)
(4.21251726701e-05 0.322842610372 0)
(0.00179708372499 0.322492355895 0)
(0.00357845822265 0.321413224027 0)
(0.00537626110155 0.319595357092 0)
(0.00719069968249 0.317030707525 0)
(0.00900903480502 0.313713847611 0)
(0.0108282562427 0.309642369751 0)
(0.0126326244219 0.304817873022 0)
(0.0144156253586 0.299246290869 0)
(0.0161584986229 0.292939010809 0)
(0.0178511672462 0.285913103261 0)
(0.0194720280209 0.278192516906 0)
(0.0210076191624 0.269808199953 0)
(0.0224339680144 0.26079933576 0)
(0.0237349044165 0.251213333128 0)
(0.0248853035474 0.241106942957 0)
(0.0258681496316 0.230545915384 0)
(0.0266599770206 0.219605599889 0)
(0.0272468207111 0.20836977803 0)
(0.0276117972508 0.196930077781 0)
(0.0277497058935 0.185383400348 0)
(0.0276559104716 0.17382969257 0)
(0.0273387500883 0.162368098295 0)
(0.0268083738535 0.151093756043 0)
(0.0260863393309 0.140094108385 0)
(0.0251939564463 0.129446558115 0)
(0.0241599025972 0.119216687141 0)
(0.0230094471955 0.109458018147 0)
(0.0217721326068 0.100211884107 0)
(0.020472715563 0.0915080875801 0)
(0.0191387612961 0.083365074894 0)
(0.0177922317026 0.0757907959324 0)
(0.0164564416419 0.068783385551 0)
(0.0151483361171 0.0623325046214 0)
(0.0138850910959 0.0564205172144 0)
(0.0126773438228 0.0510241519895 0)
(0.0115355298775 0.046115779394 0)
(0.0104640691759 0.0416650892617 0)
(0.00946743758441 0.0376401407759 0)
(0.00854521290035 0.0340086831779 0)
(0.0076976716187 0.0307387480393 0)
(0.0069214199778 0.0277994784848 0)
(0.0062142993673 0.0251613337898 0)
(0.00557146847683 0.0227965574567 0)
(0.00498963341824 0.0206791127117 0)
(0.0044635513231 0.0187848655416 0)
(0.00398968434678 0.017091209875 0)
(0.00356312660529 0.0155767650537 0)
(0.00318093939702 0.0142197113778 0)
(0.00284046783208 0.0130025230358 0)
(0.00255103181594 0.0118245902586 0)
(0.00231116328251 0.0106833713358 0)
(0.00213335608001 0.00985508960087 0)
(0.00193068109764 0.00915106095487 0)
(0.00169901007516 0.00815202824137 0)
(0.00159166343539 0.00727079050181 0)
(0.00173037089792 0.00677785854294 0)
(0.00210544235906 0.00640167470292 0)
(0.00224039111726 0.00514142958597 0)
(0.00263184348556 0.00429316528886 0)
(0.00314565931343 0.00316235314797 0)
(0.00358146744658 0.00191465137951 0)
(0.00347119288526 0.000586950457378 0)
(-0.0507689189414 0.00714244112032 0)
(-0.0536428707168 0.0229300826755 0)
(-0.0534313708719 0.0385848752608 2.50294315575e-27)
(-0.052983115622 0.0542688723345 0)
(-0.0523870150223 0.0697818132311 0)
(-0.0516486124228 0.0850929619161 0)
(-0.050774092122 0.100160882779 0)
(-0.0497696909517 0.114946513041 0)
(-0.0486437784342 0.129412756777 0)
(-0.0474039142355 0.143525025085 0)
(-0.0460595955485 0.157251241496 0)
(-0.0446188226536 0.170562157795 0)
(-0.043091428107 0.183431209399 0)
(-0.0414850814128 0.195834687392 0)
(-0.039809190962 0.207751457158 0)
(-0.0380703644905 0.219163000568 0)
(-0.0362769026142 0.230053020814 0)
(-0.0344337442881 0.240407378151 0)
(-0.0325475626188 0.250213611659 0)
(-0.0306212377545 0.259460798754 0)
(-0.0286595548962 0.268139042467 0)
(-0.0266632378665 0.276239304789 0)
(-0.0246352198028 0.283752915182 0)
(-0.0225742725278 0.29067142277 0)
(-0.0204817987503 0.296986178101 0)
(-0.0183550820272 0.302688244177 0)
(-0.0161945262363 0.307768086954 0)
(-0.0139965719549 0.312215561861 0)
(-0.0117613094487 0.316019735978 0)
(-0.00948511746023 0.319168945737 0)
(-0.00716859357855 0.321650820086 0)
(-0.00480894701721 0.323452397337 0)
(-0.00240815245262 0.324560293196 0)
(3.47279549435e-05 0.324961001085 0)
(0.00251533830843 0.324641227125 0)
(0.0050317455509 0.32358832093 0)
(0.00757626925191 0.32179080874 0)
(0.0101431845526 0.319238939845 0)
(0.0127207353567 0.315925387237 0)
(0.0152987463719 0.311845860431 0)
(0.0178609443624 0.306999912684 0)
(0.0203923847382 0.301391558527 0)
(0.0228721739984 0.295030128342 0)
(0.0252805838607 0.287930850731 0)
(0.0275922471489 0.280115733002 0)
(0.0297828809045 0.271614127807 0)
(0.0318231011132 0.26246367068 0)
(0.0336848366363 0.252710858334 0)
(0.035336085245 0.242411990701 0)
(0.0367473516263 0.231633580243 0)
(0.0378878050255 0.22045288809 0)
(0.0387320919602 0.208957503351 0)
(0.03925797812 0.197244521834 0)
(0.0394532254537 0.185418250605 0)
(0.0393135417719 0.173587148787 0)
(0.0388478808806 0.161859434501 0)
(0.0380745577431 0.150338572033 0)
(0.0370234077414 0.139118794804 0)
(0.0357294744576 0.12828190025 0)
(0.0342329006813 0.117895688317 0)
(0.0325731663383 0.108014122923 0)
(0.0307906666104 0.0986780885976 0)
(0.0289232905893 0.0899162097526 0)
(0.0270086370884 0.0817451807077 0)
(0.0250804709362 0.0741704214974 0)
(0.0231703773321 0.0671869368144 0)
(0.021304552324 0.0607806871045 0)
(0.0195056258484 0.0549301134597 0)
(0.0177902689797 0.049607871025 0)
(0.0161712999213 0.0447824732571 0)
(0.0146560314829 0.0404200220092 0)
(0.0132487092524 0.0364855843557 0)
(0.0119494807303 0.0329444245505 0)
(0.0107568340561 0.029762746586 0)
(0.00966667899242 0.0269082961169 0)
(0.00867438926298 0.0243506388228 0)
(0.00777385895323 0.0220614149547 0)
(0.00695919707745 0.0200143626103 0)
(0.00622384554154 0.0181853597292 0)
(0.00556210901503 0.0165522252028 0)
(0.00496858284567 0.0150945057 0)
(0.00443995013966 0.013792686902 0)
(0.00397724924979 0.0126375407372 0)
(0.00358964704116 0.0114755712085 0)
(0.00328468191022 0.0105226627031 0)
(0.00300913101758 0.00969398664955 0)
(0.00275866300817 0.00882421731868 0)
(0.00250401602689 0.00780346859037 0)
(0.00244235986962 0.0071437667982 0)
(0.00242636731493 0.00617837272991 0)
(0.00272255580046 0.00537469361303 0)
(0.00336225931826 0.00485211361152 0)
(0.00360961774245 0.00354994019783 0)
(0.00416845788254 0.00250868315967 0)
(0.00473106718742 0.00154317690418 0)
(0.00471401970481 0.000504688453311 0)
(-0.0657544045843 0.00721927202135 0)
(-0.0694993784757 0.0232005193663 0)
(-0.0692252289791 0.0390187290859 0)
(-0.0686398002706 0.0548717194219 0)
(-0.0678605387031 0.0705497374709 0)
(-0.0668963580645 0.0860205036819 0)
(-0.065755083139 0.101240932196 0)
(-0.0644455249381 0.116170738149 0)
(-0.0629780156935 0.130771990774 0)
(-0.0613632601588 0.145009471622 0)
(-0.0596129979518 0.158850782522 0)
(-0.0577387081518 0.172266518982 0)
(-0.0557524594596 0.185230255086 0)
(-0.0536654470182 0.197718571245 0)
(-0.0514890335344 0.209710899372 0)
(-0.0492331356238 0.221189411933 0)
(-0.0469074795523 0.232138737289 0)
(-0.0445198715316 0.242545727176 0)
(-0.0420776987285 0.252399074214 0)
(-0.0395861205881 0.261688999708 0)
(-0.0370498338335 0.270406822116 0)
(-0.0344712099969 0.278544620785 0)
(-0.0318523204669 0.286094822234 0)
(-0.0291930236137 0.293049903174 0)
(-0.0264932158678 0.299402047789 0)
(-0.0237508555967 0.305142930931 0)
(-0.0209643945544 0.310263482507 0)
(-0.0181307315415 0.314753771586 0)
(-0.0152477853531 0.31860288862 0)
(-0.0123123915783 0.321798909776 0)
(-0.00932301873347 0.324328981352 0)
(-0.00627757945908 0.326179352805 0)
(-0.00317626165587 0.32733558162 0)
(-1.93826626448e-05 0.327782796506 0)
(0.00318978998846 0.327506053888 0)
(0.00644718744956 0.326490780659 0)
(0.00974515941651 0.324723327039 0)
(0.013074662221 0.322191570226 0)
(0.0164226127767 0.318885632015 0)
(0.0197741330303 0.314798588437 0)
(0.0231101035984 0.309927269562 0)
(0.0264094392137 0.304272989774 0)
(0.0296468480831 0.297842353668 0)
(0.0327950535179 0.290647959725 0)
(0.0358227251599 0.282709203302 0)
(0.0386965823431 0.274053018042 0)
(0.0413795616261 0.264714800987 0)
(0.0438329527758 0.254739345307 0)
(0.0460151889169 0.244181979811 0)
(0.0478845850739 0.233109628656 0)
(0.0493994921382 0.221601785248 0)
(0.0505224257503 0.209750830207 0)
(0.0512220228079 0.197661509619 0)
(0.0514782723983 0.185448670561 0)
(0.0512847930302 0.173233456253 0)
(0.0506523798559 0.161137623543 0)
(0.0496078711376 0.149277199004 0)
(0.0481931394053 0.13775636081 0)
(0.0464590985252 0.126662825588 0)
(0.0444608497988 0.116066616803 0)
(0.042252572614 0.106021512781 0)
(0.0398870945349 0.096567257228 0)
(0.0374152236438 0.0877308566858 0)
(0.0348862723629 0.0795266330823 0)
(0.0323458997369 0.071956522368 0)
(0.0298354824543 0.0650110902606 0)
(0.0273901752954 0.0586710419007 0)
(0.025038988041 0.0529092157078 0)
(0.022803867311 0.047692527655 0)
(0.0207003788549 0.0429839886002 0)
(0.0187375427418 0.0387447141508 0)
(0.0169192651892 0.0349355963433 0)
(0.015244967891 0.0315186251417 0)
(0.0137112191807 0.0284575926193 0)
(0.0123121839933 0.0257185259081 0)
(0.0110407697104 0.0232698671301 0)
(0.0098887814072 0.0210825937458 0)
(0.00884777294167 0.0191302155347 0)
(0.00790909487478 0.0173887929859 0)
(0.00706469156512 0.0158368722405 0)
(0.00630738166016 0.014455445688 0)
(0.00563182929852 0.0132290010643 0)
(0.00504093284346 0.0121483819639 0)
(0.00450554351386 0.0109964009807 0)
(0.0042161918284 0.0103216067889 0)
(0.00394940493088 0.00950542959456 0)
(0.00376869181197 0.00866541503887 0)
(0.00351226143429 0.00763799578302 0)
(0.00322606340126 0.00639844082262 0)
(0.00329890654673 0.0056379678673 0)
(0.00345049419502 0.00460998280533 0)
(0.0041410075869 0.00402357222352 0)
(0.0049111900743 0.00322219481653 0)
(0.00514588489512 0.00206225650631 0)
(0.00549938605534 0.00120992242805 0)
(0.00548959273777 0.000400993620945 0)
(-0.0809370414258 0.00731080893263 0)
(-0.0855525144342 0.0235358778098 0)
(-0.0852132938835 0.0395673997857 0)
(-0.0844867606784 0.0556367362708 0)
(-0.0835187003383 0.071524655208 0)
(-0.0823211983002 0.0871975922711 0)
(-0.0809042927571 0.102610801492 0)
(-0.0792794266931 0.117722608869 0)
(-0.0774595028769 0.132494020682 0)
(-0.0754583119726 0.146889038265 0)
(-0.0732904769899 0.160874807794 0)
(-0.0709708151132 0.174421748201 0)
(-0.0685143293051 0.187503575002 0)
(-0.0659355192776 0.200097281315 0)
(-0.0632484394034 0.212183007523 0)
(-0.0604659862412 0.223743868664 0)
(-0.0576000586957 0.234765675698 0)
(-0.0546608641224 0.245236625721 0)
(-0.0516572248673 0.25514690293 0)
(-0.0485959505587 0.264488273849 0)
(-0.0454823277412 0.273253628546 0)
(-0.042319584937 0.281436553663 0)
(-0.0391095684779 0.289030891434 0)
(-0.0358522923112 0.296030365647 0)
(-0.0325467656778 0.302428226717 0)
(-0.0291905879684 0.308216982255 0)
(-0.0257808759607 0.313388157787 0)
(-0.0223138721526 0.317932141794 0)
(-0.0187859418283 0.321838065001 0)
(-0.0151931933523 0.325093725257 0)
(-0.0115325715135 0.327685676256 0)
(-0.00780144716352 0.329599207799 0)
(-0.00399881413453 0.330818546401 0)
(-0.000124973936257 0.331327108228 0)
(0.0038172896877 0.331107848373 0)
(0.00782301053756 0.330143734375 0)
(0.0118839039044 0.32841831818 0)
(0.0159887420212 0.325916417099 0)
(0.0201223553975 0.322624870307 0)
(0.0242661525374 0.31853335186 0)
(0.0283973183239 0.313635208369 0)
(0.0324894822064 0.30792828278 0)
(0.0365120771258 0.301415714605 0)
(0.040431045805 0.294106694678 0)
(0.0442082289561 0.286017226819 0)
(0.0478019719527 0.277170931226 0)
(0.0511665044255 0.267600014026 0)
(0.0542525844653 0.257346468485 0)
(0.057007322316 0.246463618987 0)
(0.059375682656 0.235017894402 0)
(0.0613020519313 0.223090754199 0)
(0.0627340013215 0.210780070833 0)
(0.0636268250885 0.198200410748 0)
(0.0639498319688 0.185481060654 0)
(0.0636919525257 0.172761285093 0)
(0.0628661889413 0.160182523171 0)
(0.0615097301242 0.147879319305 0)
(0.0596814664024 0.13596998662 0)
(0.0574532290667 0.124549555607 0)
(0.0548993719967 0.11368909475 0)
(0.0520898474541 0.103440294846 0)
(0.0490903748334 0.0938406676668 0)
(0.0459649240655 0.0849153201398 0)
(0.0427760396755 0.0766757954508 0)
(0.0395823980986 0.0691195765772 0)
(0.0364365474162 0.0622311634238 0)
(0.0333829490659 0.0559841495453 0)
(0.030457494798 0.0503437681708 0)
(0.0276870631111 0.0452692307288 0)
(0.0250897788016 0.0407161242159 0)
(0.0226753179871 0.0366388907286 0)
(0.0204463850003 0.0329929985072 0)
(0.0184003478397 0.0297363734763 0)
(0.0165311557394 0.0268299626109 0)
(0.014830303495 0.0242378505745 0)
(0.0132878422073 0.0219272432681 0)
(0.0118928358158 0.019868427551 0)
(0.0106340046975 0.0180346871392 0)
(0.00949999292392 0.0164022905743 0)
(0.0084799133174 0.014950524291 0)
(0.0075638106601 0.0136616357229 0)
(0.00674335927462 0.0125256288735 0)
(0.00602491101543 0.0114932064271 0)
(0.00538593760111 0.0104462631068 0)
(0.00503201001908 0.00969492312889 0)
(0.0048020887259 0.00889441726033 0)
(0.00451691883755 0.00785167014549 0)
(0.00443576352657 0.00708604832062 0)
(0.00439090651097 0.00622646590369 0)
(0.00448455494799 0.0053620115616 0)
(0.00431674043268 0.0040440081819 0)
(0.00472151361216 0.00317167019625 0)
(0.00569790769316 0.00265363526082 0)
(0.00610458385755 0.00181888342811 0)
(0.00624392306891 0.0010248927947 0)
(0.00625060985321 0.000339689455532 0)
(-0.0963587576518 0.00742031548404 0)
(-0.10185293672 0.0239421741799 0)
(-0.101444256762 0.0402357327118 2.52123048375e-27)
(-0.100570411555 0.056570077827 0)
(-0.0994055998793 0.0727143800797 0)
(-0.0979649554938 0.0886336793863 0)
(-0.0962610173243 0.104281329885 0)
(-0.094308052949 0.119614054341 0)
(-0.0921219617972 0.134591569006 0)
(-0.089719832314 0.149176932004 0)
(-0.0871196348204 0.163336714442 0)
(-0.0843397215884 0.177041126927 0)
(-0.081398512192 0.190264055857 0)
(-0.0783139718671 0.202983025154 0)
(-0.0751033207995 0.215179065255 0)
(-0.0717825268731 0.226836500017 0)
(-0.0683660842554 0.237942643641 0)
(-0.0648665770281 0.248487421718 0)
(-0.0612945903782 0.258462922565 0)
(-0.0576584090857 0.267862901784 0)
(-0.0539641159818 0.27668225792 0)
(-0.0502154637647 0.284916509841 0)
(-0.0464141715697 0.292561298221 0)
(-0.0425599513591 0.29961193662 0)
(-0.0386509530032 0.306063023665 0)
(-0.034683879251 0.311908126655 0)
(-0.0306545065245 0.31713953244 0)
(-0.0265578307217 0.321748061726 0)
(-0.0223886280127 0.325722939641 0)
(-0.0181416308595 0.32905167574 0)
(-0.0138121805357 0.331720154495 0)
(-0.00939639475379 0.333712543312 0)
(-0.0048919487283 0.33501148865 0)
(-0.000298383344393 0.335598331246 0)
(0.00438212484842 0.335453463506 0)
(0.00914441648586 0.334556812152 0)
(0.0139796179062 0.332888466619 0)
(0.0188748912364 0.330429420223 0)
(0.0238128763239 0.327162431872 0)
(0.0287716571093 0.323072932893 0)
(0.0337244665349 0.31814997513 0)
(0.0386398934155 0.312387121928 0)
(0.0434817871075 0.305783291967 0)
(0.0482095367684 0.298343492392 0)
(0.0527779165599 0.290079522007 0)
(0.057137134161 0.281010704151 0)
(0.0612323921282 0.271164849039 0)
(0.0650036818238 0.260579630489 0)
(0.0683855382381 0.249304583045 0)
(0.0713076956806 0.237403905153 0)
(0.0736969801218 0.224959693499 0)
(0.0754814408936 0.212075232309 0)
(0.0765971000896 0.19887700069 0)
(0.0769971355426 0.185513478447 0)
(0.0766618144703 0.172149500842 0)
(0.0756060346203 0.158955084454 0)
(0.0738803396155 0.146092147776 0)
(0.0715685407069 0.133699517613 0)
(0.0687732012831 0.121880381403 0)
(0.0655940355238 0.110702888702 0)
(0.0621170766637 0.100212183968 0)
(0.058419350622 0.0904420253853 0)
(0.0545779305911 0.081416240163 0)
(0.0506707333951 0.0731438530498 0)
(0.0467716740028 0.0656168015147 0)
(0.0429461667705 0.0588114356611 0)
(0.0392486200337 0.0526918045674 0)
(0.0357221177365 0.0472131644616 0)
(0.0323982246582 0.0423246651793 0)
(0.0292972506763 0.0379721156649 0)
(0.0264282028844 0.034101210885 0)
(0.0237909631938 0.0306605340555 0)
(0.0213791261337 0.0276033192947 0)
(0.0191828741906 0.0248874850976 0)
(0.0171901386893 0.0224751604966 0)
(0.0153875033494 0.0203323569957 0)
(0.0137607493557 0.0184287216076 0)
(0.0122953814868 0.0167373445019 0)
(0.0109768412686 0.0152346787497 0)
(0.00979087328484 0.0139006685134 0)
(0.008723676048 0.0127187763723 0)
(0.00776196968367 0.0116868986513 0)
(0.0069061130163 0.0106904676361 0)
(0.00634007765552 0.00990296666915 0)
(0.00592581658875 0.00906497645151 0)
(0.00568374486264 0.0082374254537 0)
(0.00545148534734 0.00735504889824 0)
(0.00522889323117 0.00639044502641 0)
(0.0052976769777 0.00561586167671 0)
(0.00529140704019 0.00457610289925 0)
(0.00557320456381 0.00379379812147 0)
(0.00553204155632 0.00269011760113 0)
(0.00605619914041 0.00204162751177 0)
(0.00679484243857 0.00154571082806 0)
(0.00687543727434 0.000871696011538 0)
(0.00689065450491 0.000289224254687 0)
(-0.112065993221 0.00754948395378 0)
(-0.118451754697 0.0244243260108 0)
(-0.117968396741 0.0410299691716 -2.52084330874e-27)
(-0.116939309187 0.0576798108866 0)
(-0.115567584668 0.0741289354885 0)
(-0.113871491068 0.090340617045 0)
(-0.111866319284 0.106265970767 0)
(-0.109569453007 0.121859809667 0)
(-0.107000178447 0.137080312322 0)
(-0.104179241576 0.151889404752 0)
(-0.101128399093 0.166252963556 0)
(-0.0978699137343 0.180140951834 0)
(-0.0944260756145 0.193527465341 0)
(-0.0908186747297 0.206390690038 0)
(-0.0870685279508 0.218712757746 0)
(-0.0831949703107 0.230479504433 0)
(-0.0792154441352 0.241680120722 0)
(-0.0751450816654 0.252306709458 0)
(-0.0709964423082 0.262353751764 0)
(-0.0667792785379 0.271817514845 0)
(-0.0625005036743 0.280695419754 0)
(-0.0581641994012 0.28898541615 0)
(-0.0537718323412 0.296685386621 0)
(-0.0493224755995 0.303792624044 0)
(-0.0448131998959 0.310303387997 0)
(-0.0402394034234 0.316212559582 0)
(-0.0355952631446 0.321513371282 0)
(-0.0308740817249 0.326197212017 0)
(-0.0260687506979 0.3302534766 0)
(-0.0211721221165 0.333669412894 0)
(-0.016177566843 0.33643018862 0)
(-0.0110793587704 0.338518721848 0)
(-0.00587341139673 0.339915840435 0)
(-0.000557858466676 0.340600460546 0)
(0.0048661901424 0.340549919593 0)
(0.0103939899757 0.339740488921 0)
(0.0160164350482 0.338148042934 0)
(0.0217195187123 0.335748913495 0)
(0.0274838285006 0.332520862635 0)
(0.0332843167936 0.328444158569 0)
(0.039090164007 0.323502653804 0)
(0.0448649272142 0.317684808743 0)
(0.0505666990689 0.310984564278 0)
(0.0561483910758 0.303402037162 0)
(0.0615577488501 0.294944050889 0)
(0.0667371995329 0.28562465523 0)
(0.0716231100314 0.275465840967 0)
(0.0761448480716 0.264498934254 0)
(0.0802235744423 0.252767001796 0)
(0.0837717910233 0.240328761191 0)
(0.0866945633663 0.227263982612 0)
(0.0888937083256 0.213679728379 0)
(0.0902771711508 0.199715686292 0)
(0.0907726199209 0.185545382151 0)
(0.0903446315684 0.171369797858 0)
(0.0890090686929 0.157400650805 0)
(0.086832556154 0.14384140365 0)
(0.0839385198127 0.130862399136 0)
(0.0804784839677 0.118574583884 0)
(0.0765877585285 0.107032505779 0)
(0.0723647435529 0.0962651680289 0)
(0.0678909125665 0.0863011155904 0)
(0.0632560057299 0.0771663378453 0)
(0.0585572682214 0.068869213407 0)
(0.0538879989208 0.0613947198007 0)
(0.0493287697006 0.0547078497675 0)
(0.0449445619799 0.0487598672112 0)
(0.0407855268238 0.0434931632802 0)
(0.0368880081892 0.0388441770652 0)
(0.0332739054582 0.0347459391318 0)
(0.0299500163014 0.0311324635809 0)
(0.0269104423453 0.0279438048411 0)
(0.0241425393472 0.0251281879305 0)
(0.0216311859284 0.0226408958979 0)
(0.0193599700207 0.0204424147646 0)
(0.0173113507394 0.0184978007562 0)
(0.0154673542015 0.0167762622324 0)
(0.0138099628182 0.0152507436216 0)
(0.0123211418311 0.0138977533419 0)
(0.0109831552488 0.0126973270198 0)
(0.00977850758583 0.0116324211212 0)
(0.0086905930977 0.0106983312685 0)
(0.00770920083972 0.00975331252305 0)
(0.00711623340725 0.00900721717454 0)
(0.00678211512711 0.00830464710362 0)
(0.00648305114926 0.00746608655169 0)
(0.00638710221171 0.00676673827455 0)
(0.00624143106128 0.00587188813417 0)
(0.00619743982057 0.00497181267053 0)
(0.00611378056391 0.00397836446068 0)
(0.00623497314965 0.00316376804375 0)
(0.00656985320654 0.00247569376893 0)
(0.00658945676766 0.00168029619969 0)
(0.00738171975809 0.00126816511377 0)
(0.00741433293279 0.000752981997008 0)
(0.00740732783046 0.000241435728711 0)
(-0.128108802884 0.00769971776023 0)
(-0.135402220189 0.0249873842989 0)
(-0.1348381249 0.0419575352896 0)
(-0.133644151017 0.058975936243 0)
(-0.132053070496 0.075780716808 0)
(-0.130086501077 0.0923330053814 0)
(-0.127762807484 0.108581216861 0)
(-0.125102852121 0.124477900769 0)
(-0.122129751474 0.139979402317 0)
(-0.118868354941 0.155046302973 0)
(-0.115344706993 0.169643649272 0)
(-0.111585461082 0.183741109675 0)
(-0.107617298343 0.197313034455 0)
(-0.103466311382 0.210338412399 0)
(-0.0991574100457 0.222800721457 0)
(-0.0947137157933 0.234687653765 0)
(-0.0901560183351 0.245990721319 0)
(-0.0855022731079 0.256704728858 0)
(-0.0807672274587 0.266827141786 0)
(-0.0759621529159 0.276357360016 0)
(-0.0710947657249 0.285295951797 0)
(-0.0661692860812 0.293643882111 0)
(-0.0611866878112 0.30140179996 0)
(-0.0561450450477 0.308569414759 0)
(-0.0510399974856 0.31514500012 0)
(-0.0458652168426 0.321125017238 0)
(-0.0406129057653 0.326503848678 0)
(-0.0352742363272 0.331273600825 0)
(-0.0298398115363 0.335423950203 0)
(-0.0243001021082 0.338941944935 0)
(-0.0186460060164 0.341812044841 0)
(-0.0128693263789 0.34401583155 0)
(-0.00696358973916 0.345532121974 0)
(-0.000924796414495 0.34633706099 0)
(0.00524768138525 0.346404431202 0)