/*--------------------------------*- C++ -*----------------------------------*\
| =========                 |                                                 |
| \\      /  F ield         | OpenFOAM: The Open Source CFD Toolbox           |
|  \\    /   O peration     | Version:  v1906                                 |
|   \\  /    A nd           | Web:      www.OpenFOAM.com                      |
|    \\/     M anipulation  |                                                 |
\*---------------------------------------------------------------------------*/
FoamFile
{
    version     2.0;
    format      ascii;
    class       volScalarField;
    location    "142";
    object      p;
}
// * * * * * * * * * * * * * * * * * * * * * * * * * * * * * * * * * * * * * //

dimensions      [0 2 -2 0 0 0 0];


internalField   nonuniform List<scalar> 
9216
(
277.666522201
277.746399175
277.911684569
278.163792575
278.501305538
278.922645122
279.425848871
280.008619322
280.668352341
281.402189364
282.207040971
283.079642096
284.01656974
285.014299326
286.069213121
287.177656239
288.335933912
289.540367106
290.7872774
292.073043457
293.394073514
294.746864356
296.127961494
297.534022652
298.961765829
300.408039092
301.869756596
303.343976389
304.827824883
306.318583019
307.813598453
309.31038157
310.80650576
312.299714952
313.787810219
315.268766777
316.74060972
318.201541864
319.649806717
321.083827082
322.502056089
323.903126065
325.285688666
326.64857359
327.990617887
329.310834071
330.608230358
331.881987119
333.131268649
334.355407531
335.553709234
336.725643302
337.870641967
338.988297485
340.078155622
341.13991843
342.173233516
343.177901601
344.153662232
345.100405329
346.017954279
346.906280759
347.765285364
348.595015282
349.395442913
350.166685377
350.908782186
351.62191616
352.306189626
352.96184511
353.589042584
354.188078162
354.759163338
355.302640342
355.818765103
356.307916663
356.770386693
357.206580485
357.61681564
358.001511823
358.36100168
358.695706562
359.00596352
359.292183963
359.554700585
359.793907281
360.010131268
360.203755751
360.375126854
360.524654707
360.652789481
360.760282891
360.848660181
360.911493726
360.944105381
360.95503733
277.586680814
277.666919349
277.832545523
278.085650731
278.424593933
278.847720559
279.353024948
279.938170569
280.600519293
281.337174903
282.145015601
283.020739933
283.960896197
284.961926757
286.02019065
287.132004465
288.293656781
289.501444696
290.751679398
292.040719457
293.364968375
294.720905719
296.105077017
297.514124564
298.944770387
300.393847845
301.858278592
303.335105993
304.821466739
306.314626769
307.811946568
309.310920959
310.809139776
312.304330172
313.794311279
315.277040766
316.750564619
318.21306699
319.662814668
321.098210622
322.517733429
323.919994687
325.3036736
326.6675777
328.010573408
329.331649927
330.629846296
331.904318517
333.154262829
334.37898622
335.577827058
336.750228036
337.895654951
339.013672099
340.103859198
341.165889216
342.19944403
343.204294196
344.180213571
345.127061108
346.044694775
346.933054414
347.792075259
348.62177208
349.422152247
350.193300132
350.9352901
351.648272237
352.332384011
352.987835538
353.614822006
354.213607548
354.784438685
355.327626741
355.843462237
356.33229451
356.794448931
357.230302812
357.64020603
358.02455233
358.383704365
358.718059819
359.027982743
359.313862687
359.576054555
359.814930608
360.030830271
360.224105656
360.395084709
360.544102714
360.67146402
360.777502691
360.862741316
360.923269996
360.95506097
360.965987325
277.420621407
277.50200613
277.669159345
277.92456047
278.266536949
278.693388854
279.203049864
279.793114874
280.460875034
281.203360462
282.017378272
282.899556135
283.846377698
284.85422268
285.919396098
287.03816287
288.206769467
289.421472425
290.678552331
291.974337256
293.305209869
294.667626938
296.05812095
297.473317009
298.909929986
300.364780051
301.834786073
303.316980807
304.808501866
306.30660623
307.8086582
309.312145156
310.814663062
312.313932522
313.80778126
315.2941614
316.77113
318.23686624
319.689649913
321.127879689
322.55004909
323.954765671
325.340725037
326.706730835
328.051667125
329.374519198
330.674344795
331.950295343
333.201586053
334.427519092
335.627452034
336.800821558
337.947112576
339.065882596
340.156729842
341.219319343
342.253350976
343.258586213
344.234816364
345.18189027
346.099682665
346.988122474
347.847161376
348.676802684
349.477069853
350.248035461
350.989790242
351.702472535
352.386236425
353.041280659
353.667817556
354.266100658
354.836393705
355.378998685
355.894223885
356.382409881
356.843900067
357.279064419
357.688270377
358.071905719
358.430350005
358.763994986
359.073219874
359.358408285
359.619926248
359.858137211
360.07338134
360.265987406
360.43625495
360.584450482
360.710737553
360.815131261
360.897375995
360.955316241
360.987055141
360.998755238
277.165316901
277.247984453
277.417526432
277.676518421
278.023226981
278.455876192
278.972306133
279.570006416
280.246157237
280.99767463
281.821253655
282.713412857
283.670533997
284.68890148
285.764735104
286.894222435
288.07354343
289.298895297
290.566509603
291.872670923
293.213727522
294.586105275
295.986313467
297.410955509
298.856731333
300.320445872
301.799009185
303.289443638
304.788882176
306.294574832
307.803884848
309.314295338
310.823404399
312.328930576
313.828706627
315.320685086
316.802930439
318.273624131
319.731055769
321.173628196
322.59984677
324.008324522
325.39777033
326.766994049
328.114894799
329.440464655
330.742776462
332.020988809
333.274332413
334.502115857
335.703711796
336.878562859
338.026168278
339.146089932
340.237939355
341.301384929
342.336138584
343.341963566
344.318661969
345.266083055
346.184111236
347.072674761
347.931734162
348.761291344
349.561378095
350.332065314
351.073452114
351.78567544
352.46889813
353.123318197
353.749157287
354.346668997
354.916127854
355.457836962
355.972115807
356.459307909
356.919768836
357.353872383
357.761998799
358.144540137
358.50188845
358.834440557
359.142587104
359.426715249
359.687199608
359.924403099
360.138665592
360.330306441
360.499607236
360.646795496
360.771982568
360.875145503
360.956013558
361.01371163
361.047708723
361.061504146
276.819691625
276.904002382
277.076821936
277.340749556
277.693958383
278.134561626
278.660267387
279.268418488
279.956040231
280.719890737
281.556509566
282.462265497
283.433400098
284.46606845
285.556374236
286.700401423
287.894239967
289.134008919
290.415873945
291.736063381
293.09087923
294.476708174
295.890028241
297.327415995
298.785550519
300.261218867
301.751317915
303.252858313
304.762965105
306.278881263
307.797966747
309.317701422
310.835683696
312.349632266
313.857383846
315.356894537
316.846235884
318.323595871
319.787274091
321.235682319
322.66733845
324.080866452
325.474990153
326.848531988
328.200406898
329.529620454
330.835262329
332.116504515
333.372594596
334.602854547
335.8066731
336.983505238
338.132865085
339.254325527
340.347511281
341.412099609
342.44781421
343.454425407
344.431744935
345.379627358
346.297965191
347.186690481
348.045770671
348.875210616
349.675047856
350.445355857
351.186240277
351.897840998
352.580327272
353.233901072
353.858791702
354.455257638
355.023582433
355.564075883
356.077068339
356.562911529
357.021973013
357.454636152
357.861294456
358.242350327
358.59820945
358.929279678
359.235963946
359.51865903
359.777750188
360.013606557
360.226574771
360.41697498
360.585089784
360.731138101
360.855256628
360.957504532
361.037832601
361.096108395
361.132502248
361.149093622
276.381969605
276.468364677
276.645405173
276.915696818
277.277283862
277.728128488
278.26576222
278.887333408
279.589663091
280.369302542
281.222588642
282.145696464
283.134687164
284.185550971
285.294244184
286.456720674
287.668957907
288.926978429
290.226866619
291.564782478
292.936971809
294.339774475
295.769630494
297.223084884
298.696791484
300.187516779
301.692141251
303.207662025
304.731194394
306.25997337
307.791354297
309.32281382
310.85195015
312.376483505
313.89425475
315.403225306
316.901474781
318.387200472
319.858713744
321.314438896
322.752909032
324.17276336
325.572743157
326.951688333
328.308532522
329.6423
330.952100422
332.237124839
333.49664082
334.729988492
335.936575671
337.115874758
338.267417199
339.390791323
340.485637042
341.551644651
342.588550749
343.596136236
344.574223102
345.522674121
346.44139027
347.330309758
348.189407034
349.018691
349.818204697
350.588027675
351.328271802
352.03908092
352.720630694
353.373129775
353.996815112
354.591952437
355.158835532
355.697784573
356.209141505
356.6932698
357.150550798
357.58138218
357.986172734
358.365339649
358.719305006
359.048492012
359.353319216
359.634198748
359.891530115
360.125695273
360.337053833
360.525936753
360.692639192
360.837397196
360.960399347
361.0617861
361.141659878
361.200142227
361.237502628
361.255211297
275.849882026
275.93885926
276.121146085
276.399348396
276.771341394
277.234890011
277.787296922
278.425460419
279.145940684
279.945026848
280.818800717
281.763195721
282.774049823
283.847151344
284.978277394
286.163225645
287.397839497
288.678027897
289.999780292
291.359177996
292.752402066
294.175739469
295.625586996
297.098454562
298.590967681
300.09986971
301.622022595
303.15440857
304.694131353
306.238417442
307.784616437
309.330201967
310.872771996
312.410048733
313.939877933
315.460227965
316.969188122
318.464967388
319.945891403
321.410400456
322.857045585
324.284485338
325.691481644
327.076896208
328.439685937
329.778898398
331.093666925
332.383206388
333.646808444
334.883836407
336.093721036
337.275955901
338.430093394
339.555741165
340.652557211
341.72024811
342.758565253
343.76730271
344.746294491
345.695413377
346.614570286
347.503709504
348.36281221
349.191895204
349.99100805
350.76023597
351.499696226
352.209538071
352.889944953
353.54113322
354.163348129
354.756864931
355.321989203
355.859052883
356.368412543
356.850446749
357.305552938
357.734145888
358.136653566
358.513512144
358.865163419
359.192050421
359.494611808
359.773279213
360.028471463
360.260589349
360.470010664
360.657083986
360.822125477
360.965405373
361.087157024
361.187583276
361.266867517
361.325205221
361.362840861
361.38094039
275.220616419
275.312731851
275.501397893
275.789212531
276.173834841
276.65277701
277.223050482
277.881237666
278.623571824
279.446016463
280.344339405
281.314179793
282.351106539
283.450667274
284.608428175
285.8200052
287.081087717
288.387455913
289.734992985
291.119693099
292.537666646
293.985143277
295.458473297
296.954129355
298.468706954
299.998924379
301.541623722
303.093771153
304.652457808
306.214900787
307.77844375
309.340556978
310.898838109
312.451011996
313.994930193
315.528569706
317.050031345
318.55753819
320.04943302
321.524175266
322.980336953
324.416599904
325.831751336
327.2246792
328.594367366
329.939891508
331.26041383
332.555177789
333.82350328
335.064781464
336.278470154
337.464088957
338.621214917
339.7494783
340.848558653
341.918181693
342.958116164
343.968171896
344.948196286
345.89807272
346.817721325
347.707097151
348.566190392
349.395023673
350.193653002
350.962168451
351.700694589
352.409387391
353.08843742
353.738069863
354.358539043
354.950131844
355.513167459
356.047991882
356.554977754
357.034521464
357.487040336
357.912970579
358.312761743
358.686872715
359.035770062
359.359920627
359.659787854
359.935827787
360.188483073
360.418178541
360.625315021
360.810266893
360.973376208
361.114947207
361.235249803
361.334528477
361.413012222
361.470918288
361.508437492
361.526589235
274.490754218
274.586634588
274.782949365
275.082277232
275.482002436
275.979316373
276.57086319
277.252830138
278.021045302
278.871072774
279.798299604
280.798012311
281.865461601
282.995914424
284.184694418
285.427211918
286.718984708
288.055651863
289.432981812
290.846876398
292.293372046
293.76863902
295.268980554
296.790831437
298.330756099
299.885447764
301.45172773
303.026545378
304.606978692
306.190234974
307.773651014
309.354693714
310.9309604
312.50017954
314.060209377
315.609036927
317.144776663
318.665668541
320.17007517
321.656478107
323.123474723
324.569774383
325.994193476
327.395650657
328.773162181
330.125836872
331.45287034
332.753539493
334.027197601
335.273268934
336.491242818
337.680669239
338.841153997
339.97235396
341.073973403
342.145760179
343.187503224
344.199029933
345.180199806
346.130910391
347.05109628
347.940721482
348.799782955
349.628310203
350.426365432
351.194045806
351.931481723
352.638834939
353.316305401
353.964126741
354.582563902
355.171916844
355.732519191
356.264733472
356.768950968
357.245589127
357.695088374
358.117908904
358.514526007
358.885427349
359.231106846
359.552060423
359.848780863
360.121753449
360.371449808
360.598323518
360.802804966
360.985297185
361.146171001
361.285763272
361.404376615
361.502285978
361.57974282
361.636976965
361.674127049
361.692148772
273.656195199
273.75655516
273.961963165
274.274958778
274.692578026
275.211605776
275.828224591
276.538129708
277.336650163
278.218864041
279.179701297
280.214031228
281.316733854
282.482754713
283.707144706
284.985087068
286.311913974
287.683114915
289.094339358
290.541395284
292.020245367
293.527002001
295.057922742
296.609405818
298.177985861
299.760331288
301.353242785
302.953652801
304.558625753
306.165358256
307.771179888
309.373553675
310.970077282
312.55848303
314.136636827
315.702537585
317.254315709
318.790230315
320.308666755
321.808133169
323.287256156
324.744776454
326.179544549
327.590515426
328.976742695
330.337373033
331.671641001
332.978863047
334.258430791
335.509806485
336.732516278
337.926145472
339.090332684
340.224765718
341.329176673
342.403338994
343.447064101
344.46019497
345.442610426
346.394226205
347.314985776
348.2048629
349.063862425
349.8920206
350.689405959
351.456121368
352.192302147
352.898118931
353.573777972
354.219521828
354.835628032
355.422410431
355.980218319
356.509433183
357.010467122
357.483761795
357.929783877
358.349021814
358.741981437
359.109182375
359.451151489
359.768418723
360.061510714
360.330947589
360.577234512
360.800859562
361.002286068
361.181949044
361.340252004
361.477564599
361.594220254
361.690515919
361.766717054
361.823067583
361.859673773
361.877446368
272.712062173
272.817729303
273.033897484
273.363038375
273.801744563
274.346285199
274.992262387
275.734759507
276.568492828
277.487952091
278.487522617
279.561585247
280.704594097
281.911132822
283.175951972
284.493990705
285.860386577
287.270476582
288.71979219
290.204051104
291.719146739
293.261138795
294.826243789
296.410826812
298.01139534
299.624594692
301.247205807
302.876144318
304.508460217
306.141339068
307.772102201
309.398208821
311.017256781
312.626982523
314.225260976
315.810104765
317.379661942
318.932213926
320.466172659
321.980076279
323.472584741
324.942475675
326.388638967
327.81007071
329.205867298
330.575219605
331.917407245
333.231790953
334.517807281
335.774961986
337.00282363
338.201017637
339.369220545
340.507154974
341.614585061
342.69131195
343.737168211
344.752021473
345.735773336
346.688351318
347.609709923
348.499833166
349.358733428
350.186453948
350.983068372
351.748682039
352.483437715
353.187511376
353.861116935
354.504505832
355.117967975
355.701833393
356.256467968
356.7822721
357.279682911
357.749169834
358.191229291
358.606381737
358.995169085
359.358146829
359.695879349
360.008935958
360.297884337
360.563282785
360.805677119
361.025593263
361.223532325
361.399965409
361.555331567
361.690033383
361.804432207
361.898851863
361.973573459
362.028834845
362.064753017
362.082198657
271.652579663
271.764525782
271.993407441
272.341583291
272.805078815
273.379505596
274.059733767
274.840084947
275.714523712
276.676830176
277.720744743
278.840081743
280.028812638
281.281121076
282.591434595
283.95443776
285.365071967
286.818526001
288.310221426
289.835795113
291.391081661
292.972097063
294.575024775
296.196203061
297.832116411
299.479389875
301.134785949
302.795203118
304.457676428
306.119379178
307.777624063
309.429865213
311.073700336
312.706870686
314.32726137
315.932899873
317.521954647
319.092732697
320.643675863
322.173356552
323.680473428
325.163846359
326.622409421
328.055206036
329.461382062
330.840178435
332.190925538
333.513035578
334.805996006
336.069362382
337.302751621
338.505834927
339.678331866
340.820004538
341.930651639
343.010102714
344.058221345
345.074901881
346.060063602
347.013647294
347.935619684
348.82597644
349.684735931
350.511944096
351.307677979
352.07204956
352.805202984
353.50731973
354.17861985
354.819364058
355.429856625
356.010440954
356.561499317
357.083457225
357.576780037
358.041966052
358.479545422
358.890076095
359.274139029
359.632331048
359.965262063
360.273545919
360.557795134
360.818614414
361.056593784
361.272303435
361.46628627
361.639054562
361.791085638
361.922816342
362.034639084
362.126900501
362.199900451
362.2538898
362.28898385
362.306032686
270.470917878
270.590302786
270.834220082
271.20485012
271.697486049
272.306895831
273.027022015
273.85123528
274.772577931
275.783976311
276.878411983
278.049048942
279.289319704
280.592975169
281.954105531
283.367140137
284.826832697
286.328238013
287.866684442
289.437745264
291.03721273
292.661073917
294.305490298
295.966782191
297.641417318
299.326003983
301.017287092
302.712147753
304.407604969
306.100818357
307.789089685
309.469866991
311.140747458
312.799477439
314.44395254
316.072217232
317.68246318
319.273025638
320.842380673
322.389140336
323.91204712
325.409968076
326.88188853
328.326905809
329.744220967
331.133132303
332.49302797
333.823378393
335.123728787
336.393691485
337.632938403
338.841192818
340.018223036
341.163834744
342.27786145
343.360172425
344.410664965
345.429254714
346.415881691
347.370502953
348.293097839
349.183668111
350.042236368
350.86885199
351.6635968
352.426580443
353.157949614
353.857888161
354.526621747
355.164422038
355.771602415
356.348519126
356.895577586
357.413230322
357.901969475
358.362327244
358.794872043
359.200203636
359.578948028
359.931750609
360.25927063
360.562173387
360.84112343
361.096777412
361.329776221
361.540739245
361.730258039
361.898889561
362.047152975
362.17552163
362.284421355
362.374228393
362.445262407
362.497782722
362.53191983
362.54851003
269.158991128
269.287219694
269.548976856
269.946165478
270.473124488
271.123530262
271.890142823
272.765141439
273.740435911
274.807928177
275.959712893
277.188216497
278.486281037
279.847201852
281.264730637
282.733054907
284.246763155
285.800802795
287.39043689
289.011202039
290.658871383
292.329422942
294.019012476
295.72395364
297.440704781
299.165860888
300.896150138
302.628435174
304.359716733
306.087137311
307.807985582
309.519701559
311.219881001
312.906274554
314.576789453
316.229489213
317.862590664
319.474461829
321.06361782
322.628714659
324.168544624
325.682029346
327.168211606
328.626249215
330.055406624
331.45504634
332.824621711
334.163669051
335.471798787
336.748687852
337.994070716
339.207729907
340.389488013
341.539195165
342.656732585
343.74201301
344.794961852
345.815522285
346.803655875
347.759334994
348.682548785
349.573306373
350.431631498
351.257576666
352.051220007
352.812668033
353.54206682
354.239600456
354.905501105
355.540044195
356.143550324
356.716395245
357.259008298
357.771865503
358.255491364
358.710455858
359.137369979
359.536880924
359.909665722
360.256424505
360.577873111
360.874735172
361.147734296
361.397586841
361.624990119
361.830619776
362.01512196
362.179102603
362.323127091
362.447710839
362.553317018
362.640350028
362.709153051
362.760010245
362.793058702
362.809116614
267.707193524
267.845996894
268.129032499
268.557780007
269.125319256
269.823901027
270.644767283
271.578598404
272.615912576
273.747386747
274.964088036
276.257619447
277.620192239
279.044640685
280.524396448
282.053438639
283.626231149
285.237657023
286.88295491
288.557662155
290.25756526
291.97865898
293.717113091
295.469248873
297.231523477
299.000521599
300.772954408
302.545663102
304.315625361
306.079962401
307.835945908
309.581005349
311.312732494
313.02888208
314.727373705
316.406291201
318.06388044
319.698546416
321.308847331
322.893490022
324.451323351
325.981329625
327.482617409
328.954412891
330.396051256
331.806967479
333.186688374
334.534824065
335.851058537
337.135141795
338.386880525
339.606123773
340.792749004
341.946667296
343.067813291
344.156135988
345.21159657
346.234167904
347.223833964
348.180577488
349.10440106
349.995318627
350.853349601
351.678545407
352.470975465
353.230742035
353.957984611
354.652886851
355.315678275
355.94663557
356.546092316
357.114443376
357.652136161
358.159675431
358.63762115
359.086584846
359.507225457
359.900243277
360.266373554
360.606377889
360.921036912
361.21113968
361.477479727
361.720836615
361.941973624
362.141630645
362.320512788
362.479282607
362.618557555
362.738897446
362.840805336
362.924723224
362.991022166
363.039998122
363.071816782
363.087277266
266.104050002
266.25559697
266.564198244
267.03068917
267.64646739
268.401902212
269.286272196
270.2883645
271.396987076
272.601359464
273.891372668
275.257730506
276.69199481
278.186560773
279.734587586
281.32990639
282.966921289
284.640513261
286.345953759
288.078830015
289.834983226
291.610457527
293.40146103
295.20433826
297.015553319
298.831682698
300.649417423
302.46557108
304.277091433
306.081070797
307.874758531
309.655569758
311.42108929
313.169075031
314.897459471
316.604349026
318.288022281
319.946924848
321.579664873
323.185006329
324.761861426
326.309282337
327.826451101
329.312671187
330.767357159
332.19002533
333.580284166
334.937826066
336.262417539
337.553892361
338.812140367
340.037079154
341.22865872
342.386861761
343.511668325
344.603070323
345.661068566
346.685669798
347.676873967
348.634680782
349.559104101
350.450151292
351.307841658
352.132215507
352.923330364
353.681274981
354.406177235
355.098216383
355.757615391
356.384653199
356.979673725
357.543083733
358.075352972
358.577016984
359.048674159
359.490982313
359.904653667
360.290448646
360.649168148
360.981643385
361.288729206
361.57129105
361.830195789
362.066297777
362.280435637
362.473420686
362.646024431
362.79897262
362.932939143
363.048535582
363.146311858
363.22674354
363.290233717
363.337110937
363.36755016
363.3823351
264.335747558
264.502806692
264.842410423
265.354415609
266.02793814
266.850837654
267.809834293
268.891315089
270.081989339
271.369356348
272.741984453
274.189627368
275.703216813
277.274773376
278.897272292
280.564493914
282.270877011
284.011386612
285.781401653
287.576622085
289.392993858
291.226649765
293.073864321
294.931022613
296.794602849
298.661172074
300.527393574
302.390042641
304.246025376
306.092395541
307.926371807
309.745349177
311.546902614
313.328791811
315.088962689
316.825546741
318.53685839
320.221390458
321.877806802
323.504936291
325.101763296
326.667418063
328.201166567
329.702398714
331.170618306
332.605431868
334.006538804
335.373722304
336.706841049
338.005823336
339.270650968
340.501332394
341.69789752
342.860408738
343.988889324
345.083365564
346.143889603
347.17050519
348.16324272
349.122110543
350.047117873
350.938276074
351.795590018
352.619078119
353.408781084
354.164770854
354.887162594
355.576113386
356.231839389
356.85461627
357.444793085
358.002792237
358.529104348
359.024297295
359.489011901
359.92395664
360.329903715
360.707680515
361.058164201
361.382266059
361.680922629
361.95508346
362.205700086
362.433715034
362.640050033
362.825597722
362.991202409
363.137660587
363.265709853
363.376019656
363.469187428
363.545734827
363.606097965
363.650624871
363.679524954
363.693562857
262.385496931
262.571671367
262.949300824
263.516745367
264.259978092
265.163473086
266.210593724
267.384677274
268.669866784
270.051656679
271.517167618
273.055201235
274.656140392
276.311758787
278.014993752
279.759718733
281.540538294
283.352614191
285.191526499
287.05316335
288.93363496
290.82920803
292.736255052
294.651219275
296.570597809
298.490941581
300.408871583
302.321106737
304.224493689
306.116033036
307.992902424
309.852470015
311.69229715
313.510143726
315.303969757
317.071934439
318.812393396
320.523891591
322.205157042
323.855091981
325.472762736
327.057388339
328.608328516
330.125071577
331.60722061
333.054482661
334.466656706
335.843625649
337.185346921
338.491849284
339.763250289
340.999673373
342.201190737
343.367933049
344.499962163
345.597396908
346.660391387
347.689014015
348.683293354
349.643226826
350.568845634
351.460136604
352.317064831
353.139641252
353.927863436
354.681796121
355.401514424
356.087156144
356.738929865
357.357095078
357.942010759
358.494108816
359.013897964
359.501981902
359.959049065
360.385863553
360.783264357
361.152157487
361.493504032
361.808303553
362.097585659
362.362398546
362.603792024
362.822804989
363.02045668
363.19772575
363.355540528
363.494777455
363.61624356
363.720673198
363.808719101
363.880944514
363.937824562
363.979747569
364.00693724
364.02013783
260.232645132
260.442729064
260.867635725
261.503415491
262.331639248
263.332164871
264.483925799
265.766382507
267.160562638
268.649669789
270.219307841
271.857412301
273.553995772
275.30080454
277.090960671
278.918634294
280.778768529
282.666863138
284.578810122
286.51077271
288.459093032
290.420222016
292.390664343
294.366939516
296.345563603
298.323056115
300.295970619
302.260940171
304.214724654
306.154251764
308.076646446
309.979242046
311.859582525
313.71542648
315.544748863
317.345740179
319.116801943
320.856539928
322.563754195
324.237430573
325.876728631
327.480968142
329.049615381
330.582268549
332.078643114
333.53855695
334.96191738
336.348713891
337.699004351
339.012947908
340.290865395
341.532770444
342.738839619
343.909527899
345.045006311
346.14542238
347.210912852
348.241569611
349.237415863
350.198481652
351.124760355
352.016207111
352.872769534
353.694418434
354.481125871
355.232932309
355.949839419
356.631979153
357.279525074
357.892732559
358.471961096
359.017641351
359.530306169
360.010602501
360.459263083
360.877113662
361.265072846
361.624133952
361.955347783
362.259819714
362.538688479
362.79311221
363.024251569
363.233257266
363.421253841
363.589317266
363.738473476
363.869687806
363.983843246
364.081745002
364.164102809
364.231536159
364.284560332
364.323585422
364.348876708
364.361155901
257.851418279
258.091946465
258.576582136
259.297755793
260.230767448
261.349120548
262.625880093
264.03559166
265.555547855
267.166417049
268.852331925
270.600595449
272.40117731
274.24614501
276.129128346
278.044867955
279.98886403
281.957120546
283.945966691
285.951933826
287.971668193
290.001860075
292.039184689
294.08025516
296.12160016
298.159679747
300.190936653
302.211871827
304.219118485
306.209505766
308.180092996
310.128172138
312.051267029
313.947133495
315.813762492
317.649380132
319.45244131
321.221620261
322.955799789
324.654061024
326.315669858
327.940060493
329.5268203
331.07567241
332.58645752
334.059116835
335.493674665
336.890243924
338.248996541
339.570006168
340.853700095
342.100527284
343.311100171
344.485788202
345.624730118
346.728110533
347.796074798
348.828720357
349.826135546
350.788363363
351.71533384
352.606974727
353.463194546
354.283948326
355.069163771
355.818784115
356.532784479
357.21125841
357.854331091
358.462252335
359.035352275
359.574081982
360.078993173
360.550771211
360.990197305
361.398179879
361.775715798
362.123897183
362.443885037
362.736900618
363.004207668
363.247090567
363.466835819
363.664722973
363.841989974
363.999828915
364.1393737
364.261684871
364.367731964
364.458395564
364.534455779
364.596579014
364.645328689
364.681158116
364.704350167
364.715601452
255.209093289
255.48922788
256.050748486
256.880307008
257.944118137
259.20687888
260.633876734
262.193469278
263.858563368
265.607168988
267.422204508
269.290813341
271.203469744
273.153087425
275.134252555
277.142629025
279.174534312
281.226660208
283.295900492
285.379247575
287.473722737
289.576315386
291.683915842
293.793250948
295.900847514
298.003056864
300.096140056
302.176392817
304.240264711
306.284453313
308.305941625
310.301980706
312.270073782
314.207971924
316.113682579
317.985473474
319.82186191
321.621601146
323.383667976
325.107252325
326.791740984
328.436699446
330.041853502
331.607068487
333.132326504
334.617705264
336.063375422
337.469627549
338.836114267
340.163030842
341.452097745
342.703982124
343.919070562
345.097618728
346.239870723
347.346058259
348.416384731
349.450973771
350.449979373
351.413379199
352.341075377
353.232945411
354.088924526
354.90884472
355.692590069
356.440026653
357.151065087
357.825724232
358.464113036
359.066428172
359.632980747
360.164216676
360.66070831
361.123182479
361.552488227
361.949610716
362.315643324
362.65179147
362.959342891
363.239652577
363.494124099
363.724188947
363.931278801
364.116813252
364.282164304
364.428653752
364.5575378
364.669977109
364.767043688
364.84969645
364.918785089
364.975042961
365.019077404
365.051365894
365.072240127
365.082364474
252.263264731
252.596278821
253.258947127
254.228477982
255.457722249
256.899150847
258.507792002
260.244314909
262.07664545
263.980273646
265.937528069
267.936241729
269.968259286
272.028097257
274.111894173
276.216667823
278.339841543
280.478976186
282.631641535
284.795366028
286.967611465
289.145730584
291.326888462
293.507957505
295.68543736
297.855490086
300.014079345
302.157178379
304.280969382
306.381981598
308.457123147
310.50362025
312.518959417
314.500881222
316.447407929
318.356857309
320.227822506
322.059147507
323.849915435
325.599440442
327.307247989
328.973054206
330.596743748
332.178344056
333.717998459
335.215962945
336.672633735
338.08768269
339.460335992
340.792511249
342.087246147
343.344241849
344.563567185
345.745662565
346.890998331
347.999799621
349.072356982
350.108848365
351.109395951
352.07395714
353.002442641
353.89469223
354.750528928
355.56974475
356.352133843
357.097416539
357.805461182
358.476222298
359.109749124
359.706146159
360.265725523
360.788909268
361.276288981
361.728633364
362.14685964
362.532037422
362.885380942
363.208221988
363.501991182
363.768202504
364.00842287
364.224250914
364.417283916
364.589093939