/*--------------------------------*- C++ -*----------------------------------*\
| =========                 |                                                 |
| \\      /  F ield         | OpenFOAM: The Open Source CFD Toolbox           |
|  \\    /   O peration     | Version:  v1906                                 |
|   \\  /    A nd           | Web:      www.OpenFOAM.com                      |
|    \\/     M anipulation  |                                                 |
\*---------------------------------------------------------------------------*/
FoamFile
{
    version     2.0;
    format      ascii;
    class       volScalarField;
    location    "40";
    object      pa;
}
// * * * * * * * * * * * * * * * * * * * * * * * * * * * * * * * * * * * * * //

dimensions      [0 2 -2 0 0 0 0];


internalField   nonuniform List<scalar> 
9216
(
1040.00977377
1039.52561437
1038.5100456
1036.96148697
1034.88428324
1032.29018372
1029.17782499
1025.57426489
1021.47723014
1016.90597708
1011.86802369
1006.40243062
1000.52455683
994.25456499
987.59938184
980.597537869
973.24560554
965.567579085
957.574226209
949.315990079
940.808618344
932.099685883
923.206016012
914.159997821
904.973155302
895.674015161
886.321647704
876.970725587
867.562199679
858.08844677
848.580632405
839.206272006
829.999706022
820.80806901
811.630569648
802.569247302
793.64938714
784.901181884
776.341690372
767.978147757
759.83131204
751.941817481
744.320139903
736.946582031
729.842506028
723.028299045
716.514053517
710.297231145
704.397369353
698.813121633
693.55493257
688.63108065
684.048710229
679.803284059
675.903418628
672.343718469
669.126159452
666.233634808
663.664419731
661.412450318
659.458428579
657.77982692
656.354330243
655.154752551
654.156516601
653.338547592
652.678716223
652.140311671
651.697805226
651.327383193
651.007389349
650.723537232
650.465375117
650.22223256
649.989668456
649.767591977
649.554465109
649.350157979
649.155062205
648.970034496
648.796461044
648.634883338
648.484922672
648.347146009
648.222113755
648.111329673
648.01412795
647.928173061
647.856564215
647.802471108
647.76585323
647.742708825
647.727897108
647.718778429
647.713748645
647.711910609
1040.48033369
1039.99389676
1038.9799187
1037.42629598
1035.33988089
1032.72903034
1029.60326043
1025.98642504
1021.87989276
1017.29557439
1012.24948033
1006.76565148
1000.85827206
994.539777724
987.858288223
980.844884385
973.487171741
965.783486236
957.750300759
949.452664326
940.908314044
932.166660321
923.255253371
914.188208714
904.980938744
895.666064585
886.275062128
876.878722209
867.454751787
857.968625621
848.502398983
839.110426253
829.808309542
820.575658374
811.405789563
802.349878404
793.425883859
784.664362388
776.079585278
767.700834819
759.568778414
751.679049642
744.035090855
736.650327645
729.527913184
722.713179891
716.20397059
709.982036147
704.080400353
698.49456424
693.229452448
688.305013095
683.723534011
679.479167768
675.581748956
672.027105185
668.810012775
665.923642914
663.374501324
661.145831851
659.211054548
657.554304269
656.152355493
654.98118421
654.005560933
653.208083566
652.570694195
652.054415849
651.633684153
651.280894984
650.973614058
650.699768427
650.450041243
650.211156493
649.979618196
649.758482925
649.545726794
649.341374133
649.14562238
648.959821307
648.786445853
648.625062853
648.474861812
648.33666814
648.210928714
648.099839634
648.003709563
647.92133755
647.851266365
647.797089072
647.760994317
647.738719121
647.724715276
647.716006865
647.711456593
647.709690034
1041.46783537
1040.97474108
1039.95477234
1038.39114364
1036.29339294
1033.66733064
1030.5226872
1026.88012491
1022.75163622
1018.13941411
1013.06713604
1007.55638172
1001.61841617
995.275876148
988.55132993
981.475465327
974.050982114
966.301846916
958.253005171
949.92252772
941.344269385
932.552310722
923.579526337
914.45201145
905.193211126
895.815836202
886.385492146
876.971708727
867.507666601
858.001069495
848.511016566
839.075922233
829.714396022
820.396225886
811.185320877
802.110035056
793.151935964
784.358311856
775.759373523
767.362822076
759.193606241
751.256591362
743.571711469
736.158615387
729.031568209
722.209378828
715.65352316
709.399690102
703.501971121
697.907412231
692.621247386
687.70526086
683.132680345
678.882426009
674.986581253
671.438969661
668.23400384
665.367510418
662.837081767
660.629946533
658.726326616
657.10898332
655.75062779
654.624352704
653.702311057
652.96232244
652.375329347
651.903954742
651.52246281
651.203152642
650.918327287
650.661066373
650.428878634
650.19625198
649.962410631
649.742075765
649.529696718
649.323373526
649.126938077
648.939719641
648.763691969
648.602204253
648.452406774
648.313844228
648.187747704
648.075856635
647.981961701
647.90530501
647.839203563
647.786077361
647.751238712
647.731363297
647.718546618
647.710329766
647.705858715
647.703661352
1042.98688671
1042.48768717
1041.459318
1039.88026446
1037.76124991
1035.10766751
1031.9344797
1028.25875075
1024.09111923
1019.44325524
1014.326541
1008.76267834
1002.76825836
996.368319335
989.595424674
982.461653608
974.97176966
967.151944504
959.030111022
950.627927177
941.977638847
933.099693838
924.040691449
914.831165315
905.498962264
896.098424795
886.641361874
877.163200909
867.644470688
858.06108486
848.506411323
839.018144283
829.570069503
820.191346366
810.916199368
801.754217308
792.713522535
783.863138923
775.237680528
766.799825792
758.578333238
750.562728834
742.830982666
735.452708385
728.311306114
721.462851627
714.919126057
708.659486721
702.726667055
697.105165805
691.812391624
686.860772954
682.234316326
677.968587193
674.079234617
670.543252013
667.35203648
664.505452231
662.001663492
659.834492994
657.979608779
656.424802471
655.136287122
654.088066403
653.259751662
652.614287382
652.109175857
651.701226474
651.376798785
651.097099275
650.838436409
650.610472967
650.398385633
650.169770263
649.936317945
649.718911678
649.508773641
649.298564756
649.092834589
648.903764629
648.731760325
648.573444189
648.425737216
648.286174975
648.155366608
648.040476803
647.950705007
647.877332936
647.814345819
647.767271945
647.737315399
647.71906062
647.707449177
647.699840814
647.696076528
647.693994505
1045.04178889
1044.53419121
1043.4935046
1041.89522403
1039.74936621
1037.06348738
1033.84534217
1030.11953851
1025.90487379
1021.19995464
1016.02178955
1010.38751123
1004.32508564
997.863045538
991.014745395
983.789449086
976.208625553
968.296427204
960.081555178
951.576452155
942.828414508
933.866593438
924.690018769
915.376424486
905.979717129
896.528258671
887.002399424
877.427338487
867.827393886
858.173973649
848.523080324
838.915901654
829.346035884
819.874723811
810.529454873
801.280442643
792.176705297
783.232733502
774.522459742
766.011767791
757.7612009
749.783448356
742.054592979
734.62916195
727.441107412
720.544136881
713.908680398
707.611013917
701.654537331
695.9944437
690.674500322
685.691313354
681.054372353
676.752884291
672.840233666
669.326898523
666.152068113
663.327831886
660.85492831
658.745344722
656.951318566
655.482765606
654.286553196
653.333826997
652.669922151
652.196235501
651.800623672
651.457290108
651.204940248
650.972404863
650.729378592
650.527491752
650.358467592
650.139743184
649.887893598
649.67359159
649.473397785
649.259424109
649.039490545
648.85261326
648.688966648
648.52979879
648.385518516
648.244711315
648.107662834
647.994019153
647.906917049
647.838386596
647.779991002
647.740211668
647.715599351
647.700360053
647.691193277
647.684646395
647.682053389
647.68062285
1047.64324846
1047.12425313
1046.06719585
1044.44338426
1042.26311687
1039.53543417
1036.26989945
1032.47941671
1028.19369741
1023.41853461
1018.16198598
1012.4447118
1006.30003426
999.752973258
992.80077156
985.466003406
977.770922015
969.737110786
961.406914457
952.802052767
943.932031382
934.833477026
925.52042415
916.099330991
906.65729596
897.110563272
887.473505542
877.794961903
868.05755889
858.279174039
848.487226475
838.764768951
829.118980395
819.53688245
810.050266925
800.6619198
791.46698153
782.442838798
773.691650178
765.188163619
756.907899848
748.89025567
741.091396584
733.538310383
726.287979415
719.359062148
712.689113848
706.343510761
700.281857274
694.577175371
689.239445358
684.218272418
679.562841871
675.233753269
671.31849202
667.80912294
664.638695157
661.828038133
659.408233969
657.383848405
655.678808109
654.302864656
653.195782894
652.479833081
652.127641628
651.857447907
651.508227716
651.172604112
650.997041957
650.829325141
650.612853238
650.468559688
650.379644628
650.154685036
649.839678121
649.646304806
649.481407843
649.238142649
648.964360603
648.773891185
648.61179117
648.459041085
648.340330726
648.198863498
648.044286887
647.927304348
647.841708804
647.786026165
647.73486776
647.706224675
647.685863039
647.674394937
647.669242385
647.666090514
647.663899683
647.663405907
1050.80154664
1050.26645647
1049.18851862
1047.53261647
1045.30899816
1042.53047284
1039.20397247
1035.34074146
1030.97042369
1026.10476533
1020.74805108
1014.94089825
1008.70144858
1002.03610514
994.961386629
987.495841691
979.661826766
971.4995316
963.03646266
954.279946251
945.259078906
935.995869038
926.552235566
917.038745758
907.497105564
897.84105521
888.063821052
878.217553769
868.325934312
858.388831084
848.475520145
838.632030024
828.825672854
819.097143569
809.452410555
799.942236397
790.661992606
781.60759958
772.836290285
764.275926996
755.908664051
747.753206965
739.87417052
732.289100986
724.961911682
717.905634048
711.17460185
704.796034949
698.697472844
692.930188438
687.48916985
682.430526816
677.777060392
673.428781182
669.519520756
665.985716312
662.855075706
660.096019557
657.75051776
655.818276584
654.14562271
653.061468798
652.233468137
651.857309219
651.796525063
651.683464099
651.488825518
651.261599829
651.059999582
650.860914654
650.651571457
650.470125008
650.305335614
650.088675019
649.843484665
649.632605053
649.432336259
649.216353785
649.008036533
648.843906439
648.726556523
648.635595693
648.502560323
648.267168718
648.002513672
647.830634994
647.740079193
647.7190074
647.674971942
647.661602571
647.64864613
647.642292706
647.642010383
647.644431695
647.64353647
647.643810741
1054.5223963
1053.97034969
1052.86773234
1051.17405183
1048.90252382
1046.05768314
1042.65801266
1038.70830561
1034.2399061
1029.26365673
1023.79977057
1017.87953485
1011.51634264
1004.72073101
997.50549
989.883392001
981.900507924
973.586729661
964.951266168
956.020365768
946.820607659
937.371236
927.833992872
918.231220213
908.499871641
898.671527909
888.718306159
878.677354883
868.622774732
858.565400465
848.491522573
838.450359804
828.448050249
818.568155317
808.807239004
799.196118069
789.837139559
780.750674852
771.881473771
763.148315359
754.686365827
746.496647879
738.522432733
730.772509249
723.362461813
716.285734501
709.482484945
702.979332256
696.780861782
690.95464775
685.484661063
680.421817155
675.720120656
671.410768564
667.500724907
664.00200608
660.902887116
658.099451717
655.750863885
654.104290571
653.028131873
652.540074889
652.267853531
652.03568629
651.881421018
651.727674308
651.555049348
651.363294119
651.169459958
650.973621514
650.774658308
650.583045892
650.392870687
650.180986083
649.952430007
649.730726388
649.513608567
649.295124708
649.084998067
648.896656562
648.728963942
648.567493003
648.392120973
648.203294942
648.051178782
647.927391736
647.85357218
647.775976773
647.631268221
647.603587027
647.601460996
647.607238535
647.612070743
647.619684885
647.622332054
647.623273574
1058.81999782
1058.2482313
1057.11667596
1055.37724529
1053.04902533
1050.13266113
1046.64483708
1042.59467984
1038.01393084
1032.91573347
1027.31855135
1021.26231442
1014.75040769
1007.79857973
1000.43143638
992.651451368
984.492004
975.987262753
967.156670465
958.023063892
948.598826696
939.024752346
929.365044828
919.583838118
909.672194052
899.622575179
889.452644018
879.240682476
869.016392996
858.749178681
848.47205861
838.214256601
828.055643481
818.012562121
808.098181393
798.409925727
788.989781622
779.795785484
770.740306921
761.912046482
753.363946151
745.02353658
736.902977037
729.084772561
721.606360759
714.391892488
707.453659751
700.870944147
694.664773407
688.770222516
683.269767932
678.183992397
673.473483159
669.177012328
665.269390269
661.781758119
658.604886521
655.649642795
654.119808886
653.485380215
653.093467254
652.771034391
652.492087571
652.253604937
652.065692677
651.893855781
651.720240488
651.535542894
651.34516321
651.150737378
650.952211434
650.752667995
650.548837302
650.330977035
650.100417041
649.868803024
649.638073928
649.408170009
649.185015513
648.975713997
648.78084132
648.596686675
648.417333192
648.240839277
648.080959802
647.935699293
647.831695004
647.741643946
647.682490394
647.622437541
647.563425108
647.572804719
647.585505413
647.594501259
647.600804333
647.602307521
1063.70971341
1063.11571168
1061.95063449
1060.15953856
1057.76127335
1054.76353159
1051.17596959
1047.0112539
1042.30256576
1037.07167163
1031.32119613
1025.09884658
1018.42665851
1011.30454689
1003.74722181
995.776964227
987.421276405
978.707765578
969.660429102
960.294167252
950.674400441
940.926435226
931.107894528
921.125389002
910.973406643
900.677963065
890.311377213
879.905774299
869.44288047
858.942154157
848.423706376
837.982471211
827.636014788
817.405254596
807.384063075
797.612819334
788.028859918
778.672280203
769.536641847
760.567241587
751.795732728
743.331053003
735.166933526
727.236721251
719.546249519
712.233675827
705.265757887
698.566087437
692.278694185
686.346792587
680.847716377
675.720869099
671.029437374
666.70797472
662.811787456
659.257749879
656.033037969
654.4798305
654.004322109
653.6866689
653.348437122
653.036509847
652.760142983
652.521817355
652.319824202
652.13161963
651.944115919
651.749888307
651.55044506
651.346731096
651.138650531
650.927048706
650.709541986
650.481245388
650.243101214
650.001373108
649.758956763
649.518129846
649.283443153
649.059744073
648.84909973
648.651296914
648.463140617
648.281864729
648.113433007
647.963935218
647.845102929
647.745624874
647.66623126
647.606619127
647.568896846
647.541076765
647.561660026
647.571710471
647.579311315
647.581506419
1069.20617473
1068.5895001
1067.38680807
1065.5379451
1063.06157276
1059.96793785
1056.26589454
1051.96953121
1047.11031622
1041.73044908
1035.82347971
1029.42022877
1022.55084121
1015.23331631
1007.46802847
999.282862505
990.704038733
981.758556082
972.471166642
962.850986668
953.048084537
943.127593894
933.053502786
922.82200966
912.403947463
901.884174291
891.296658856
880.623092518
869.904030672
859.137624321
848.402957931
837.744219549
827.181178113
816.814447594
806.686482064
796.734006238
786.995690387
777.50723043
768.165648386
758.984684115
750.109342877
741.542069411
733.200418512
725.096149461
717.316611769
709.930271103
702.795509927
696.04090666
689.704483104
683.745859016
678.220994071
673.085966015
668.380868991
664.035960876
660.004098342
656.593751595
655.214887203
654.722450372
654.358834434
654.005112119
653.666112748
653.360626972
653.083811607
652.83113054
652.601536029
652.383340256
652.168520466
651.951861611
651.732839479
651.511306928
651.286795517
651.059194286
650.826674517
650.586495786
650.339494952
650.089478295
649.839403948
649.592183745
649.351536669
649.121110487
648.903140183
648.698072936
648.504003959
648.319695817
648.149039385
647.997634497
647.870350142
647.762366459
647.673556171
647.605617151
647.55379882
647.528585674
647.548388423
647.558365675
647.560815646
647.562348314
1075.34566133
1074.68903734
1073.44115975
1071.53076598
1068.96634095
1065.7631741
1061.93129231
1057.48621404
1052.46030925
1046.89523709
1040.80438385
1034.21743552
1027.14380743
1019.59791569
1011.60014013
1003.17511162
994.348193323
985.147034819
975.591008507
965.73775034
955.700554952
945.566129415
935.2286054
924.687197866
914.014871808
903.243935066
892.356324302
881.376653838
870.391127629
859.410469818
848.403566202
837.491533916
826.760762148
816.257323774
805.920330763
795.788944406
785.892400746
776.165079203
766.594856679
757.293711072
748.302235985
739.478633373
731.001220665
722.842330509
714.897025054
707.355673381
700.145997242
693.354610157
686.941170159
680.977644722
675.405924279
670.293571262
665.518114069
661.123444043
657.534332582
656.053515484
655.562144358
655.191896662
654.785498246
654.402662036
654.052263241
653.726758014
653.420043968
653.130221099
652.858614301
652.600223401
652.349989245
652.103719405
651.85957129
651.616335033
651.372936789
651.128618425
650.882013625
650.631529492
650.377804864
650.123414123
649.870899694
649.622918849
649.382390926
649.152019256
648.933585715
648.727544989
648.533000441
648.349753724
648.180385795
648.028549956
647.896543729
647.782778584
647.68793142
647.613081055
647.557050776
647.522477155
647.495052948
647.534114436
647.543100336
647.544160098
1082.16318941
1081.45654043
1080.15508188
1078.16282437
1075.49728366
1072.16901049
1068.19052473
1063.57880135
1058.36914537
1052.60403194
1046.29935416
1039.49156571
1032.1926566
1024.40225024
1016.14999125
1007.46090742
998.359462962
988.869608294
979.003143125
968.949438471
958.705501643
948.24128367
937.578068318
926.754234662
915.807921828
904.710921437
893.492151595
882.243938363
870.987357433
859.67231343
848.397818824
837.289283982
826.389789187
815.643132835
805.099425668
794.780710299
784.580860954
774.649808795
764.973212469
755.506165032
746.258551701
737.302005498
728.716830741
720.347626234
712.309076791
704.650888079
697.382401638
690.501026184
684.050112942
678.039218682
672.474209151
667.314696094
662.416558245
658.390962717
657.025591379
656.6110939
656.190639524
655.728273441
655.271534293
654.849804473
654.4546805
654.077137673
653.716830688
653.37594636
653.056424951
652.755452023
652.468821265
652.192432771
651.923504741
651.65995633
651.400052059
651.142396407
650.885760639
650.629255953
650.373206474
650.119220758
649.869137903
649.624970926
649.388839153
649.162654969
648.947718242
648.744477566
648.552725147
648.37276258
648.206299511
648.055534472
647.921733284
647.80459263
647.704712993
647.622811542
647.559454524
647.51444937
647.478016657
647.484320785
647.529027005
647.528418173
1089.67657451
1088.93120203
1087.55548431
1085.45724743
1082.67641601
1079.20635465
1075.06254619
1070.26425005
1064.85212752
1058.86668116
1052.32713003
1045.27312823
1037.71816728
1029.65868579
1021.12802775
1012.15136121
1002.75121748
992.971594992
982.828148895
972.446252144
961.946322179
951.186195004
940.180877413
929.01827214
917.736129868
906.281889697
894.76133996
883.225724522
871.603674603
859.980945685
848.470517722
837.158497061
825.980740533
814.986087699
804.237299604
793.597412002
783.212232603
773.100406007
763.124262846
753.481543369
744.143842746
734.980600791
726.199815773
717.767426842
709.572006953
701.786219589
694.4404064
687.472051536
680.95102645
674.920693213
669.322978955
664.117237718
659.511760545
657.971039619
657.634830824
657.306910438
656.818789099
656.287540524
655.771798324
655.281228221
654.811783323
654.363465184
653.940571763
653.546256024
653.181010252
652.841585841
652.523356986
652.221779458
651.933279029
651.655026499
651.384583951
651.119858225
650.859348408
650.60253042
650.349343732
650.100418458
649.856757778
649.619629544
649.390433093
649.17047718
648.960730496
648.761704323
648.573637308
648.397087793
648.233276284
648.083584428
647.948844681
647.829232795
647.725280138
647.637815635
647.568467478
647.519167941
647.484430449
647.455686218
647.523617979
647.517749417
1097.91335295
1097.13412484
1095.6778854
1093.4515949
1090.52298986
1086.89639392
1082.56764683
1077.56062994
1071.93110905
1065.70130976
1058.89881131
1051.56957451
1043.73058187
1035.37621676
1026.5422456
1017.25089557
1007.53762727
997.430749562
987.010306634
976.346776418
965.475148464
954.342893906
943.00315801
931.504943334
919.812047447
908.013640551
896.143829065
884.244669531
872.326041863
860.441109173
848.650047927
837.0134457
825.535869456
814.258752578
803.196083593
792.362357407
781.790083342
771.34070837
761.197405439
751.41353991
741.813860474
732.52582618
723.578132762
714.975533014
706.679409733
698.819494657
691.402331334
684.269914775
677.651653265
671.559712651
665.848725544
660.852696609
659.15144084
658.77958608
658.498669611
658.029558762
657.444059157
656.829528712
656.22323228
655.637986082
655.080954567
654.558787197
654.076317843
653.634632565
653.23151947
652.862149857
652.520898075
652.202480187
651.902556565
651.617553411
651.344256711
651.079794046
650.82225529
650.571113892
650.325851434
650.086140392
649.852161668
649.624475007
649.403875637
649.19121868
648.987255051
648.792562139
648.607656031
648.433256935
648.270392179
648.12011594
647.983176262
647.860031389
647.751325071
647.658106182
647.582382235
647.526844831
647.490198923
647.4695756
647.514812734
647.510661611
1106.92748011
1106.09572809
1104.56444828
1102.20738891
1099.08721155
1095.25967233
1090.72425022
1085.47499069
1079.59507042
1073.10938367
1066.03352191
1058.39306611
1050.23985488
1041.56304942
1032.39948179
1022.7800098
1012.7196343
1002.27205843
991.52094281
980.561529968
969.331492259
957.803624236
946.057705087
934.15182055
922.081419804
909.903557178
897.6638177
885.391181345
873.12640858
860.909489633
848.798079239
836.832501643
825.048118767
813.470838255
802.133736553
791.088363522
780.168742718
769.501166523
759.143725763
749.125620829
739.446152722
729.984391761
720.888150262
712.137964914
703.741943355
695.719126341
688.117009002
680.877234791
674.179597548
667.923772233
662.317580548
660.456840001
660.078252712
659.82368545
659.363673283
658.735615911
658.026167861
657.292605582
656.570270123
655.881304299
655.239424513
654.65193552
654.120603169
653.642793385
653.213169046
652.824978685
652.471367794
652.146169234
651.844244923
651.561239641
651.293067242
651.036044766
650.788168632
650.548385836
650.315593503
650.088653659
649.867039165
649.650709638
649.439966775
649.235311947
649.037323652
648.846605692
648.663832186
648.489850261
648.325686086
648.172384031
648.030840051
647.901833225
647.786289969
647.685572312
647.601897232
647.538333583
647.497250377
647.479644725
647.48348959
647.496887099
1116.76164639
1115.85824547
1114.23351923
1111.74102487
1108.42752201
1104.35298532
1099.5615768
1094.04306412
1087.86713061
1081.07725651
1073.70625962
1065.75220378
1057.25228542
1048.21947504
1038.71756713
1028.75532177
1018.32458487
1007.53360477
996.431359108
985.074421626
973.444805492
961.531232039
949.366646576
937.038323267
924.543229212
911.956829638
899.31643313
886.649212946
873.999075628
861.418187996
848.944433203
836.635108146
824.513209247
812.624800049
800.978822604
789.630586984
778.547011824
767.589760668
757.01220696
746.773442399
736.88647034
727.385476322
718.121562455
709.23998092
700.713016655
692.568838141
684.808273406
677.418259358
670.426703687
663.9895993
661.872632853
661.50332502
661.303154176
660.856955194
660.18439385
659.374225433
658.501183919
657.621345792
656.775936959
655.990648276
655.277945399
654.640749219
654.075730588
653.576038632
653.133320436
652.738899723
652.384640157
652.063425891
651.769300646
651.497091718
651.24179714
650.998850678
650.766634696
650.543297537
650.326835879
650.11555097
649.908391559
649.704860297
649.504879994
649.308672877
649.116665823
648.92944297
648.747754507
648.57254405
648.404927734
648.246091953
648.097199375
647.959397882
647.833991234
647.722712656
647.628050554
647.553297603
647.501745606
647.47330961
647.451374296
647.48377212
1127.44478754
1126.46395838
1124.72799078
1122.06966404
1118.54490825
1114.19721949
1109.10421574
1103.28681052
1096.78883742
1089.66022997
1081.93783859
1073.64135627
1064.77839173
1055.38627454
1045.49909627
1035.16479787
1024.36069708
1013.21238672
1001.74770844
989.926030178
977.893677611
965.578403861
952.963162557
940.165493661
927.222610604
914.15097649
901.105266424
888.00758417
874.94584879
861.958996644
849.099931988
836.413561068
823.945507964
811.722480516
799.781227373
788.188873582
776.735769781
765.5725434
754.779718852
744.35701386
734.270688729
724.585553319
715.329024325
706.298838628
697.65218678
689.360640208
681.448158019
673.710398365
666.405673266
663.577348639
663.041057766
662.948093767
662.549216483
661.833620909
660.9092869
659.873575094
658.808651976
657.777220276
656.820207067
655.957830611
655.195086595
654.52772587
653.946711269
653.441172799
653.000054923
652.612888342
652.270265063
651.964123789
651.687671506
651.43489254
651.199950314
650.977602597
650.766154593
650.563397746
650.36628269
650.172756126
649.98143938
649.791542563
649.602734137
649.415038387
649.228756842
649.044428302
648.862821747
648.684940869
648.512001178
648.345367416
648.186487356
648.036887334
647.898295028
647.772925893
647.663827429
647.574936337
647.510107128
647.469151443
647.438893757
647.475902781
1139.04144043
1137.96877453
1136.10010992
1133.24457835
1129.47315947
1124.8271991
1119.39150774
1113.22455882
1106.37528634
1098.86630135
1090.75913161
1082.07632931
1072.8118188
1063.03861042
1052.76957579
1042.0326015
1030.8649147
1019.29065423
1007.4220335
995.198966315
982.673814092
969.882918659
956.818541938
943.544214924
930.095670762
916.609280981
903.054299753
889.480096005
875.960331101
862.539516381
849.248813819
836.171167478
823.321287191
810.756527439
798.475813861
786.534917075
774.937701379
763.490903771
752.473401443
741.871903014
731.603798449
721.749212843
712.3417743
703.374673005
694.561253109
686.045144141
677.997351299
669.873254455
665.964199955
665.004654979
664.897421658
664.529528383
663.754104701
662.686495491
661.451828425
660.16080473
658.902976709
657.737595521
656.694620689
655.781837291
654.993631496
654.317876295
653.740172369
653.246126407
652.822321545
652.456637118
652.138445427
651.858737463
651.609844054
651.384778566
651.176984395
650.981740914
650.79591547
650.61687704
650.441191015
650.266637956
650.09171522
649.915519726
649.737610867
649.557914902
649.376658088
649.194333978
649.011697731
648.829769513
648.649827861
648.473373401
648.302087543
648.13782158
647.982721101
647.839565883
647.712247802
647.605882126
647.525618798
647.473968571
647.448871909
647.476871249
1151.62318838
1150.43947771
1148.40888374
1145.31576284
1141.24968553
1136.26999799
1130.45523673
1123.88621097
1116.62529252
1108.70493771
1100.17232264
1091.06807998
1081.39184286
1071.16791829
1060.48732465
1049.34752059
1037.80633055
1025.83715873
1013.45726713
1000.80370375
987.81801278
974.530211996
960.962862399
947.161969923
933.258487836
919.238309338
905.153457758
891.050238183
877.050137029
863.152483962
849.391461025
835.887685886
822.650529518
809.722593446
797.113584345
784.844730077
772.920034433
761.298334407
750.121161676
739.417641251
728.895969743
718.876447258
709.371371984
700.264827977
691.497206138
683.151440748
675.546555094
669.371603569
667.360721798
667.320217949
666.969907086
666.074456909
664.794369065
663.295901218
661.718570184
660.178371293
658.755745978
657.491971807
656.397891686
655.46575105
654.678962824
654.018220263
653.464580828
653.000680819
652.611009087
652.281910847
652.001600544
651.760122288
651.548874659
651.359846281
651.185779817
651.022707772
650.866618298
650.71355079
650.560359147
650.404964574
650.245989646
650.082623801
649.914484474
649.741522674
649.5639638
649.382283231
649.197208466
649.00973545
648.821141128
648.632977812
648.447052482
648.265434768
648.0906096
647.925934676
647.776334183
647.64853489
647.549692234
647.485969073
647.465125789
647.481601913
1165.27774343
1163.95590677
1161.72386967
1158.33806718
1153.91407784
1148.53044297
1142.27639783
1135.26802744
1127.54357224
1119.16634095
1110.17275931
1100.60349811
1090.49867441
1079.8661537
1068.73362138
1057.15906486
1045.17293446
1032.79328257
1019.98137274
1006.76757294
993.314831452
979.517836296
965.404772326
951.125527465
936.64824728
922.069481495
907.394876671
892.664405354
878.170539504
863.847325535
849.522620295
835.573813568
821.922694187
808.645288611
795.705106886
783.149728279
770.957900529
759.10460731
747.716741457
736.68982604
726.08255072
715.986150954
706.512145706
697.247123772
688.304680819
680.23639697
673.902213719
671.372074394
670.655679466
670.166730062
669.015923502
667.38110908
665.497483281
663.53722842
661.635726343
659.890559889
658.353800647
657.038560684
655.933499632
655.015723634
654.259116015
653.638558321
653.131457124
652.717936839
652.3805557
652.104170722
651.875871332
651.684715807
651.521065559
651.37597279
651.242595709
651.115988686
650.991582361
650.865209053
650.734210402
650.59688521
650.452219883
650.299711042
650.139212592
649.970839245
649.794907531
649.61192063
649.422579818
649.227816874
649.028830116
648.827105411
648.624426667
648.422910578
648.225224249
648.035190457
647.858780376
647.704568045
647.581968236
647.499624948
647.471848356
647.482296557
1180.11447603
1178.61752431
1176.12851892
1172.37552632
1167.51284629
1161.64539701
1154.88539953
1147.35779427
1139.13798776
1130.25713087
1120.76217177
1110.70247474
1100.09904181
1089.02303403
1077.4595609
1065.44784878
1053.04433742
1040.19922873
1026.92180014
1013.24314272
999.191850893
984.86026218
970.248277713
955.368276476
940.24170387
925.068165298
909.818689202
894.509241068
879.34669351
864.356776107
849.554574308
835.1667615
821.116808243
807.481953275
794.244714882
781.401866365
768.99978299
756.913651353
745.452978177
734.100861245
723.330211873
713.018483086
703.210659048
694.049411021
685.086592354
678.091179914
675.476617657
674.755942441
674.082501972
672.68873785
670.585694738
668.162229486
665.68216175
663.310784316
661.157795751
659.281797501
657.695702694
656.38208691
655.309194773
654.4417079
653.746245947
653.193315227
652.757390677
652.416339057
652.15087084
651.944339267
651.782666733
651.653850283
651.547179203
651.453382589
651.365543199
651.277847631
651.185325157
651.084667671
650.973944591
650.852110654
650.718765104
650.573927443
650.417872321
650.251019288
650.073876808
649.887029425
649.691160344