/*--------------------------------*- C++ -*----------------------------------*\
| =========                 |                                                 |
| \\      /  F ield         | OpenFOAM: The Open Source CFD Toolbox           |
|  \\    /   O peration     | Version:  v1906                                 |
|   \\  /    A nd           | Web:      www.OpenFOAM.com                      |
|    \\/     M anipulation  |                                                 |
\*---------------------------------------------------------------------------*/
FoamFile
{
    version     2.0;
    format      ascii;
    class       volScalarField;
    location    "935";
    object      p;
}
// * * * * * * * * * * * * * * * * * * * * * * * * * * * * * * * * * * * * * //

dimensions      [0 2 -2 0 0 0 0];


internalField   nonuniform List<scalar> 
9216
(
273.515952228
273.595724895
273.760789732
274.012552622
274.349592428
274.770323527
275.272776678
275.854643494
276.513310243
277.245903574
278.049321746
278.920280915
279.855343093
280.850960565
281.903497982
283.009272812
284.164570166
285.36567851
286.608897084
287.890567131
289.207072617
290.554867831
291.930472514
293.330496869
294.751632239
296.190674475
297.644511164
299.110144062
300.584673621
302.065320947
303.549410254
305.034390058
306.517813839
307.997362098
309.470820981
310.936103375
312.391226503
313.834332993
315.263667193
316.677595957
318.07458393
319.453214046
320.812162013
322.150216516
323.466253129
324.759254234
326.028282614
327.272501098
328.491146061
329.683546819
330.849099275
331.987285051
333.097645488
334.179800511
335.233423158
336.258258149
337.254097071
338.220796606
339.158254494
340.066427315
340.945307306
341.794939607
342.615399979
343.406811387
344.169322649
344.903124234
345.608427873
346.285481443
346.934549557
347.555927447
348.149922553
348.716867328
349.257101865
349.77098557
350.258880893
350.721163825
351.158208803
351.570398035
351.95810764
352.321715821
352.661590317
352.978095435
353.27158091
353.542387828
353.790838965
354.017243653
354.22188971
354.405047348
354.566962924
354.707862332
354.827947596
354.927402148
355.006396721
355.065121179
355.104110657
355.121206819
273.436219526
273.516354388
273.681763298
273.93452804
274.273003849
274.695529496
275.20009198
275.7843446
276.445638786
277.18106456
277.987486641
278.86158618
279.79989487
280.798833819
281.854742419
282.963912076
284.122608404
285.327099105
286.573669425
287.858644564
289.178399176
290.5293753
291.908087045
293.311135178
294.735208154
296.177094387
297.633680578
299.101962437
300.579041002
302.062132294
303.548562009
305.035774684
306.521327137
308.002896273
309.478271672
310.945363311
312.402192844
313.846900637
315.277736187
316.69306462
318.09135633
319.471192982
320.831256512
322.170334698
323.48730969
324.781163236
326.050964905
327.295877059
328.515142943
329.70809149
330.874125432
332.012726015
333.123441272
334.205890705
335.259753836
336.284774878
337.280751651
338.24754025
339.185044372
340.093219947
340.972064906
341.821623721
342.641977605
343.433248886
344.195591627
344.929195756
345.634278068
346.311086045
346.959889211
347.580982587
348.174678383
348.74130904
349.281219279
349.794768695
350.282324197
350.744262154
351.180961258
351.592804252
351.980171265
352.343441152
352.682985363
352.999168933
353.292344953
353.562855258
353.811025558
354.037165873
354.241566397
354.424497726
354.586207493
354.72692037
354.846835183
354.946123444
355.024923092
355.083318727
355.121236462
355.13830702
273.270386861
273.351669977
273.518611748
273.773681354
274.115202406
274.541468487
275.05040574
275.639599196
276.306329281
277.04761278
277.860242898
278.740830515
279.685842047
280.691636791
281.754499198
282.870670025
284.036371685
285.247832677
286.501306153
287.793088252
289.119530885
290.477055157
291.862159665
293.271430309
294.701545325
296.149282595
297.611522393
299.085252984
300.567571752
302.055689585
303.546930766
305.038736479
306.528663703
308.014387713
309.493700103
310.964510669
312.424844507
313.872843141
315.306760841
316.72496509
318.125932207
319.508247222
320.870598927
322.211779265
323.53067793
324.826281396
326.097667218
327.344002815
328.564539615
329.758611722
330.925630033
332.065080893
333.176520309
334.259572669
335.313925147
336.339326545
337.335581945
338.302551703
339.240146373
340.148325845
341.027094536
341.876500643
342.696631566
343.487613219
344.249605645
344.982802315
345.687425885
346.36372743
347.011982287
347.632489176
348.225566113
348.791549377
349.330789484
349.843649995
350.330503571
350.791730632
351.227715514
351.638845026
352.02550475
352.388077531
352.726939983
353.042460961
353.334998326
353.604897449
353.852488295
354.078084004
354.28197833
354.464444313
354.625732043
354.766067274
354.885649105
354.984647653
355.063199652
355.121398181
355.159209916
355.177249027
273.015425961
273.097996074
273.267335347
273.526009458
273.872280883
274.304367408
274.820101432
275.416962939
276.092121219
276.842479318
277.664718118
278.555339784
279.510708547
280.527088892
281.600679651
282.727644752
283.904139509
285.126333749
286.390430814
287.692684065
289.029409943
290.396999368
291.791926411
293.210756085
294.650149997
296.106871735
297.577790522
299.059885016
300.5502456
302.046077064
303.54469988
305.043551917
306.54018889
308.032285354
309.517634191
310.994146771
312.459851686
313.912894139
315.351533912
316.774144042
318.179208105
319.565318268
320.931172001
322.275569618
323.597410547
324.895690499
326.169497438
327.418008512
328.640485869
329.836273489
331.00479297
332.145540387
333.258082162
334.34205204
335.397147138
336.4231251
337.419800379
338.387041606
339.324768122
340.232947558
341.111592602
341.96075876
342.780541305
343.571073173
344.332522033
345.065088244
345.769001994
346.444521242
347.091928875
347.711530596
348.303652051
348.868636636
349.406842584
349.918640689
350.404411367
350.864542307
351.299425546
351.709455087
352.095024023
352.456522182
352.794333354
353.108833008
353.400385686
353.669342851
353.916040486
354.140797124
354.343911686
354.525661688
354.68630129
354.826059568
354.945138539
355.043711137
355.121918896
355.179868094
355.217551744
355.23576148
272.670255771
272.754474761
272.927103563
273.190731577
273.543527906
273.983599524
274.508646804
275.116003115
275.802682827
276.565431251
277.400773726
278.305062902
279.274522768
280.305288796
281.393443505
282.535047516
283.72616596
284.962890771
286.241359012
287.557767982
288.908387323
290.289568885
291.697754528
293.129482525
294.581392608
296.050230236
297.532849956
299.026218349
300.527416314
302.033641099
303.542207767
305.050550335
306.556222549
308.056898523
309.550372472
311.034558416
312.507489274
313.967315762
315.412304715
316.840837239
318.251406326
319.642614366
321.013170167
322.361885944
323.68767389
324.989542779
326.266594244
327.518019151
328.743093721
329.941175827
331.1117011
332.254179274
333.368190398
334.453381334
335.509462167
336.536202921
337.533430222
338.501024275
339.438915791
340.347083219
341.225549913
342.07438158
342.893683636
343.683598805
344.444304592
345.176010948
345.878957794
346.553412682
347.199668295
347.818040058
348.408863565
348.972492114
349.509294053
350.019650224
350.50395125
350.962594915
351.395983421
351.804520751
352.188609944
352.5486505
352.885035731
353.198150263
353.488367529
353.756047422
354.001533977
354.225153227
354.427211112
354.607991542
354.767754529
354.906734421
355.025138183
355.123143933
355.200899629
355.258521471
355.296015019
355.314206738
272.233093591
272.319404233
272.49626882
272.766283813
273.127489246
273.577841196
274.114863445
274.735694981
275.437145973
276.215755077
277.067844973
277.989574834
278.976988301
280.026056217
281.132713678
282.292891471
283.502542154
284.757661304
286.054304504
287.388600767
288.756762984
290.155096059
291.580003185
293.0279908
294.495672484
295.979772179
297.477126823
298.984688637
300.49952703
302.018830257
303.539906743
305.060185977
306.577219308
308.088680532
309.592365532
311.086191886
312.568197968
314.03654169
315.489498801
316.925460855
318.342932772
319.740530125
321.116976092
322.4710982
323.801824809
325.108181471
326.389287116
327.644350192
328.872664702
330.073606287
331.246628273
332.391257824
333.507092127
334.593794738
335.651091996
336.678769632
337.676669477
338.644686372
339.582765181
340.490897986
341.369121378
342.217513896
343.036193519
343.825315272
344.585068841
345.315676245
346.01738948
346.690488187
347.335277241
347.952084345
348.541257525
349.103162613
349.638180636
350.146705185
350.629139714
351.085894831
351.517385544
351.924028524
352.306239358
352.664429849
352.999005337
353.3103621
353.598884812
353.864944105
354.10889422
354.331070782
354.531788683
354.711340106
354.869992654
355.00798764
355.125538522
355.222829611
355.300015292
355.357218794
355.394451561
355.412541576
271.701662193
271.790563642
271.972692603
272.250645789
272.622294318
273.085397023
273.637248898
274.274738961
274.994416616
275.792558546
276.665232487
277.608356221
278.617750317
279.68918386
280.818412968
282.001212377
283.233400661
284.510859898
285.829550624
287.185522987
288.574924896
289.99400793
291.439131617
292.906766601
294.393497089
295.896022844
297.411160937
298.935847321
300.467138294
302.002211821
303.538368649
305.073033097
306.603753839
308.128204446
309.644182942
311.149611363
312.642534822
314.121120126
315.583653997
317.028540864
318.454300301
319.859564108
321.243073097
322.60367361
323.94031382
325.25203986
326.537991824
327.797399679
329.029579143
330.233927556
331.409919792
332.557104241
333.675098897
334.76358757
335.822316259
336.851089676
337.849767964
338.818263573
339.756538331
340.664600662
341.542502963
342.390339106
343.20824204
343.996381476
344.754961611
345.484218883
346.184419713
346.855858224
347.498853905
348.113749226
348.700907173
349.26070871
349.793550176
350.299840603
350.779998984
351.234451495
351.663628683
352.067962649
352.447884224
352.803820183
353.136190492
353.445405617
353.731863909
353.995949088
354.238027825
354.458447452
354.657533799
354.83558917
354.992890476
355.129687515
355.246201459
355.342623739
355.419115121
355.475804243
355.512706784
355.530644642
271.073138977
271.165188915
271.353717933
271.6413156
272.025636731
272.504187495
273.073971723
273.731562641
274.473182856
275.294783602
276.192118863
277.160812352
278.196415793
279.294457869
280.450483965
281.66008733
282.918932685
284.222773444
285.567463768
286.948966628
288.363358915
289.806834513
291.275706043
292.766405881
294.275486828
295.799622741
297.335609244
298.880364602
300.430930707
301.984474145
303.538287014
305.08978793
306.636522704
308.176164757
309.70651479
311.225500271
312.731174426
314.221714774
315.695421198
317.150713591
318.586129089
320.000318945
321.392045075
322.760176339
324.103684583
325.421640524
326.71320949
327.977647097
329.214294888
330.422575993
331.601990837
332.752112953
333.87258491
334.963114413
336.023470574
337.053480389
338.05302541
339.02203865
339.960501668
340.868441867
341.745929945
342.593077512
343.410034805
344.196988499
344.954159554
345.681801091
346.380196234
347.049655924
347.690516653
348.303138123
348.887900805
349.44520341
349.975460253
350.479098542
350.956555579
351.408275913
351.834708445
352.236303514
352.613509983
352.966772346
353.296527878
353.603203842
353.887214785
354.148959926
354.388820657
354.607158181
354.804311285
354.980594265
355.136295016
355.271673316
355.386959302
355.482352224
355.558019606
355.614095553
355.650599634
355.668346172
270.344093644
270.439920049
270.636121818
270.935269351
271.334742803
271.831727511
272.422860098
273.104318747
273.871921037
274.721218996
275.64758608
276.646293683
277.712575619
278.841680232
280.028910733
281.269654993
282.559406374
283.893777308
285.26850729
286.679466812
288.122658535
289.594216785
291.0904062
292.607620165
294.14237945
295.691331293
297.25124904
298.819032307
300.391707582
301.966429107
303.540479539
305.111271182
306.676346753
308.233379689
309.78017394
311.314663421
312.834910963
314.339106724
315.825566124
317.292727281
318.739148026
320.163502509
321.564577478
322.941268251
324.292574477
325.617595692
326.915526784
328.185653365
329.427347144
330.640061317
331.82332605
332.976744072
334.099986433
335.192788451
336.254945878
337.286311303
338.286790808
339.256340861
340.194965475
341.102713569
341.979676545
342.825986031
343.641811755
344.427359505
345.182869146
345.908612629
346.604891983
347.272037228
347.910404202
348.520372274
349.102341937
349.65673227
350.18397828
350.684528133
351.158840288
351.607380554
352.030619091
352.429027385
352.803075217
353.153227644
353.479942033
353.783665151
354.064830344
354.323854825
354.561137074
354.777054392
354.971960589
355.146183854
355.300024791
355.433754636
355.54761369
355.64181012
355.71651881
355.771879452
355.807916588
355.825436464
269.510412551
269.610731722
269.816053439
270.128909904
270.546332813
271.065101088
271.681389781
272.390885187
273.188906015
274.070518544
275.030639386
276.064123104
277.165833277
278.330697238
279.553745845
280.83014036
282.155188825
283.52435436
284.933257582
286.377675106
287.853535702
289.356915372
290.884032265
292.431242114
293.995034568
295.572030643
297.158981283
298.752766927
300.35039785
301.949015048
303.545890891
305.138430715
306.72417388
308.300793959
309.866098724
311.418029629
312.95466069
314.474196802
315.974971472
317.455444045
318.914196428
320.349929403
321.761458555
323.147709917
324.507715348
325.84060776
327.145616202
328.422060914
329.669348359
330.886966319
332.074479092
333.231522845
334.357801151
335.453080771
336.51718769
337.550003439
338.551461721
339.521545325
340.460283343
341.367748647
342.244055604
343.089357998
343.903847087
344.687749775
345.441326814
346.164871016
346.858705393
347.523181224
348.158675978
348.765591104
349.344349644
349.8953937
350.419181735
350.916185735
351.386888248
351.831779333
352.251353429
352.646106196
353.016531334
353.363117432
353.686344849
353.986682668
354.264585751
354.520491892
354.754819116
354.967963119
355.160294875
355.332158422
355.483868818
355.615710322
355.727934764
355.820760143
355.894369596
355.948909419
355.984409609
356.00166779
268.567203534
268.672844234
268.888956003
269.218003336
269.656574608
270.200932967
270.846673077
271.588869487
272.422228312
273.34122783
274.340240351
275.413632376
276.555842135
277.761435667
279.025144034
280.341884959
281.706772382
283.11511726
284.562422497
286.044374413
287.556832631
289.095819784
290.657512045
292.238231135
293.834438165
295.442729412
297.059833934
298.68261273
300.308059097
301.933299763
303.555595812
305.17234476
306.781082231
308.379481947
309.965356072
311.53665472
313.091464809
314.628008224
316.144639359
317.639842044
319.112225962
320.560522578
321.983580686
323.380361622
324.749934247
326.091469729
327.40423624
328.687593591
329.9409879
331.163946323
332.356071939
333.517038792
334.646587202
335.744519326
336.810695055
337.84502824
338.847483286
339.818072094
340.756851363
341.663920205
342.539418051
343.383522779
344.196449031
344.978446619
345.729798996
346.450821682
347.141860631
347.803290447
348.435512453
349.038952546
349.61405886
350.161299211
350.681158347
351.174135026
351.640738935
352.081487494
352.49690258
352.887507189
353.253822097
353.596362525
353.915634864
354.212133462
354.486337528
354.738708142
354.969685429
355.179685875
355.369099835
355.538289215
355.687585371
355.817287177
355.927659325
356.018930991
356.091294488
356.14490319
356.179793914
356.196754855
267.508674523
267.620610186
267.849467942
268.197600322
268.66102823
269.235357301
269.915450216
270.69561986
271.569820859
272.531822167
273.575351673
274.694209918
275.882353054
277.133947838
278.443403103
279.805382732
281.214805131
282.666833644
284.156861596
285.680494843
287.233533959
288.811957563
290.411907794
292.029678532
293.66170662
295.304566078
296.954965016
298.609744771
300.265880665
301.92048378
303.570802532
305.214225475
306.848283842
308.470651374
310.079145121
311.671725043
313.246492789
314.801689715
316.335694155
317.847018027
319.33430284
320.7963152
322.231941874
323.640184531
325.020154219
326.371065675
327.692231531
328.983056504
330.243031613
331.471728512
332.668793981
333.833944648
334.96696199
336.067687669
337.136019244
338.171906299
339.17534699
340.146385043
341.085107149
341.991640772
342.866152279
343.708845354
344.519959612
345.299769336
346.048582246
346.766738231
347.454607957
348.112591308
348.74111559
349.340633499
349.9116208
350.454573768
350.970006356
351.458447158
351.920436186
352.356521496
352.767255717
353.153192523
353.514883081
353.852872521
354.167696462
354.459877616
354.729922512
354.978318356
355.20553004
355.411997342
355.598132302
355.764316814
355.910900411
356.038198284
356.146489515
356.236015519
356.306978884
356.359541316
356.393746872
356.410373378
266.327977647
266.447369192
266.691298252
267.061939233
267.554580761
268.163984662
268.884086024
269.708246856
270.629499695
271.640760088
272.734997593
273.905363115
275.145274685
276.448467165
277.809013068
279.221321984
280.680125567
282.180453893
283.717607717
285.287129941
286.884778575
288.506502656
290.148422052
291.806811611
293.478089795
295.15881159
296.845665185
298.535471656
300.225186764
301.911903822
303.592856525
305.265422943
306.927128814
308.575647513
310.20880141
311.824561518
313.421046224
314.996519077
316.549385747
318.078190221
319.581610333
321.05845274
322.507647443
323.928241946
325.319395173
326.680371201
328.010532935
329.309335755
330.576321246
331.811111048
333.013400916
334.182955044
335.319600723
336.423223397
337.493762168
338.531205791
339.535589196
340.506990523
341.445528676
342.351361345
343.224683438
344.065725844
344.874754439
345.652069216
346.398003453
347.112922803
347.797224225
348.451334668
349.075709472
349.670830429
350.237203512
350.77535626
351.285834863
351.769200968
352.226028269
352.656898913
353.062399807
353.443118836
353.79964108
354.132545044
354.442398959
354.729757174
354.99515668
355.23911378
355.462120948
355.664643864
355.847118673
356.009949451
356.153505907
356.278121289
356.384090531
356.471668802
356.541070009
356.59246469
356.625905561
356.642158934
265.017007356
265.145261411
265.407068618
265.80432707
266.331370738
266.981869687
267.748576336
268.623661269
269.59902471
270.666558153
271.818344868
273.046799038
274.344749231
275.705475925
277.122714347
278.590633542
280.103801081
281.657140815
283.245888993
284.865552326
286.511870177
288.180782144
289.868401685
291.570996077
293.284972638
295.006870845
296.733359508
298.461237904
300.187439534
301.909036347
303.623244541
305.327429713
307.019110081
308.695958073
310.355801698
311.996624321
313.616563258
315.213907301
316.787093252
318.334701624
319.855451587
321.348195323
322.811911884
324.245700691
325.648774779
327.020453899
328.360157551
329.667398049
330.94177367
332.182961974
333.390713347
334.56484488
335.705234609
336.811816248
337.884574433
338.923540579
339.928789344
340.900435747
341.838632889
342.743570275
343.615472607
344.454599005
345.261242487
346.035729618
346.778420159
347.489706617
348.17001356
348.819796621
349.439541102
350.029760171
350.590992602
351.123800114
351.628764308
352.106483286
352.55756799
352.982638357
353.382319321
353.757236761
354.108013422
354.435264878
354.73959557
355.021594952
355.281833795
355.520860652
355.739198528
355.937341757
356.115753113
356.274861161
356.415057834
356.53669629
356.640088988
356.725505993
356.793173739
356.843272948
356.875865344
356.891704527
263.566136474
263.704985385
263.988112624
264.416993305
264.984702224
265.683483472
266.504571088
267.438636677
268.476188968
269.607894822
270.824810672
272.118528291
273.481246748
274.905786887
276.385565525
277.914544849
279.487169465
281.098300134
282.743150107
284.417227487
286.116285324
287.836280143
289.573339112
291.323735843
293.083874633
294.850282544
296.619608218
298.388625734
300.154241609
301.91350154
303.663599804
305.401886134
307.125868995
308.833218851
310.521769577
312.189518276
313.834623677
315.455403254
317.050329244
318.61802371
320.157252797
321.66692033
323.146060901
324.59383258
326.009509409
327.392473749
328.742208632
330.058290133
331.340379897
332.588217827
333.801615068
334.980447329
336.12464866
337.234205771
338.309152986
339.349567897
340.35556779
341.327306833
342.264974043
343.168791945
344.039015861
344.875933673
345.679865938
346.451166158
347.190221061
347.897450708
348.573308295
349.218279526
349.832881487
350.417660957
350.973192183
351.500074096
351.998927083
352.470389331
352.915112877
353.333759408
353.726995938
354.095490394
354.439907218
354.760903002
355.059122236
355.335193177
355.5897239
355.823298537
356.036473743
356.229775394
356.403695548
356.558689658
356.695174062
356.813523705
356.914070152
356.997100013
357.06285335
357.11152156
357.143176874
357.1585588
261.963866894
262.115481265
262.424218675
262.890910979
263.506949917
264.262697806
265.147424794
266.149908844
267.258948556
268.463753742
269.75420548
271.120997539
272.555681215
274.050640138
275.599020616
277.194638993
278.831881926
280.505610065
282.21107099
283.943824019
285.69967739
287.474637467
289.264869444
291.066669238
292.876446329
294.690716976
296.506106257
298.319356583
300.127339715
301.927067914
303.715707067
305.490586392
307.249201773
308.989220325
310.708481953
312.404999094
314.076954743
315.722699028
317.340744531
318.929760594
320.488566714
322.016125255
323.511533604
324.974015987
326.402915064
327.79768347
329.157875354
330.483138041
331.773203811
333.027881931
334.247050948
335.430651399
336.578679005
337.691178507
338.768238239
339.809985556
340.816583172
341.788226466
342.725141716
343.627585223
344.495843185
345.330232184
346.131100068
346.898827046
347.633826729
348.33654696
349.0074702
349.64711337
350.256027013
350.83479376
351.384026071
351.904363325
352.396468309
352.861023242
353.298725413
353.710282582
354.096408221
354.457816703
354.795218506
355.109315492
355.400796311
355.670331972
355.918571605
356.146138455
356.353626122
356.541595069
356.71056942
356.861034036
356.99343188
357.108161695
357.205575942
357.285978985
357.349625791
357.396719869
357.42734427
357.442222991
260.19636097
260.363510661
260.703298728
261.215578573
261.8894595
262.712793267
263.672290956
264.754329836
265.945609562
267.233620127
268.606920888
270.055256918
271.569551358
273.141815609
274.765014685
276.432916582
278.139945132
279.881047442
281.651580601
283.447218126
285.263874452
287.097645249
288.944762004
290.801560314
292.664462052
294.529971182
296.394681408
298.255292152
300.10862819
301.951657473
303.781509113
305.595485801
307.391067181
309.165915392
310.91787662
312.644980561
314.345437885
316.017636006
317.660133547
319.27165368
320.851076536
322.397430816
323.909884874
325.387737459
326.830408312
328.237428764
329.60843244
330.943146087
332.241380606
333.503022288
334.728024366
335.916398968
337.068209635
338.183564536
339.262610581
340.30552853
341.312529236
342.283851057
343.219758448
344.120541637
344.986517265
345.818029766
346.615453258
347.379193637
348.10969063
348.807419489
349.472892135
350.106657542
350.709301255
351.281443989
351.823739324
352.336870553
352.821546831
353.278498724
353.708473361
354.112229299
354.490531265
354.844144855
355.17383129
355.480342283
355.764415071
356.026767638
356.268094173
356.489060788
356.690301516
356.872414619
357.035959201
357.181452155
357.309365429
357.420123575
357.514101633
357.591623474
357.652960118
357.698327655
357.727821546
357.742148671
258.246802602
258.433092948
258.810958413
259.378756591
260.122452549
261.026511237
262.074285818
263.249102839
264.53509515
265.917748056
267.384174308
268.92316881
270.52510825
272.181760215
273.886054889
275.631856748
277.413758453
279.226906886
281.066862691
282.92948971
284.810868722
286.707230385
288.614904296
290.530283761
292.449807711
294.369960997
296.287291001
298.198435479
300.100153079
301.989352258
303.863115051
305.718709752
307.55359574
309.365428526
311.152061075
312.911542842
314.642116329
316.342211751
318.010440385
319.645586825
321.246600159
322.812584318
324.342787845
325.836593389
327.293507148
328.713148458
330.09523956
331.439595606
332.746114847
334.014769035
335.245594094
336.438681203
337.594168452
338.712233317
339.793086136
340.836964829
341.844130969
342.814867331
343.749476893
344.648283227
345.511632086
346.339893943
347.133467133
347.892781274
348.618300546
349.310526523
349.970000218
350.597303154
351.193057273
351.75792367
352.292600152
352.797817765
353.274336423
353.722939866
354.144430152
354.53962188
354.909336301
355.254395461
355.575616442
355.873805772
356.149754033
356.404230722
356.637979363
356.851712931
357.046109589
357.221808772
357.379407631
357.519457829
357.64246269
357.748874718
357.83909343
357.913463443
357.972273157
358.015752752
358.044010382
358.057734148
256.09451013
256.304737094
256.729936138
257.36615494
258.194954964
259.196183019
260.348760387
261.632135324
263.027324188
264.517521418
266.088324211
267.727663696
269.425549522
271.173725721
272.965311253
274.794471178
276.656140839
278.545808326
280.459349802
282.392906965
284.34279484
286.305430283
288.277276128
290.254801428
292.234462448
294.212709494
296.18601745
298.150932296
300.104118363
302.042403936
303.962810854
305.862564713
307.739100803
309.590066594
311.413322815
313.206942022
314.969203794
316.698587747
318.393765563
320.053592028
321.677094809
323.263463228
324.812036487
326.322291652
327.793831796
329.226374464
330.619740537
331.973843367
333.288678146
334.564311379
335.800870571
336.998534232
338.157522498
339.278088607
340.360511597
341.405090439
342.412139894
343.381988162
344.314976403
345.21146
346.071811365
346.896423932
347.685716943
348.440140516
349.160180539
349.846362895
350.499256672
351.119476027
351.707680568
352.264574171
352.790902321
353.287448127
353.755027259
354.194482091
354.60667535
354.992483521
355.352790225
355.688479696
356.000430455
356.289509217
356.556565053
356.80242384
357.027883016
357.233706673
357.420621015
357.589310217
357.740412672
357.874517654
357.992162388
358.093829454
358.179944585
358.250874978
358.306927572
358.348347059
358.375255973
358.388321748
253.713678236
253.954379448
254.439368748
255.161074652
256.094785273
257.213990439
258.491740021
259.902564676
261.423743974
263.035936709
264.723270221
266.473046226
268.275235689
270.121908728
272.006697254
273.924341858
275.870339583
277.840687027
279.831701225
281.839896249
283.861894161
285.894354004
287.933910902
289.977127948
292.020472492
294.060331553
296.093063708
298.115075362
300.122896589
302.113247036
304.083072979
306.029551773
307.950091822
309.842331641
311.704141285
313.533621035
315.329094315
317.089098112
318.812373512
320.497855686
322.144662008
323.75207892
325.31954821
326.846653202
328.333105348
329.778731582
331.183462284
332.54731968
333.870406394
335.152893983
336.395011451
337.597033979
338.759272177
339.882062316
340.965757922
342.010723164
343.017328311
343.98594751
344.916958882
345.810746906
346.667706742
347.488250126
348.272812234
349.021858915
349.735893605
350.415463376
351.061163547
351.673640553
352.253592824
352.801769646
353.318968107
353.806028377
354.263827667
354.693273278
355.095295147
355.470838238
355.820855033
356.146298267
356.448113986
356.727234917
356.984574163
357.22101922
357.437426336
357.634615253
357.81336437
357.974406338
358.118424139
358.246047607
358.357850394
358.454347389
358.5359925
358.603176728
358.656226884
358.695403718
358.720844375
358.733193675
251.071549677
251.351889949
251.913832134
252.74402555
253.808670367
255.072446205
256.500621018
258.061533299
259.7280735
261.478241075
263.294950713
265.165348704
267.079916505
269.031576766
271.014924222
273.025628898
275.060010748
277.114759242
279.186760703
281.272994418
283.37046242
285.476126519
287.586840141
289.699281725
291.809914929
293.915014354
296.010750619
298.093315595
300.159045244
302.204515958
304.226585558
306.222382925
308.189290061
310.124935911
312.02720171
313.894222024
315.724373258
317.516259307
319.268700904
320.980725387
322.65155287
324.280580505
325.867366406
327.411613473
328.91315423
330.371937064
331.788013524
333.161526182
334.492696573
335.781812726
337.029216361
338.235289962
339.400444313
340.525107014
341.609712641
342.654695039
343.660482229
344.627494203
345.556143758
346.446840217
347.299995745
348.116033648
348.89539797
349.638563487
350.346045284
351.018407065
351.656267576
352.260304656
352.831256673
353.369921317
353.877151923
354.353851668
354.80096616
355.219474999
355.610382881
355.974710718
356.313487093
356.627740184
356.91849018
357.186742122
357.433479123
357.659655923
357.866192833
358.053970083
358.22382265
358.376535606
358.512839991
358.633409221
358.738856013
358.829729735
358.906514211
358.969626083
359.019413148
359.056152551
359.079997787
359.091568847
248.125680995
248.458937549
249.122102866
250.092383234
251.322611179
252.765235218
254.375257495
256.113321185
257.947330386
259.852762282
261.811944006
263.812717424
265.846942342
267.90915316
269.995505057
272.103029418
274.229158448
276.371456358
278.527490781
280.694782456
282.870779172
285.052812391
287.238015486
289.423215531
291.604847683
293.778993574
295.941518691
298.088279992
300.215333425
302.319072442
304.396262608
306.444000135
308.459646859
310.440819542
312.385411016
314.291600141
316.157829471
317.982780946
319.765365846
321.504717306
323.200173611
324.851258618
326.457662718
328.019223503
329.535908366
331.007799978
332.435083287
333.818033384
335.157003152
336.452409869
337.704720753
338.914437957
340.082083757
341.208186828
342.293270389
343.337843005
344.342392612
345.307384269
346.233261787
347.120453174
347.969379446
348.780466103
349.554156237
350.290924185
350.991288498
351.655823212
352.285166501
352.880026179
353.441181718
353.969482816
354.465844733
354.931240936
355.36669374
355.773263829
356.152039459
356.504126
356.830636199
357.132681266
357.411362695
357.667764631
357.90294662