/*--------------------------------*- C++ -*----------------------------------*\
| =========                 |                                                 |
| \\      /  F ield         | OpenFOAM: The Open Source CFD Toolbox           |
|  \\    /   O peration     | Version:  v1906                                 |
|   \\  /    A nd           | Web:      www.OpenFOAM.com                      |
|    \\/     M anipulation  |                                                 |
\*---------------------------------------------------------------------------*/
FoamFile
{
    version     2.0;
    format      ascii;
    class       surfaceScalarField;
    location    "935";
    object      phi;
}
// * * * * * * * * * * * * * * * * * * * * * * * * * * * * * * * * * * * * * //

dimensions      [0 3 -1 0 0 0 0];
oriented        oriented;


internalField   nonuniform List<scalar> 
18240
(
-0.000352244675077
0.000352278551753
-0.000737928545544
0.000385725619748
-0.00112326885675
0.000385374747699
-0.00150363966775
0.000380414251579
-0.00187697811344
0.000373371244337
-0.00224153075786
0.000364597714302
-0.00259579433221
0.000354294641864
-0.00293839478441
0.000342647168009
-0.00326818601425
0.000329820500336
-0.0035841345826
0.000315996920695
-0.00388544336043
0.000301336131388
-0.00417140714076
0.000286013740539
-0.00444155465993
0.000270172876514
-0.00469547431886
0.000253971169176
-0.00493297708708
0.00023752598974
-0.0051538948537
0.000220970740547
-0.00535826746168
0.000204393610955
-0.00554611610372
0.00018790295632
-0.00571765658897
0.000171559124185
-0.00587304943852
0.000155448353374
-0.00601264039078
0.000139607160817
-0.00613668813974
0.000124104258536
-0.00624563177973
0.000108957290333
-0.00633979670392
9.42222374146e-05
-0.00641968807502
7.99024347347e-05
-0.00648567529306
6.60451084585e-05
-0.00653830985009
5.26429432574e-05
-0.00657798895251
3.97373368796e-05
-0.00660529610408
2.7312883097e-05
-0.00662064490739
1.54071338332e-05
-0.0066246408533
3.99897888352e-06
-0.00661770442191
-6.87825108871e-06
-0.00660044976557
-1.72542444736e-05
-0.0065732947818
-2.70972131057e-05
-0.00653685793441
-3.64390517692e-05
-0.00649155037391
-4.52504474047e-05
-0.00643798658353
-5.3568479942e-05
-0.00637656403203
-6.13663445826e-05
-0.00630788601121
-6.8685140589e-05
-0.00623233076853
-7.55001722492e-05
-0.00615048420894
-8.18559302692e-05
-0.00606270092898
-8.77295720518e-05
-0.00596954420121
-9.31682518244e-05
-0.00587134144568
-9.81506134319e-05
-0.00576862914684
-0.00010272575954
-0.00566170528582
-0.000106873480185
-0.00555107652547
-0.000110644026443
-0.00543701014206
-0.000114017933455
-0.00531998108406
-0.000117045886504
-0.00520022586314
-0.000119708861047
-0.00507818683696
-0.000122057261209
-0.0049540704868
-0.000124072212039
-0.00482828659056
-0.000125803279759
-0.00470101319035
-0.000127231603547
-0.00457262813143
-0.000128405419666
-0.00444328295677
-0.000129305811323
-0.00431332464226
-0.000129979390684
-0.00418288050123
-0.000130407290672
-0.0040522678246
-0.000130634291622
-0.00392159179172
-0.000130641749108
-0.0037911411095
-0.000130472582867
-0.00366100075605
-0.000130108679436
-0.00353143165736
-0.000129591114923
-0.00340249999051
-0.000128902623907
-0.00327443933522
-0.000128082556488
-0.00314729808078
-0.000127114857093
-0.00302128248339
-0.000126037232598
-0.00289642360548
-0.000124835123972
-0.00277290009166
-0.000123544686594
-0.00265072587133
-0.000122153103021
-0.00253005148369
-0.000120694972194
-0.00241087364119
-0.000119159338732
-0.00229331427236
-0.000117579200775
-0.00217735283676
-0.00011594551141
-0.0020630822787
-0.000114289522531
-0.00195046484584
-0.000112604028724
-0.00183956442799
-0.000110918358214
-0.0017303264353
-0.000109227026201
-0.00162278602207
-0.000107557197242
-0.00151687246161
-0.000105904919145
-0.00141259297343
-0.000104294948874
-0.00130986188108
-0.000102724655737
-0.00120865977994
-0.000101216112213
-0.00110888771095
-9.97677516178e-05
-0.00101050156902
-9.8398644269e-05
-0.000913391492631
-9.71079065608e-05
-0.000817491565879
-9.59110046556e-05
-0.00072268497308
-9.48066933518e-05
-0.00062889016295
-9.3804611661e-05
-0.000535994428553
-9.28979719689e-05
-0.000443924971894
-9.20777419819e-05
-0.000352631426077
-9.12974559671e-05
-0.000262201470893
-9.04359437485e-05
-0.000173150967213
-8.90566012844e-05
-8.78031861152e-05
-8.53554698441e-05
-8.78067990206e-05
-0.000389349865003
0.000741665956303
-0.000824031181515
0.000820448517884
-0.00125624282907
0.000817626165432
-0.00168214831836
0.000806361909086
-0.00209982743175
0.000791089663073
-0.00250749214197
0.000772304987287
-0.00290349291343
0.000750334236482
-0.00328632762583
0.00072552482023
-0.00365470199686
0.000698233157424
-0.00400749105448
0.0006688292542
-0.00434378825221
0.000637671022326
-0.00466284435223
0.000605113393918
-0.0049641166453
0.00057148217095
-0.00524719144891
0.000537089720771
-0.00551183843506
0.00050220919681
-0.00575792080498
0.000467096949711
-0.00598545847684
0.000431966590472
-0.00619452893945
0.000397017220477
-0.00638534174792
0.000362406212976
-0.00655813187253
0.000328282097623
-0.00671324659625
0.000294754985705
-0.00685103211736
0.000261933055525
-0.00697193285577
0.00022988983054
-0.00707637139518
0.000198703542438
-0.00716485949971
0.00016842089238
-0.00723787115853
0.000139098848318
-0.00729596425071
0.000110764833072
-0.00733964645836
8.34607723689e-05
-0.00736950638977
5.71999280928e-05
-0.0073860721368
3.20130863876e-05
-0.00738995000418
7.90219515566e-06
-0.00738167832978
-1.51108990767e-05
-0.00736187576047
-3.70333300899e-05
-0.00733108417389
-5.78511079545e-05
-0.00728992165276
-7.75800027324e-05
-0.00723892281338
-9.62130652599e-05
-0.00717869807763
-0.000113773621451
-0.00710976854945
-0.000130261247036
-0.00703272990507
-0.000145706175736
-0.00694808334345
-0.000160113808225
-0.00685640335682
-0.000173520315335
-0.00675816577613
-0.000185936019654
-0.00665391850292
-0.000197401903205
-0.00654410767282
-0.000207932173284
-0.0064292504155
-0.000217571360012
-0.00630976012448
-0.000226336421687
-0.00618612025183
-0.000234274146093
-0.00605870967167
-0.000241403120787
-0.00592797653171
-0.00024777112903
-0.00579426464273
-0.000253397337648
-0.00565798636839
-0.000258329404367
-0.00551945095485
-0.000262586196616
-0.00537903548325
-0.000266214309653
-0.00523701598684
-0.0002692316461
-0.00509373547308
-0.000271683069599
-0.00494943864936
-0.000273585129247
-0.00480443609408
-0.000274980560915
-0.00465894334435
-0.000275884446238
-0.0045132403068
-0.000276337296526
-0.00436751543615
-0.000276352885661
-0.00422201958148
-0.000275969644411
-0.00407691592488
-0.000275200404705
-0.00393242749925
-0.000274081855988
-0.00378869353666
-0.000272626390978
-0.00364591002182
-0.000270869380104
-0.00350419304373
-0.000268823307732
-0.00336371180358
-0.000266522651346
-0.00322455953649
-0.000263980460011
-0.00308687852096
-0.000261230643616
-0.00295073907183
-0.000258287147793
-0.00281625614453
-0.000255183494008
-0.00268347685525
-0.000251934676577
-0.00255248838223
-0.000248573820521
-0.00242331438938
-0.000245116926863
-0.00229601395455
-0.000241596546273
-0.00217058721325
-0.00023802947242
-0.00204706513025
-0.000234447353572
-0.00192542459833
-0.000230867427343
-0.00180566888253
-0.000227320012004
-0.00168775235291
-0.000223822349442
-0.00157165150073
-0.000220402935487
-0.00145729942237
-0.000217078524831
-0.00134464731053
-0.000213875261848
-0.00123360877338
-0.000210808872874
-0.00112411175662
-0.000207902552587
-0.0010160527451
-0.000205170323897
-0.000909339043785
-0.000202631556371
-0.00080385277575
-0.000200297305576
-0.000699483216137
-0.000198181112584
-0.000596099002172
-0.000196287536487
-0.000493564959136
-0.000194618117724
-0.000391705907934
-0.000193161849132
-0.000290254269844
-0.000191894281585
-0.000188572001813
-0.000190745535003
-8.50992847278e-05
-0.000188835088479
-0.000172909897949
-0.000396307148368
0.00113801112776
-0.000836632644703
0.00126081516284
-0.00127509924221
0.00125613349321
-0.00170719057935
0.00123849460363
-0.00213077904034
0.00121471874997
-0.00254399350711
0.00118556085579
-0.00294513310693
0.00115151431604
-0.0033326759792
0.00111310913717
-0.00370530576872
0.00107090325306
-0.00406190308489
0.00102546801646
-0.00440155824507
0.000977366245627
-0.00472354687724
0.000927143408345
-0.00502733560206
0.000875310646092
-0.00531254780218
0.00082234314971
-0.00557896766453
0.000768668384585
-0.00582650084558
0.000714671097627
-0.00605518097586
0.000660685514368
-0.00626512850508
0.000607005323208
-0.00645656215103
0.000553877972008
-0.00662975769639
0.000501517680697
-0.0067850654434
0.000450100034735
-0.00692286948816
0.000399776445311
-0.00704361110958
0.000350667777099
-0.00714774826973
0.000302879198931
-0.00723578430023
0.000256492138058
-0.00730822700909
0.000211579043567
-0.00736562172723
0.000168193494514
-0.00740850938621
0.000126384758287
-0.00743746307865
8.61861742621e-05
-0.00745304462584
4.76296518247e-05
-0.00745584400702
1.07325961691e-05
-0.00744643418809
-2.44871397755e-05
-0.00742541289129
-5.80252355321e-05
-0.00739335567826
-8.98763121685e-05
-0.00735085950398
-0.000120048531102
-0.00729849428926
-0.000148547942622
-0.00723684822813
-0.000175393840669
-0.0071664781446
-0.000200602758552
-0.00708795623851
-0.000224204124451
-0.00700181950227
-0.00024622380509
-0.00690861774332
-0.000266700023239
-0.00680886238983
-0.00028566652501
-0.0067030755247
-0.000303168667653
-0.00659173842066
-0.000319246351885
-0.00647534137706
-0.000333950239374
-0.00635433227382
-0.000347324545635
-0.00622916689011
-0.000359423310887
-0.00610025776971
-0.000370293205054
-0.0059680247643
-0.000379989814339
-0.0058328444459
-0.000388560553476
-0.00569510051481
-0.000396060890864
-0.00555513399887
-0.000402537509129
-0.00541329323828
-0.00040804442647
-0.00526988505476
-0.000412626486091
-0.00512522393924
-0.000416335290915
-0.00497958438239
-0.000419213140992
-0.00483324897546
-0.000421308726021
-0.00468646204677
-0.000422661564442
-0.00453947632417
-0.000423317356481
-0.00439250804451
-0.000423313007444
-0.00424578192883
-0.00042269156499
-0.00409948790269
-0.00042148784514
-0.00395382410309
-0.000419742841998
-0.00380895538438
-0.000417490003475
-0.0036650541901
-0.000414769027225
-0.00352226100129
-0.000411612783685
-0.00338072289007
-0.000408060394217
-0.00324055610184
-0.000404144836433
-0.00310188221132
-0.000399905236548
-0.00296479300394
-0.000395375161144
-0.00282938413344
-0.000390594054415
-0.00269572248289
-0.000385596261569
-0.00256387729871
-0.000380421579047
-0.00243389016848
-0.000375105032123
-0.00230580357279
-0.000369686508218
-0.00217963361288
-0.000364201342916
-0.00205539597094
-0.000358689032264
-0.00193308146992
-0.000353184656659
-0.0018126793968
-0.000347726664791
-0.0016941559682
-0.000342349181648
-0.00157747500579
-0.000337088867149
-0.00146257933811
-0.000331978127391
-0.001349408788
-0.00032705104127
-0.00123788453067
-0.000322337495784
-0.00112792436303
-0.00031786816463
-0.00101942996747
-0.000313669549501
-0.000912299314532
-0.00030976796584
-0.000806416609583
-0.000306185456998
-0.000701661180396
-0.000302942692612
-0.00059789869565
-0.00030005592092
-0.000494983687709
-0.000297539545099
-0.000392745424546
-0.000295405783915
-0.000290974335184
-0.000293670797904
-0.000189417641909
-0.000292309753259
-8.82967265888e-05
-0.000289963867125
-0.000261209867579
-0.000402510737076
0.00154056001729
-0.000848953892217
0.00170729913518
-0.00129352178453
0.00170074235887
-0.00173147222014
0.00167648610577
-0.00216054039282
0.00164382783107
-0.0025787661985
0.00160382772446
-0.00298438956572
0.0015571785288
-0.00337585834654
0.00150461896153
-0.00375184141994
0.00144692708334
-0.00411122707881
0.00138489465611
-0.00445312179794
0.00131930158441
-0.00477683482045
0.00125089728197
-0.00508186762917
0.00118038385021
-0.00536789088598
0.00110840703695
-0.00563473062907
0.00103554820399
-0.00588234293803
0.000962323704892
-0.00611080136133
0.00088918356398
-0.00632027282885
0.000816516624483
-0.00651100886575
0.000744653054456
-0.00668332440161
0.000673872440919
-0.00683759361006
0.000604407548865
-0.00697423183929
0.000536453133615
-0.00709369579921
0.000470169156393
-0.00719646802218
0.000405688958888
-0.00728306052929
0.000343121013072
-0.00735400090008
0.000282555871653
-0.00740983842637
0.000224066195789
-0.00745113091399
0.000167712474936
-0.00747845245679
0.000113541546936
-0.00749238033217
6.15913837682e-05
-0.00749350386773
1.18884923483e-05
-0.00748241077756
-3.55478750235e-05
-0.00745969678123
-8.07084731422e-05
-0.00742595180265
-0.000123590559449
-0.0073817700271
-0.000164201244784
-0.00732773567149
-0.000202553288201
-0.00726443345302
-0.000238668790043
-0.0071924341797
-0.000272574826782
-0.00711230573225
-0.000304307153884
-0.00702459857736
-0.000333905622119
-0.00692985725217
-0.000361417840947
-0.00682860593637
-0.000386894417738
-0.00672136043304
-0.000410392596268
-0.00660861393058
-0.000431971372113
-0.00649084943585
-0.000451695115056
-0.00636852581396
-0.000469628638054
-0.00624209061051
-0.000485840838725
-0.00611196644442
-0.000500399786028
-0.00597856412191
-0.000513376393293
-0.00584226941737
-0.0005248395962
-0.00570345636764
-0.000534860085829
-0.00556247446675
-0.000543505632078
-0.00541966200501
-0.000550844880339
-0.00527533366845
-0.000556942878547
-0.00512979377922
-0.000561864949496
-0.00498332428861
-0.000565672455569
-0.00483619776523
-0.000568426728618
-0.00468866574921
-0.000570185098903
-0.00454097134186
-0.000571004863035
-0.0043933379048
-0.000570939571992
-0.0042459811204
-0.000570042983125
-0.0040990980216
-0.000568365591441
-0.00395287842163
-0.00056595850932
-0.00380749429643
-0.000562870200882
-0.00366311051905
-0.000559150212526
-0.00351987463293
-0.000554846073176
-0.00337792686218
-0.000550006812743
-0.00323739035016
-0.000544679988703
-0.00309838045102
-0.000538914932827
-0.00296099551405
-0.000532759885664
-0.00282532547993
-0.000526264940549
-0.0026914433057
-0.00051947927986
-0.00255941290186
-0.000512453799652
-0.00242928127714
-0.000505238464234
-0.00230108584624
-0.000497884619104
-0.00217484736603
-0.000490442487981
-0.00205057664009
-0.000482963188789
-0.00192826829088
-0.000475496406155
-0.00180790686937
-0.000468092133396
-0.00168946149438
-0.000460798549284
-0.0015728913708
-0.000453663505623
-0.00145814130295
-0.00044673263307
-0.00134514660562
-0.000440050589037
-0.00123382947819
-0.000433659407053
-0.00112410327262
-0.000427599512754
-0.00101586965753
-0.000421908328
-0.000909022111117
-0.000416621063083
-0.000803443624302
-0.000411769606055
-0.000699009104961
-0.000407383274633
-0.000595583045718
-0.000403488213114
-0.000493019535198
-0.000400108810299
-0.000391160896745
-0.000397270083822
-0.000289841897174
-0.000394996688084
-0.000188935599647
-0.000393222737506
-8.89044459475e-05
-0.000390002074795
-0.000350118321854
-0.000410509448868
0.0019511074869
-0.000865441913209
0.002162272454
-0.00131827419728
0.00215361552433
-0.00176407212669
0.00212232501018
-0.00220043579395
0.00208023238865
-0.00262530008172
0.0020287329524
-0.0030368314692
0.0019687507834
-0.00343343637699
0.00190126478546
-0.00381376897693
0.00182730050455
-0.00417672851479
0.00174789505026
-0.00452145082043
0.00166406460653
-0.00484729149807
0.00157677868785
-0.00515380729905
0.0014869401865
-0.0054407325252
0.00139537277079
-0.00570795738781
0.00130281331238
-0.00595550388428
0.00120991037231
-0.00618350621343
0.00111722572884
-0.00639218989889
0.00102524000931
-0.00658185676917
0.000934359203054
-0.00675286874557
0.000844923495605
-0.00690563789197
0.000757215268324
-0.00704061467553
0.000671468217097
-0.00715828237113
0.000587874555203
-0.00725914877743
0.00050659272646
-0.00734374377392
0.000427752690221
-0.00741261324164
0.00035146160428
-0.00746631853355
0.000277806985331
-0.00750543149955
0.000206860458982
-0.00753053491883
0.000138679141639
-0.00754221787499
7.33079674146e-05
-0.00754107658324
1.07799093445e-05
-0.00752770942103
-4.88829320136e-05
-0.00750271815371
-0.000105668617976
-0.00746670291988
-0.000159575330801
-0.00742026322705
-0.000210611516154
-0.00736399297874
-0.000258794814327
-0.00729848151393
-0.000304152615313
-0.00722430867499
-0.000346720764343
-0.00714204606969
-0.00038654397915
-0.00705225229302
-0.000423674379806
-0.00695547450391
-0.000458171754076
-0.00685224390175
-0.000490101927328
-0.00674307766154
-0.00051953690537
-0.00662847474129
-0.000546553151008
-0.0065089182102
-0.000571231668152
-0.00638487142247
-0.000593656243781
-0.00625678071572
-0.000613913525861
-0.00612507196353
-0.000632091305546
-0.00599015361886
-0.000648278651366
-0.00585241362388
-0.000662564283092
-0.00571222272451
-0.000675036804586
-0.00556993170101
-0.000685783231061
-0.00542587488345
-0.000694889368534
-0.00528036763827
-0.000702438529436
-0.00513370997205
-0.000708512082785
-0.00498618420122
-0.000713188395192
-0.00483805854576
-0.000716543568819
-0.00468958489309
-0.000718650607063
-0.00454100226006
-0.000719580321835
-0.00439253457695
-0.000719400710624
-0.00424439393349
-0.00071817799801
-0.00409677832015
-0.000715976168922
-0.00394987458129
-0.000712858075566
-0.0038038560916
-0.000708885066801
-0.00365888539775
-0.000704118088105
-0.00351511183635
-0.000698617327214
-0.00337267386481
-0.000692443228528
-0.00323169666957
-0.000685656097346
-0.00309229423713
-0.000678316974158
-0.00295456701612
-0.000670487149262
-0.00281860378065
-0.000662228861317
-0.00268447942721
-0.000653604712718
-0.00255225670198
-0.000644678190264
-0.0024219842006
-0.00063551298692
-0.00229369800775
-0.000626173359708
-0.00216741996062
-0.00061672339101
-0.00204315924585
-0.000607227216349
-0.00192091096079
-0.000597748258282
-0.00180065768241
-0.000588349356957
-0.00168236834843
-0.000579092017233
-0.00156599980624
-0.000570036474084
-0.00145149601178
-0.000561240981009
-0.00133878954181
-0.000552761834187
-0.0012278010919
-0.000544652730065
-0.00111844092017
-0.000536964768896
-0.00101060857565
-0.000529745903792
-0.000904194170283
-0.000523040962848
-0.000799078260204
-0.000516891277513
-0.000695132704667
-0.000511334790933
-0.000592220676827
-0.000506406253414
-0.000490197870862
-0.000502138032343
-0.000388913411315
-0.000498560281173
-0.000288218250262
-0.00049569699943
-0.000188008557354
-0.00049344013021
-8.87280354536e-05
-0.000489290712132
-0.000438849546673
-0.00042067991701
0.00237182541752
-0.000886639083173
0.00262827215283
-0.00135015048577
0.00261716778994
-0.001806039501
0.00257825484018
-0.00225174280131
0.0025259765269
-0.00268506761104
0.00246209858671
-0.00310409148711
0.00238781548614
-0.00350717174777
0.00230438586831
-0.00389294981171
0.00221311937205
-0.00426034454857
0.00211533056784
-0.00460853697794
0.00201229776688
-0.00493694792618
0.00190523030731
-0.00524521200502
0.00179524483912
-0.00553314921398
0.00168335044688
-0.00580073710732
0.00157044151779
-0.00604808382526
0.00145729723516
-0.00627540419569
0.00134458601699
-0.00648299816596
0.00123287366393
-0.00667123320099
0.00112263361836
-0.00684052911406
0.00101425848061
-0.00699134670461
0.000908071541012
-0.00712417817668
0.000804337988207
-0.00723954071681
0.000703274920731
-0.00733797091875
0.000605060292342
-0.00742002160555
0.000509840180104
-0.0074862585928
0.000417734860182
-0.00753725921173
0.000328843232231
-0.00757361006084
0.000243246329486
-0.0075959061096
0.000161009491577
-0.00760474858079
8.21840664161e-05
-0.00760074414452
6.80831037965e-06
-0.00758450216977
-6.50928061549e-05
-0.00755663404648
-0.000133505501343
-0.00751775039481
-0.000198428531371
-0.00746845978764
-0.000259872585515
-0.00740936598206
-0.000317859916152
-0.00734106663265
-0.000372424221888
-0.00726415055892
-0.00042360996254
-0.0071791966278
-0.000471472029265
-0.00708677121394
-0.000516074807863
-0.00698742737266
-0.000557491632188
-0.00688170260529
-0.000595803642444
-0.00677011840713
-0.000631099087925
-0.00665317840811
-0.000663472055636
-0.00653136832924
-0.000693021697875
-0.00640515452464
-0.000719850919247
-0.00627498434968
-0.000744065612279
-0.0061412851007
-0.000765773379915
-0.00600446476233
-0.000785082846316
-0.00586491131098
-0.00080210248861
-0.00572299379015
-0.000816940089533
-0.00557906192368
-0.00082970173885
-0.00543344743971
-0.000840491478659
-0.00528646391345
-0.00084941052991
-0.00513840824461
-0.000856557175412
-0.00498956063417
-0.000862026245279
-0.00484018610013
-0.000865909254062
-0.00469053448011
-0.00086829415503
-0.00454084187262
-0.000869265722749
-0.0043913305658
-0.00086890554695
-0.00424221030333
-0.00086729260825
-0.00409367806043
-0.000864503450703
-0.00394591906884
-0.000860612871985
-0.00379910640329
-0.000855694183947
-0.00365340174173
-0.000849819916078
-0.00350895476774
-0.000843062068775
-0.00336590368959
-0.00083549273604
-0.00322437450845
-0.000827184265963
-0.00308448135472
-0.000818209726835
-0.00294632569689
-0.000808642921275
-0.00280999657439
-0.00079855865808
-0.002675569834
-0.000788032600689
-0.00254310833952
-0.000777141340931
-0.00241266131248
-0.000765962097978
-0.00228426458563
-0.000754572621993
-0.00215794010766
-0.000743050780876
-0.00203369628633
-0.000731474336626
-0.00191152769134
-0.000719920467456
-0.00179141550923
-0.000708465465554
-0.00167332745825
-0.000697184239617
-0.00155721835944
-0.000686149976671
-0.00144303025679
-0.000675433663185
-0.00133069309244
-0.000665103746516
-0.0012201250073
-0.000655225704403
-0.00111123309069
-0.000645861736691
-0.00100391381239
-0.000637070418001
-0.000898053795561
-0.000628906458748
-0.000793530287842
-0.000621420486029
-0.000690212037483
-0.000614659051814
-0.000587960013459
-0.000608664538199
-0.000486628227602
-0.000603475396079
-0.000386067222411
-0.000599126884529
-0.000286130147272
-0.000595641142571
-0.00018670494975
-0.000592871877506
-8.82016723211e-05
-0.000587800925804
-0.000527055294846
-0.000433286033998
0.00280514923421
-0.000912976666168
0.00310800340986
-0.0013897608717
0.00309399263583
-0.00185814836688
0.00304668307307
-0.00231536865641
0.00298323751293
-0.00275907157147
0.00290584223137
-0.00318722896517
0.00281601360386
-0.00359814400934
0.00271534165882
-0.0039904515646
0.00260546765928
-0.00436310491113
0.00248802464689
-0.00471535203979
0.0023645855806
-0.00504670453923
0.0022366234567
-0.00535690282702
0.00210548368319
-0.00564588014734
0.00197236823713
-0.00591372809659
0.00183832978319
-0.00616066477312
0.0017042740785
-0.00638700707837
0.00157096826711
-0.00659314706724
0.00143905337406
-0.00677953296436
0.00130905893776
-0.00694665400971
0.00118141864502
-0.00709502928849
0.0010564855609
-0.00722519939463
0.000934546447582
-0.00733772094561
0.000815834364666
-0.00743316275479
0.000700539522933
-0.00751210371966
0.000588818027263
-0.00757513132842
0.000480798796165
-0.0076228409746
0.000376588588884
-0.00765583515757
0.00027627559086
-0.00767472292691
0.000179931651237
-0.00768011880781
8.76136286641e-05
-0.00767264200627
-6.35567081168e-07
-0.00765291442387
-8.47882422733e-05
-0.00762155925786
-0.000164829340057
-0.00757919922077
-0.000240758080176
-0.00752645439128
-0.000312587796893
-0.00746393998536
-0.000380345591132
-0.00739226435321
-0.000444072032884
-0.00731202675787
-0.000503820664977
-0.00722381549701
-0.000559657339928
-0.00712820591262
-0.000611659399627
-0.00702575880957
-0.000659914706451
-0.00691701882737
-0.000704520575217
-0.00680251325093
-0.000745582593062
-0.00668275081454
-0.000783213410076
-0.00655822095204
-0.000817531459505
-0.00642939305335
-0.000848659709352
-0.00629671615272
-0.000876724382147
-0.00616061862326
-0.000901853762927
-0.00602150827827
-0.000924177009225
-0.00587977246165
-0.000943823093537
-0.00573577850605
-0.000960919779127
-0.00558987415443
-0.00097559277138
-0.00544238830079
-0.000987964931447
-0.00529363165154
-0.00099815569703
-0.00514389764285
-0.00100628058868
-0.00499346322817
-0.001012450947
-0.00484258985254
-0.00101677376475
-0.00469152423713
-0.00101935174841
-0.00454049927897
-0.00102028346552
-0.00438973470984
-0.00101966369791
-0.00423943781219
-0.00101758384811
-0.00408980385543
-0.00101413249987
-0.00394101655158
-0.00100939598183
-0.00379324822105
-0.0010034590202
-0.00364665997063
-0.000996405337077
-0.0035014015948
-0.000988318265544
-0.00335761150873
-0.000979281260987
-0.00321541644384
-0.000969378369827
-0.00307493121665
-0.000958694564114
-0.00293625830865
-0.000947315991318
-0.00279948756866
-0.000935330086085
-0.00266469577892
-0.000922825580654
-0.00253194639122
-0.00090989239747
-0.00240128916754
-0.000896621441088
-0.00227276002627
-0.000883104309981
-0.00214638082269
-0.00086943292285
-0.00202215935637
-0.000855699108677
-0.00190008932594
-0.000841994128201
-0.00178015051696
-0.0008284082026
-0.00166230894269
-0.000815029990022
-0.00154651721201
-0.000801946105472
-0.00143271484755
-0.000789240600108
-0.00132082881599
-0.000776994512491
-0.00121077399992
-0.000765285390194
-0.00110245386551
-0.000754186905248
-0.000995761044241
-0.000743768448078
-0.000890578092973
-0.000734094845419
-0.000786778224666
-0.000725226088314
-0.00068422605292
-0.000717217106693
-0.00058277866804
-0.00071011782813
-0.000482287347446
-0.000703973153632
-0.000382598549727
-0.000698821363543
-0.000283559586223
-0.000694684939974
-0.000185049624424
-0.000691389576736
-8.74500997644e-05
-0.000685408618974
-0.000614508451325
-0.000448605944169
0.00325379292586
-0.000944990983829
0.00360442862117
-0.00143787746925
0.00358691970267
-0.00192137217177
0.00353021829555
-0.00239244303418
0.00345434896188
-0.00284854769817
0.00336198747506
-0.00328753494446
0.00325504147207
-0.00370765260216
0.00313549994727
-0.00410754141763
0.00300539713193
-0.00448621214021
0.00286673601628
-0.00484300999621
0.00272142408021
-0.0051775715862
0.0025712256402
-0.00548977849652
0.00241773113728
-0.00577971145418
0.00226234163503
-0.00604760758213
0.00210626624166
-0.00629382266201
0.00195052931939
-0.00651879916509
0.00179598474881
-0.0067230404187
0.00164333436321
-0.00690709052454
0.00149314851704
-0.00707151956545
0.00134588683638
-0.0072169132583
0.00120191805636
-0.00734386631296
0.00106153790067
-0.00745297862145
0.000924984637504
-0.00754485353684
0.00079245191629
-0.00762009752762
0.000664098975168
-0.00767932059046
0.000540058251196
-0.00772313696242
0.00042044075012
-0.00775216569985
0.000305339477373
-0.00776703096388
0.000194831382619
-0.00776836176905
8.89781886548e-05
-0.00775679099043
-1.217334715e-05
-0.00773295470391
-0.000108592310108
-0.00769749027064
-0.000200262380503
-0.0076510342764
-0.00028718351713
-0.0075942205214
-0.000369371875086
-0.00752767766149
-0.000446859655891
-0.00745202696964
-0.000519694856521
-0.007367879993
-0.000587940690927
-0.00727583647568
-0.000651674868788
-0.00717648226539
-0.000710988566615
-0.00707038758739
-0.000765985330073
-0.00695810535118
-0.000816779719241
-0.00684016988457
-0.000863495971682
-0.00671709571457
-0.000906266463169
-0.00658937680067
-0.000945230267619
-0.00645748580728
-0.000980531567003
-0.00632187383162
-0.00101231822958
-0.00618297014822
-0.00104074027988
-0.00604118239431
-0.00106594859331
-0.00589689674142
-0.00108809352152
-0.00575047848093
-0.00110732379136
-0.00560227255496
-0.0011237853712
-0.00545260445648
-0.00113762065447
-0.00530178102234
-0.00114896764785
-0.00515009153347
-0.0011579595114
-0.00499780864277
-0.00116472412905
-0.00484518953175
-0.00116938404608
-0.00469247682416
-0.00117205644361
-0.00453989964659
-0.00117285346558
-0.0043876743823
-0.00117188255876
-0.00423600549848
-0.00116924711633
-0.00408508602625
-0.00116504708408
-0.00393509806507
-0.00115937979232
-0.00378621293374
-0.00115234068117
-0.00363859132753
-0.00114402415921
-0.00349238315398
-0.00113452428751
-0.00334772738843
-0.00112393550946
-0.00320475167168
-0.00111235315546
-0.00306357196177
-0.00109987392683
-0.00292429200955
-0.00108659613637
-0.00278700292974
-0.00107261989175
-0.00265178267964
-0.0010580470507
-0.00251869566727
-0.00104298111075
-0.00238779233908
-0.00102752691505
-0.00225910891515
-0.00101179030368
-0.00213266715781
-0.000995877639434
-0.00200847428715
-0.000979895298145
-0.00188652296457
-0.000963949094234
-0.00176679140761
-0.000948143688479
-0.00164924359299
-0.000932581984436
-0.00153382956578
-0.000917364519068
-0.00142048584586
-0.000902588885352
-0.00130913591328
-0.000888349155477
-0.00119969078804
-0.000874735368854
-0.00109204966395
-0.000861833024206
-0.0009861006258
-0.00084972266629
-0.000881721409477
-0.000838479471032
-0.000778780185317
-0.000828172931938
-0.00067713657247
-0.000818866654463
-0.000576642653006
-0.000810617953216
-0.00047714362489
-0.000803477551835
-0.000378480843578
-0.000797489617697
-0.000280495178814
-0.000792677796597
-0.000183052259081
-0.000788838820435
-8.65145231747e-05
-0.00078195304998
-0.000701027062877
-0.000466978573447
0.00372080892534
-0.000983364139243
0.0041208544814
-0.0014954892955
0.00409908511934
-0.00199695370677
0.00403172310876
-0.00248439969041
0.00394183531834
-0.00295505295436
0.00383268117503
-0.00340662313259
0.00370665210974
-0.00383730742159
0.00356622474798
-0.00424577441544
0.00341390465706
-0.00463112668478
0.00325212884843
-0.00499284890699
0.00308318685272
-0.00533074815766
0.00290916543474
-0.00564489252633
0.00273191598829
-0.00593555245766
0.00255304198742
-0.00620314822662
0.00237390230712
-0.00644820509879
0.0021956263586
-0.00667131709449
0.00201913671449
-0.00687311892183
0.00184517595255
-0.00705426560251
0.00167433468288
-0.00721541850624
0.00150707893292
-0.00735723687707
0.00134377526064
-0.00748037346094
0.00118471293777
-0.00758547335636
0.00103012254277
-0.00767317489144
0.0008801909932
-0.00774411183679
0.000735072937007
-0.00779891604677
0.000594898923185
-0.00783822009012
0.000459780650829
-0.00786265932179
0.000329813930872
-0.00787287325255
0.000205079856538
-0.00786950601345
8.56447771331e-05
-0.00785320564665
-2.8440638156e-05
-0.00782462396425
-0.000137141706835
-0.00778441418904
-0.000240440685644
-0.00773322900295
-0.000338338086079
-0.00767171819737
-0.000430852930903
-0.00760052617092
-0.00051802283676
-0.00752028935785