/*--------------------------------*- C++ -*----------------------------------*\
| =========                 |                                                 |
| \\      /  F ield         | OpenFOAM: The Open Source CFD Toolbox           |
|  \\    /   O peration     | Version:  v1906                                 |
|   \\  /    A nd           | Web:      www.OpenFOAM.com                      |
|    \\/     M anipulation  |                                                 |
\*---------------------------------------------------------------------------*/
FoamFile
{
    version     2.0;
    format      ascii;
    class       volScalarField;
    location    "360";
    object      p;
}
// * * * * * * * * * * * * * * * * * * * * * * * * * * * * * * * * * * * * * //

dimensions      [0 2 -2 0 0 0 0];


internalField   nonuniform List<scalar> 
9216
(
269.180353299
269.265481812
269.438320653
269.699177211
270.046638717
270.478960289
270.994016611
271.589310829
272.262062115
273.00920015
273.827463837
274.713383714
275.663387894
276.673768427
277.740791145
278.860643539
280.029547023
281.243685733
282.499321146
283.79270269
285.120185581
286.478124887
287.862997633
289.271282404
290.699586684
292.144514111
293.602797586
295.071156421
296.546435418
298.025454191
299.50515183
300.982430985
302.454307971
303.91775419
305.36985046
306.807629248
308.228232233
309.62875659
311.0064141
312.358384987
313.681976382
314.974486875
316.233361522
317.45606989
318.640254675
319.783625417
320.884098309
321.939707335
322.948734123
323.909637389
324.82117256
325.682338146
326.492483479
327.251265672
327.958739308
328.615311934
329.221805891
329.779399396
330.289654173
330.754435493
331.17590941
331.556444313
331.898594613
332.204996537
332.478361133
332.721375095
332.936714099
333.126948886
333.294577744
333.441936497
333.571246955
333.684534484
333.783690705
333.870402775
333.946226199
334.012524652
334.070545704
334.12136771
334.165973019
334.20520023
334.239812858
334.270457886
334.297732034
334.322222981
334.34388017
334.362230887
334.377390857
334.389600579
334.399000882
334.40594708
334.410853519
334.414211042
334.416460645
334.417828053
334.418516821
334.41875633
269.095337689
269.180893851
269.354355226
269.616428181
269.965541529
270.399898886
270.917324131
271.515285102
272.190951128
272.941218659
273.762776588
274.652127218
275.605652002
276.619622858
277.690264633
278.813754245
279.986278425
281.204020199
282.463212093
283.760110856
285.091047254
286.452390611
287.84059663
289.252163564
290.6836794
292.131771399
293.593153721
295.06457196
296.542851995
298.024841052
299.507458424
300.987634679
302.462364513
303.928645905
305.38353568
306.824090359
308.247424623
309.65065587
311.030965596
312.385549455
313.711681122
315.006669251
316.267922815
317.492915875
318.679253051
319.824642633
320.926961079
321.984235068
322.994704834
323.956815906
324.869281677
325.731084358
326.541535215
327.300279566
328.007347303
328.66314979
329.268508032
329.824627749
330.333096138
330.795829246
331.21503853
331.593155408
331.932782924
332.236616549
332.507405175
332.747883685
332.960752325
333.148620141
333.313998727
333.459252889
333.586606443
333.698102617
333.795623463
333.880863575
333.955360949
334.02048059
334.077449672
334.127345399
334.171129597
334.209638283
334.243613403
334.273692109
334.300430646
334.324289668
334.345586378
334.363807637
334.378665325
334.390527712
334.399774749
334.406644021
334.411402552
334.414649986
334.416860701
334.418152244
334.41876901
334.419018566
268.921815397
269.008479415
269.183692507
269.448372915
269.800903379
270.239430023
270.761699628
271.365101421
272.046716573
272.803359737
273.631632754
274.527963428
275.488655995
276.509921997
277.587923705
278.718794666
279.898674848
281.12372063
282.390132214
283.694154228
285.032096879
286.400328918
287.795294249
289.213499074
290.651525545
292.106014679
293.573678341
295.051279304
296.535642587
298.023633861
299.512170989
300.998201994
302.478717687
303.950730409
305.411288601
306.857457755
308.28633786
309.695047957
311.080747216
312.440624322
313.771922519
315.071934509
316.338031148
317.567661905
318.758386366
319.907879893
321.013967168
322.074633159
323.088059049
324.052639749
324.967023836
325.8301387
326.641234484
327.399912775
328.106166538
328.760398386
329.363438961
329.916537672
330.421346257
330.879875753
331.294444444
331.66760485
332.002073471
332.300655504
332.566190086
332.801495286
333.009335703
333.192381703
333.353188705
333.494163363
333.617551165
333.725413732
333.819630364
333.901892098
333.973717411
334.036456169
334.091309958
334.139337535
334.181474671
334.218539071
334.251247972
334.280220987
334.305991211
334.329004926
334.349634564
334.367199021
334.381189528
334.392375436
334.401333116
334.407956779
334.412430189
334.415550749
334.417609339
334.418790034
334.419415571
334.419727952
268.657672536
268.745747913
268.923670081
269.192380145
269.550183611
269.995130809
270.524852738
271.136613275
271.827360658
272.593778193
273.432337681
274.339346736
275.310996442
276.343399937
277.432630518
278.574749274
279.765832802
281.001990167
282.279381327
283.594225075
284.942810123
286.321496134
287.726719512
289.154989473
290.602890304
292.067074065
293.544260671
295.031228478
296.52481323
298.021897565
299.519409678
301.014312782
302.503604552
303.984307537
305.453470334
306.908160336
308.345467916
309.762502831
311.156402553
312.524333482
313.863504127
315.171171623
316.444659637
317.681369783
318.878803237
320.034576065
321.146443489
322.212318824
323.230301044
324.198699494
325.116068254
325.981240663
326.79337333
327.551989118
328.25702258
328.908853397
329.508328341
330.056759592
330.555904544
331.007922264
331.415307968
331.780806084
332.107317832
332.397816094
332.655281174
332.882652183
333.082793666
333.258464043
333.412290319
333.546738801
333.664094107
333.766439593
333.855653746
333.933413452
334.001209512
334.060361256
334.112034568
334.157254605
334.196921633
334.231821901
334.262641305
334.289974635
334.314335754
334.336196315
334.35572496
334.372028286
334.384978181
334.395433366
334.403645382
334.409756635
334.414073848
334.416991196
334.41886973
334.419997088
334.420629193
334.420941087
268.301583625
268.391529634
268.573161675
268.847394041
269.212418535
269.666147244
270.206049166
270.829211839
271.532399432
272.312111747
273.164642401
274.086132445
275.072620088
276.120083293
277.224477318
278.381764505
279.587939453
280.839047064
282.131197245
283.460573613
284.823440344
286.216144145
287.635115686
289.076867048
290.537989646
292.01514878
293.505079394
295.004578888
296.510501686
298.019751182
299.529273857
301.036051274
302.537094843
304.029438732
305.510136224
306.976255052
308.424876857
309.853096413
311.258025646
312.636798106
313.986578545
315.304573199
316.588044796
317.834327883
319.040847775
320.205139059
321.324866565
322.397846063
323.422067729
324.395722408
325.317233783
326.185298699
326.998937152
327.757549785
328.460979548
329.109563151
329.704164422
330.246179642
330.737514949
331.180543085
331.578020508
331.932973405
332.24857063
332.528016929
332.774482558
332.991062701
333.18075326
333.346427112
333.490810373
333.616450972
333.725689918
333.820637832
333.903168635
333.974931573
334.037374969
334.091770635
334.139234969
334.180744653
334.217152572
334.249200651
334.277533497
334.302710323
334.325217316
334.34554733
334.36350082
334.37820492
334.389911971
334.39937155
334.406916747
334.412499449
334.416389805
334.419051124
334.420813489
334.421884092
334.422501361
334.422809766
267.851603815
267.943944508
268.130360481
268.411715558
268.786046578
269.251078211
269.804063046
270.441854027
271.160972586
271.957677406
272.828030258
273.767956362
274.773298182
275.839861305
276.963452718
278.13991113
279.365130573
280.635077368
281.945802107
283.293446718
284.674248296
286.08453955
287.520747407
288.979389329
290.457068754
291.950468922
293.456346452
294.971523701
296.492881275
298.017349611
299.541900987
301.063541075
302.579301493
304.086232087
305.581394953
307.061859099
308.524697712
309.966986945
311.385808296
312.778253278
314.141432331
315.472486161
316.768601116
318.027026056
319.245091895
320.420230863
321.549996668
322.632083513
323.664346611
324.644825036
325.571772274
326.443698693
327.2594308
328.018188269
328.719671695
329.364143297
329.952478582
330.486179848
330.967348766
331.398652519
331.783220886
332.124482689
332.425977889
332.691213546
332.923592322
333.1263928
333.302765597
333.455723794
333.5881212
333.702615774
333.801627086
333.887299053
333.961491199
334.025803278
334.081617295
334.130136898
334.172412176
334.209355996
334.24176
334.270308738
334.295592755
334.318121273
334.338334465
334.356671928
334.372618258
334.385546086
334.396056445
334.404589708
334.411219985
334.415964747
334.419473089
334.421897919
334.423482267
334.424573981
334.425196528
334.425512454
267.305242053
267.400563368
267.592940817
267.883167514
268.269076415
268.748146932
269.317350375
269.973236839
270.712016855
271.529642561
272.42188375
273.384396177
274.412780667
275.502632137
276.649578811
277.849312065
279.09760815
280.39034274
281.723499803
283.093175694
284.495579774
285.927032152
287.383959515
288.862889328
290.360443044
291.873328386
293.398331101
294.93230613
296.472168475
298.014883686
299.557458104
301.096929209
302.630356183
304.154810687
305.667368619
307.165103203
308.645079991
310.104354414
311.539972476
312.948975159
314.328406874
315.675328034
316.986831406
318.260061367
319.492234842
320.680662121
321.822766104
322.916099048
323.958357037
324.947396563
325.881257202
326.758203854
327.576794274
328.335982139
329.035247631
329.674729167
330.255299629
330.778591764
331.24694608
331.663425339
332.031692552
332.355754246
332.639659585
332.887291477
333.102309664
333.288184463
333.448232801
333.585629797
333.703390844
333.80432453
333.890962387
333.965491147
334.029735275
334.085205982
334.133181673
334.174771692
334.210941995
334.242525585
334.270238688
334.294694979
334.316418912
334.335859083
334.353420128
334.369345526
334.383023198
334.394173491
334.403322565
334.410645656
334.416229335
334.420376028
334.423502075
334.425697811
334.427107234
334.428152195
334.42876003
334.42906363
266.659396652
266.758356167
266.958009107
267.259051249
267.659052693
268.15517676
268.744034943
269.421792771
270.184269465
271.027035048
271.945499254
272.934989418
273.990815625
275.108322814
276.282930348
277.51016037
278.785656511
280.105194754
281.464688106
282.860186615
284.287873993
285.744061855
287.225182348
288.727779694
290.248501047
291.784086828
293.33136074
294.887219409
296.448621765
298.012578042
299.576138424
301.136381616
302.690403496
304.235305595
305.768184532
307.286122501
308.7861799
310.265390499
311.720760499
313.149271727
314.547890244
315.913579815
317.243320818
318.534132409
319.783097201
320.987384324
322.144269357
323.25114694
324.305537218
325.305088249
326.247583672
327.130973663
327.953445606
328.713561936
329.410458214
330.044071483
330.615248009
331.125790834
331.578287747
331.976325188
332.324341292
332.627197769
332.889651645
333.116020783
333.310206302
333.475838639
333.616393755
333.735225136
333.835553924
333.920403061
333.992478285
334.054025914
334.106793968
334.152133361
334.191156477
334.224848635
334.254078363
334.27958328
334.301989132
334.321825874
334.3395371
334.355494051
334.370029066
334.38325259
334.394497169
334.403781084
334.411409238
334.417503957
334.42218262
334.425813263
334.42844388
334.43041647
334.431753927
334.432613678
334.43321017
334.433488804
265.910281853
266.013628207
266.222046002
266.536099605
266.953021242
267.469570015
268.081900418
268.78569396
269.576282405
270.448765232
271.398114548
272.419264114
273.507181094
274.656920584
275.86366446
277.122746545
278.429666701
279.780096232
281.16987695
282.595015764
284.05167637
285.536169151
287.044940109
288.574559338
290.121709316
291.683173171
293.255822893
294.836607455
296.422540669
298.010688732
299.598157102
301.182077241
302.759592912
304.327846117
305.883963419
307.425043378
308.948145704
310.450283528
311.928419669
313.379468465
314.800303864
316.187774714
317.538726788
318.850030424
320.118610939
321.341477505
322.515745148
323.638644308
324.707514624
325.719785208
326.672950332
327.564570349
328.392327112
329.154201724
329.84877301
330.475660937
331.035658824
331.530832292
331.963910167
332.339140035
332.662137646
332.939104989
333.175800394
333.376991573
333.546693754
333.688603847
333.806315851
333.903378935
333.983273627
334.049351115
334.104614447
334.151407354
334.191319521
334.225397746
334.254481311
334.279409298
334.300958182
334.319756566
334.336323591
334.351094246
334.364418527
334.376578311
334.387825683
334.398113621
334.406844136
334.414212536
334.42029376
334.425181317
334.429032662
334.432034862
334.434324428
334.435998863
334.437224513
334.437931774
334.438521894
334.438769504
265.053334534
265.16193211
265.380831071
265.710415957
266.147485734
266.688282767
267.328382676
268.062860129
268.886443104
269.793656254
270.778945231
271.836778476
272.961725357
274.148511934
275.392056896
276.687491229
278.030165155
279.4156459
280.839709181
282.298326879
283.787652615
285.304006519
286.843859929
288.403820485
289.980617744
291.571089329
293.172167451
294.78086556
296.394264888
298.009500509
299.623746612
301.234201139
302.838069658
304.432548072
306.014805436
307.581967153
309.131099914
310.659199522
312.163183583
313.639890519
315.086087137
316.498485416
317.873769643
319.208631656
320.499811904
321.744138374
322.938556691
324.080138398
325.16606065
326.193552057
327.159813922
328.06194673
328.89695809
329.661943465
330.354547603
330.973904249
331.520714985
331.997678427
332.407104872
332.754039916
333.045998376
333.291431364
333.497596673
333.66952652
333.811009146
333.925584193
334.016915113
334.088749313
334.144903295
334.189247607
334.225351849
334.255753737
334.281705636
334.303655147
334.321973395
334.337370588
334.350606501
334.362176553
334.372468562
334.381820677
334.390472517
334.398604959
334.406368531
334.413599846
334.419909763
334.425379749
334.429908113
334.433576313
334.436555034
334.438964999
334.440968548
334.442474617
334.443483225
334.444121188
334.444656091
334.444893717
264.083094236
264.197958034
264.429346248
264.77739867
265.238355449
265.807797126
266.480565122
267.250973852
268.113005559
269.060486352
270.087233853
271.187172751
272.354418402
273.583331175
274.868546276
276.204984207
277.587847264
279.012606619
280.474983918
281.970930182
283.496604062
285.048350641
286.622681491
288.21625618
289.825865231
291.448414297
293.080909194
294.720441411
296.364173538
298.009324184
299.65315172
301.292936941
302.925964099
304.549500185
306.160773203
307.756950328
309.335116922
310.892258595
312.425248153
313.930840574
315.405678344
316.846310122
318.249223788
319.610893565
320.927837056
322.196673624
323.414172053
324.577265139
325.683021273
326.728540803
327.710788092
328.626392959
329.471474339
330.241791139
330.933283557
331.54435066
332.075555843
332.531581133
332.912323248
333.223702309
333.476511799
333.683376405
333.853866965
333.992581792
334.102212056
334.185784973
334.246994686
334.289819669
334.318448082
334.337588619
334.352004674
334.364662325
334.376087534
334.385490904
334.392381378
334.397531172
334.401937637
334.405885524
334.409569998
334.413258126
334.417053708
334.42103063
334.425222572
334.429405214
334.433347501
334.436891841
334.439930262
334.442546126
334.444806626
334.446714587
334.448322921
334.449634265
334.450570657
334.451156971
334.451593297
334.451833673
262.993048635
263.115388474
263.361653638
263.73164671
264.220883516
264.824092144
265.535179798
266.347507106
267.254136175
268.248047642
269.322315448
270.470236459
271.685416732
272.961820198
274.293787057
275.676030012
277.103615575
278.57193677
280.076681864
281.613802554
283.179483575
284.77011489
286.382266787
288.012667864
289.658185511
291.315808447
292.982630713
294.655836462
296.33268486
298.010494193
299.686624603
301.358458764
303.023380171
304.678748349
306.32187199
307.94998049
309.560195569
311.149504949
312.714741346
314.25257023
315.7594911
317.231856285
318.665911277
320.057857259
321.403932937
322.700505916
323.944152927
325.131706545
326.260220384
327.326829656
328.328459763
329.261369474
330.120651224
330.900026444
331.592054936
332.194065861
332.706021456
333.139758401
333.485946408
333.751490628
333.953300597
334.112521798
334.242418798
334.344827519
334.41944163
334.468309864
334.49541994
334.505052205
334.501588031
334.491026469
334.480805224
334.474975776
334.472406798
334.46964292
334.464515412
334.458529784
334.45374205
334.449855482
334.446691924
334.444595999
334.443463717
334.443266815
334.443926741
334.44515437
334.446781099
334.448502601
334.450267519
334.45200878
334.453656578
334.45510763
334.456390545
334.457440669
334.458312799
334.458919497
334.459243511
334.459465776
261.775432198
261.906714726
262.170739419
262.566843551
263.08959473
263.732615769
264.488618919
265.349764937
266.307980748
267.35522723
268.483704728
269.685994875
270.955144438
272.284700934
273.668712013
275.101700044
276.578622214
278.094823985
279.645991721
281.228107948
282.83741125
284.470361368
286.12360942
287.793972631
289.478412847
291.174017999
292.877985686
294.587608016
296.300256659
298.013367005
299.72442037
301.43092329
303.130382963
304.82027825
306.498026577
308.16094763
309.806225057
311.430869128
313.031683643
314.605242679
316.147883174
317.655720981
319.12469738
320.55066068
321.929483808
323.257204548
324.530173858
325.745153817
326.899340662
327.990194626
329.01501276
329.970155026
330.8497712
331.64478691
332.340324652
332.932272665
333.41732315
333.833492597
334.138730267
334.342529542
334.473718262
334.573026656
334.658974886
334.724201769
334.761530909
334.771980653
334.760955016
334.733076459
334.691871857
334.644775914
334.605921332
334.582236398
334.568546481
334.555582753
334.537487992
334.518661928
334.504636803
334.4930478
334.482803533
334.474967961
334.468948793
334.464659635
334.461898209
334.460400037
334.45990926
334.460138135
334.460827846
334.461786687
334.462844121
334.463906684
334.464946473
334.465852557
334.466607562
334.467245491
334.467480686
334.467697822
260.420963016
260.562994179
260.848315205
261.275613422
261.838203349
262.528262058
263.336963942
264.25495499
265.272761315
266.381118849
267.571211392
268.834819747
270.164393472
271.553062207
272.994604481
274.483390793
276.014314416
277.582720008
279.184336353
280.815216834
282.471688787
284.150311646
285.847842762
287.561209654
289.287487324
291.023879504
292.767702731
294.516372196
296.267388098
298.018320872
299.766794005
301.510462583
303.246986422
304.973996525
306.689055183
308.389609973
310.07294325
311.736119678
313.375936356
314.988881897
316.571113527
318.118463509
319.626487279
321.090566173
322.506068158
323.868567857
325.174088233
326.419334251
327.601812579
328.719749482
329.771615767
330.754978631
331.664078442
332.487176656
333.191925564
333.772326843
334.206316448
334.629276493
334.88651038
335.001991781
335.027863145
335.061639727
335.120850628
335.160628899
335.160101356
335.123486929
335.06383032
334.987574874
334.894410226
334.793612831
334.71799539
334.680113258
334.663376893
334.645321073
334.611239157
334.574934583
334.552831573
334.534625042
334.516720206
334.503474105
334.492728912
334.484544911
334.478640769
334.474725608
334.472509695
334.471508336
334.471333724
334.471623955
334.472212748
334.473000231
334.473863326
334.474681562
334.475416811
334.476023646
334.476269649
334.476488053
258.918493684
259.073536277
259.384562472
259.849345214
260.459521947
261.205360867
262.076043227
263.060295448
264.146915448
265.325175648
266.585092096
267.917569805
269.314446521
270.768462005
272.273180108
273.822886715
275.412481417
277.037374606
278.69339683
280.376722962
282.083811191
283.811355044
285.556246141
287.315545197
289.086459361
290.866324298
292.652589891
294.442808363
296.234623384
298.025758022
299.813999634
301.597179055
303.373142068
305.139711675
306.894640626
308.635554428
310.359885577
312.064801827
313.747132702
315.403302255
317.02927943
318.620562559
320.17221873
321.6790005
323.135560837
324.536769657
325.878117997
327.156141004
328.368784497
329.515576865
330.59736257
331.615233017
332.566770169
333.443124847
334.169556011
334.74163107
335.060913337
335.673539772
335.880069322
335.838830446
335.623041306
335.348931763
335.225658321
335.212931732
335.221920959
335.213594271
335.181335784
335.122362291
335.028280858
334.897358413
334.787387677
334.756084558
334.761451377
334.750859579
334.688370656
334.62080112
334.596477567
334.575037246
334.546706631
334.529175786
334.514016615
334.502160784
334.493627597
334.487680109
334.484177981
334.482276932
334.481447964
334.481299397
334.481648538
334.482323
334.483090387
334.483879027
334.484604157
334.485217322
334.485604199
334.485798799
257.25454439
257.425482205
257.767803265
258.277976321
258.945365639
259.757692194
260.701535231
261.763180034
262.92929516
264.187418662
265.526249339
266.935767695
268.407225244
269.933045531
271.506676378
273.122425224
274.775299541
276.460865655
278.175131668
279.914455323
281.675474047
283.455053222
285.250248081
287.058275541
288.876493038
290.702382733
292.533540009
294.367665413
296.202558427
298.036110393
299.866293819
301.691144086
303.508730741
305.3171161
307.114300236
308.898151646
310.666323902
312.416159675
314.14458607
315.848009136
317.522221358
319.162343988
320.762835199
322.317604441
323.820274327
325.264621984
326.64519392
327.958025347
329.201384892
330.376446131
331.487763432
332.543463008
333.553020946
334.546725765
335.388779558
336.026298064
335.649205763
335.617998711
335.738939734
335.7292974
335.615687024
335.468044983
335.352885309
335.285357834
335.238697124
335.191779351
335.137524984
335.074111226
335.007234682
334.94922292
334.919362531
334.926110532
334.945036431
334.918727001
334.77703129
334.619768834
334.628097657
334.61794396
334.569123433
334.551515847
334.532217449
334.516436337
334.506154262
334.498617835
334.494451914
334.492149966
334.490982098
334.490752971
334.491108074
334.491744844
334.492504607
334.493353442
334.494152245
334.494845829
334.495363156
334.495560354
255.412667412
255.603245618
255.984071561
256.549730746
257.286460363
258.178545368
259.209143426
260.36142694
261.619449673
262.96871954
264.396490092
265.891819919
267.445465988
269.049677361
270.697946398
272.384759103
274.105370964
275.855621102
277.631787876
279.430482559
281.248574465
283.083139604
284.931425607
286.790827064
288.658867756
290.533188016
292.41153714
294.291770698
296.1718515
298.04985069
299.923944777
301.79240286
303.653559712
305.505772094
307.347356547
309.176507605
310.991194997
312.789039455
314.567168475
316.32205856
318.049377703
319.743854484
321.39921665
323.00826269
324.563146094
326.055946621
327.479565072
328.828824741
330.101693099
331.300647046
332.434293078
333.521026651
334.601307305
335.867945433
335.772458265
335.821396023
335.838357632
335.743220664
335.731505711
335.679495696
335.572166745
335.44661588
335.34017214
335.264328645
335.206196171
335.153342546
335.098970462
335.041031665
334.984301757
334.936612822
334.905671124
334.890962403
334.877782926
334.847652753
334.81111433
334.808942299
334.818766183
334.725848748
334.560482926
334.564792772
334.54678863
334.525420196
334.515870275
334.506549415
334.503023936
334.50086902
334.499806797
334.499882862
334.500325917
334.501042481
334.501971278
334.503004849
334.504010139
334.504824529
334.505467605
334.50570704
253.372570628
253.587748717
254.016553482
254.650805101
255.472373486
256.460856569
257.594882983
258.853651178
260.218025007
261.67118192
263.198858573
264.789286078
266.432922428
268.122083231
269.850550007
271.613209078
273.405749144
275.22442718
277.065899327
278.927106805
280.805203518
282.697512338
284.601498594
286.514752745
288.434977586
290.359979328
292.287664123
294.216042251
296.143239431
298.067510739
299.987250344
301.900988424
303.807368965
305.705105494
307.592913055
309.469414939
311.3330209
313.181772567
315.013152986
316.823861465
318.609564244
320.364646657
322.082019913
323.753073843
325.367916164
326.91604976
328.387643997
329.775064784
331.074497192
332.287460649
333.422262906
334.500623503
335.587189285
335.791717511
335.889363812
335.841317372
335.807654633
335.72952824
335.673501408
335.598947608
335.495031599
335.381568799
335.281359963
335.202485781
335.140510563
335.087491369
335.036629144
334.986916225
334.94125342
334.903856593
334.877700248
334.860380609
334.843283008
334.818273616
334.790161449
334.773229092
334.759824151
334.740297882
334.740916261
334.714893833
334.573157693
334.515854264
334.522651281
334.509411857
334.509993809
334.508365804
334.507726739
334.508535713
334.509168565
334.510165008
334.511464676
334.51283451
334.514111069
334.51514155
334.515919839
334.516224446
251.108883538
251.355373545
251.844851106
252.56500347
253.491501018
254.597479564
255.855540822
257.239816958
258.727325684
260.298651452
261.938059038
263.633200843
265.374590416
267.154991561
268.968830764
270.811695167
272.679941417
274.570415269
276.480267307
278.406843541
280.347628397
282.300219602
284.262318479
286.231724272
288.206327552
290.18410353
292.163111211
294.14150508
296.117560973
298.089709875
300.056567939
302.016949112
303.969851148
305.914412673
307.849841028
309.775310747
311.689826642
313.592041401
315.480016488
317.35091809
319.200648001
321.023423827
322.811361475
324.554175682
326.239228796
327.852231322
329.379125251
330.808217557
332.132292671
333.351108203
334.479629737
335.579177695
335.714395371
335.795813148
335.834251202
335.793555483
335.732154386
335.648596123
335.565251616
335.47265198
335.367770455
335.261493903
335.166957684
335.089885585
335.029206425
334.979602766
334.93558543
334.896232546
334.862883734
334.837253118
334.819795126
334.807924712
334.796394724
334.78076774
334.762238892
334.746948753
334.732763591
334.71478362
334.700985936
334.685254222
334.682752598
334.665133041
334.56032655
334.49505271
334.516182915
334.514453072
334.514604045
334.517088363
334.517811074
334.519180272
334.521019531
334.522876756
334.524492858
334.525835175
334.526748788
334.527164846
248.589386751
248.876490926
249.444014079
250.273333847
251.331175691
252.581679603
253.989402472
255.522051832
257.152098526
258.857390934
260.620982743
262.430446509
264.276942002
266.154257045
268.057960178
269.984730441
271.93187549
273.897018205
275.877917293
277.872384485
279.878262932
281.893437144
283.915851021
285.943519164
287.974525532
290.007014192
292.03918507
294.069312129
296.095789466
298.117196586
300.132360783
302.140394098
304.140691122
306.132887826
308.116786443
310.092251455
312.059067168
314.016737773
315.964206782
317.899473094
319.81908215
321.717478164
323.586237474
325.413291567
327.182495619
328.874016282
330.467468472
331.944789051
333.293497777
334.517886349
335.677658923
335.769372688
335.780995037
335.789315399
335.766433484
335.698652889
335.607874946
335.503606305
335.39776858
335.290949013
335.183913312
335.082854986
334.995128976
334.924560942
334.870455256
334.828430542
334.794242823
334.76693185
334.746687387
334.733641766
334.727021257
334.724485587
334.722664907
334.719009641
334.713658819
334.708596172
334.702209753
334.691226119
334.678841704
334.665141296
334.653275544
334.639077391
334.638984378
334.627343299
334.552888737
334.516229183
334.519671279
334.526593449
334.526126467
334.527935839
334.530655752
334.53321835
334.535325658
334.536995592
334.538095204
334.538649393
245.772406768
246.113373124
246.783269774
247.75361213
248.978012696
250.407996357
251.997387499
253.705837543
255.500617202
257.356960748
259.257347628
261.190161845
263.148142473
265.126936099
267.123921124
269.137353891
271.165813009
273.207884989
275.262026246
277.326541467
279.399627123
281.479439217
283.564154097
285.652002135
287.741267788
289.830265276
291.917316429
294.000770201
296.079077343
298.150907693
300.215265425
302.271562661
304.319631293
306.359679028
308.392208773
310.417920824
312.437583131
314.451836143
316.460893149
318.464095833
320.459274825
322.441841275
324.403538911
326.330848286
328.203486116
329.993318387
331.670489585
333.207702056
334.592888617
335.880768795
335.931564507
335.861226924
335.797114032
335.734814665
335.650483723
335.540750443
335.418042683
335.291388845
335.168639415
335.05276913
334.945626958
334.85074468
334.772051394
334.71184757
334.668362324
334.637110129
334.615027771
334.60119373
334.595031179
334.59574929
334.602009842
334.611717774
334.622422175
334.632265142
334.640710365
334.647949741
334.652890586
334.654053695
334.65235225
334.647288144
334.639157862
334.629543022
334.623442953
334.617111831
334.62598732
334.605683035
334.524036773
334.539235026
334.532680485
334.535896921
334.540423011
334.544053331
334.546777938
334.548764955
334.550112413
334.550792798
242.602878593
243.017177924
243.824386337
244.980186899
246.418703238
248.073710976
249.884804469
251.801737796
253.786165337
255.811344083
257.860443659
259.924151761
261.998202241
264.081266048
266.173389184
268.274971513
270.386189288
272.506742136
274.635815715
276.772172041
278.914299103
281.060567382
283.209353047
285.359100576
287.508314227
289.655494224
291.799062439
293.93737055
296.068816046
298.192051065
300.306186986
302.410922869
304.506568625
306.593981576
308.674465622
310.749692486
312.821616293
314.892321223
316.963744328
319.037221975
321.11278707
323.188054494
325.256446385
327.30433555
329.307512346
331.224318916
333.011324496
334.63913075
336.158184359
336.195038617
336.034805042
335.88606252
335.752861063
335.616804194
335.471105301
335.317770179
335.164803458
335.018906362
334.885099363
334.765802202
334.662286319
334.576113858
334.508988079
334.461904814
334.431575046
334.413089444
334.404573235
334.4051432
334.41372353
334.429016484
334.449437927
334.473066582
334.49788841
334.522265509
334.54524437
334.566272146
334.584446977
334.598899749
334.609699235
334.616562039
334.619645896