/*--------------------------------*- C++ -*----------------------------------*\
| =========                 |                                                 |
| \\      /  F ield         | OpenFOAM: The Open Source CFD Toolbox           |
|  \\    /   O peration     | Version:  v1906                                 |
|   \\  /    A nd           | Web:      www.OpenFOAM.com                      |
|    \\/     M anipulation  |                                                 |
\*---------------------------------------------------------------------------*/
FoamFile
{
    version     2.0;
    format      ascii;
    class       volVectorField;
    location    "343";
    object      U;
}
// * * * * * * * * * * * * * * * * * * * * * * * * * * * * * * * * * * * * * //

dimensions      [0 1 -1 0 0 0 0];


internalField   nonuniform List<vector> 
9216
(
(0.00156282024607 -0.0015645043528 0)
(0.00159455645221 -0.00485597314069 6.55009691239e-28)
(0.00158433147659 -0.00816424476756 1.08268700574e-31)
(0.00156146791141 -0.0114488853793 0)
(0.00153038892834 -0.0146754583371 0)
(0.00149195997312 -0.0178292171191 0)
(0.00144723226963 -0.020895937351 0)
(0.00139684713074 -0.0238632536512 0)
(0.0013417975761 -0.0267203366553 0)
(0.00128266440947 -0.0294581455791 0)
(0.00122044707978 -0.0320691452145 0)
(0.00115562181444 -0.0345474909682 0)
(0.00108913168904 -0.0368886767423 0)
(0.00102129187519 -0.039089655267 0)
(0.0009529451262 -0.0411484444402 0)
(0.000884218820721 -0.0430642163964 0)
(0.000815843268025 -0.04483689625 0)
(0.000747760735806 -0.0464672461785 0)
(0.000680599133567 -0.0479564848684 0)
(0.000614135603013 -0.0493063842764 0)
(0.000548918564021 -0.0505189235797 0)
(0.000484589014401 -0.0515964017532 0)
(0.000421641038289 -0.0525411346859 0)
(0.000359608706775 -0.0533555825378 0)
(0.000298955951324 -0.0540420899715 0)
(0.000239138115804 -0.0546030198386 0)
(0.000180608442349 -0.0550405392436 0)
(0.000122768388293 -0.0553567541625 0)
(6.60779684552e-05 -0.0555535408689 0)
(9.91020121648e-06 -0.0556326711314 0)
(-4.52557715589e-05 -0.0555957051697 0)
(-0.000100055747725 -0.0554440823787 0)
(-0.00015397286455 -0.0551790784352 0)
(-0.000207619868814 -0.0548019005255 0)
(-0.000260431557843 -0.0543136811508 0)
(-0.000312975333314 -0.0537155603672 0)
(-0.000364624728873 -0.0530087408977 0)
(-0.000415876944623 -0.0521945427027 0)
(-0.000466037504524 -0.0512745207757 0)
(-0.00051551520997 -0.0502504844536 0)
(-0.000563547784793 -0.049124670424 0)
(-0.000610444501457 -0.0478997145321 0)
(-0.000655384596465 -0.0465788745701 0)
(-0.000698574217964 -0.0451659489162 0)
(-0.000739146957491 -0.0436655405971 0)
(-0.000777203755912 -0.0420829232506 0)
(-0.000811844341158 -0.0404243440461 0)
(-0.00084306248529 -0.0386968484633 0)
(-0.000869934699952 -0.0369086099543 0)
(-0.000892356096669 -0.0350687166073 0)
(-0.000909411444241 -0.0331874913794 0)
(-0.000920949071967 -0.0312762152333 0)
(-0.000926148826663 -0.0293473580868 0)
(-0.000924936350881 -0.0274141784047 0)
(-0.000916739275379 -0.0254907775711 0)
(-0.000901734136554 -0.0235915369787 0)
(-0.000879757875236 -0.02173097367 0)
(-0.00085138058423 -0.0199230525528 0)
(-0.000816940450614 -0.0181809164886 0)
(-0.000777437887977 -0.0165161830912 0)
(-0.000733659736064 -0.0149387019862 0)
(-0.00068689112871 -0.0134560284532 0)
(-0.000638116391875 -0.012073422674 0)
(-0.0005885996036 -0.010793678012 0)
(-0.000539208405251 -0.00961743285976 0)
(-0.000490935234978 -0.00854328741979 0)
(-0.000444364465598 -0.00756827443375 0)
(-0.000400139502913 -0.0066880666247 0)
(-0.000358542855049 -0.00589745485259 0)
(-0.000319891225641 -0.00519053782172 0)
(-0.000284213192755 -0.00456114012218 0)
(-0.000251576026252 -0.00400292782389 0)
(-0.000221851951063 -0.00350971001743 0)
(-0.000194969787959 -0.0030754469451 0)
(-0.000170744144497 -0.00269443248374 0)
(-0.00014904357346 -0.0023612367482 0)
(-0.000129671258702 -0.00207082481386 0)
(-0.000112465797086 -0.001818488633 0)
(-9.72301845616e-05 -0.00159993301868 0)
(-8.37757418765e-05 -0.00141122227501 0)
(-7.18706985625e-05 -0.00124887293469 0)
(-6.11884478862e-05 -0.00110987343943 0)
(-5.09507355351e-05 -0.000992992693939 0)
(-3.91332332685e-05 -0.000886087934492 0)
(-3.50062311298e-05 -0.000817796076161 0)
(-3.50979871832e-05 -0.000747478152224 0)
(-3.0996238176e-05 -0.000675135712184 0)
(-2.63328044527e-05 -0.000617728310419 0)
(-2.67037472607e-05 -0.000569577053641 0)
(-2.94679120945e-05 -0.00051214102399 0)
(-2.97638195837e-05 -0.0004537815373 0)
(-3.04727236845e-05 -0.000390503085274 0)
(-3.50469025592e-05 -0.000320717911187 0)
(-3.98369559462e-05 -0.0002435331281 0)
(-4.46809765791e-05 -0.000149717302386 0)
(-4.80346809247e-05 -4.76941834891e-05 0)
(0.0048671783916 -0.00161282163899 0)
(0.00512615711863 -0.00516684949057 0)
(0.00508815177282 -0.0086920529228 -6.73525528982e-28)
(0.00501224392135 -0.0121960985263 0)
(0.00491102561343 -0.0156338487474 0)
(0.00478696281455 -0.0189921675499 0)
(0.00464271974009 -0.0222563982525 0)
(0.00448054296652 -0.0254134842949 0)
(0.00430326089601 -0.0284520083328 0)
(0.00411311443412 -0.031362380049 0)
(0.00391291619199 -0.0341367212104 0)
(0.00370464756484 -0.0367688974527 0)
(0.00349086544838 -0.0392543026334 0)
(0.00327309645223 -0.0415898152909 0)
(0.0030534994034 -0.0437735339148 0)
(0.00283306079684 -0.0458047031579 0)
(0.00261350500155 -0.0476834407245 0)
(0.00239528696824 -0.0494106662338 0)
(0.00217973469899 -0.0509878473435 0)
(0.0019668370779 -0.0524169496954 0)
(0.0017576030074 -0.0537002161468 0)
(0.00155164564418 -0.0548401439999 0)
(0.00134974147505 -0.0558393016727 0)
(0.00115121952718 -0.0567003313876 0)
(0.000956705129306 -0.057425801849 0)
(0.000765327282007 -0.0580182310777 0)
(0.000577629261397 -0.0584799728342 0)
(0.000392614164243 -0.058813254032 0)
(0.000210803652126 -0.0590200928021 0)
(3.11450792652e-05 -0.0591023473201 0)
(-0.000145807951767 -0.0590616591435 0)
(-0.000321098081281 -0.0588995312396 0)
(-0.000494081799562 -0.0586172959252 0)
(-0.000665715327243 -0.0582161821481 0)
(-0.000835212146774 -0.0576973412365 0)
(-0.00100337210441 -0.0570619167731 0)
(-0.00116921408312 -0.0563111082139 0)
(-0.00133331555382 -0.0554462424152 0)
(-0.00149446467334 -0.054468873073 0)
(-0.00165297002077 -0.0533808459756 0)
(-0.00180737703225 -0.0521844260318 0)
(-0.00195770480346 -0.0508823450034 0)
(-0.00210227185866 -0.0494779468602 0)
(-0.0022408107389 -0.0479752094686 0)
(-0.00237144300165 -0.0463789012336 0)
(-0.00249362257129 -0.0446945764722 0)
(-0.00260529841554 -0.0429287450015 0)
(-0.00270564703725 -0.0410888510343 0)
(-0.0027924647938 -0.039183456266 0)
(-0.00286467781069 -0.0372222042714 0)
(-0.0029200153052 -0.0352159916237 0)
(-0.00295731398336 -0.0331768799992 0)
(-0.00297451161047 -0.0311181752916 0)
(-0.00297075780425 -0.0290541992427 0)
(-0.00294470636668 -0.0270001730777 0)
(-0.00289639112679 -0.0249717819239 0)
(-0.00282572786509 -0.0229848401021 0)
(-0.00273410385062 -0.0210546892041 0)
(-0.00262301560281 -0.0191957254316 0)
(-0.00249533612466 -0.0174207450139 0)
(-0.00235399473499 -0.0157404966239 0)
(-0.00220287463078 -0.0141632009529 0)
(-0.00204550472469 -0.01269441381 0)
(-0.00188573280126 -0.0113369707514 0)
(-0.0017266321209 -0.0100912581788 0)
(-0.00157117431456 -0.00895548589535 0)
(-0.00142144559689 -0.00792613298748 0)
(-0.00127931156846 -0.00699828468957 0)
(-0.00114583408571 -0.00616606746748 0)
(-0.00102185453107 -0.00542295039301 0)
(-0.000907571162092 -0.00476211992288 0)
(-0.000803052041513 -0.00417669248692 0)
(-0.000707961795091 -0.00365995786306 0)
(-0.000621966488677 -0.00320545046077 0)
(-0.000544530866824 -0.00280705767452 0)
(-0.000475169834889 -0.00245900989748 0)
(-0.000413294072245 -0.00215593831354 0)
(-0.000358354084489 -0.0018928504714 0)
(-0.000309750806293 -0.00166516417272 0)
(-0.000266899467838 -0.00146866842156 0)
(-0.000229171435554 -0.00129951244737 0)
(-0.0001958299972 -0.00115406911511 0)
(-0.000165839722361 -0.00102881891352 0)
(-0.000136507298905 -0.000918113525069 0)
(-0.000116405595188 -0.000805348285817 0)
(-0.000109273011412 -0.000735665938976 0)
(-9.25912477178e-05 -0.000657147962439 0)
(-7.90721929743e-05 -0.000603796178884 0)
(-7.82591453753e-05 -0.000546787924575 0)
(-8.51467635139e-05 -0.000501424965396 0)
(-8.89924009994e-05 -0.000452327931371 0)
(-9.48428517704e-05 -0.000385899939735 0)
(-0.000105283492756 -0.00031456924073 0)
(-0.000130606051765 -0.000249955682211 0)
(-0.000159556085333 -0.000159447002159 0)
(-0.000143474106387 -4.34134710114e-05 0)
(0.00823973398322 -0.00163530268547 0)
(0.00868348144591 -0.00523361505515 0)
(0.00860906491786 -0.00879413834705 -6.72580705944e-28)
(0.00847675380167 -0.0123374484359 0)
(0.00830295593174 -0.0158123480055 0)
(0.0080911115875 -0.0192049950306 0)
(0.00784511666156 -0.0225002713729 0)
(0.00756903069154 -0.0256848732512 0)
(0.00726730913065 -0.0287473065879 0)
(0.00694418726901 -0.031677984917 0)
(0.00660404302683 -0.0344691675374 0)
(0.00625073550888 -0.0371149034945 0)
(0.00588811161297 -0.0396108653705 0)
(0.00551930640096 -0.0419542161916 0)
(0.00514739419513 -0.0441433948756 0)
(0.00477464598461 -0.046177958143 0)
(0.00440331158242 -0.0480583617676 0)
(0.00403482005529 -0.0497858129072 0)
(0.00367067358527 -0.0513620752485 0)
(0.00331157698412 -0.0527893507278 0)
(0.0029584253648 -0.05407011976 0)
(0.00261135386319 -0.0552070569114 0)
(0.00227080542363 -0.0562029079753 0)
(0.00193649897554 -0.0570604370794 0)
(0.00160856803084 -0.0577823358604 0)
(0.001286451367 -0.0583711957298 0)
(0.000970095501308 -0.0588294450702 0)
(0.00065877670922 -0.0591593418406 0)
(0.000352361255895 -0.0593629348031 0)
(5.00697101904e-05 -0.0594420726248 0)
(-0.000248210675496 -0.0593983917823 0)
(-0.000543206755557 -0.0592333386501 0)
(-0.000834909537155 -0.0589481843059 0)
(-0.00112388433759 -0.0585440672802 0)
(-0.00140989322218 -0.0580220330568 0)
(-0.00169322619826 -0.0573830971706 0)
(-0.00197331556294 -0.0566283132047 0)
(-0.00225007592903 -0.0557588517429 0)
(-0.00252253218303 -0.0547760936193 0)
(-0.00279015650868 -0.0536817173834 0)
(-0.0030515315181 -0.0524778070277 0)
(-0.00330566841225 -0.0511669350403 0)
(-0.00355072235626 -0.049752272685 0)
(-0.00378526771159 -0.0482376574299 0)
(-0.00400707445883 -0.0466276971098 0)
(-0.00421431146435 -0.0449278206856 0)
(-0.00440439090046 -0.0431443833133 0)
(-0.00457508038025 -0.0412847159887 0)
(-0.00472343928075 -0.0393572468872 0)
(-0.00484685777956 -0.0373715623439 0)
(-0.00494214565935 -0.0353385351854 0)
(-0.0050065591749 -0.033270357602 0)
(-0.00503711044031 -0.0311805867448 0)
(-0.00503161838433 -0.0290840245102 0)
(-0.00498821074482 -0.0269965344634 0)
(-0.00490630416202 -0.0249346590288 0)
(-0.0047861419737 -0.0229151743359 0)
(-0.00462958567497 -0.020954500147 0)
(-0.00443960330243 -0.0190680858544 0)
(-0.00422079093738 -0.0172697093567 0)
(-0.00397866892049 -0.0155708450371 0)
(-0.00371975541469 -0.0139801195885 0)
(-0.00345059220885 -0.012503083304 0)
(-0.00317762784446 -0.0111422452519 0)
(-0.00290643663933 -0.00989740216538 0)
(-0.00264186094764 -0.00876607489816 0)
(-0.00238763104558 -0.00774399904899 0)
(-0.00214668241938 -0.00682554838693 0)
(-0.0019209286646 -0.00600416011317 0)
(-0.00171157103889 -0.00527269873891 0)
(-0.00151898137 -0.00462382863193 0)
(-0.00134305839569 -0.00405028742683 0)
(-0.00118323627218 -0.00354509690542 0)
(-0.00103880439648 -0.00310164270238 0)
(-0.000908882805736 -0.00271371352969 0)
(-0.000792582637988 -0.00237548900534 0)
(-0.000688933840948 -0.00208155767066 0)
(-0.000596979322763 -0.0018269099384 0)
(-0.000515731459598 -0.00160694892952 0)
(-0.000444239474669 -0.00141746471152 0)
(-0.000381575113227 -0.00125460354397 0)
(-0.000326897987687 -0.00111475472346 0)
(-0.000279524899826 -0.000994551737872 0)
(-0.000239681789734 -0.000889282548328 0)
(-0.000205251597775 -0.000782283654982 0)
(-0.000183802138787 -0.000714676850937 0)
(-0.000162113358 -0.000653620618934 0)
(-0.000138697689051 -0.000575473481415 0)
(-0.000125467223474 -0.000508004416665 0)
(-0.000130932839974 -0.000468650071203 0)
(-0.000152486768772 -0.000437981748094 0)
(-0.000157617517343 -0.000349866393732 0)
(-0.000180962817034 -0.000290042778457 0)
(-0.000212652503275 -0.000212222915121 0)
(-0.000239949262268 -0.000127783038275 0)
(-0.0002331484502 -3.93852482497e-05 0)
(0.0116743106713 -0.00166209121116 0)
(0.0123100763465 -0.00531664074606 0)
(0.0122026602415 -0.00892946321759 6.72491879157e-28)
(0.0120121898898 -0.0125241714042 0)
(0.0117622813866 -0.0160470640616 0)
(0.0114581831759 -0.0194834841596 0)
(0.0111054719314 -0.0228177080007 0)
(0.0107101728204 -0.0260360833361 0)
(0.0102786375514 -0.0291269965123 0)
(0.00981715362314 -0.0320809176263 0)
(0.00933189863399 -0.0348903308094 0)
(0.00882859524326 -0.0375496217307 0)
(0.00831257794836 -0.0400549002859 0)
(0.00778850329687 -0.0424038119189 0)
(0.00726052658901 -0.0445953159912 0)
(0.00673205468524 -0.0466294801766 0)
(0.00620601118886 -0.0485072644935 0)
(0.00568460654236 -0.0502303376636 0)
(0.00516966410656 -0.0518008943929 0)
(0.00466238317422 -0.0532215107201 0)
(0.00416370302333 -0.0544950033513 0)
(0.00367404178075 -0.0556243260282 0)
(0.00319368366041 -0.0566124681259 0)
(0.00272248635106 -0.0574623858336 0)
(0.00226028475784 -0.0581769327572 0)
(0.00180656650765 -0.0587588182374 0)
(0.00136089045128 -0.0592105629024 0)
(0.000922535207434 -0.0595344777475 0)
(0.000490933478699 -0.0597326403797 0)
(6.53000899744e-05 -0.0598068910875 0)
(-0.000354916268305 -0.0597588336788 0)
(-0.000770418687612 -0.0595898423146 0)
(-0.00118159595113 -0.0593010881161 0)
(-0.00158891577424 -0.0588935733067 0)
(-0.0019924477091 -0.0583681759473 0)
(-0.00239226398511 -0.0577257120206 0)
(-0.00278796192397 -0.0569670077251 0)
(-0.00317907438606 -0.0560929850418 0)
(-0.00356460551052 -0.0551047579996 0)
(-0.00394345373363 -0.0540037335945 0)
(-0.00431397372704 -0.0527917197614 0)
(-0.00467441056193 -0.0514710258741 0)
(-0.00502249265918 -0.0500445649598 0)
(-0.00535586261545 -0.0485159369616 0)
(-0.00567169150829 -0.0468895131877 0)
(-0.00596707983116 -0.0451705001884 0)
(-0.00623867741408 -0.0433650179944 0)
(-0.00648303611359 -0.041480171394 0)
(-0.00669624706251 -0.0395241597225 0)
(-0.00687428234322 -0.0375063941653 0)
(-0.00701273363274 -0.0354376564945 0)
(-0.00710725871185 -0.0333302320454 0)
(-0.0071535497685 -0.0311980125749 0)
(-0.00714797116764 -0.0290564605055 0)
(-0.00708773151082 -0.0269224210816 0)
(-0.00697154377174 -0.0248137222108 0)
(-0.00679970909015 -0.0227486502053 0)
(-0.00657460400454 -0.020745297744 0)
(-0.00630061354035 -0.0188208201989 0)
(-0.00598436266265 -0.0169905880517 0)
(-0.00563428782282 -0.0152672904631 0)
(-0.00526015075781 -0.013660183823 0)
(-0.00487196749787 -0.0121747640538 0)
(-0.00447925860904 -0.0108129044291 0)
(-0.00409027551544 -0.00957338613861 0)
(-0.00371186310184 -0.00845257215633 0)
(-0.00334935015213 -0.00744502887567 0)
(-0.00300675163684 -0.00654401655756 0)
(-0.00268673972391 -0.00574191747643 0)
(-0.00239080853095 -0.0050306477822 0)
(-0.00211932747191 -0.0044020797711 0)
(-0.00187187212028 -0.00384838035126 0)
(-0.00164746583056 -0.00336221839584 0)
(-0.00144492444321 -0.00293680295017 0)
(-0.00126295553485 -0.00256583252564 0)
(-0.00110024542482 -0.00224343731822 0)
(-0.000955417271415 -0.00196417090939 0)
(-0.000827086229287 -0.00172301449867 0)
(-0.000713853184026 -0.00151538420012 0)
(-0.000614367933095 -0.00133712101919 0)
(-0.000527350397229 -0.00118447797108 0)
(-0.000451689201223 -0.00105406582408 0)
(-0.000386566143622 -0.000943387851774 0)
(-0.000332838321832 -0.000844291208689 0)
(-0.000288500834253 -0.000754532110684 0)
(-0.000256309772983 -0.000688405447504 0)
(-0.000227864509235 -0.000618032450004 0)
(-0.000200559100157 -0.000540829713733 0)
(-0.000189246064748 -0.000490052179459 0)
(-0.000181895018818 -0.000420495477223 0)
(-0.000196513489964 -0.000363007666888 0)
(-0.000234807631856 -0.00032484362345 0)
(-0.000247179833801 -0.000236442431716 0)
(-0.000281139789417 -0.000166038899689 0)
(-0.000315838886426 -0.000101475562381 0)
(-0.000314826709304 -3.3250448973e-05 0)
(0.0151719163606 -0.00169754557854 0)
(0.0159985312016 -0.00542844493163 0)
(0.0158559368832 -0.0091142515181 0)
(0.0156037703473 -0.0127791371368 0)
(0.0152731614992 -0.0163672134544 0)
(0.0148713862802 -0.0198628237242 0)
(0.0144060339339 -0.0232494748483 0)
(0.0138853198075 -0.0265130692812 0)
(0.0133177833097 -0.0296418494935 0)
(0.0127119141 -0.0326264025591 0)
(0.0120759168942 -0.0354595522417 0)
(0.0114174356627 -0.0381361903224 0)
(0.0107434467681 -0.0406530553048 0)
(0.0100600960076 -0.0430084892102 0)
(0.00937271345412 -0.0452021806028 0)
(0.00868574046481 -0.0472349178263 0)
(0.0080028324215 -0.0491083531406 0)
(0.00732683708963 -0.0508247939633 0)
(0.00665994605192 -0.0523870152696 0)
(0.00600368875585 -0.0537981031533 0)
(0.00535910195083 -0.0550613193716 0)
(0.00472671588753 -0.05617999366 0)
(0.00410672432985 -0.0571574324378 0)
(0.0034989523388 -0.0579968492574 0)
(0.00290302064604 -0.0587013059987 0)
(0.00231829407188 -0.0592736702407 0)
(0.00174404150214 -0.059716579537 0)
(0.00117936966708 -0.0600324180972 0)
(0.000623383436383 -0.0602232986025 0)
(7.51118505878e-05 -0.0602910534099 0)
(-0.000466325522645 -0.0602372398862 0)
(-0.00100179405129 -0.060063139251 0)
(-0.00153197019527 -0.0597697875266 0)
(-0.00205741463876 -0.0593580040863 0)
(-0.00257839140658 -0.0588284389781 0)
(-0.00309494261558 -0.0581816355813 0)
(-0.00360670979113 -0.0574181081547 0)
(-0.00411301880947 -0.0565384341916 0)
(-0.00461271774063 -0.055543360158 0)
(-0.00510428408858 -0.0544339152622 0)
(-0.00558569325598 -0.0532115302181 0)
(-0.00605455460633 -0.051878151442 0)
(-0.00650801262261 -0.0504363478611 0)
(-0.00694289924908 -0.0488893998504 0)
(-0.00735564575056 -0.0472413733514 0)
(-0.00774241400804 -0.0454971764168 0)
(-0.00809897940319 -0.0436626158681 0)
(-0.00842080516496 -0.0417444644489 0)
(-0.0087028909391 -0.0397505709751 0)
(-0.00893983366548 -0.0376900228899 0)
(-0.00912575985272 -0.0355733792584 0)
(-0.00925456954109 -0.033412933469 0)
(-0.00932018988557 -0.0312229499221 0)
(-0.00931719866613 -0.0290197477272 0)
(-0.00924140749334 -0.0268215398261 0)
(-0.00909057707273 -0.0246479620517 0)
(-0.00886474347537 -0.0225194548971 0)
(-0.00856671941903 -0.0204565228474 0)
(-0.00820223118083 -0.0184788644407 0)
(-0.00778025065064 -0.0166043096955 0)
(-0.00731271551547 -0.014847470312 0)
(-0.00681354557767 -0.0132185530166 0)
(-0.00629704711583 -0.0117228672044 0)
(-0.00577646625771 -0.0103611574965 0)
(-0.00526296655869 -0.00913054494637 0)
(-0.00476544253221 -0.00802562767495 0)
(-0.00429071052483 -0.00703931116161 0)
(-0.00384381793904 -0.00616331229674 0)
(-0.00342809753368 -0.00538854710775 0)
(-0.00304521366107 -0.00470557701591 0)
(-0.00269527803812 -0.00410514749431 0)
(-0.00237725938636 -0.00357864977425 0)
(-0.00208949001795 -0.00311834556399 0)
(-0.00183016113105 -0.00271730439097 0)
(-0.00159750860425 -0.00236918512826 0)
(-0.00138979035583 -0.00206808267399 0)
(-0.00120520277617 -0.00180851412261 0)
(-0.00104190845913 -0.00158544735121 0)
(-0.000898061624709 -0.00139431988216 0)
(-0.000771861903867 -0.00123104058911 0)
(-0.000661593781059 -0.00109199411439 0)
(-0.00056568708219 -0.00097402357756 0)
(-0.000482822974976 -0.000875479065012 0)
(-0.000412601478249 -0.000782354148009 0)
(-0.000366938859204 -0.000717867795917 0)
(-0.000331405639812 -0.000654380848709 0)
(-0.00030456866923 -0.000589431466027 0)
(-0.000274159725024 -0.000515194192127 0)
(-0.000244490889966 -0.000428757543259 0)
(-0.00024301331859 -0.000374601848541 0)
(-0.000247067371471 -0.000304314523028 0)
(-0.00028754173776 -0.000263646028587 0)
(-0.000333446518199 -0.000209637056811 0)
(-0.000345187342967 -0.000133584948249 0)
(-0.000365844043772 -7.8026524384e-05 0)
(-0.000365062241726 -2.58876597489e-05 0)
(0.0187531630502 -0.00174281752222 0)
(0.0197729343068 -0.00557211852441 0)
(0.0195917863927 -0.00935251879331 0)
(0.0192728206521 -0.0131078203893 0)
(0.0188550607646 -0.0167795021943 0)
(0.0183481164212 -0.0203506466154 0)
(0.0177619690129 -0.0238038140871 0)
(0.0171073667219 -0.0271243788025 0)
(0.016395383258 -0.030300452089 0)
(0.015636971012 -0.0333228386891 0)
(0.0148426074665 -0.0361848684247 0)
(0.0140219969656 -0.0388821552955 0)
(0.0131838876158 -0.0414123073773 0)
(0.0123359379553 -0.0437746163849 0)
(0.0114846886908 -0.0459697461318 0)
(0.0106355561201 -0.0479994389679 0)
(0.0097929071674 -0.0498662485188 0)
(0.00896012296153 -0.0515733072944 0)
(0.00813972216104 -0.0531241283369 0)
(0.00733344614896 -0.05452244251 0)
(0.00654239088879 -0.0557720657358 0)
(0.00576708382405 -0.0568767947357 0)
(0.00500760369641 -0.0578403240933 0)
(0.00426363724633 -0.0586661830258 0)
(0.00353458171618 -0.059357685397 0)
(0.00281958150038 -0.059917892391 0)
(0.00211761711099 -0.060349582741 0)
(0.00142752866835 -0.0606552314566 0)
(0.000748099469551 -0.0608369938317 0)
(7.80754081154e-05 -0.060896694937 0)
(-0.00058374792699 -0.0608358352642 0)
(-0.00123850141797 -0.0606555826579 0)
(-0.00188714741019 -0.0603568041692 0)
(-0.00253044742447 -0.0599400895938 0)
(-0.0031688579718 -0.0594057984223 0)
(-0.00380249560091 -0.0587541241401 0)
(-0.00443103407497 -0.0579851766984 0)
(-0.0050536801954 -0.0570990846268 0)
(-0.00566909150536 -0.0560961135728 0)
(-0.00627538336744 -0.0549767978704 0)
(-0.00687008804974 -0.053742077303 0)
(-0.00745020827882 -0.0523934303327 0)
(-0.00801222328315 -0.0509329925553 0)
(-0.00855217653863 -0.049363650707 0)
(-0.00906569583024 -0.0476891060223 0)
(-0.00954805791581 -0.0459139091851 0)
(-0.0099941490141 -0.0440434815692 0)
(-0.0103984309781 -0.042084152252 0)
(-0.0107547981347 -0.0400432542835 0)
(-0.0110564735173 -0.037929325746 0)
(-0.0112959188757 -0.0357524515216 0)
(-0.0114649679903 -0.0335247176283 0)
(-0.0115552275444 -0.0312606935722 0)
(-0.0115588816931 -0.0289777262703 0)
(-0.011469707425 -0.0266958439149 0)
(-0.01128411535 -0.0244370989418 0)
(-0.0110014432409 -0.0222248297035 0)
(-0.0106247409417 -0.0200828191411 0)
(-0.0101608362014 -0.0180343818114 0)
(-0.00962134997315 -0.016101099651 0)
(-0.0090226999235 -0.0143006097696 0)
(-0.0083844375331 -0.0126445371823 0)
(-0.00772657515008 -0.0111377041317 0)
(-0.00706702465206 -0.00977884116389 0)
(-0.0064201200038 -0.00856237783477 0)
(-0.00579663177093 -0.00748032989519 0)
(-0.00520461452388 -0.00652341659408 0)
(-0.00465005920548 -0.00568141456764 0)
(-0.00413691441803 -0.00494332300133 0)
(-0.00366687338629 -0.00429783698288 0)
(-0.0032394197712 -0.00373413317088 0)
(-0.00285242642118 -0.00324259907497 0)
(-0.0025030802873 -0.00281512605034 0)
(-0.00218873530971 -0.00244482670951 0)
(-0.00190715636999 -0.00212546627628 0)
(-0.00165622898878 -0.0018511354497 0)
(-0.0014337147374 -0.0016162924785 0)
(-0.0012372911595 -0.00141587638452 0)
(-0.00106462256477 -0.00124534031088 0)
(-0.00091341150325 -0.00110065549942 0)
(-0.000781461769334 -0.000978304469453 0)
(-0.000666733138469 -0.000875272732441 0)
(-0.000567813806472 -0.000789521544436 0)
(-0.000480448096118 -0.000702601076668 0)
(-0.000431371684241 -0.000646540266039 0)
(-0.000395040548768 -0.000587302305983 0)
(-0.000357405126317 -0.000514670083695 0)
(-0.000338214601146 -0.000461334639674 0)
(-0.000325031550228 -0.000402579576954 0)
(-0.000323121551311 -0.000344226225271 0)
(-0.000304185624392 -0.000258595784817 0)
(-0.000325363049111 -0.00020173428941 0)
(-0.000384184564659 -0.000167925627884 0)
(-0.000406391838249 -0.000114814620849 0)
(-0.000413111357962 -6.45154325558e-05 0)
(-0.000413420522395 -2.14123448836e-05 0)
(0.0224397914397 -0.00179912912073 0)
(0.0236562825387 -0.00575102690291 0)
(0.0234319625753 -0.00964931948852 6.67758125727e-28)
(0.0230393383953 -0.0135169183108 0)
(0.0225258516487 -0.0172919535033 0)
(0.0219038792722 -0.020955920944 0)
(0.0211862783568 -0.0244902293977 0)
(0.0203867982326 -0.0278796601273 0)
(0.0195194834673 -0.0311122505348 0)
(0.0185981069097 -0.0341791838948 0)
(0.0176357090203 -0.0370745320216 0)
(0.0166442462813 -0.0397949160684 0)
(0.0156343652353 -0.0423391203474 0)
(0.0146152769138 -0.0447076942742 0)
(0.0135947323556 -0.0469025686558 0)
(0.0125790606317 -0.0489267056131 0)
(0.0115732681462 -0.050783792579 0)
(0.0105811592838 -0.0524779852326 0)
(0.00960548412415 -0.0540136983002 0)
(0.00864807761123 -0.0553954405679 0)
(0.00771000553155 -0.0566276877382 0)
(0.00679168647499 -0.0577147867667 0)
(0.00589301340002 -0.058660884782 0)
(0.00501344666631 -0.0594698768346 0)
(0.00415210792221 -0.0601453671563 0)
(0.00330784731279 -0.060690640056 0)
(0.00247931707404 -0.0611086373667 0)
(0.00166502321394 -0.0614019405124 0)
(0.000863390698555 -0.0615727563881 0)
(7.28123544993e-05 -0.061622904447 0)
(-0.000708281665232 -0.0615538213892 0)
(-0.00148136570872 -0.0613665436497 0)
(-0.00224773755771 -0.0610617386823 0)
(-0.00300844508517 -0.0606397200319 0)
(-0.00376419011427 -0.0601004927714 0)
(-0.00451524674214 -0.0594438175299 0)
(-0.00526136302977 -0.0586692988143 0)
(-0.00600168902376 -0.0577764978952 0)
(-0.0067347027402 -0.056765069793 0)
(-0.00745817899824 -0.0556349184378 0)
(-0.00816917263468 -0.0543863618988 0)
(-0.00886405657243 -0.0530202935482 0)
(-0.00953857789894 -0.051538323052 0)
(-0.0101879571451 -0.0499428793367 0)
(-0.0108069748952 -0.0482372616147 0)
(-0.011390048017 -0.0464256363696 0)
(-0.0119312225761 -0.0445129955111 0)
(-0.0124240799441 -0.0425051198948 0)
(-0.0128615104981 -0.0404086195191 0)
(-0.0132354234664 -0.038231149262 0)
(-0.0135364662916 -0.0359818789411 0)
(-0.0137539950845 -0.0336722468839 0)
(-0.0138765195994 -0.0313168678548 0)
(-0.0138928527575 -0.0289342312669 0)
(-0.0137938117024 -0.02654677651 0)
(-0.0135739898794 -0.0241797002768 0)
(-0.0132314094738 -0.0218600822889 0)
(-0.0127690841291 -0.0196159170607 0)
(-0.0121941556408 -0.0174754741997 0)
(-0.011521014482 -0.0154661736765 0)
(-0.0107721303718 -0.0136105577796 0)
(-0.00997520416614 -0.0119224279331 0)
(-0.00915834722168 -0.0104054539031 0)
(-0.00834556427511 -0.00905470189988 0)
(-0.00755440971255 -0.00786015166179 0)
(-0.00679682544275 -0.00681012192186 0)
(-0.00608150841052 -0.00589273851386 0)
(-0.00541532419549 -0.00509561230631 0)
(-0.00480300364636 -0.00440536155095 0)
(-0.00424618466262 -0.00380808270217 0)
(-0.00374318016539 -0.00329070086342 0)
(-0.003289900396 -0.00284231058607 0)
(-0.00288160753039 -0.00245465470142 0)
(-0.00251453783593 -0.00212138068405 0)
(-0.00218618675994 -0.0018366789855 0)
(-0.00189428362648 -0.00159464118988 0)
(-0.00163615412496 -0.00138957641537 0)
(-0.00140892415085 -0.00121635527827 0)
(-0.00120971798429 -0.00107044030449 0)
(-0.00103567643142 -0.000947879789515 0)
(-0.000884049468062 -0.00084531384856 0)
(-0.000752227521062 -0.000760322816562 0)
(-0.000638546495366 -0.000687853152033 0)
(-0.000550677467831 -0.000623722776241 0)
(-0.000494673039722 -0.000569811304848 0)
(-0.000455002393005 -0.000514603865566 0)
(-0.000420117811603 -0.000457791306429 0)
(-0.000390201203669 -0.000396371746574 0)
(-0.000383668932852 -0.00034677892737 0)
(-0.000373328059799 -0.000282134420508 0)
(-0.000384675994595 -0.00023323026734 0)
(-0.000376171636429 -0.000164792942893 0)
(-0.000405569113723 -0.000124927938383 0)
(-0.000449150219253 -9.46816137108e-05 0)
(-0.000452122090429 -5.33961615839e-05 0)
(-0.000453070243585 -1.77592811594e-05 0)
(0.0262561517574 -0.00186784892653 0)
(0.0276738402391 -0.00596935259469 0)
(0.0274003362657 -0.0100112851811 -6.67655703935e-28)
(0.0269251189871 -0.0140151934152 0)
(0.0263047838668 -0.0179150030579 0)
(0.0255550848381 -0.0216902250646 0)
(0.0246924006286 -0.0253208992832 0)
(0.023734104942 -0.0287911778932 0)
(0.0226977734469 -0.0320891476734 0)
(0.0216004587518 -0.0352066174465 0)
(0.0204581136171 -0.0381387334027 0)
(0.0192851761799 -0.0408835034573 0)
(0.018094317928 -0.0434412811354 0)
(0.0168963328629 -0.045814253651 0)
(0.0157001458332 -0.0480059667767 0)
(0.01451290549 -0.0500209074937 0)
(0.0133401375032 -0.0518641541137 0)
(0.0121859270025 -0.0535410954699 0)
(0.0110531150815 -0.055057214047 0)
(0.00994348837754 -0.0564179250019 0)
(0.00885795792309 -0.057628460614 0)
(0.00779671537042 -0.0586937904337 0)
(0.00675937126044 -0.0596185672782 0)
(0.00574506885434 -0.0604070916765 0)
(0.00475258286927 -0.0610632877106 0)
(0.0037803988167 -0.0615906859786 0)
(0.0028267845031 -0.0619924093541 0)
(0.00188984994736 -0.062271160118 0)
(0.000967608292083 -0.0624292067283 0)
(5.80336671498e-05 -0.0624683683544 0)
(-0.000840871395454 -0.0623900156095 0)
(-0.0017310031305 -0.0621950410831 0)
(-0.00261407086056 -0.0618838863234 0)
(-0.00349150047257 -0.0614565451816 0)
(-0.00436432402736 -0.0609126033706 0)
(-0.00523306603489 -0.0602513006106 0)
(-0.00609762340374 -0.0594716227989 0)
(-0.00695715764713 -0.0585724284162 0)
(-0.00781000098437 -0.0575526078777 0)
(-0.00865359957228 -0.0564112723332 0)
(-0.00948449691081 -0.0551479596628 0)
(-0.0102983779542 -0.0537628405717 0)
(-0.0110901662164 -0.0522568982541 0)
(-0.0118541745655 -0.0506320529331 0)
(-0.0125842715121 -0.0488912021685 0)
(-0.0132740239992 -0.047038162117 0)
(-0.0139167369952 -0.0450775186488 0)
(-0.014505324634 -0.0430144451544 0)
(-0.0150319497083 -0.0408546025468 0)
(-0.0154874411057 -0.0386042859908 0)
(-0.0158606268699 -0.0362710272661 0)
(-0.016137906548 -0.0338647747065 0)
(-0.0163035650286 -0.0313995546052 0)
(-0.0163414731182 -0.0288950212325 0)
(-0.0162379452296 -0.0263769832565 0)
(-0.0159856615883 -0.0238746983458 0)
(-0.0155802195692 -0.0214199249747 0)
(-0.0150247628832 -0.0190455658437 0)
(-0.0143243003958 -0.0167863121577 0)
(-0.0134954592358 -0.0146790738717 0)
(-0.0125694203222 -0.012754798619 0)
(-0.0115864633376 -0.0110307530594 0)
(-0.0105870569314 -0.00950806321205 0)
(-0.00960346840187 -0.00817490258893 0)
(-0.00865585557833 -0.00701363796119 0)
(-0.00775529266249 -0.00600742772599 0)
(-0.00690980535858 -0.00514191480538 0)
(-0.00612732423889 -0.00440290962987 0)
(-0.00541413074125 -0.00377418358114 0)
(-0.00477201558269 -0.00323801375888 0)