/*--------------------------------*- C++ -*----------------------------------*\
| =========                 |                                                 |
| \\      /  F ield         | OpenFOAM: The Open Source CFD Toolbox           |
|  \\    /   O peration     | Version:  v1906                                 |
|   \\  /    A nd           | Web:      www.OpenFOAM.com                      |
|    \\/     M anipulation  |                                                 |
\*---------------------------------------------------------------------------*/
FoamFile
{
    version     2.0;
    format      ascii;
    class       volScalarField;
    location    "560";
    object      pa;
}
// * * * * * * * * * * * * * * * * * * * * * * * * * * * * * * * * * * * * * //

dimensions      [0 2 -2 0 0 0 0];


internalField   nonuniform List<scalar> 
9216
(
-206.449797495
-206.64693669
-207.048763473
-207.654498598
-208.46081697
-209.463337368
-210.6566294
-212.034324074
-213.589215237
-215.313360271
-217.198184959
-219.234586519
-221.413038288
-223.723688206
-226.156456004
-228.701120654
-231.347404897
-234.085047943
-236.903875013
-239.79385429
-242.745151557
-245.748172399
-248.793603559
-251.87244247
-254.976027561
-258.096057438
-261.224612275
-264.354164625
-267.477593321
-270.588187586
-273.679655292
-276.746120824
-279.782127999
-282.782633314
-285.743004404
-288.6590092
-291.526810746
-294.3429531
-297.104353297
-299.808284803
-302.452367394
-305.034548917
-307.55309379
-310.006563692
-312.393805313
-314.713930465
-316.966303598
-319.150521673
-321.266401885
-323.313961518
-325.293406236
-327.205110019
-329.049604356
-330.827558272
-332.53976873
-334.187140681
-335.770679001
-337.291468466
-338.750667574
-340.149488359
-341.489192528
-342.771071087
-343.996443336
-345.166636418
-346.282987848
-347.346825287
-348.359473356
-349.32223413
-350.236398983
-351.103230313
-351.923978861
-352.699866988
-353.432111216
-354.121906834
-354.770454381
-355.378944733
-355.948587356
-356.480594823
-356.976210668
-357.436693303
-357.863342988
-358.25748779
-358.620512942
-358.953856514
-359.259052108
-359.537754262
-359.791830005
-360.023689279
-360.235523261
-360.411785072
-360.541798143
-360.633319069
-360.693938275
-360.729794585
-360.747381046
-360.753455898
-206.253011368
-206.451285178
-206.85432736
-207.463124096
-208.273715176
-209.281548043
-210.481075201
-211.865825275
-213.428490495
-215.161025694
-217.054753214
-219.100468485
-221.288545616
-223.609038498
-226.051778182
-228.606462454
-231.262739653
-234.010283
-236.838858662
-239.738384007
-242.698980202
-245.711015622
-248.765144849
-251.852339503
-254.963916068
-258.091556567
-261.227327446
-264.363692087
-267.493522633
-270.610105614
-273.707147522
-276.778775101
-279.819535701
-282.82439257
-285.78872081
-288.708298627
-291.579299629
-294.398280833
-297.162172124
-299.868261824
-302.514184099
-305.097902847
-307.617697761
-310.072147193
-312.46011347
-314.780725242
-317.033362548
-319.217639027
-321.333387112
-323.380640369
-325.359619125
-327.270713101
-329.114467704
-330.891567064
-332.602821183
-334.249149413
-335.831568665
-337.351177337
-338.809144792
-340.206695788
-341.545101481
-342.825664478
-344.049711741
-345.218580531
-346.333613728
-347.396147106
-348.407507754
-349.369003291
-350.281924116
-351.147535197
-351.967082678
-352.7417886
-353.472861773
-354.161495092
-354.808879595
-355.416203114
-355.984665484
-356.515476781
-357.009871579
-357.469105852
-357.894469771
-358.287284855
-358.648918106
-358.980784692
-359.284370016
-359.561244229
-359.813094847
-360.041711918
-360.250005994
-360.425130361
-360.554182034
-360.644000244
-360.703108455
-360.737236212
-360.753571831
-360.759757026
-205.849531301
-206.051060104
-206.458498149
-207.073846534
-207.893067896
-208.911490027
-210.123404122
-211.522158354
-213.100251886
-214.849439446
-216.760840715
-218.825050709
-221.032248916
-223.372304093
-225.834873734
-228.409495935
-231.085673765
-233.852950614
-236.700977544
-239.619571647
-242.598767122
-245.628858334
-248.700436942
-251.804422353
-254.932087693
-258.075080347
-261.225439192
-264.375607277
-267.518442065
-270.647221589
-273.755648795
-276.837852181
-279.888384875
-282.902220496
-285.874747783
-288.801762399
-291.679457895
-294.504414271
-297.273586115
-299.984288745
-302.634184338
-305.221266443
-307.743844813
-310.200528958
-312.590212287
-314.912055212
-317.165469076
-319.350099199
-321.465808941
-323.512662973
-325.49091173
-327.4009751
-329.243427466
-331.018981925
-332.728476068
-334.372856813
-335.953167031
-337.470531059
-338.926142298
-340.321249479
-341.657145419
-342.9351542
-344.156621357
-345.322902289
-346.435354345
-347.495326967
-348.504156357
-349.463158074
-350.373625099
-351.236823691
-352.053995557
-352.826357494
-353.555107792
-354.241429337
-354.886499222
-355.49149373
-356.057598832
-356.586014503
-357.077963402
-357.534692538
-357.957478955
-358.347629248
-358.706484252
-359.035420214
-359.335857555
-359.609268427
-359.857197823
-360.081237017
-360.284413921
-360.455012667
-360.58006338
-360.666565103
-360.721986518
-360.753796659
-360.770139634
-360.777432107
-205.235635307
-205.440891903
-205.855127284
-206.48060532
-207.313136333
-208.347853589
-209.578804886
-210.999062924
-212.60082991
-214.375551569
-216.314034722
-218.406565133
-220.643022796
-223.012992003
-225.505864551
-228.110934473
-230.8174838
-233.614858664
-236.492536151
-239.440181919
-242.447699603
-245.505272391
-248.603398055
-251.732917859
-254.885040586
-258.051361882
-261.223879955
-264.395007505
-267.557580778
-270.704865362
-273.830559628
-276.92879504
-279.994134358
-283.021567243
-286.006504001
-288.944767096
-291.832581209
-294.666561506
-297.443700884
-300.161355864
-302.817231884
-305.409367641
-307.936119175
-310.396143344
-312.788381312
-315.112041667
-317.366583775
-319.55170093
-321.667303897
-323.713504362
-325.690598905
-327.599052937
-329.43948526
-331.212652615
-332.919434941
-334.56082061
-336.137892455
-337.651813741
-339.10381504
-340.495181
-341.82723818
-343.101342755
-344.318869538
-345.481200917
-346.589717499
-347.645788829
-348.650766359
-349.605976807
-350.512718437
-351.3722581
-352.185831854
-352.954646523
-353.679885111
-354.362712738
-355.004285858
-355.605760655
-356.168303139
-356.693096394
-357.181347639
-357.634290908
-358.053188686
-358.439329352
-358.794024498
-359.118603959
-359.414413021
-359.682809748
-359.925174822
-360.142883874
-360.338647639
-360.501621343
-360.621218473
-360.702444871
-360.754544699
-360.785583634
-360.80294142
-360.811042516
-204.407748083
-204.617836498
-205.041336201
-205.680647122
-206.531345833
-207.588284948
-208.845173758
-210.294704023
-211.928668159
-213.738086169
-215.713334898
-217.844276234
-220.120381089
-222.530846504
-225.064704049
-227.710918132
-230.458473634
-233.296452592
-236.214100336
-239.200881598
-242.246527638
-245.341075315
-248.474899364
-251.638738787
-254.823718462
-258.021366553
-261.22362846
-264.422877471
-267.611922652
-270.784013857
-273.932844319
-277.052550273
-280.137708351
-283.183330533
-286.184857013
-289.138147017
-292.039467933
-294.885482869
-297.673236991
-300.400142761
-303.06396441
-305.66280173
-308.195073471
-310.65950039
-313.055088191
-315.38111034
-317.637090988
-319.822787923
-321.938175774
-323.983429356
-325.958907356
-327.865136246
-329.702794596
-331.472697644
-333.175782328
-334.813092573
-336.385765065
-337.895015277
-339.342124013
-340.728424186
-342.055288174
-343.324115438
-344.536320854
-345.693323411
-346.796535911
-347.847355316
-348.847154574
-349.797275604
-350.699024473
-351.553668411
-352.362435812
-353.126518647
-353.847078267
-354.525253486
-355.162171337
-355.758958568
-356.316753569
-356.836716176
-357.32003496
-357.767929864
-358.1816507
-358.562470655
-358.911676292
-359.230553969
-359.520374511
-359.782375752
-360.017752473
-360.227610337
-360.414076718
-360.567802904
-360.679733417
-360.75637102
-360.806550535
-360.837895096
-360.856697184
-360.865709006
-203.361004055
-203.577213206
-204.012584079
-204.669643237
-205.543647056
-206.62907075
-207.919176073
-209.406154737
-211.081263707
-212.934968887
-214.957089724
-217.136940919
-219.463467686
-221.925371794
-224.51122648
-227.209579007
-230.00904039
-232.898362363
-235.866502199
-238.902676395
-241.996404508
-245.137544593
-248.316321714
-251.523350854
-254.749655394
-257.986681978
-261.226312379
-264.460872548
-267.68313926
-270.886344195
-274.064175586
-277.210777029
-280.32074398
-283.389117822
-286.411377738
-289.38343052
-292.30159863
-295.162606723
-297.963566929
-300.701963133
-303.375634516
-305.982758534
-308.521833558
-310.991661291
-313.391329123
-315.720192482
-317.977857314
-320.164162716
-322.279163808
-324.32311486
-326.29645274
-328.199780686
-330.033852442
-331.799556748
-333.497902227
-335.130002618
-336.697062406
-338.200362773
-339.641247932
-341.021111752
-342.341384754
-343.603521406
-344.808987848
-345.959250023
-347.055762452
-348.099957725
-349.093237137
-350.036962672
-350.932451
-351.780969807
-352.583737259
-353.341924839
-354.056664135
-354.729057203
-355.360190265
-355.951149128
-356.503034879
-357.01697717
-357.494143258
-357.93574062
-358.343012691
-358.717227431
-359.059659664
-359.371567497
-359.654163323
-359.908578276
-360.135826522
-360.336736355
-360.512893778
-360.65532999
-360.760143311
-360.833385324
-360.882388905
-360.915732519
-360.936180939
-360.946056011
-202.089224913
-202.312987705
-202.763042731
-203.442059876
-204.344881613
-205.465496506
-206.796593659
-208.329728636
-210.055480756
-211.963618198
-214.043262173
-216.283045637
-218.671262576
-221.196004926
-223.845285217
-226.60714389
-229.469741061
-232.42143316
-235.45083549
-238.546872184
-241.698815368
-244.896315496
-248.129424799
-251.388615561
-254.664794648
-257.949315217
-261.233986196
-264.511079554
-267.773335667
-271.013966507
-274.226656298
-277.405559457
-280.54529612
-283.640945147
-286.688034806
-289.682531328
-292.620825652
-295.499718625
-298.316404996
-301.068456482
-303.75380418
-306.370720535
-308.917801088
-311.393946116
-313.798342312
-316.130444578
-318.389958012
-320.576820141
-322.69118344
-324.733398184
-326.703995656
-328.603671721
-330.43327081
-332.193770289
-333.886265233
-335.511953581
-337.072121663
-338.568130055
-340.001399753
-341.373398594
-342.685627937
-343.939609531
-345.136872625
-346.278941317
-347.36732229
-348.40349308
-349.388891233
-350.324904733
-351.212864386
-352.054038817
-352.84963303
-353.600791295
-354.308605116
-354.974126398
-355.598385387
-356.182411759
-356.727256336
-357.234009975
-357.703816087
-358.137874047
-358.537432192
-358.903770882
-359.238176684
-359.541908453
-359.816154387
-360.061975879
-360.280232827
-360.47144535
-360.636086173
-360.768310209
-360.867762708
-360.938499297
-360.988077882
-361.022785485
-361.044337383
-361.0546592
-200.584783208
-200.817682952
-201.285498999
-201.991064962
-202.928701039
-204.091781801
-205.472277565
-207.060949822
-208.847536873
-210.820946146
-212.969442863
-215.280829697
-217.742613002
-220.342152563
-223.066793019
-225.903976209
-228.841334546
-231.866766336
-234.968494613
-238.135111599
-241.355611263
-244.619412655
-247.916376581
-251.236817886
-254.571515049
-257.911718192
-261.249155948
-264.576040983
-267.885074184
-271.169447211
-274.422842162
-277.639428714
-280.813858607
-283.941257428
-287.017213883
-290.037766822
-292.999390369
-295.898977496
-298.733822438
-301.501602277
-304.200357997
-306.828475259
-309.384665094
-311.867944653
-314.277618122
-316.613257876
-318.874685927
-321.061955699
-323.175334174
-325.215284426
-327.182448567
-329.07763112
-330.901782835
-332.655984937
-334.341433808
-335.95942607
-337.511344053
-338.998641573
-340.422829989
-341.785464448
-343.08813027
-344.332429383
-345.51996677
-346.652336927
-347.731110368
-348.757820349
-349.733950109
-350.660921133
-351.540083187
-352.372707132
-353.159981789
-353.903016226
-354.602848779
-355.260463553
-355.876814205
-356.45285317
-356.989562803
-357.487983106
-357.949230549
-358.374503327
-358.765071522
-359.122253587
-359.447382019
-359.741760192
-360.006609745
-360.243003718
-360.451774814
-360.633360203
-360.787639742
-360.91245164
-361.006857217
-361.076010115
-361.12658745
-361.161088615
-361.183200442
-361.19336379
-198.838456374
-199.082255302
-199.571241018
-200.308428145
-201.287484665
-202.50101865
-203.940107814
-205.594533458
-207.453002588
-209.503374555
-211.732880001
-214.128325865
-216.676281642
-219.363243802
-222.175776824
-225.100630452
-228.124833813
-231.235767863
-234.421218437
-237.669412758
-240.969042793
-244.309279047
-247.679778262
-251.07068798
-254.472650157
-257.876804969
-261.274795083
-264.658769737
-268.021388129
-271.35582181
-274.655753523
-277.915373683
-281.129373782
-284.292936774
-287.401724685
-290.451863766
-293.439927648
-296.362918933
-299.218249682
-302.003721223
-304.717503602
-307.358114965
-309.924401055
-312.415514962
-314.830897198
-317.170256154
-319.433548969
-321.620962818
-323.732896654
-325.769943403
-327.732872634
-329.62261372
-331.440239484
-333.186950339
-334.864058899
-336.472975025
-338.015191278
-339.492268677
-340.905822714
-342.257509487
-343.549011854
-344.782025475
-345.958244614
-347.079347626
-348.146982082
-349.16274962
-350.128190775
-351.044770305
-351.913863894
-352.736747516
-353.514591283
-354.248459904
-354.939322097
-355.588070722
-356.195554265
-356.762617768
-357.290148333
-357.779117198
-358.230608888
-358.645830119
-359.026095771
-359.372796446
-359.687353948
-359.971169832
-360.225568655
-360.451734096
-360.650633691
-360.822921782
-360.968843877
-361.087925412
-361.179500053
-361.248559632
-361.299112335
-361.333310414
-361.354863202
-361.363324616
-196.839250275
-197.095931651
-197.609910469
-198.384393669
-199.412237234
-200.685096434
-202.192946153
-203.924365137
-205.866804877
-208.006859247
-210.330520467
-212.8234143
-215.47100942
-218.258798156
-221.172447537
-224.19792087
-227.321571132
-230.53020835
-233.81114399
-237.152216216
-240.541800514
-243.96881055
-247.422693967
-250.893427133
-254.371511562
-257.847973249
-261.314364717
-264.762768455
-268.185800313
-271.576612497
-274.928891928
-278.236856317
-281.49524644
-284.69931492
-287.844811827
-290.927967554
-293.945473537
-296.894461414
-299.77248119
-302.577478914
-305.307774264
-307.962038337
-310.539271818
-313.038783642
-315.460170178
-317.803294964
-320.068268968
-322.255431378
-324.365330919
-326.398707696
-328.356475584
-330.239705158
-332.049607187
-333.787516671
-335.454877417
-337.053227101
-338.584182767
-340.049426659
-341.45069229
-342.789750585
-344.06839593
-345.288431931
-346.451656659
-347.559847192
-348.614743256
-349.618029951
-350.57131961
-351.476133332
-352.333883004
-353.145855477
-353.913201264
-354.636930993
-355.317923517
-355.956949355
-356.554711782
-357.111904368
-357.629278628
-358.107709123
-358.548240111
-358.95210011
-359.320680254
-359.655486918
-359.958082375
-360.230023434
-360.472802181
-360.687789458
-360.87618186
-361.038958004
-361.176871793
-361.29049563
-361.380686992
-361.449807992
-361.500259233
-361.535330056
-361.556491017
-361.564132859
-194.57418087
-194.846003868
-195.389318054
-196.207523996
-197.292465885
-198.634614677
-200.222584603
-202.043483017
-204.083239122
-206.326927105
-208.759066824
-211.363894269
-214.125596944
-217.028512074
-220.057287495
-223.197006313
-226.433277418
-229.752294765
-233.140869322
-236.586438619
-240.077059879
-243.601393323
-247.148682189
-250.70873495
-254.271913316
-257.829127208
-261.371835596
-264.89205085
-268.382343811
-271.835848126
-275.246259018
-278.60782915
-281.915359706
-285.164187261
-288.350166916
-291.469652344
-294.519473499
-297.496912772
-300.39968034
-303.225889314
-305.974031172
-308.642951757
-311.231828021
-313.740145543
-316.167676821
-318.514460273
-320.780779906
-322.967145604
-325.074274017
-327.103070049
-329.054608944
-330.930118996
-332.730964884
-334.458631638
-336.114709211
-337.700877618
-339.218892574
-340.67057152
-342.057779882
-343.382417407
-344.646404296
-345.851666896
-347.000122585
-348.093663522
-349.134138865
-350.123335197
-351.062954985
-351.95459331
-352.799713654
-353.599624439
-354.355459411
-355.068166336
-355.738510412
-356.367098953
-356.954433674
-357.500991336
-358.007325485
-358.474169857
-358.9025145
-359.293629835
-359.649028301
-359.970389603
-360.259477034
-360.5180616
-360.747859059
-360.950478739
-361.127384365
-361.279875854
-361.409111338
-361.516192899
-361.602416379
-361.669659773
-361.719915069
-361.755240343
-361.777074692
-361.786310681
-192.028001568
-192.317572303
-192.895214594
-193.76450899
-194.916033648
-196.338783414
-198.019691671
-199.944066137
-202.095993951
-204.45873089
-207.015055245
-209.747578524
-212.639009071
-215.672368047
-218.831159103
-222.099494098
-225.462177799
-228.904755185
-232.413525999
-235.975532721
-239.578529725
-243.210942698
-246.861827517
-250.520836466
-254.17819659
-257.824701231
-261.451711577
-265.051165317
-268.615585466
-272.13808714
-275.612378351
-279.032755548
-282.394093321
-285.691828908
-288.921942225
-292.080932341
-295.165791404
-298.173977077
-301.103384447
-303.952318189
-306.719465528
-309.403870295
-312.004908178
-314.522263119
-316.955904742
-319.306066685
-321.573225708
-323.758081502
-325.86153716
-327.884680292
-329.828764805
-331.695193381
-333.485500653
-335.201337118
-336.844453751
-338.416687298
-339.919946157
-341.356196732
-342.727450096
-344.035748725
-345.283153023
-346.471727256
-347.603524439
-348.680569642
-349.704841059
-350.67824826
-351.602606945
-352.479610085
-353.310795608
-354.097512295
-354.840887218
-355.541800778
-356.200878622
-356.818512653
-357.394923725
-357.930273492
-358.424819306
-358.879082133
-359.293975503
-359.670846013
-360.011397582
-360.317563849
-360.591383847
-360.834905666
-361.050119564
-361.23891071
-361.403024477
-361.544054987
-361.663466682
-361.76265901
-361.843089093
-361.906398258
-361.954255076
-361.988255827
-362.009660987
-362.019614731
-189.182861064
-189.493224583
-190.111008059
-191.039934307
-192.268987061
-193.785312062
-195.573759836
-197.617434358
-199.898195432
-202.397128599
-205.094961026
-207.972416525
-211.01050826
-214.190771321
-217.495438948
-220.907566354
-224.411105958
-227.990937976
-231.632861429
-235.323552821
-239.05050249
-242.801941171
-246.566770212
-250.334507067
-254.095253
-257.839683429
-261.559054761
-265.245221424
-268.890652627
-272.488443931
-276.032320616
-279.516633065
-282.936344601
-286.287012882
-289.564765947
-292.766274107
-295.888719064
-298.929761675
-301.88750965
-304.760486191
-307.547600179
-310.24811818
-312.861638234
-315.388065229
-317.827587608
-320.180655129
-322.447957504
-324.630403765
-326.729102328
-328.745341724
-330.680572055
-332.536387203
-334.314507857
-336.016765372
-337.645086479
-339.201478796
-340.688017087
-342.10683011
-343.460087904
-344.749989232
-345.978748853
-347.148584172
-348.261700659
-349.320275336
-350.326437318
-351.282244398
-352.189654373
-353.05049004
-353.866397235
-354.63879651
-355.368831518
-356.057321105
-356.704728311
-357.311165682
-357.87646262
-358.40031634
-358.882528863
-359.323288396
-359.723395117
-360.084338102
-360.408130916
-360.697080704
-360.953597884
-361.180075795
-361.378827339
-361.552046491
-361.701769903
-361.829862625
-361.938029835
-362.027857992
-362.100877537
-362.158610535
-362.202513812
-362.233911683
-362.253868617
-362.263388339
-186.017871067
-186.352633166
-187.017413278
-188.016001527
-189.33535567
-190.960289323
-192.873060245
-195.054067989
-197.482479528
-200.136796294
-202.995340047
-206.036654134
-209.239823453
-212.584720155
-216.052182521
-219.624133084
-223.283640274
-227.014927054
-230.803331067
-234.635224062
-238.497903205
-242.379471854
-246.268729964
-250.155092283
-254.028544855
-257.879639112
-261.699511975
-265.479918657
-269.213263645
-272.89261938
-276.511732896
-280.065020441
-283.54755243
-286.955030635
-290.283759029
-293.530609758
-296.692986048
-299.76878404
-302.756355293
-305.654471277
-308.462290515
-311.17932854
-313.805430404
-316.340745286
-318.785702708
-321.140989943
-323.407530286
-325.586462058
-327.679118253
-329.687006868
-331.611791977
-333.455275641
-335.219380741
-336.906134798
-338.517654795
-340.056133007
-341.523823741
-342.923030887
-344.256096072
-345.525387164
-346.733286749
-347.882180081
-348.974441805
-350.012420535
-350.998419972
-351.934675022
-352.823320635
-353.666351276
-354.465568365
-355.222514448
-355.938395201
-356.613995463
-357.24960574
-357.844988358
-358.399430426
-358.911935066
-359.381585242
-359.808027061
-360.191883019
-360.534923593
-360.839684356
-361.109029891
-361.34586382
-361.552993069
-361.733095287
-361.88870856
-362.022174387
-362.135616717
-362.230942313
-362.309868856
-362.373964676
-362.424677921
-362.463321171
-362.491038239
-362.508734402
-362.517252323
-182.508555601
-182.872046341
-183.592017272
-184.672190865
-186.096922387
-187.848059353
-189.904614203
-192.243658818
-194.841105097
-197.672386011
-200.713016594
-203.939038807
-207.327362378
-210.856016544
-214.504325645
-218.253017098
-222.084265678
-225.98167531
-229.930200318
-233.916012991
-237.92633274
-241.949241736
-245.973518338
-249.988518076
-253.984119528
-257.950731964
-261.879343032
-265.761580062
-269.589763819
-273.356936884
-277.056873016
-280.684068979
-284.233724768
-287.701715103
-291.08455355
-294.379350782
-297.583769373
-300.695977967
-303.714607337
-306.638710022
-309.467724262
-312.201442118
-314.839981125
-317.383758603
-319.833467814
-322.190055282
-324.454698909
-326.628786644
-328.713895725
-330.711772522
-332.624313157
-334.453545026
-336.201609387
-337.8707451
-339.463273602
-340.9815851
-342.428125944
-343.805387049
-345.115893207
-346.362193013
-347.546849067
-348.672427929
-349.74148909
-350.756571935
-351.720179094
-352.634754081
-353.502650049
-354.326085846
-355.107083847
-355.847385586
-356.548339192
-357.210764073
-357.834803211
-358.419807543
-358.964324812
-359.466311407
-359.923678892
-360.335152847
-360.701045279
-361.02372159
-361.306638448
-361.553503134
-361.767855825
-361.952962962
-362.111887347
-362.247557564
-362.362641868
-362.459522238
-362.540281682
-362.60673357
-362.660460092
-362.702847226
-362.735095882
-362.758215718
-362.772987628
-362.780114743
-178.62614147
-179.023640341
-179.808737401
-180.984856581
-182.532965999
-184.431104244
-186.65419661
-189.175209797
-191.966124202
-194.99874369
-198.245330078
-201.67908068
-205.274476028
-209.007525222
-212.855929785
-216.799177271
-220.818566353
-224.897159094
-229.019655842
-233.172195483
-237.342098186
-241.517586023
-245.687531557
-249.84128561
-253.968615226
-258.05974404
-262.105452975
-266.097192404
-270.027168912
-273.888385638
-277.674650252
-281.380559203
-285.00147023
-288.533466531
-291.973312528
-295.318402083
-298.566702457
-301.716698402
-304.767340108
-307.717997241
-310.568419735
-313.318704672
-315.969267898
-318.520818844
-320.974337245
-323.331050818
-325.592413387
-327.760083293
-329.835902133
-331.821874013
-333.72014555
-335.532986879
-337.262773873
-338.911971769
-340.483120271
-341.978820178
-343.401721494
-344.754512909
-346.039912519
-347.260659548
-348.419506801
-349.519213367
-350.56253695
-351.552224757
-352.491001323
-353.381550712
-354.226489317
-355.028322806
-355.789380599
-356.511713262
-357.196946253
-357.846070984
-358.459187049
-359.035222961
-359.571759237
-360.065164461
-360.511385349
-360.907511712
-361.253218062
-361.552216889
-361.809662048
-362.03053061
-362.219129063
-362.379143671
-362.513980028
-362.627045281
-362.721368236
-362.799598857
-362.863971926
-362.916360832
-362.958329745
-362.991191143
-363.016039871
-363.033770516
-363.045063681
-363.050502337
-174.3366316
-174.774684018
-175.637142902
-176.92674473
-178.619982464
-180.689950841
-183.10639535
-185.837208345
-188.849632468
-192.111205866
-195.590455239
-199.257380725
-203.083784449
-207.043489241
-211.11247958
-215.268978464
-219.493456603
-223.768558347
-228.078926246
-232.410916243
-236.75221937
-241.09143973
-245.417710745
-249.72044171
-253.989254808
-258.214094861
-262.385431621
-266.494457377
-270.533219799
-274.49467355
-278.372673965
-282.161943871
-285.85803443
-289.457281302
-292.956750923
-296.35417558
-299.647882417
-302.83672391
-305.920015468
-308.89748318
-311.769222018
-314.535662739
-317.197544907
-319.755893513
-322.211997186
-324.567386734
-326.823813492
-328.983227415
-331.047755166
-333.019678536
-334.901413595
-336.695490955
-338.404537477
-340.031259657
-341.578428852
-343.048868371
-344.445442418
-345.771046788
-347.028601213
-348.221043196
-349.351323158
-350.422400613
-351.437240903
-352.398811762
-353.31007813
-354.173993177
-354.993480326
-355.771401259
-356.510494061
-357.213270823
-357.88183644
-358.51761003
-359.120900308
-359.690355469
-360.222395416
-360.711001652
-361.148721426
-361.529632627
-361.85181437
-362.122262461
-362.349363062
-362.539930718
-362.69903822
-362.830515636
-362.93790806
-363.025346249
-363.09626322
-363.153600909
-363.199704364
-363.236455761
-363.265348157
-363.287585603
-363.304140097
-363.315792154
-363.32313341
-363.326638827
-169.599574294
-170.086449645
-171.041601277
-172.466425721
-174.331401427
-176.603133457
-179.244763938
-182.217909374
-185.484129835
-189.005998045
-192.747811724
-196.67603679
-200.759572093
-204.969910313
-209.281242161
-213.670519205
-218.11746098
-222.604470369
-227.116413374
-231.640231707
-236.164394194
-240.678254264
-245.171449156
-249.633512253
-254.053823846
-258.421865932
-262.72761044
-266.961861857
-271.116453468
-275.184292586
-279.159311652
-283.036398402
-286.811341883
-290.480784066
-294.042157427
-297.493602335
-300.833874288
-304.062255281
-307.178478093
-310.182667314
-313.075296493
-315.857157487
-318.529337321
-321.093198571
-323.550360313
-325.902678118
-328.152222687
-330.301257443
-332.352215617
-334.307677464
-336.170348182
-337.943037112
-339.628638682
-341.230115424
-342.75048326
-344.19279909
-345.560150643
-346.855648512
-348.082420266
-349.243606593
-350.342359463
-351.381842218
-352.365231641
-353.295721543
-354.17652744
-355.010890097
-355.802075918
-356.553364299
-357.268014866
-357.949180698
-358.599738271
-359.221948252
-359.816859119
-360.383331831
-360.916699258
-361.407448068
-361.842071295
-362.209033942
-362.501768248
-362.735838426
-362.925875193
-363.081002844
-363.206637974
-363.305911619
-363.381896839
-363.440264724
-363.484846148
-363.518925637
-363.54486199
-363.564464975
-363.579065351
-363.589699503
-363.597177372
-363.602152718
-363.605133677
-363.606496358
-164.366395921
-164.912769386
-165.980201378
-167.567641793
-169.637333392
-172.147266226
-175.052125287
-178.305779622
-181.863031569
-185.680761454
-189.718578451
-193.939135474
-198.308257869
-202.795000372
-207.371698982
-212.014032589
-216.701061422
-221.415171974
-226.141838975
-230.86912534
-235.586895303
-240.285822075
-244.956413145
-249.588380568
-254.170635394
-258.691841503
-263.141148827
-267.50877918
-271.786296972
-275.966598722
-280.043757093
-284.012879604
-287.870044543
-291.612263624
-295.237416365
-298.744141541
-302.131709958
-305.399908079
-308.54894508
-311.57938754
-314.492119069
-317.288316483
-319.969434432
-322.537192407
-324.99356003
-327.340738939
-329.581141516
-331.717367441
-333.752179194
-335.688477458
-337.529277275
-339.277685711
-340.936881708
-342.510098542
-344.00060912
-345.411714098
-346.746732727
-348.008996288
-349.201844053
-350.328621761
-351.392682816
-352.39739248
-353.346135449
-354.242327536
-355.089431428
-355.89097769
-356.650588194
-357.372002009
-358.059088371
-358.715832651
-359.3462324
-359.954008417
-360.541910761
-361.110262595
-361.654285852
-362.159746608
-362.602042629
-362.959556246
-363.210388296
-363.394327348
-363.537970732
-363.651956366
-363.740589492
-363.804225249
-363.843734148
-363.869093517
-363.884094645
-363.892503177
-363.896442222
-363.897534629
-363.896791601
-363.895000017
-363.892744207
-363.890533828
-363.88879862
-363.887830535
-158.57808815
-159.198091181
-160.403395578
-162.188590451
-164.504417278
-167.297315254
-170.5111149
-174.090176046
-177.981380321
-182.135237031
-186.506324103
-191.053330604
-195.73893781
-200.52970661
-205.396061617
-210.312382592
-215.257140949
-220.212958026
-225.166420155
-230.107481759
-235.028353645
-239.921945928
-244.78022001
-249.593082634
-254.348482861
-259.033591602
-263.636184163
-268.145623093
-272.553192035
-276.851905743
-281.036106826
-285.101193337
-289.043579016
-292.860713684
-296.551028751
-300.11378366
-303.548878355
-306.85669582
-310.037987349
-313.093803287
-316.025462579
-318.834543503
-321.522882074
-324.092569747
-326.545944774
-328.885575966
-331.114240625
-333.234898999
-335.250667244
-337.164790181
-338.980614896
-340.701566255
-342.331125204
-343.872810476
-345.330163861
-346.706738954
-348.006093105
-349.231782331
-350.387359084
-351.476372908
-352.502374409
-353.468923043
-354.37959989
-355.238026664
-356.047893195
-356.812995652
-357.537290001
-358.224962363
-358.88052172
-359.508904584
-360.115563105
-360.706429602
-361.287475412
-361.863105708
-362.431887791
-362.974334395
-363.444545678
-363.806503591
-363.985557638
-364.094570497
-364.180571815
-364.248896857
-364.299533322
-364.325593459
-364.320553194
-364.30840741
-364.290205593
-364.270666891
-364.250977403
-364.232488109
-364.215602074
-364.200780439
-364.188280698
-364.178460735
-364.171689349
-364.168204682
-152.16191039
-152.874806799
-154.252303936
-156.281211359
-158.895900397
-162.027218653
-165.605096322
-169.562358576
-173.836821384
-178.372133567
-183.117754294
-188.02849432
-193.063984313
-198.188303123
-203.369882492
-208.581688173
-213.801573791
-219.012609737
-224.203106809
-229.366006277
-234.497356166
-239.593840057
-244.64987309
-249.655479581
-254.596605278
-259.457656261
-264.224101123
-268.884086776
-273.428754443
-277.851582691
-282.147437525
-286.312071888
-290.342237291
-294.235881289
-297.992130931
-301.611043148
-305.093301234