/*--------------------------------*- C++ -*----------------------------------*\
| =========                 |                                                 |
| \\      /  F ield         | OpenFOAM: The Open Source CFD Toolbox           |
|  \\    /   O peration     | Version:  v1906                                 |
|   \\  /    A nd           | Web:      www.OpenFOAM.com                      |
|    \\/     M anipulation  |                                                 |
\*---------------------------------------------------------------------------*/
FoamFile
{
    version     2.0;
    format      ascii;
    class       surfaceScalarField;
    location    "560";
    object      phia;
}
// * * * * * * * * * * * * * * * * * * * * * * * * * * * * * * * * * * * * * //

dimensions      [0 3 -1 0 0 0 0];
oriented        oriented;


internalField   nonuniform List<scalar> 
18240
(
0.000463516075865
-0.000463513798911
0.000945560973347
-0.000482042354028
0.00142476365868
-0.000479200325456
0.00189653139138
-0.000471765124112
0.00235802378783
-0.00046149005258
0.00280676936253
-0.00044874290541
0.00324055884989
-0.000433787178277
0.00365742267241
-0.000416861086302
0.00405562904247
-0.00039820409997
0.00443369106448
-0.000378059212342
0.00479036493621
-0.00035667164544
0.00512465095369
-0.000334283132332
0.00543578223293
-0.000311129102551
0.0057232183022
-0.000287433111657
0.00598662610574
-0.00026340568528
0.00622586919778
-0.000239240068901
0.00644098435377
-0.000215113103421
0.00663216967722
-0.000191182245272
0.00679975984958
-0.000167588194103
0.00694421573604
-0.000144452766207
0.00706610038934
-0.000121882754699
0.00716607165513
-9.9968118446e-05
0.00724485997503
-7.87865068669e-05
0.00730326441909
-5.84012853437e-05
0.00734213242089
-3.88662759899e-05
0.00736235891028
-2.02233350976e-05
0.00736486765416
-2.5071072571e-06
0.00735061287064
1.42579187319e-05
0.00732056084436
3.00535761864e-05
0.00727569350021
4.48704473854e-05
0.00721699201077
5.87029544839e-05
0.00714544130986
7.15537620616e-05
0.00706201374535
8.34289505478e-05
0.0069676749965
9.43417613254e-05
0.00686336847303
0.000104307834982
0.00675002238329
0.00011334905119
0.00662853491774
0.000121488710256
0.00649978240469
0.000128755426244
0.00636460530087
0.000135178287129
0.00622381736254
0.000140790811691
0.00607819237013
0.000145626122064
0.00592847422611
0.000149720992822
0.00577536425735
0.000153111048925
0.00561953216592
0.000155834937851
0.00546160367426
0.000157929527594
0.00530217230488
0.000159434243785
0.00514178708414
0.000160386211743
0.00498096520972
0.000160824814473
0.00482017946977
0.000160786684298
0.00465987195381
0.000160310567114
0.00450044079741
0.000159432042276
0.00434225520365
0.000158188806674
0.00418564105525
0.000156614960197
0.00403089762357
0.000154746860957
0.00387828154562
0.000152616784889
0.00372802571647
0.000150259528815
0.0035803210768
0.000147705206058
0.00343533829261
0.000144986804805
0.00329320680522
0.000142131859732
0.00315404000721
0.000139171181756
0.00301791101871
0.000136129112617
0.00288488213451
0.0001330336605
0.00275497687823
0.000129905062183
0.00262821450402
0.000126767553724
0.00250457793608
0.000123635992914
0.00238405398351
0.000120529515877
0.00226659685977
0.000117456091067
0.00215217443846
0.000114428306878
0.00204072700765
0.000111445875202
0.0019322192924
0.000108513797444
0.00182659408303
0.000105623050484
0.00172382891948
0.000102771246152
0.00162388424763
9.99418510631e-05
0.00152676290689
9.71271568477e-05
0.00143245301157
9.43063600697e-05
0.00134098818538
9.14700649525e-05
0.00125238663631
8.85972942392e-05
0.00116671089236
8.5680092325e-05
0.00108400665631
8.26993054148e-05
0.00100436250459
7.96473918886e-05
0.000927854392798
7.650266827e-05
0.000854608370837
7.32481252335e-05
0.000784759828047
6.98428681375e-05
0.00071852882957
6.62321088075e-05
0.000656216310016
6.23069050641e-05
0.000598337324852
5.78791325268e-05
0.00054577610999
5.25559687253e-05
0.00050066412851
4.51116660829e-05
0.000463120464227
3.75392110848e-05
0.000422922605679
4.01964805318e-05
0.000376935874199
4.59821533709e-05
0.000325928324344
5.10050828396e-05
0.000267142637611
5.87814952695e-05
0.00019501001586
7.21271205554e-05
0.000102873275313
9.21284501782e-05
0.000102868977299
0.000487483338047
-0.000950994715794
0.00100594310935
-0.00100049957861
0.00151809963582
-0.000991354286862
0.00202135187664
-0.000975014745351
0.00251323913066
-0.000953374739341
0.00299131162398
-0.000926812747255
0.00345326927037
-0.000895742257084
0.00389702887878
-0.000860618014118
0.0043207524357
-0.000821925086935
0.00472286192112
-0.000780165985928
0.00510204229994
-0.000735849452158
0.00545724047681
-0.000689478567333
0.00578765562291
-0.00064154167943
0.00609272856419
-0.000592503286317
0.00637212406818
-0.000542798629945
0.00662571492173
-0.000492828139241
0.00685356021834
-0.000442955860115
0.00705588789834
-0.000393507135822
0.00723307240614
-0.000344770190822
0.00738561853702
-0.000296996112933
0.00751414073499
-0.000250402480793
0.00761934985826
-0.000205174475089
0.00770203514443
-0.000161469369291
0.00776305430478
-0.000119417708421
0.00780331814012
-7.91277443429e-05
0.00782378351902
-4.06860171127e-05
0.00782543998466
-4.16126883781e-06
0.00780930478241
3.03957681636e-05
0.00777641169663
6.29488980193e-05
0.00772780768867
9.34770453937e-05
0.00766454126696
0.000121971542124
0.00758766063356
0.000148436923706
0.00749820374029
0.000172887939023
0.00739719724081
0.000195350725282
0.00728564739132
0.000215859711474
0.00716454005379
0.000234458790833
0.00703483254744
0.00025119817945
0.00689745471371
0.000266135604577
0.00675330172555
0.000279333181278
0.00660323615862
0.000290858674507
0.00644808167679
0.00030078246175
0.00628862600243
0.000309178927272
0.00612561532477
0.000316123548444
0.00595975804345
0.000321694460769
0.0057917197055
0.000325969664244
0.00562212741517
0.000329028778813
0.00545156508899
0.000330950329307
0.00528057846927
0.00033181370736
0.0051096704828
0.000331696469036
0.00493930685227
0.000330676527442
0.00476991133815
0.000328829376801
0.00460187200264
0.000326230557586
0.00443553610975
0.000322952704557
0.00427121715836
0.00031906834079
0.00410918920963
0.000314646622509
0.00394969487195
0.000309756530825
0.00379293883652
0.00030446316217
0.00363909706937
0.000298831387721
0.00348830936327
0.000292921507699
0.00334069006923
0.000286793448999
0.00319631953267
0.000280501586756
0.00305525676919
0.000274099548883
0.00291752972236
0.000267634012034
0.00278315032747
0.000261150205159
0.00265210359044
0.000254684550735
0.00252436543462
0.000248271018748
0.00239989058585
0.000241932620329
0.00227863337349
0.000235688885928
0.00216053425207
0.000229546448828
0.00204554326113
0.000223508058948
0.0019336046939
0.000217562727526
0.00182468223546
0.00021169671523
0.00171874094935
0.000205883759628
0.00161577252176
0.000200098129043
0.00151577381356
0.00019430504946
0.00141877070202
0.0001884750302
0.0013247934647
0.000182573727881
0.00123389892564
0.000176575590422
0.00114614498781
0.000170451573897
0.00106161284687
0.000164179495648
0.000980385172361
0.000157727862934
0.000902572018733
0.000151060320185
0.000828298233721
0.000144113574722
0.000757736430695
0.000136792251241
0.000691103364462
0.000128936510817
0.000628679411023
0.000120300775851
0.000570717005431
0.000110514835373
0.000516790229697
9.9036073781e-05
0.000467771109651
8.65551699043e-05
0.000420847568363
8.71170295824e-05
0.000371519145757
9.53070568038e-05
0.000316933718852
0.000105587083234
0.000255562638859
0.000120148037914
0.000181434960707
0.00014624937343
9.12747090109e-05
0.000182281946672
0.000194139923489
0.000495335857788
-0.00144632814304
0.00101881827865
-0.00152397939588
0.00153705285442
-0.00150958629508
0.00204634863535
-0.00148430791417
0.00254396331134
-0.00145098682156
0.00302734127758
-0.00141018808775
0.00349412742662
-0.00136252579718
0.00394220334212
-0.00130869128491
0.00436970997799
-0.00124942909875
0.00477506032133
-0.00118551366323
0.00515694233659
-0.00111772882939
0.00551431565862
-0.00104684920406
0.00584640135785
-0.000973624730856
0.00615266830663
-0.000898767536645
0.00643281488438
-0.000822942558058
0.00668674984876
-0.000746760400796
0.00691457050984
-0.000670773878968
0.00711654224429
-0.000595476173699
0.00729307677281
-0.000521302095672
0.00744471333667
-0.000448629997867
0.0075720994221
-0.00037778597177
0.007675975214
-0.000309047617397
0.00775715769002
-0.000242649291207
0.0078165286129
-0.000178786021946
0.00785502174389
-0.000117618370768
0.00787361372412
-5.92754381045e-05
0.00787331357749
-3.85867572841e-06
0.00785515558366
4.85562632228e-05
0.00782019017617
9.79166882684e-05
0.00776947813958
0.000144191519197
0.00770408258725
0.000187369409211
0.00762506403115
0.000227457849801
0.00753347320838
0.00026448100781
0.00743034714299
0.00029847909282
0.00731670291148
0.000329506121203
0.00719353472028
0.000357629218811
0.00706180868988
0.000382926325053
0.00692246098661
0.000405485484841
0.00677639363402
0.000425402592788
0.00662447365102
0.000442780783759
0.0064675297988
0.000457728327551
0.00630635260092
0.000470358213352
0.00614169186783
0.000480786262796
0.00597425744094
0.000489130954145
0.00580471730928
0.000495511762218
0.00563369892801
0.00050004922487
0.00546178775045
0.00050286347687
0.00528952900515
0.000504074538488
0.00511742648378
0.000503800985887
0.0049459447006
0.000502160442105
0.00477550779682
0.000499268321557
0.00460650204656
0.000495238508897
0.00443927475015
0.000490182106975
0.00427413708665
0.000484208296032
0.00411136288779
0.000477423004492
0.00395119188076
0.000469929935181
0.00379382825728
0.000461829052898
0.0036394444022
0.000453217752507
0.00348817922297
0.000444189033012
0.00334014253032
0.000434832760669
0.00319541315832
0.000425233371796
0.00305404424378
0.000415471177936
0.00291606126031
0.000405619448962
0.00278146851785
0.000395745731424
0.00265024729785
0.000385908229129
0.00252236390617
0.000376157219083
0.00239776809176
0.000366530837434
0.00227640283987
0.000357056899116
0.00215820303792
0.000347748509718
0.00204310677719
0.000338606917117
0.00193105375766
0.000329617727077
0.00182199714172
0.000320755603168
0.00171590051907
0.000311981914451
0.00161274863978
0.000303251753089
0.00151254145264
0.000294513122973
0.00141530205051
0.000285715436329
0.00132106711656
0.000276808716785
0.00122989189883
0.000267750888524
0.00114183865477
0.000258503920901
0.00105698094876
0.000249036290328
0.000975393994681
0.000239312998858
0.000897162180309
0.00022929034061
0.000822375618078
0.000218897587176
0.00075114388153
0.000208021538956
0.00068359983447
0.000196477504135
0.000619914851257
0.000183982742878
0.000560300159184
0.000170126168968
0.000504956214807
0.000154377100931
0.000454918981846
0.000136589212279
0.000406315626506
0.000135716977246
0.000353506048745
0.000148112740658
0.000293392344429
0.000165696945327
0.000223436292945
0.000190099988395
0.000145108974884
0.000224571251089
7.17358823909e-05
0.000255649145344
0.000265873111892
0.000504138306397
-0.00195046401649
0.00103591625657
-0.00205575483667
0.00156242523026
-0.00203609268317
0.00207968388016
-0.00200156398404
0.00258477623507
-0.00195607657992
0.00307502678566
-0.00190043603363
0.00354799865713
-0.00183549505756
0.00400151934263
-0.00176220934544
0.00443369925837
-0.00168160638505
0.00484294146803
-0.00159475322726
0.00522794253286
-0.00150272724647
0.00558768619938
-0.00140659020701
0.00592143065278
-0.00130736652315
0.00622869142915
-0.00120602563808
0.00650922059468
-0.001103469057
0.00676298430302
-0.00100052143212
0.00699013899735
-0.000897925911684
0.00719100822286
-0.000796342731104
0.0073660598426
-0.000696351069924
0.00751588536561
-0.000598452873392
0.00764118062951
-0.000503078618249
0.00774272924062
-0.000410593613377
0.00782138748333
-0.000321304955518
0.00787807186253
-0.000235467829263
0.00791374761952
-0.000153291598741
0.00792941933173
-7.49446312937e-05
0.00792612180295
-5.58675505739e-07
0.00790491246913
6.97680555464e-05
0.00786686360135
0.000135967963231
0.00781305574826
0.00019800176469
0.00774457078454
0.000255856712096
0.00766248609673
0.000309544861117
0.00756786835998
0.000359101014155
0.00746176859868
0.000404581108572
0.00734521689546
0.00044606002615
0.0072192184683
0.000483629834229
0.00708474944876
0.000517397482675
0.00694275405747
0.000547483004139
0.00679414147252
0.000574017260059
0.00663978405556
0.000597140277873
0.006480515205
0.000616999215401
0.00631712848316
0.000633746974393
0.00615037627219
0.000647540480927
0.0059809696119
0.000658539632337
0.0058095774615
0.000666905907309
0.00563682707064
0.00067280163245
0.00546330367263
0.000676388878687
0.00528955124933
0.000677829000266
0.00511607251631
0.000677281754406
0.00494332998152
0.000674905061436
0.00477174611029
0.000670854283871
0.00460170460851
0.000665282164696
0.00443355067653
0.000658338205586
0.00426759247352
0.000650168742184
0.00410410138661
0.000640916349775
0.00394331366284
0.000630720004134
0.00378543065117
0.000619714420931
0.0036306206335
0.000608030221627
0.00347901904549
0.000595793074626
0.00333073060686
0.000583123751696
0.00318582961209
0.000570136904734
0.00304436255741
0.000556940870949
0.00290634870049
0.000543635908907
0.0027717834954
0.000530313635334
0.00264063973704
0.000517054620496
0.00251287219678
0.000503927476304
0.00238841970026
0.000490985942734
0.0022672112844
0.000478267978009
0.00214916936093
0.000465792922092
0.00203421730615
0.000453561462993
0.00192228323824
0.000441554022058
0.00181330805967
0.000429732932067
0.00170724834267
0.00041804340378
0.00160408273517
0.000406418956202
0.00150381160945
0.000394785345464
0.00140645941607
0.000383068442115
0.00131206941733
0.0003711989253
0.00122070133334
0.000359118813959
0.00113242233939
0.000346782110933
0.00104730267972
0.000334154758361
0.000965407101947
0.000321206794875
0.000886792837719
0.00030790250086
0.000811505701928
0.000294182167555
0.000739583862476
0.000279940613071
0.000671062300465
0.000264995938278
0.000605989080878
0.000249052637531
0.000544459082206
0.000231652723739
0.000486681478893
0.000212151409329
0.000433333019128
0.000189934236982
0.000379457208922
0.000189589032048
0.000324082101126
0.000203484033805
0.000258655602113
0.000231119400551
0.000184600287399
0.000264150711392
0.000116855017794
0.000292312206731
5.72286445418e-05
0.000315270954946
0.000323099250854
0.000515636288881
-0.00246609790537
0.00105909806942
-0.00259921403932
0.00159696157805
-0.00257395365327
0.00212504424204
-0.00252964407152
0.0026402598038
-0.00247128956876
0.00313979100991
-0.00239996464962
0.00362109448963
-0.00231679594106
0.0040819254768
-0.00222303772187
0.00452035423716
-0.00212003252655
0.00493477285145
-0.00200916920842
0.00532389269253
-0.00189184444766
0.00568673404552
-0.00176942890754
0.00602260918874
-0.00164323901062
0.00633110079898
-0.00151451458366
0.00661203700065
-0.00138440259581
0.00686546481031
-0.00125394657488
0.00709162298778
-0.00112408142987
0.00729091573633
-0.00099563282206
0.00746388781418
-0.000869320504156
0.00761120206952
-0.000745764492641
0.00773361941605
-0.000625493348801
0.00783198176459
-0.000508953359317
0.00790719738547
-0.000396517999787
0.00796022880945
-0.000288496695185
0.0079920823958
-0.000185142658012
0.00800379953916
-8.66592707331e-05
0.00799644861323
6.79471921173e-06
0.00797111771724
9.51013937315e-05
0.00792890772424
0.000178180360372
0.00787092566403
0.000255986199973
0.00779827817181
0.000328506539656
0.0077120654236
0.00039575991463
0.00761337516287
0.000457793540345
0.00750327739585
0.000514681111275
0.00738281933019
0.000566520288817
0.0072530211161
0.000613430217451
0.00711487192445
0.000655548807711
0.00696932687046
0.000693030167005
0.00681730427063
0.000726041937377
0.00665968369384
0.000754762912909
0.0064973042634
0.000779380679091
0.00633096364606
0.000800089612749
0.00616141717686
0.000817088954085
0.00598937755494
0.000830581255127
0.00581551456462
0.000840770891464
0.00564045527403
0.000847862924621
0.00546478417021
0.00085206198815
0.00528904370948
0.000853571486836
0.00511373473292
0.000852592773076
0.0049393172618
0.000849324607657
0.00476621109448
0.000843962553791
0.00459479676823
0.000836698638785
0.00442541625616
0.000827720902698
0.00425837403322
0.000817213205008
0.00409393780611
0.000805354859387
0.0039323396416
0.000792320512247
0.00377377668705
0.000778279763172
0.00361841235508
0.00076339700393
0.00346637704385
0.000747830876168
0.00331776944365
0.000731733902727
0.00317265735644
0.000715251575199
0.00303107930505
0.000698521559874
0.0028930456963
0.000681672175343
0.00275854107893
0.000664820954799
0.00262752607218
0.000648072331439
0.00249994079107
0.000631515486574
0.00237570809738
0.000615221333239
0.00225473875262
0.000599240007269
0.00213693641823
0.000583597851792
0.0020222047055
0.000568295692275
0.00191045363051
0.000553307438749
0.00180160757382
0.000538581154336
0.00169561136195
0.00052404149452
0.00159243636308
0.00050959553323
0.00149208271249
0.000495140162944
0.00139457975456
0.000480572139921
0.00129998125139
0.000465797652456
0.00120835852397
0.000450741247646
0.00111978948105
0.000435350301381
0.00103434782379
0.000419595038811
0.000952091182697
0.000403461550221
0.000873051935781
0.000386939435367
0.000797228779206
0.000370002619222
0.000724581871246
0.00035258453275
0.000655030347475
0.000334544177612
0.000588458416968
0.000315621027073
0.00052473812961
0.000295369336414
0.000463773251167
0.000273112646967
0.000405395137476
0.000248308694628
0.000346274182841
0.000248706067853
0.00028433129686
0.000265422800155
0.000221924968815
0.000293521899357
0.000156517914179
0.00032955419675
9.76319597993e-05
0.000351193946585
4.76747874719e-05
0.000365223981482
0.000370772279171
0.000530228089627
-0.00299632359844
0.00108879001889
-0.00315777351533
0.00164126571742
-0.00312642680378
0.00218322366483
-0.00307159948416
0.00271137233376
-0.00299943567702
0.00322272210741
-0.00291131185758
0.00371459822079
-0.00280866947359
0.00418466733465
-0.00269310424414
0.00463095273805
-0.00256631532423
0.00505183778718
-0.00243005164045
0.00544605879904
-0.00228606282976
0.00581268916286
-0.00213605663251
0.00615111659031
-0.00198166379016
0.00646101551835
-0.00182441085888
0.00674231648839
-0.00166570090907
0.00699517425967
-0.00150680168996
0.00721993609695
-0.00134884061317
0.00741711156645
-0.00119280564418
0.00758734477648
-0.00103955107547
0.00773138985113
-0.000889806941401
0.00785008993765
-0.000744190824561
0.00794435987893
-0.000603220708532
0.00801517218167
-0.000467327731476
0.00806354585125
-0.000336867817757
0.00809053731312
-0.00021213159915
0.00809723282597
-9.33522913104e-05
0.00808474165383
1.92883532226e-05
0.00805418955931
0.000125655918179
0.0080067126673
0.000225659648763
0.00794345096613
0.000319250263366
0.00786554197176
0.000406417861093
0.00777411453059
0.000487189647812
0.00767028281796
0.000561627509524
0.00755514079592
0.000629825355381
0.00742975712133
0.000691906151296
0.00729517072081
0.000748018773371
0.00715238695426
0.000798334698249
0.00700237450678
0.00084304470966
0.00684606286122
0.000882355651333
0.00668434042894
0.000916487390137
0.00651805314925
0.000945669983292
0.00634800360729
0.00097014116317
0.00617495047412
0.000990144083773
0.00599960832321
0.00100592539578
0.00582264764273
0.00101773356003
0.00564469511686
0.00102581744307
0.00546633401433
0.00103042509372
0.0052881047773
0.00103180274384
0.00511050565888
0.00103019393467
0.00493399351709
0.00102583882256
0.00475898461114
0.00101897356851
0.00458585552212
0.00100982987809
0.00441494403064
0.000998634590038
0.00424655009202
0.000985609390081
0.0040809367207
0.000970970529156
0.00391833095549
0.000954928631066
0.0037589246912
0.000937688434385
0.00360287559782
0.000919448560022
0.0034503078841
0.000900401103401
0.00330131320225
0.000880731150285
0.00315595142939
0.000860615958721
0.00301425172363
0.00084022392306
0.00287621358586
0.000819713007859
0.00274180845784
0.000799228815227
0.00261098159646
0.000778901948841
0.00248365490052
0.000758844956168
0.00235973041896
0.000739148582818
0.00223909531101
0.00071987786013
0.00212162784412
0.000701068000116
0.00200720511438
0.000682721012155
0.0018957116044
0.00066480338111
0.00178704884721
0.00064724614889
0.00168114442831
0.000629947859425
0.00157795995302
0.000612781628575
0.00147749537665
0.000595605920105
0.00137978929982
0.000578278943378
0.00128491307178
0.000560674046955
0.00119295997807
0.000542693967597
0.00110402952264
0.000524279781078
0.00101821020196
0.000505412838377
0.000935561879978
0.000486107818286
0.000856100079609
0.000466398731104
0.00077978128303
0.000446318526947
0.000706489075356
0.00042587355153
0.00063601991806
0.000405009843883
0.000568072561871
0.000383564645274
0.000502260253105
0.000361177718299
0.000438205339813
0.000337163660345
0.00037651454391
0.000309995531294
0.000314445788991
0.000310770680446
0.000249163310146
0.000330701613388
0.0001878550883
0.000354826484098
0.000135699895668
0.000381705600451
8.54566393721e-05
0.000401433961498
4.16739555058e-05
0.000409003460172
0.000412444530549
0.000548238858561
-0.00354456011089
0.0011255150715
-0.00373504719344
0.00169607485429
-0.00369698410483
0.00225516122472
-0.00363068332794
0.00279922404736
-0.00354349597592
0.00332506185487
-0.00343714712053
0.00382984100365
-0.00331344606746
0.00431112428001
-0.00317438494827
0.00476688431042
-0.00302207276954
0.005195502508
-0.00285866723664
0.00559575564391
-0.0026863133529
0.0059667925841
-0.00250709094642
0.0063081037081
-0.00232297228036
0.00661948550576
-0.002135790014
0.00690100253462
-0.00194721529335
0.00715294876622
-0.00175874527427
0.00737580998591
-0.00157169918979
0.00757022874596
-0.00138722176512
0.00773697296455
-0.00120629266577
0.00787690902227
-0.00102974038144
0.00799097968623
-0.000858258888002
0.00808018685494
-0.000692425293672
0.00814557857122
-0.000532716887182
0.00818823951649
-0.000379526225027
0.00820928389552
-0.000233173468163
0.00820984973339
-9.39156465382e-05
0.00819109365855
3.8046878737e-05
0.00815418546954
0.000162566526866
0.00810030289524
0.000279544607881
0.0080306252207
0.000388930289302
0.00794632702312
0.000490718373701
0.00784857178138
0.000584947170236
0.00773850563564
0.000671695899538
0.00761725156429
0.000751081637125
0.00748590410192
0.000823255789002
0.00734552477152
0.000888400247294
0.00719713824641
0.00094672333483
0.00704172930421
0.000998455735214
0.00688024048751
0.001043846524
0.00671357045164
0.00108315945947
0.00654257285974
0.00111666958792
0.00636805577551
0.00114466024522
0.00619078141227
0.00116742043277
0.00601146620296
0.00118524258569
0.00583078107735
0.00119842066503
0.005649351941
0.00120724856533
0.00546776027194
0.00121201875995
0.00528654385285
0.00121302117974
0.0051061975711
0.00121054225793
0.00492717431509
0.00120486415299
0.00474988590189
0.00119626409351
0.00457470406667
0.00118501386983
0.00440196144295
0.00117137941805
0.00423195256505
0.00115562052536
0.00406493481404
0.00113799059139
0.0039011293447
0.00111873646873
0.00374072190907
0.00109809829382
0.00358386363264
0.00107630931688
0.00343067166165
0.00105359560812
0.00328122977437
0.00103017562491
0.00313558889728
0.00100625947317
0.00299376768395
0.00098204782326
0.0028557531572
0.000957730267719
0.00272150167553
0.000933483073485
0.00259094033062
0.000909466105345
0.00246396918403
0.0008858189417
0.00234046455577
0.000862656053853
0.00222028391707
0.000840061330925
0.00210327255141
0.000818082143677
0.00198927246629
0.000796723787768
0.00187813324971
0.000775945135215
0.00176972467071
0.000755657050912
0.00166394958276
0.000735724976109
0.00156075555678
0.000715977306904
0.0014601424965
0.000696220188826
0.00136216388354
0.000676258235775
0.00126691953747
0.000655918517984
0.00117453976172
0.000635073241611
0.0010851627609
0.00061365568905
0.000998908976255
0.00059166491027
0.000915856371055
0.000569158184449
0.000836018245446
0.00054623413132
0.00075932265536
0.000523011010699
0.000685589240872
0.000499603556665
0.000614496206342
0.000476099185544
0.000545524673521
0.000452532261021
0.000477853530438
0.000428844711764
0.000410152095061
0.000404860985166
0.000340371212455
0.000379772272453
0.0002791064903
0.000372031461328
0.000218612684935
0.000391191521737
0.000162797039759
0.000410638850915
0.000117906225301
0.000426593681621
7.54118871852e-05
0.000443924990115
3.65437480079e-05
0.000447868622689
0.000448987123788
0.000570017753685
-0.00411457552575
0.00116993365008
-0.00433496071433
0.00176233907882
-0.00428938704663
0.00234206252427
-0.00421040430357
0.00290523105799
-0.00410666200716
0.00344838480897
-0.00398029836177
0.00396850160232
-0.0038335603305
0.00446302659477
-0.00366890739595
0.00492988240967
-0.00348892602048
0.00536746144925
-0.00329624369746
0.00577460372366
-0.00309345303152
0.00615056366507
-0.00288304828042
0.00649496930727
-0.00266737530253
0.00680777683566
-0.00244859491598
0.00708922316395
-0.00222865898864
0.00733977878294
-0.00200929826032
0.00756010284646
-0.00179202062068
0.00775100212909
-0.00157811842201
0.00791339520955
-0.00136868312782
0.00804828279875
-0.00116462536591
0.00815672464887
-0.00096669814748
0.00823982284335
-0.000775520917454
0.00829871067537
-0.00059160216871
0.00833454579556
-0.000415358820213
0.00834850606917
-0.000247131242299
0.00834178660153
-8.71937094693e-05
0.0083155967278
6.42391921594e-05
0.00827115592863
0.00020700973219
0.0082096895825
0.000341013327287
0.00813242256585
0.000466199643498
0.00804057287187
0.000582570370744
0.00793534479883
0.000690177509825
0.00781792225275
0.000789120677483
0.0076894624756
0.00087954361031
0.00755109044518
0.000961629982116
0.00740389410453
0.001035598717
0.00724892050329
0.00110169903473
0.00708717285189
0.00116020545553
0.00691960843214
0.00121141298708
0.0067471372556
0.00125563265538
0.00657062134409
0.0012931875
0.00639087449597
0.00132440907787
0.00620866241948
0.00134963448409
0.00602470312951
0.00136920384455
0.00583966753549
0.00138345822955
0.00565418016324
0.00139273791434
0.00546881998185
0.00139738093296
0.00528412130783
0.00139772186517
0.00510057477969
0.00139409082634
0.00491862838179
0.00138681262465
0.00473868851384
0.00137620607735
0.00456112107794
0.00136258346693
0.00438625257329
0.00134625013628
0.00421437116014
0.00132750420563
0.00404572767517
0.00130663640172
0.00388053655539
0.00128392997073
0.00371897664864
0.00125966064212
0.00356119187291
0.0012340965907
0.00340729171039
0.00120749832679
0.00325735152185
0.00118011842413
0.00311141270117
0.00115220096142
0.00296948271059
0.00112398053571
0.00283153510208
0.00109568065478
0.00269750968243
0.00106751132216
0.0025673130969
0.00103966557045
0.0024408201803
0.00101231476995
0.00231787660704
0.000985602565442
0.00219830340364
0.000959637463986
0.00208190402778
0.000934484414972
0.00196847457681
0.0009101560433
0.00185781741566
0.000886604947543
0.00174975794533
0.000863718934981
0.00164416314173
0.000841321868266
0.00154095938428
0.000819182746775
0.00144014560993
0.000797035139171
0.00134179752132
0.000774606964352
0.00124605883864
0.000751657195167
0.00115311895882
0.000728012493519
0.00106317963503
0.000703593701016
0.000976417821623
0.000678424786861
0.00089295182833
0.000652621660824
0.000812814195112
0.000626368753778
0.000735929157604
0.000599892664921
0.000662088266737
0.00057344076641
0.000590913618509
0.000547269936634
0.000521789927864
0.000521651835161
0.000453722917387
0.000496907468601
0.000385045800808
0.00047353383339
0.000312445841733
0.000452368009083
0.000246062527255
0.00043841082739
0.000191900058539
0.000445350565826
0.000145048381361
0.00045748747361
0.000102458702277
0.000469180185897
6.64886251871e-05
0.00047989257705
3.130486423e-05
0.000483050117283
0.000480290784661
0.000595984015982
-0.00471055727345
0.00122287423826
-0.00496184846999
0.00184125803469
-0.00490776844331
0.00244544680785
-0.00481459062317
0.00303116965701
-0.00469238240455
0.00359465554706
-0.00454378177306
0.00413266280203
-0.00437156509176
0.00464250831946
-0.00417875039653
0.00512207175412
-0.00396848692052
0.00556977800934
-0.00374394739665
0.00598456285419
-0.0035082353048
0.00636582652934
-0.00326430936657
0.00671337964346
-0.00301492581707
0.00702738507109
-0.00276259773263
0.00730829884388
-0.0025095701464
0.00755681258281
-0.00225780937996
0.00777379958971
-0.0020090050114
0.00796026651817
-0.00176458273745
0.0081173121946
-0.00152572620157
0.00824609480125
-0.00129340538019
0.00834780792841
-0.00106840869935
0.00842366521984
-0.000851375650527
0.00847489235351
-0.000642826767134
0.0085027243861
-0.000443188340291
0.00850840603692
-0.000252810408869
0.00849319265523
-7.19778711339e-05
0.00845835016273
9.90841090106e-05
0.00840515262044
0.000260209667487
0.00833487884832
0.000411289457173
0.00824880578153
0.000552275034307
0.0081482015591
0.000683176880502
0.00803431794168
0.000804063379918
0.00790838282051
0.00091505801459
0.00777159327545
0.00101633533722
0.00762510947661
0.0011081159275
0.00747004964936
0.00119066065888
0.00730748617005
0.00126426459647
0.00713844279594
0.00132925088407
0.00696389290762
0.00138596490258
0.00678475862218
0.00143476894593
0.00660191057128
0.00147603753586
0.00641616817858
0.00151015344165
0.00622830025948
0.00153750436354
0.00603902583856
0.00155848022255
0.00584901508381
0.0015734709425
0.00565889032468
0.00158286464121
0.00546922711327
0.00158704612694
0.00528055533475
0.00158639565007
0.00509336034988
0.00158128784703
0.00490808418037
0.00157209086794
0.00472512671723
0.00155916565723
0.00454484694812
0.00154286540268
0.00436756417105
0.00152353513328
0.00419355917087
0.00150151148329
0.00402307531414
0.00147712259455
0.00385631952329
0.00145068815809
0.00369346307925
0.0014225195424
0.00353464220756
0.00139291997874
0.00337995840192
0.00136218470816
0.00322947845052
0.00133060101139
0.00308323415247
0.00129844795752
0.00294122173268
0.00126599571548
0.00280340104809
0.00123350416536
0.00266969471209
0.00120122054674
0.00253998745967
0.00116937576979
0.0024141261655
0.00113817906651
0.00229192118805
0.00110781057325
0.00217314996227
0.00107841174231
0.00205756383156