/*--------------------------------*- C++ -*----------------------------------*\
| =========                 |                                                 |
| \\      /  F ield         | OpenFOAM: The Open Source CFD Toolbox           |
|  \\    /   O peration     | Version:  v1906                                 |
|   \\  /    A nd           | Web:      www.OpenFOAM.com                      |
|    \\/     M anipulation  |                                                 |
\*---------------------------------------------------------------------------*/
FoamFile
{
    version     2.0;
    format      ascii;
    class       volVectorField;
    location    "163";
    object      U;
}
// * * * * * * * * * * * * * * * * * * * * * * * * * * * * * * * * * * * * * //

dimensions      [0 1 -1 0 0 0 0];


internalField   nonuniform List<vector> 
9216
(
(0.00271633968053 -0.00271982819845 0)
(0.00286401433753 -0.00877736019141 1.18435338113e-27)
(0.00285601757681 -0.0149295565089 1.84660232039e-31)
(0.00281889629788 -0.0210826358719 0)
(0.00276737349049 -0.0271333056392 0)
(0.00270286352311 -0.0330574587004 0)
(0.00262711123467 -0.0388293495615 0)
(0.00254139548687 -0.0444261497384 0)
(0.00244709263767 -0.0498277629876 0)
(0.00234539002077 -0.0550169374124 0)
(0.00223764758551 -0.0599790998428 0)
(0.00212496325855 -0.064702429467 0)
(0.00200861133019 -0.069177590381 0)
(0.0018895179808 -0.0733977263301 0)
(0.00176880782295 -0.0773581053851 0)
(0.00164718594635 -0.0810560804188 0)
(0.00152560401714 -0.0844906874892 0)
(0.00140453695276 -0.0876626192625 0)
(0.00128477623943 -0.0905738150886 0)
(0.00116658478505 -0.0932274796463 0)
(0.0010506266752 -0.0956276832424 0)
(0.000936983295404 -0.0977794391552 0)
(0.000826230590725 -0.0996883209069 0)
(0.000718299582903 -0.101360602858 0)
(0.000613715594829 -0.102802888523 0)
(0.000512286266413 -0.104022307641 0)
(0.000414515790932 -0.105026150218 0)
(0.000320105833315 -0.105822110339 0)
(0.000229563310288 -0.106417915981 0)
(0.000142495390247 -0.106821615512 0)
(5.94297528752e-05 -0.107041186143 0)
(-2.01175141288e-05 -0.107084879749 0)
(-9.56156973519e-05 -0.106960806152 0)
(-0.000167650225644 -0.106677164943 0)
(-0.000235628956791 -0.1062420022 0)
(-0.000300218149539 -0.105663498956 0)
(-0.000360794674611 -0.104949542473 0)
(-0.000418118326276 -0.104108121563 0)
(-0.000471522539991 -0.103146867492 0)
(-0.000521857836217 -0.10207347061 0)
(-0.000568407540346 -0.100895216257 0)
(-0.000612109438574 -0.099619408094 0)
(-0.000652193657461 -0.0982529071327 0)
(-0.000689679544682 -0.0968025627371 0)
(-0.000723739189673 -0.0952747635675 0)
(-0.000755466350461 -0.093675853675 0)
(-0.00078397378482 -0.0920117144999 0)
(-0.000810422395018 -0.0902881619681 0)
(-0.00083386371699 -0.0885105621751 0)
(-0.000855513855578 -0.086684196311 0)
(-0.000874366739106 -0.0848139246035 0)
(-0.000891683113323 -0.0829045108742 0)
(-0.000906402478223 -0.0809603416616 0)
(-0.00091981702396 -0.078985692186 0)
(-0.000930820372604 -0.0769845163361 0)
(-0.000940724040789 -0.0749606466941 0)
(-0.000948385329958 -0.0729176589131 0)
(-0.000955120517042 -0.0708589888675 0)
(-0.000959764655384 -0.068787887069 0)
(-0.000963627443042 -0.0667074463928 0)
(-0.000965537074249 -0.0646206419945 0)
(-0.000966782352223 -0.0625302648981 0)
(-0.000966202564768 -0.0604390540503 0)
(-0.000965055160786 -0.058349534213 0)
(-0.000962208562871 -0.0562642352813 0)
(-0.000958877051831 -0.0541854325019 0)
(-0.000953975544848 -0.0521154529263 0)
(-0.000948666432754 -0.0500563285471 0)
(-0.000941928313819 -0.0480101781679 0)
(-0.000934862002559 -0.0459787752378 0)
(-0.000926524319345 -0.0439640021613 0)
(-0.000917946615052 -0.0419673538206 0)
(-0.000908273662717 -0.0399904435744 0)
(-0.000898461089399 -0.0380344556538 0)
(-0.000887749715373 -0.0361006922026 0)
(-0.000877013334157 -0.0341899951871 0)
(-0.000865591224551 -0.0323033183327 0)
(-0.000854270896975 -0.0304411320778 0)
(-0.000842489694047 -0.028604009337 0)
(-0.000830944914915 -0.0267920317911 0)
(-0.000819165900452 -0.0250053771806 0)
(-0.000807753702075 -0.0232437411052 0)
(-0.000796319132728 -0.021506921492 0)
(-0.000785354085655 -0.019794273077 0)
(-0.000774522041509 -0.0181052954138 0)
(-0.000764164091678 -0.0164391559375 0)
(-0.000753899636449 -0.0147953295368 0)
(-0.000743730073778 -0.013173338118 0)
(-0.000732807227264 -0.0115736668099 0)
(-0.000719881473766 -0.00999849181729 0)
(-0.000701363297661 -0.00845450757887 0)
(-0.000666414634116 -0.00696654503414 0)
(-0.000590741729248 -0.00548620239591 0)
(-0.000569538758573 -0.0040817036386 0)
(-0.00084495344815 -0.00305658530168 0)
(-0.00129639449668 -0.00129531109314 0)
(0.00879403050882 -0.00289529435657 0)
(0.00972417775363 -0.0097977979341 0)
(0.00970232290665 -0.0166878832168 -1.24370392759e-27)
(0.00957342953362 -0.0235839147577 0)
(0.0093950553102 -0.0303558554095 0)
(0.00917449500249 -0.036982125705 0)
(0.00891623663356 -0.0434354247151 0)
(0.00862439579871 -0.0496906564131 0)
(0.00830339191749 -0.0557255344209 0)
(0.00795741897711 -0.0615208632538 0)
(0.00759090689668 -0.0670605118158 0)
(0.00720781744925 -0.0723314131569 0)
(0.00681224616926 -0.0773233643305 0)
(0.00640761122689 -0.0820289028338 0)
(0.00599743969521 -0.0864430110921 0)
(0.00558444190893 -0.0905629377315 0)
(0.00517149610475 -0.0943878730997 0)
(0.00476058321981 -0.0979187734472 0)
(0.00435397267163 -0.101158044419 0)
(0.00395298599604 -0.104109403292 0)
(0.00355939152163 -0.106777591122 0)
(0.00317396559317 -0.109168296695 0)
(0.00279810475138 -0.111287898018 0)
(0.00243215612889 -0.113143445848 0)
(0.00207726470764 -0.114742435651 0)
(0.00173344525573 -0.116092837745 0)
(0.00140168555762 -0.117202889709 0)
(0.00108173643393 -0.118081168023 0)
(0.000774495684373 -0.118736381911 0)
(0.000479492909121 -0.119177477648 0)
(0.000197581525081 -0.119413436743 0)
(-7.19107177501e-05 -0.119453375955 0)
(-0.00032817354683 -0.119306353291 0)
(-0.000572079589786 -0.118981609776 0)
(-0.000802798519455 -0.118488203003 0)
(-0.00102138260956 -0.117835215442 0)
(-0.00122700180831 -0.117031536221 0)
(-0.00142089203155 -0.116086017396 0)
(-0.0016022026627 -0.115007259075 0)
(-0.00177234496875 -0.113803774138 0)
(-0.00193043294447 -0.112483769842 0)
(-0.00207804009574 -0.111055321098 0)
(-0.00221423053811 -0.109526161521 0)
(-0.00234072286115 -0.107903855446 0)
(-0.00245651621907 -0.106195597739 0)
(-0.00256345497035 -0.104408390987 0)
(-0.00266046107163 -0.102548852838 0)
(-0.00274948161634 -0.100623395835 0)
(-0.00282934879937 -0.0986380538751 0)
(-0.00290208888007 -0.0965986453751 0)
(-0.00296644076442 -0.0945106292737 0)
(-0.00302448290576 -0.092379251194 0)
(-0.00307485929884 -0.0902094277734 0)
(-0.00311967749999 -0.0880058696645 0)
(-0.00315749224883 -0.0857729986032 0)
(-0.00319041671432 -0.0835150426122 0)
(-0.00321692960484 -0.0812359868198 0)
(-0.00323912789373 -0.0789396339991 0)
(-0.00325543444472 -0.0766295936416 0)
(-0.00326791385257 -0.0743093000268 0)
(-0.0032749587351 -0.0719820442614 0)
(-0.00327858563715 -0.0696509460246 0)
(-0.00327718878586 -0.0673190207971 0)
(-0.00327272645623 -0.064989111277 0)
(-0.0032636274049 -0.0626639856854 0)
(-0.00325178204904 -0.060346234786 0)
(-0.00323568814965 -0.0580383903851 0)
(-0.00321716148422 -0.055742785458 0)
(-0.00319480090251 -0.0534617126958 0)
(-0.00317034042252 -0.0511972313783 0)
(-0.00314250692408 -0.0489513665926 0)
(-0.00311294591972 -0.0467258783153 0)
(-0.00308052902887 -0.0445224829696 0)
(-0.00304680705452 -0.0423426035145 0)
(-0.00301081069702 -0.0401876043913 0)
(-0.00297398372284 -0.0380585299749 0)
(-0.00293551767256 -0.0359563512589 0)
(-0.00289674216303 -0.0338816986754 0)
(-0.00285700257073 -0.0318351130197 0)
(-0.0028175020214 -0.0298167873955 0)
(-0.00277772401967 -0.0278268164333 0)
(-0.00273872073944 -0.0258649450132 0)
(-0.00270008221655 -0.0239308359139 0)
(-0.00266267240173 -0.0220238210035 0)
(-0.00262611024648 -0.0201431803984 0)
(-0.00259095566738 -0.0182879290705 0)
(-0.00255661833843 -0.0164571037478 0)
(-0.00252290860874 -0.0146496192034 0)
(-0.00248810785917 -0.012864519483 0)
(-0.00244941114718 -0.0111008440356 0)
(-0.00239962009111 -0.00935754917498 0)
(-0.00232289544356 -0.00763378527708 0)
(-0.00217886510705 -0.00589814855717 0)
(-0.00204222001478 -0.00401097202925 0)
(-0.00257293316615 -0.00256469881909 0)
(-0.00305075992197 -0.000839419243889 0)
(0.0150545023865 -0.00294112749324 0)
(0.0166697697521 -0.00995844373855 0)
(0.0166099295951 -0.016938619997 -1.24165403814e-27)
(0.0163798837559 -0.0239351675036 0)
(0.0160694363275 -0.0308039665555 0)
(0.0156883429234 -0.0375219194684 0)
(0.0152431454904 -0.0440606949423 0)
(0.0147407409226 -0.0503946383715 0)
(0.0141885010308 -0.0565011496277 0)
(0.0135938298421 -0.0623608888021 0)
(0.012964178867 -0.0679577662293 0)
(0.0123066080842 -0.0732788757902 0)
(0.0116279273763 -0.0783143124921 0)
(0.0109342763061 -0.0830569719633 0)
(0.0102314029231 -0.0875022731064 0)
(0.00952425295691 -0.09164790864 0)
(0.00881738053299 -0.0954935416657 0)
(0.00811451877059 -0.0990405675092 0)
(0.00741910413119 -0.102291830557 0)
(0.0067337966534 -0.105251430602 0)
(0.00606110577481 -0.107924486063 0)
(0.00540282998014 -0.110316991151 0)
(0.00476077414354 -0.1124356309 0)
(0.00413608773103 -0.114287690219 0)
(0.003530072485 -0.115880909839 0)
(0.00294340308821 -0.117223436975 0)
(0.00237703248042 -0.118323713025 0)
(0.00183128354423 -0.119190447838 0)
(0.00130686528631 -0.119832526924 0)
(0.00080382621806 -0.12025901292 0)
(0.000322691467993 -0.120479044727 0)
(-0.000136724915469 -0.120501865499 0)
(-0.000574038360121 -0.120336714287 0)
(-0.000989640253725 -0.119992863529 0)
(-0.0013832808508 -0.119479516714 0)
(-0.00175555637759 -0.118805832386 0)
(-0.00210632374107 -0.117980840225 0)
(-0.00243636314296 -0.117013464838 0)
(-0.00274562363853 -0.11591243759 0)
(-0.00303505530459 -0.114686332879 0)
(-0.00330467862825 -0.113343479356 0)
(-0.00355558907021 -0.111892002122 0)
(-0.00378785188357 -0.110339740285 0)
(-0.00400268053094 -0.108694294207 0)
(-0.0042001606909 -0.106962951831 0)
(-0.00438159429123 -0.105152733151 0)
(-0.00454705545489 -0.103270334126 0)
(-0.00469790233391 -0.101322177584 0)
(-0.00483417231911 -0.0993143524572 0)
(-0.00495724754693 -0.0972526742654 0)
(-0.00506710677217 -0.0951426455454 0)
(-0.00516512704176 -0.0929895018337 0)
(-0.00525121085122 -0.0907981826005 0)
(-0.00532670446693 -0.0885733870617 0)
(-0.00539142493877 -0.0863195493477 0)
(-0.00544667043716 -0.0840408840878 0)
(-0.00549217250813 -0.0817413792615 0)
(-0.00552916772043 -0.0794248272752 0)
(-0.00555731111874 -0.0770948333274 0)
(-0.00557777452833 -0.0747548319728 0)
(-0.00559015364426 -0.0724081053621 0)
(-0.00559555895656 -0.0700577828125 0)
(-0.00559355321553 -0.0677068709327 0)
(-0.00558519514601 -0.065358234995 0)
(-0.00557004324373 -0.0630146376163 0)
(-0.00554911717028 -0.0606787017932 0)
(-0.00552200490069 -0.0583529552157 0)
(-0.00548970118823 -0.0560397785511 0)
(-0.00545185209045 -0.0537414579156 0)
(-0.00540943952762 -0.0514601141287 0)
(-0.00536219147442 -0.0491977594392 0)
(-0.00531108522376 -0.0469562274646 0)
(-0.00525594788507 -0.0447372218423 0)
(-0.00519775319568 -0.0425422314277 0)
(-0.00513643413973 -0.0403726119979 0)
(-0.00507295711249 -0.0382294715948 0)
(-0.00500735714736 -0.0361137576885 0)
(-0.00494058175759 -0.0340261591061 0)
(-0.00487275475237 -0.0319671851673 0)
(-0.00480478307301 -0.0299370654325 0)
(-0.00473685624903 -0.0279358586085 0)
(-0.00466980967451 -0.0259633264999 0)
(-0.00460385083278 -0.0240190535878 0)
(-0.00453968680877 -0.0221023495075 0)
(-0.00447745441358 -0.020212341205 0)
(-0.0044175996563 -0.0183478890562 0)
(-0.00435995950895 -0.0165076529164 0)
(-0.00430434752961 -0.0146899399752 0)
(-0.00424965269241 -0.0128925580405 0)
(-0.00419397514692 -0.0111121460818 0)
(-0.0041335486135 -0.00934307139012 0)
(-0.00406197819763 -0.00757341857585 0)
(-0.00396884218783 -0.00577043450369 0)
(-0.00388009840567 -0.00385652418513 0)
(-0.0040110508503 -0.00202396223266 0)
(-0.00405865315933 -0.000562311569808 0)
(0.0214626933368 -0.00298632071716 0)
(0.0237838039242 -0.0101083508246 0)
(0.0236953119775 -0.0171836826102 1.24107628712e-27)
(0.0233620714923 -0.0242761013161 0)
(0.0229132052581 -0.0312354235458 0)
(0.0223631770293 -0.0380370534379 0)
(0.0217214454825 -0.0446514849041 0)
(0.0209980905509 -0.0510523549921 0)
(0.0202037876215 -0.0572167159156 0)
(0.0193493758168 -0.0631251715148 0)
(0.0184456002138 -0.0687618353872 0)
(0.0175027572361 -0.0741142018298 0)
(0.0165305726033 -0.0791729269775 0)
(0.0155379525169 -0.083931565595 0)
(0.014533000938 -0.0883862631587 0)
(0.0135228613735 -0.0925354490425 0)
(0.0125138518026 -0.0963795232527 0)
(0.0115113587006 -0.0999205692309 0)
(0.0105200522746 -0.103162079354 0)
(0.00954379480874 -0.106108724658 0)
(0.00858590483556 -0.108766139314 0)
(0.00764904523363 -0.111140753591 0)
(0.0067355142476 -0.11323963871 0)
(0.005847093046 -0.115070391677 0)
(0.00498535308762 -0.116641033609 0)
(0.00415144842595 -0.117959932445 0)
(0.00334643979265 -0.119035729521 0)
(0.00257103148154 -0.119877297695 0)
(0.00182591902933 -0.120493678438 0)
(0.00111146444193 -0.120894057338 0)
(0.000428075036778 -0.121087708758 0)
(-0.000224171108473 -0.1210839784 0)
(-0.000845107136838 -0.120892230284 0)
(-0.00143490836949 -0.120521819154 0)
(-0.00199363312223 -0.119982057904 0)
(-0.00252169994597 -0.119282191403 0)
(-0.00301936607594 -0.118431347331 0)
(-0.00348726865665 -0.117438526583 0)
(-0.00392584391422 -0.116312546958 0)
(-0.00433592338181 -0.11506204579 0)
(-0.00471809292599 -0.113695427833 0)
(-0.00507334491543 -0.112220863277 0)
(-0.00540237965792 -0.110646255403 0)
(-0.00570631135938 -0.108979226397 0)
(-0.00598591261729 -0.107227103338 0)
(-0.00624237821686 -0.105396924719 0)
(-0.00647650919645 -0.103495401473 0)
(-0.00668953599638 -0.101528950794 0)
(-0.00688224918615 -0.0995036667763 0)
(-0.00705587294634 -0.0974253451275 0)
(-0.00721114828202 -0.0952994723238 0)
(-0.00734925728541 -0.0931312508841 0)
(-0.00747086162719 -0.0909255959247 0)
(-0.00757706938254 -0.0886871648048 0)
(-0.00766844194155 -0.0864203515514 0)
(-0.00774599473456 -0.0841293278303 0)
(-0.00781018243841 -0.0818180410753 0)
(-0.00786191913111 -0.0794902409547 0)
(-0.0079015535207 -0.0771494932154 0)
(-0.00792990296661 -0.0747991971232 0)
(-0.00794722764196 -0.0724426003088 0)
(-0.0079542632972 -0.0700828092177 0)
(-0.00795120834681 -0.0677228053313 0)
(-0.00793874192661 -0.0653654452875 0)
(-0.00791703188019 -0.0630134775287 0)
(-0.00788673064695 -0.0606695352417 0)
(-0.00784801738233 -0.0583361422079 0)
(-0.00780154683096 -0.0560157013296 0)
(-0.00774753844882 -0.0537105068197 0)
(-0.00768667700304 -0.0514227143036 0)
(-0.00761925222951 -0.0491543533266 0)
(-0.00754599437814 -0.0469072956759 0)
(-0.00746728235018 -0.044683263431 0)
(-0.00738390413463 -0.0424837991977 0)
(-0.00729633135691 -0.0403102650543 0)
(-0.00720540592227 -0.0381638152994 0)
(-0.00711168576605 -0.0360454075886 0)
(-0.00701605075534 -0.033955765236 0)
(-0.00691912696662 -0.0318953947274 0)
(-0.0068218048895 -0.0298645512622 0)
(-0.00672474362002 -0.027863259774 0)
(-0.00662880999572 -0.0258912853049 0)
(-0.00653464299128 -0.0239481507829 0)
(-0.0064430187675 -0.0220331261719 0)
(-0.00635447676855 -0.0201452100824 0)
(-0.0062695968919 -0.0182831326114 0)
(-0.00618867079573 -0.0164452878513 0)
(-0.0061118801483 -0.0146296128925 0)
(-0.00603906855202 -0.0128334426951 0)
(-0.00596988412749 -0.0110528866966 0)
(-0.00590421640356 -0.00928237848951 0)
(-0.00584336582947 -0.00751275781816 0)
(-0.00579407937653 -0.00572914634774 0)
(-0.00578523367313 -0.00391141884895 0)
(-0.00588049413439 -0.00214283834302 0)
(-0.00545422011594 -0.000580574101802 0)
(0.0279773008617 -0.00304565325227 0)
(0.0310060634847 -0.0103054131868 0)
(0.0308863111356 -0.0175127667686 0)
(0.0304445353404 -0.0247340384292 0)
(0.0298499707041 -0.0318141953248 0)
(0.0291222242131 -0.0387269296567 0)
(0.0282741803023 -0.0454413027679 0)
(0.0273195171828 -0.051930037834 0)
(0.026272617676 -0.0581697444802 0)
(0.0251480580566 -0.0641410049553 0)
(0.0239601759897 -0.0698282665069 0)
(0.0227226802704 -0.0752196385199 0)
(0.0214483957761 -0.0803066032989 0)
(0.0201490451787 -0.0850836753621 0)
(0.0188351697758 -0.0895480335286 0)
(0.0175160608059 -0.0936991564927 0)
(0.0161998137749 -0.097538465931 0)
(0.0148933527603 -0.101069004156 0)
(0.0136025661218 -0.104295142882 0)
(0.0123323705833 -0.10722233442 0)
(0.0110868789914 -0.109856899913 0)
(0.00986946297379 -0.112205853935 0)
(0.00868292128091 -0.114276767151 0)
(0.00752951625158 -0.116077656076 0)
(0.00641112548677 -0.117616889983 0)
(0.00532923793161 -0.118903129942 0)
(0.00428509281961 -0.11994526384 0)
(0.00327963787139 -0.120752378844 0)
(0.00231365184386 -0.121333703178 0)
(0.00138767102835 -0.12169858947 0)
(0.000502107515718 -0.121856466644 0)
(-0.00034284644226 -0.121816830227 0)
(-0.0011470962612 -0.121589180231 0)
(-0.00191076566874 -0.12118300583 0)
(-0.00263405868553 -0.120607749011 0)
(-0.00331739530975 -0.119872777114 0)
(-0.00396125479734 -0.11898733958 0)
(-0.00456633040255 -0.117960543075 0)
(-0.00513335056675 -0.116801319185 0)
(-0.00566324727935 -0.115518389187 0)
(-0.00615696141221 -0.114120254134 0)
(-0.00661562125937 -0.112615144087 0)
(-0.00704033173512 -0.111011032123 0)
(-0.00743236798597 -0.109315587202 0)
(-0.00779294016419 -0.107536180936 0)
(-0.00812341328254 -0.105679868788 0)
(-0.00842505195382 -0.103753382931 0)
(-0.00869925232861 -0.101763138069 0)
(-0.00894727484227 -0.0997152152596 0)
(-0.00917049307208 -0.0976153883661 0)
(-0.00937011273066 -0.0954691145679 0)
(-0.0095474387583 -0.0932815538176 0)
(-0.009703579742 -0.0910575765261 0)
(-0.00983973319356 -0.0888017812945 0)
(-0.00995688134884 -0.0865185140634 0)
(-0.010056087749 -0.0842118767873 0)
(-0.0101381958334 -0.0818857608351 0)
(-0.010204130821 -0.0795438544108 0)
(-0.0102545952353 -0.0771896671669 0)
(-0.0102903831093 -0.0748265463292 0)
(-0.0103120786847 -0.0724576936042 0)
(-0.0103203684269 -0.0700861776079 0)
(-0.0103157496039 -0.0677149492738 0)
(-0.0102988361314 -0.0653468459247 0)
(-0.010270077129 -0.0629846065321 0)
(-0.0102300685724 -0.0606308655346 0)
(-0.0101792642176 -0.0582881446398 0)
(-0.0101182680408 -0.0559588721518 0)
(-0.010047575687 -0.053645362776 0)
(-0.00996785174878 -0.0513498082505 0)
(-0.00987967210625 -0.0490742723787 0)
(-0.00978377808836 -0.046820672612 0)
(-0.00968084917809 -0.0445907729527 0)
(-0.00957172742815 -0.042386159771 0)
(-0.00945719895188 -0.0402082353015 0)
(-0.00933819558635 -0.0380581961951 0)
(-0.00921560161871 -0.0359370327072 0)
(-0.00909042708678 -0.0338455008976 0)
(-0.00896362918212 -0.0317841207798 0)
(-0.00883625759026 -0.0297531628057 0)
(-0.0087093032545 -0.0277526447056 0)
(-0.00858381514554 -0.0257823192441 0)
(-0.00846076223654 -0.0238416806956 0)
(-0.00834112757971 -0.0219299357793 0)
(-0.00822579093204 -0.0200460131638 0)
(-0.0081155965395 -0.018188525989 0)
(-0.00801126800327 -0.0163557445901 0)
(-0.00791346134586 -0.0145455042712 0)
(-0.0078227945099 -0.0127550591098 0)
(-0.00774012787509 -0.0109810051443 0)
(-0.00766690677412 -0.0092188055979 0)
(-0.00760659739657 -0.00746337802728 0)
(-0.0075664981396 -0.00570954660955 0)
(-0.00756084906711 -0.00395572334551 0)
(-0.00757760516093 -0.00225631754332 0)
(-0.00689503844216 -0.000646565424446 0)
(0.0346361175622 -0.00312083042934 0)
(0.0383834240936 -0.0105576896771 0)
(0.0382277968267 -0.0179364462345 0)
(0.0376694611656 -0.025323787381 0)
(0.0369188240162 -0.0325589933136 0)
(0.0360011276148 -0.0396136592132 0)
(0.0349332516161 -0.0464551080097 0)
(0.033733022164 -0.0530549604495 0)
(0.0324190550876 -0.0593893410292 0)
(0.0310101019263 -0.0654388971666 0)
(0.0295244709096 -0.0711886093494 0)
(0.0279795512112 -0.0766274846848 0)
(0.0263914715159 -0.0817481661955 0)
(0.0247748672638 -0.0865464886145 0)
(0.0231427746127 -0.0910210305545 0)
(0.0215065979609 -0.0951726686656 0)
(0.0198761684328 -0.0990041692444 0)
(0.0182598378226 -0.102519822909 0)
(0.0166646258168 -0.105725130545 0)
(0.0150963639984 -0.108626536669 0)
(0.0135598696407 -0.111231221535 0)
(0.0120590875429 -0.113546929674 0)
(0.0105972485738 -0.115581841372 0)
(0.00917697927334 -0.117344480605 0)
(0.00780042474359 -0.118843634331 0)
(0.0064693180249 -0.120088308043 0)
(0.00518507045861 -0.121087690468 0)
(0.00394879895572 -0.121851111036 0)
(0.00276138598411 -0.122388026167 0)
(0.001623479252 -0.122707986705 0)
(0.000535533696539 -0.122820608138 0)
(-0.000502205218085 -0.122735570213 0)
(-0.00148966548361 -0.122462534508 0)
(-0.00242697983816 -0.122011160423 0)
(-0.00331444399835 -0.121391056922 0)
(-0.00415254874636 -0.120611744713 0)
(-0.00494193564165 -0.119682627093 0)
(-0.00568343112267 -0.118612946879 0)
(-0.0063779925951 -0.117411774161 0)
(-0.00702674176907 -0.116087943929 0)
(-0.00763090432359 -0.114650067139 0)
(-0.00819184346773 -0.113106470988 0)
(-0.00871099071985 -0.111465203775 0)
(-0.00918988723181 -0.10973400209 0)
(-0.00963010427007 -0.107920286072 0)
(-0.0100332883315 -0.106031135803 0)
(-0.010401077665 -0.10407330325 0)
(-0.0107351536473 -0.102053198672 0)
(-0.0110371526444 -0.0999768940656 0)
(-0.0113087204245 -0.0978501336641 0)
(-0.011551424224 -0.0956783278008 0)
(-0.011766815809 -0.0934665859121 0)
(-0.0119563409633 -0.0912197154885 0)
(-0.012121411358 -0.08894224478 0)
(-0.0122633126099 -0.0866384445172 0)
(-0.012383283174 -0.0843123368526 0)
(-0.0124824285884 -0.0819677338831 0)
(-0.012561808017 -0.079608244862 0)
(-0.0126223495524 -0.0772373083131 0)
(-0.012664941637 -0.0748581977169 0)
(-0.0126903618476 -0.072474060655 0)
(-0.0126993568612 -0.070087911027 0)
(-0.0126925866616 -0.0677026595214 0)
(-0.0126707252746 -0.0653211400462 0)
(-0.0126343673045 -0.0629460431771 0)
(-0.0125841546262 -0.0605800115225 0)
(-0.0125206876314 -0.0582255813942 0)
(-0.012444624632 -0.0558852122889 0)
(-0.0123566208732 -0.0535612438251 0)
(-0.0122574184929 -0.0512559143888 0)
(-0.0121477720955 -0.048971338362 0)
(-0.012028529826 -0.0467094889078 0)
(-0.0119005753226 -0.0444721797989 0)
(-0.0117648921077 -0.0422610609015 0)
(-0.0116225027838 -0.0400775974585 0)
(-0.0114745149631 -0.0379230353701 0)
(-0.011322066707 -0.0357984069614 0)
(-0.0111663736695 -0.0337045060817 0)
(-0.0110086744358 -0.031641889989 0)
(-0.0108502495546 -0.0296108449169 0)
(-0.0106923756905 -0.0276113873831 0)
(-0.0105363543609 -0.0256432698686 0)
(-0.0103834501276 -0.0237059492282 0)
(-0.0102349160634 -0.02179859637 0)
(-0.0100919518456 -0.0199200873188 0)
(-0.00995571631266 -0.0180689775885 0)
(-0.0098273059308 -0.0162434775983 0)
(-0.00970780989417 -0.0144414456227 0)
(-0.00959837636384 -0.0126602717027 0)
(-0.0095005304378 -0.0108970737269 0)
(-0.00941615152224 -0.00914840783732 0)
(-0.00934830831163 -0.00741113513495 0)
(-0.00930187815234 -0.00568349788482 0)
(-0.00928099317974 -0.00396597214019 0)
(-0.00924251805859 -0.00229652278479 0)
(-0.00832699438263 -0.000670405727413 0)
(0.0414760834805 -0.00321396112365 0)
(0.0459577433048 -0.0108708963073 0)
(0.0457597946019 -0.018463041135 1.23146544008e-27)
(0.0450740358151 -0.0260564740724 0)
(0.0441535216804 -0.033483340221 0)
(0.0430297993238 -0.0407126032096 0)
(0.0417244619337 -0.0477094763945 0)
(0.0402602048089 -0.0544443070548 0)
(0.0386605493872 -0.0608927447119 0)
(0.0369490011506 -0.0670356756347 0)
(0.0351483110114 -0.0728589103055 0)
(0.0332798919578 -0.0783527388624 0)
(0.0313634067647 -0.0835113934167 0)
(0.0294165210978 -0.0883324823819 0)
(0.0274547967552 -0.0928164177382 0)
(0.025491700576 -0.0969658820935 0)
(0.0235387064756 -0.100785349746 0)
(0.021605454005 -0.104280675509 0)
(0.0196999472409 -0.107458748757 0)
(0.0178287683329 -0.110327225229 0)
(0.0159972927964 -0.112894312187 0)
(0.0142098880851 -0.11516861296 0)
(0.0124701003106 -0.1171590177 0)
(0.0107808025822 -0.11887462718 0)
(0.0091443301629 -0.120324699289 0)
(0.00756258311628 -0.121518629328 0)
(0.00603710404356 -0.122465927681 0)
(0.00456912964474 -0.123176205344 0)
(0.00315963474781 -0.123659164381 0)
(0.00180934729556 -0.123924582372 0)
(0.000518768724461 -0.123982290238 0)
(-0.000711826062155 -0.123842176742 0)
(-0.00188237235535 -0.123514101691 0)
(-0.00299303405231 -0.123007928833 0)
(-0.00404418419192 -0.122333462477 0)
(-0.00503641252357 -0.121500416343 0)
(-0.0059705091832 -0.120518372963 0)
(-0.00684746685538 -0.119396754112 0)
(-0.00766845945474 -0.118144784437 0)
(-0.00843483702143 -0.116771454446 0)
(-0.0091480960775 -0.115285502191 0)
(-0.00980987839694 -0.113695375706 0)
(-0.0104219345967 -0.112009220062 0)
(-0.010986117408 -0.110234843246 0)
(-0.0115043451295 -0.108379723393 0)
(-0.0119785964711 -0.106450982508 0)
(-0.0124108705935 -0.104455391052 0)
(-0.0128031823175 -0.102399350693 0)
(-0.013157524248 -0.100288917381 0)
(-0.0134758655432 -0.0981297937668 0)
(-0.0137601131057 -0.0959273426515 0)
(-0.0140121152623 -0.0936866058372 0)
(-0.0142336260538 -0.0914123055136 0)
(-0.0144263158758 -0.0891088837459 0)
(-0.0145917409984 -0.086780515303 0)
(-0.0147313547657 -0.0844311209856 0)
(-0.0148464875105 -0.0820644160612 0)
(-0.0149383676211 -0.0796839030513 0)
(-0.0150081033468 -0.0772929311017 0)
(-0.0150567054874 -0.074894688002 0)
(-0.0150850890728 -0.072492239165 0)
(-0.0150941101913 -0.0700885714934 0)
(-0.0150845331322 -0.0676864982573 0)
(-0.0150571045121 -0.0652888227914 0)
(-0.0150125226356 -0.0628982362228 0)
(-0.0149514843929 -0.0605173703598 0)
(-0.0148746975984 -0.0581487980741 0)
(-0.0147828952825 -0.0557949908621 0)
(-0.0146768460568 -0.0534583342677 0)
(-0.0145573937095 -0.0511411295808 0)
(-0.0144254330032 -0.0488455517136 0)
(-0.0142819468862 -0.0465736462826 0)
(-0.0141279954845 -0.0443273020112 0)
(-0.0139647285669 -0.0421082454245 0)
(-0.0137933727674 -0.0399179966301 0)
(-0.0136152512004 -0.037757893885 0)
(-0.0134317431499 -0.0356290208932 0)
(-0.0132443027966 -0.0335322289184 0)
(-0.0130544285601 -0.0314680978539 0)
(-0.0128636700954 -0.0294369562662 0)
(-0.012673589834 -0.0274388279144 0)
(-0.0124857677954 -0.0254734608953 0)
(-0.0123017718097 -0.02354030002 0)
(-0.0121231445406 -0.0216384801179 0)
(-0.0119513981694 -0.0197668384381 0)
(-0.0117880069962 -0.0179238892484 0)
(-0.0116344111449 -0.0161078366429 0)
(-0.0114920410408 -0.0143165554854 0)
(-0.0113623885509 -0.0125476110689 0)
(-0.0112471867685 -0.0107983840991 0)
(-0.0111484680215 -0.00906623474572 0)
(-0.0110684861672 -0.00734866408263 0)
(-0.0110099133656 -0.0056443249301 0)
(-0.010972429028 -0.00395245880474 0)
(-0.0108988976471 -0.00230279331059 0)
(-0.00978879325788 -0.000676009415832 0)
(0.0485382021103 -0.00332715682429 0)
(0.0537740908418 -0.0112516703728 0)
(0.0535254526193 -0.0191030674393 -1.23080892516e-27)
(0.0526981830789 -0.0269461450761 0)
(0.0515899713333 -0.0346041585257 0)
(0.050239613136 -0.0420427877568 0)
(0.0486743748423 -0.0492247222115 0)
(0.046922766678 -0.056118890305 0)
(0.0450140832685 -0.0627005620022 0)
(0.042977320825 -0.0689511527797 0)
(0.0408402530391 -0.0748577373936 0)
(0.038628727328 -0.0804124085907 0)
(0.0363661972848 -0.0856115550719 0)
(0.034073468402 -0.0904551167974 0)
(0.0317686247055 -0.0949458695123 0)
(0.0294671009188 -0.0990887777115 0)
(0.0271818594687 -0.102890436176 0)
(0.0249236321056 -0.106358602601 0)
(0.0227012006851 -0.109501835243 0)
(0.0205216843231 -0.112329209968 0)
(0.0183908184603 -0.114850120476 0)
(0.0163132120422 -0.117074141583 0)
(0.0142925705889 -0.119010953427 0)
(0.0123318811693 -0.120670273229 0)
(0.0104335728939 -0.122061873951 0)
(0.00859962877462 -0.12319555301 0)
(0.00683167046137 -0.124081159657 0)
(0.00513101344815 -0.124728595232 0)
(0.00349870250411 -0.125147825128 0)
(0.00193552836996 -0.125348868075 0)
(0.000442036642077 -0.125341790482 0)
(-0.000981476512671 -0.125136729795 0)
(-0.00233494964964 -0.124743761129 0)
(-0.00361858745252 -0.124172994162 0)
(-0.00483283884041 -0.123434458154 0)
(-0.00597840319555 -0.122538096261 0)
(-0.00705622311217 -0.121493709587 0)
(-0.00806747570649 -0.120310929168 0)
(-0.00901355797255 -0.118999170352 0)
(-0.00989606914754 -0.117567607081 0)
(-0.0107167917372 -0.116025135586 0)
(-0.0114776717026 -0.114380336629 0)
(-0.0121807917933 -0.112641470117 0)
(-0.0128283468267 -0.11081644093 0)
(-0.0134226160333 -0.108912794348 0)
(-0.0139659397262 -0.106937690455 0)
(-0.0144606904792 -0.10489791867 0)
(-0.0149092479246 -0.102799882826 0)
(-0.0153139707955 -0.100649608179 0)
(-0.0156771807122 -0.0984527542465 0)
(-0.0160011280844 -0.0962146095469 0)
(-0.0162879848145 -0.0939401359599 0)
(-0.0165398146627 -0.0916339547523 0)
(-0.0167585675716 -0.0893004025506 0)
(-0.0169460621369 -0.0869435228982 0)
(-0.0171039839845 -0.0845671278655 0)
(-0.0172338741582 -0.0821747917328 0)
(-0.0173371397565 -0.0797699059909 0)
(-0.017415039048 -0.0773556975981 0)
(-0.0174687209759 -0.0749352640986 0)
(-0.0174992226981 -0.0725115697229 0)
(-0.0175074825283 -0.0700874746681 0)
(-0.0174943591958 -0.0676657876 0)
(-0.0174606551198 -0.0652492494675 0)
(-0.0174071376753 -0.0628405451305 0)
(-0.0173345669842 -0.0604423105969 0)
(-0.0172437122831 -0.0580571072429 0)
(-0.0171353885583 -0.0556874807465 0)
(-0.0170104511232 -0.053335857347 0)
(-0.0168698414428 -0.0510046105666 0)
(-0.0167145823293 -0.048696007146 0)
(-0.0165457866499 -0.0464121591357 0)
(-0.0163646832035 -0.0441550710519 0)
(-0.0161726010107 -0.0419265540256 0)
(-0.0159709719941 -0.0397282305417 0)
(-0.0157613341718 -0.0375615070523 0)
(-0.0155453165612 -0.0354275566382 0)
(-0.0153246245433 -0.0333272838513 0)
(-0.0151010399624 -0.0312613449142 0)
(-0.0148763903515 -0.0292300848377 0)
(-0.0146525326772 -0.0272335526132 0)
(-0.0144313515549 -0.0252715045613 0)
(-0.0142147183344 -0.0233433660875 0)
(-0.0140044922014 -0.0214482580372 0)
(-0.0138024951706 -0.0195849768689 0)
(-0.013610511874 -0.0177520016363 0)
(-0.0134302935014 -0.0159475167523 0)
(-0.0132635442668 -0.0141693940279 0)
(-0.0131120022688 -0.0124152914468 0)
(-0.01297747672 -0.0106827065153 0)
(-0.012861882203 -0.00896919995446 0)
(-0.012767102866 -0.00727251238508 0)