/*--------------------------------*- C++ -*----------------------------------*\
| =========                 |                                                 |
| \\      /  F ield         | OpenFOAM: The Open Source CFD Toolbox           |
|  \\    /   O peration     | Version:  v1906                                 |
|   \\  /    A nd           | Web:      www.OpenFOAM.com                      |
|    \\/     M anipulation  |                                                 |
\*---------------------------------------------------------------------------*/
FoamFile
{
    version     2.0;
    format      ascii;
    class       volScalarField;
    location    "90";
    object      pa;
}
// * * * * * * * * * * * * * * * * * * * * * * * * * * * * * * * * * * * * * //

dimensions      [0 2 -2 0 0 0 0];


internalField   nonuniform List<scalar> 
9216
(
-177.806962777
-178.001030442
-178.440913343
-179.091804935
-179.957458044
-181.03450693
-182.319202212
-183.805836803
-185.488984842
-187.361504927
-189.416835566
-191.646855373
-194.044213396
-196.600186205
-199.306919423
-202.155588251
-205.138106337
-208.245635948
-211.469871456
-214.802182246
-218.2342641
-221.757668876
-225.364077363
-229.045638244
-232.793926497
-236.601376197
-240.459476693
-244.360910718
-248.296970302
-252.260680875
-256.24308449
-260.237315485
-264.234246846
-268.2274871
-272.207337083
-276.167585783
-280.098490601
-283.99401094
-287.844344971
-291.644107172
-295.383576427
-299.058039314
-302.658144553
-306.180155567
-309.615352644
-312.961239874
-316.210009246
-319.360568455
-322.40615225
-325.347202784
-328.178230313
-330.901335906
-333.512227597
-336.01449724
-338.40508617
-340.688911207
-342.863885598
-344.935948221
-346.903895835
-348.774380876
-350.546710495
-352.227992071
-353.818076932
-355.324233964
-356.746518176
-358.092039965
-359.361079028
-360.56048352
-361.690541848
-362.757851344
-363.762698056
-364.710861403
-365.602579645
-366.443478593
-367.233818516
-367.978166655
-368.676227125
-369.332080762
-369.945909898
-370.518439601
-371.036033855
-371.496553809
-371.907012655
-372.272374201
-372.592000824
-372.873638983
-373.121424428
-373.333417633
-373.500761251
-373.626693779
-373.718215818
-373.783253434
-373.828726386
-373.857560779
-373.872939031
-373.878777695
-177.612173431
-177.807225411
-178.236168998
-178.886806589
-179.754929647
-180.836121563
-182.125823438
-183.618396072
-185.307951693
-187.187567251
-189.250241615
-191.488122048
-193.893427765
-196.457680801
-199.172684665
-202.029800452
-205.020672681
-208.136613862
-211.369104026
-214.709631505
-218.149862503
-221.681323892
-225.295762348
-228.985165411
-232.74129974
-236.556356223
-240.422193121
-244.331132571
-248.274984904
-252.246169513
-256.236321119
-260.237991997
-264.242803184
-268.243337211
-272.230997955
-276.198442283
-280.137019115
-284.039473502
-287.897226553
-291.703528287
-295.449978505
-299.130304856
-302.7367221
-306.263797895
-309.704425036
-313.054214889
-316.307262672
-319.46050695
-322.509127417
-325.451494377
-328.284261347
-331.007373051
-333.618734977
-336.119712941
-338.509647746
-340.791192375
-342.964631233
-345.033598545
-346.999380464
-348.866288077
-350.636019407
-352.31339974
-353.900654248
-355.402778858
-356.822181684
-358.163826993
-359.430025503
-360.625543984
-361.75281065
-362.816598784
-363.819011733
-364.763963671
-365.65339576
-366.491342234
-367.279704565
-368.021533106
-368.717798166
-369.371173951
-369.982404919
-370.550461341
-371.06664328
-371.524462702
-371.930790501
-372.292342872
-372.610816454
-372.891628778
-373.137345504
-373.343875719
-373.510294389
-373.637260693
-373.72761791
-373.791953645
-373.837576422
-373.865091197
-373.878941644
-373.885048871
-177.168997448
-177.378812446
-177.811429474
-178.467159009
-179.342072376
-180.431877314
-181.73171994
-183.235886679
-184.938150449
-186.83154835
-188.908748385
-191.161859592
-193.582834364
-196.163219338
-198.894522976
-201.768088106
-204.775386912
-207.907721002
-211.156515396
-214.513220889
-217.969432372
-221.516766425
-225.14698759
-228.851954568
-232.623601931
-236.454021856
-240.335195403
-244.259330849
-248.218479367
-252.204918659
-256.210555732
-260.227632252
-264.248021413
-268.26389637
-272.267129381
-276.24986175
-280.203812391
-284.121201326
-287.993897902
-291.814432721
-295.574926493
-299.26837321
-302.887432793
-306.4258996
-309.877326581
-313.23636595
-316.497831661
-319.657894101
-322.712326349
-325.658624261
-328.49443521
-331.218773392
-333.830545056
-336.330278738
-338.718291697
-340.996382284
-343.165979416
-345.229900945
-347.190488521
-349.051229113
-350.814893065
-352.485431126
-354.066153173
-355.561228462
-356.973972201
-358.308531634
-359.568213354
-360.757012965
-361.878157421
-362.935541187
-363.932080827
-364.871052899
-365.755064404
-366.587697064
-367.371612323
-368.109138977
-368.801875646
-369.452401748
-370.062635649
-370.626956284
-371.132134414
-371.580283397
-371.97987614
-372.334967899
-372.650998594
-372.93056705
-373.168130272
-373.364901733
-373.529210441
-373.656008745
-373.745648603
-373.810350586
-373.853529951
-373.879080886
-373.893608445
-373.901267784
-176.508276615
-176.724183206
-177.162950765
-177.827192711
-178.713121291
-179.816436014
-181.13205621
-182.65407016
-184.375929664
-186.290438534
-188.38996833
-190.666414072
-193.111435352
-195.716381528
-198.472561628
-201.371217375
-204.403593134
-207.560917574
-210.834532285
-214.215843386
-217.696421686
-221.267882757
-224.921929426
-228.650512785
-232.445614001
-236.299292384
-240.203673456
-244.150996936
-248.13337415
-252.142977809
-256.17195591
-260.212415017
-264.256327769
-268.295727366
-272.322535524
-276.328720545
-280.305982091
-284.24627804
-288.141577335
-291.984086676
-295.765834059
-299.479361127
-303.117455284
-306.673495964
-310.141116495
-313.51458825
-316.788748684
-319.959281022
-323.022341103
-325.975034633
-328.815165494
-331.541609081
-334.153621097
-336.651577641
-339.036232622
-341.309246866
-343.472573641
-345.528904611
-347.481084032
-349.332553923
-351.086555878
-352.746839757
-354.317219399
-355.80168314
-357.203912596
-358.52791485
-359.777382914
-360.956067642
-362.067462382
-363.11523419
-364.102646545
-365.03285113
-365.908704796
-366.733376137
-367.509895628
-368.240533491
-368.927078944
-369.572488196
-370.177857273
-370.733529009
-371.229312409
-371.667790108
-372.054630697
-372.400660117
-372.712163323
-372.9857823
-373.214622693
-373.405190887
-373.560638604
-373.682535386
-373.77481296
-373.837656137
-373.87946205
-373.904985154
-373.91987698
-373.9275156
-175.620789847
-175.841919178
-176.288880764
-176.964895388
-177.866065744
-178.987955394
-180.325190201
-181.871549913
-183.620111867
-185.563338319
-187.693204678
-190.001285946
-192.478846153
-195.11699802
-197.906808302
-200.839266711
-203.905416938
-207.096357576
-210.403334212
-213.817668046
-217.330867509
-220.93461401
-224.620626967
-228.38081679
-232.207200675
-236.092015486
-240.027470438
-244.005766269
-248.019192851
-252.059947204
-256.120183446
-260.192044256
-264.267471966
-268.338422627
-272.396869065
-276.434588721
-280.443272896
-284.414665529
-288.340403015
-292.212352603
-296.022655931
-299.763596915
-303.42763388
-307.007823752
-310.497424357
-313.890448268
-317.181693828
-320.366519776
-323.441034501
-326.402293724
-329.248219823
-331.977449734
-334.589485876
-337.084908844
-339.464728295
-341.730743667
-343.885316971
-345.93122799
-347.871761676
-349.710606244
-351.451240188
-353.097595866
-354.653805813
-356.123839492
-357.511676461
-358.821454841
-360.057048173
-361.222134577
-362.320280704
-363.355244132
-364.330370944
-365.248639417
-366.113124089
-366.927193474
-367.693658227
-368.414539402
-369.091826689
-369.728754472
-370.325460267
-370.869691662
-371.352227656
-371.777993105
-372.153956165
-372.494515643
-372.799138504
-373.062064116
-373.279643047
-373.456385509
-373.605630424
-373.727097236
-373.815739598
-373.878280174
-373.919231191
-373.944335137
-373.959163041
-373.966983591
-174.501708484
-174.728477251
-175.185713848
-175.87681121
-176.797617743
-177.94340054
-179.308400894
-180.885964381
-182.668705591
-184.648604476
-186.817163822
-189.165475211
-191.684407529
-194.364696712
-197.197075688
-200.172239151
-203.281015333
-206.514297625
-209.863187423
-213.318998061
-216.873202855
-220.517385394
-224.243320733
-228.042999323
-231.908545898
-235.832296333
-239.8065928
-243.823718907
-247.875990395
-251.955732987
-256.055095653
-260.166215649
-264.281197304
-268.391915017
-272.490245139
-276.567832586
-280.616025515
-284.626379057
-288.590608038
-292.500319757
-296.347213095
-300.123062741
-303.820007951
-307.430791041
-310.948378863
-314.36644379
-317.679455653
-320.882439067
-323.971400761
-326.943388824
-329.796319133
-332.528832059
-335.140639851
-337.632586186
-340.005842633
-342.262607369
-344.405535598
-346.437861261
-348.363412532
-350.185948268
-351.909272177
-353.537676017
-355.075600424
-356.527265375
-357.896894766
-359.188752093
-360.406908875
-361.554843376
-362.636329246
-363.655149129
-364.614595021
-365.51784355
-366.368085474
-367.168572162
-367.922039137
-368.630616088
-369.296568098
-369.922981713
-370.507678868
-371.0356507
-371.501565618
-371.91089833
-372.278849604
-372.611730393
-372.903747036
-373.15394535
-373.357899074
-373.530263523
-373.676497532
-373.78784662
-373.872556157
-373.933771372
-373.971978386
-373.999806763
-374.015372226
-374.023422282
-173.145483721
-173.378898996
-173.848679609
-174.558419611
-175.503554486
-176.678932584
-178.078275722
-179.694366771
-181.519225481
-183.544228616
-185.760277676
-188.15786651
-190.727349682
-193.459031693
-196.343211803
-199.370225084
-202.530590846
-205.815067742
-209.21458897
-212.720366392
-216.323853467
-220.016595898
-223.790373797
-227.637362663
-231.549883823
-235.52035384
-239.541180708
-243.604816167
-247.703618082
-251.830003483
-255.976350817
-260.134817461
-264.297474671
-268.456094377
-272.602502877
-276.728143719
-280.824217424
-284.882286177
-288.893686875
-292.849424573
-296.740816086
-300.559408853
-304.29684096
-307.94526816
-311.497171646
-314.94580318
-318.285313583
-321.51049652
-324.617094183
-327.60194389
-330.463077962
-333.199208115
-335.810302285
-338.297342465
-340.661994714
-342.906868523
-345.035056995
-347.050438166
-348.957333399
-350.75918426
-352.460567768
-354.066772456
-355.582324579
-357.011615479
-358.359392967
-359.629787108
-360.826656393
-361.95372076
-363.015099258
-364.014401449
-364.954893666
-365.839925668
-366.672779671
-367.456553552
-368.193930545
-368.887241215
-369.538892953
-370.151500389
-370.719025053
-371.22599049
-371.673148908
-372.071181167
-372.431497051
-372.750135016
-373.027996814
-373.259773109
-373.454792177
-373.624777007
-373.763087011
-373.868061454
-373.949611602
-374.007365818
-374.045448898
-374.072916052
-374.08910705
-374.097046422
-171.545535681
-171.786849524
-172.271777753
-173.004063275
-173.978642705
-175.189813313
-176.630644963
-178.293183772
-180.168701839
-182.24782702
-184.520711385
-186.977164552
-189.606882008
-192.399603228
-195.345108433
-198.433381842
-201.654604716
-204.999268478
-208.458170277
-212.022439465
-215.68343585
-219.432754966
-223.262291406
-227.164396225
-231.13157879
-235.15632896
-239.231243784
-243.348856291
-247.501763382
-251.682593699
-255.883754113
-260.09751298
-264.315873747
-268.530610892
-272.73341058
-276.915617634
-281.068490873
-285.18319718
-289.250399879
-293.260847692
-297.205492199
-301.075222114
-304.860947408
-308.55422205
-312.147192111
-315.632585085
-319.003753536
-322.255202614
-325.382631604
-328.382594596
-331.252993235
-333.99284083
-336.602336497
-339.082793757
-341.436434552
-343.666445687
-345.77648594
-347.770841295
-349.653542493
-351.429571051
-353.105058863
-354.684962434
-356.174021331
-357.577210839
-358.898999386
-360.14382182
-361.315597818
-362.418355595
-363.456098481
-364.432261935
-365.350385088
-366.213948767
-367.026190339
-367.79008374
-368.508322006
-369.183524548
-369.818272397
-370.413214642
-370.957457997
-371.441234202
-371.871593256
-372.258222488
-372.602964019
-372.903864595
-373.164281771
-373.385534794
-373.57746217
-373.73961234
-373.86627082
-373.967960837
-374.046193192
-374.101524798
-374.140512664
-374.163694756
-374.181321085
-374.189170034
-169.693984563
-169.944725889
-170.447685666
-171.206883445
-172.216592926
-173.47039798
-174.960552761
-176.678207417
-178.61368503
-180.756700225
-183.096463079
-185.621975822
-188.322146253
-191.186041723
-194.202880214
-197.362149432
-200.65367347
-204.067679955
-207.594795194
-211.226071722
-214.952789138
-218.766632751
-222.659763135
-226.624655238
-230.653969157
-234.740414106
-238.876713519
-243.055698012
-247.270248752
-251.513094869
-255.776816761
-260.053696986
-264.335782929
-268.614936119
-272.882708513
-277.130458415
-281.349257147
-285.529579393
-289.661825453
-293.73636129
-297.743377277
-301.672949654
-305.515421764
-309.261715921
-312.903117911
-316.431533919
-319.839890405
-323.122171258
-326.273680343
-329.290812651
-332.171533001
-334.914937721
-337.521624314
-339.993469255
-342.333223375
-344.544827281
-346.631688726
-348.598875505
-350.452519651
-352.198984168
-353.844040416
-355.392845041
-356.850928395
-358.223350119
-359.514931309
-360.730122979
-361.873110111
-362.947847334
-363.958174571
-364.907856126
-365.800288913
-366.638922321
-367.427292436
-368.168111872
-368.864056162
-369.518084829
-370.132866959
-370.703957055
-371.22247996
-371.68563593
-372.097913027
-372.466587219
-372.792216972
-373.075675224
-373.323446673
-373.536245125
-373.718199893
-373.867531591
-373.986868239
-374.086020669
-374.160879825
-374.216173789
-374.252625178
-374.274404825
-374.293250271
-374.301075526
-167.581455742
-167.843338705
-168.367686919
-169.158713357
-170.209953997
-171.51406197
-173.062272985
-174.844616183
-176.850271015
-179.067809076
-181.485359208
-184.090878025
-186.872420096
-189.818207922
-192.916818501
-196.157185498
-199.528734096
-203.021400534
-206.625664416
-210.332434565
-214.133019736
-218.01926031
-221.983622594
-226.018752084
-230.117486571
-234.272736272
-238.477581667
-242.725209842
-247.008665805
-251.320966696
-255.654794066
-260.002554501
-264.356483016
-268.708430481
-273.050041259
-277.372555297
-281.66645186
-285.92199035
-290.129249668
-294.277626732
-298.35659096
-302.355669415
-306.264359759
-310.072297036
-313.769897386
-317.348477087
-320.800020627
-324.117885605
-327.296968262
-330.333509182
-333.225347135
-335.971917405
-338.574180644
-341.034559364
-343.356989579
-345.54425528
-347.601626063
-349.537118352
-351.357297137
-353.068659959
-354.677612145
-356.19023667
-357.612319248
-358.949392031
-360.206364651
-361.38792288
-362.498168338
-363.541190667
-364.520632985
-365.440218828
-366.303624698
-367.114260778
-367.875293749
-368.589753167
-369.260199548
-369.889762853
-370.480267235
-371.025072962
-371.516063563
-371.953934228
-372.34578563
-372.695903725
-373.002253922
-373.27141241
-373.506460467
-373.705586183
-373.8745901
-374.013600366
-374.128988725
-374.222301216
-374.294753689
-374.349801347
-374.387056102
-374.411387738
-374.426819683
-374.435551612
-165.196877162
-165.471937653
-166.021462775
-166.849982517
-167.950022412
-169.313118018
-170.929210172
-172.786957099
-174.874125893
-177.177904425
-179.685139104
-182.382542711
-185.257117545
-188.296202677
-191.487562163
-194.819540304
-198.28110966
-201.861920745
-205.552287989
-209.342987447
-213.225487742
-217.191958865
-221.234972909
-225.347493035
-229.522568583
-233.75353241
-238.033891228
-242.35710753
-246.716485328
-251.105356053
-255.516689992
-259.943084605
-264.376921416
-268.810258389
-273.234769347
-277.641204604
-282.019937601
-286.360981599
-290.65343542
-294.886164119
-299.047906949
-303.12705776
-307.111890572
-310.991067836
-314.753836842
-318.390324744
-321.89159672
-325.25027786
-328.460753209
-331.518868263
-334.42247168
-337.171264436
-339.766791002
-342.212498577
-344.510789259
-346.667476986
-348.690920717
-350.58909083
-352.369328182
-354.038998338
-355.605754958
-357.076483219
-358.457439954
-359.754266818
-360.97215852
-362.115974177
-363.189583171
-364.197209939
-365.142157336
-366.028703735
-366.859622604
-367.638625692
-368.369100261
-369.05412788
-369.695926568
-370.297971784
-370.860560136
-371.375453126
-371.835865824
-372.249001784
-372.619325037
-372.947099859
-373.23471725
-373.488153579
-373.705941021
-373.89203408
-374.051185882
-374.184197587
-374.294228111
-374.381731905
-374.449452209
-374.502895304
-374.546018269
-374.571170004
-374.584599382
-374.594286005
-162.527186669
-162.817733566
-163.396917005
-164.269467198
-165.426709064
-166.858737527
-168.553901363
-170.49915115
-172.680552224
-175.083590234
-177.693562567
-180.495798057
-183.476027351
-186.620536597
-189.916225613
-193.350761905
-196.912651167
-200.591261945
-204.376660931
-208.259710653
-212.232070283
-216.286206832
-220.41505377
-224.611738389
-228.869815246
-233.183129986
-237.545544206
-241.950842217
-246.392829858
-250.865309843
-255.361326094
-259.873919343
-264.395851887
-268.919208739
-273.435498357
-277.935477403
-282.409414523
-286.846447722
-291.235220758
-295.563980845
-299.820007321
-303.990570333
-308.062921967
-312.024069045
-315.861887283
-319.565082537
-323.123596053
-326.528974015
-329.774729912
-332.856674591
-335.772347965
-338.521924601
-341.10783039
-343.531843447
-345.799939138
-347.921256681
-349.903996962
-351.757151294
-353.489582509
-355.110385598
-356.628142716
-358.050737988
-359.3849623
-360.636639029
-361.811270609
-362.912997866
-363.946402986
-364.914798628
-365.822265811
-366.671831023
-367.466769802
-368.210997769
-368.907522543
-369.55956203
-370.169890412
-370.741396188
-371.272497252
-371.753035508
-372.182063299
-372.567107071
-372.913264095
-373.221362845
-373.490001983
-373.723266075
-373.926770868
-374.101791509
-374.250692283
-374.375252076
-374.478856189
-374.562190213
-374.626963212
-374.679310373
-374.72101668
-374.750784664
-374.763495017
-374.772789766
-159.556939769
-159.865791709
-160.479871637
-161.404146597
-162.628377021
-164.140872901
-165.927966188
-167.974516013
-170.264485087
-172.781367515
-175.508575596
-178.429804209
-181.529341384
-184.792277338
-188.204532934
-191.75305427
-195.425845171
-199.211981793
-203.101356909
-207.085051197
-211.15500879
-215.303970796
-219.525309282
-223.812639857
-228.160004511
-232.561805904
-237.012300172
-241.505867963
-246.03691456
-250.599466756
-255.187162428
-259.793407179
-264.411319951
-269.033149855
-273.650441735
-278.254090249
-282.833674822
-287.37804238
-291.875335858
-296.312340987
-300.675384814
-304.95053543
-309.122962302
-313.178226619
-317.102355698
-320.882326783
-324.506488478
-327.965036727
-331.250780164
-334.358571559
-337.286281275
-340.0347404
-342.604224246
-345.000460185
-347.233164482
-349.31125353
-351.244357934
-353.043285675
-354.719022202
-356.282493448
-357.743748233
-359.111484758
-360.39317167
-361.595038433
-362.721662768
-363.777593868
-364.766833174
-365.692690866
-366.55906616
-367.367774205
-368.123529783
-368.828928953
-369.487955175
-370.104507405
-370.681300647
-371.21859355
-371.710881057
-372.153099694
-372.550339941
-372.91032497
-373.234911263
-373.518583632
-373.762868272
-373.979969315
-374.169356489
-374.330780345
-374.468643725
-374.585716812
-374.68329943
-374.761547359
-374.824464989
-374.874923184
-374.913679094
-374.943707613
-374.957083611
-374.966867418
-156.268000412
-156.598439928
-157.253736821
-158.238888358
-159.541685323
-161.148149106
-163.042107999
-165.205815379
-167.620679496
-170.267793226
-173.128384431
-176.184208962
-179.417917147
-182.813235579
-186.355029048
-190.029449945
-193.82398092
-197.727439308
-201.729739765
-205.822100997
-209.996993378
-214.247548645
-218.567602105
-222.951469337
-227.393919056
-231.88974807
-236.433940255
-241.021584367
-245.64747819
-250.306231258
-254.992119307
-259.699179596
-264.420782668
-269.149525235
-273.877322552
-278.594642253
-283.291026614
-287.955051265
-292.57357549
-297.13251242
-301.617032747
-306.011024912
-310.297989266
-314.461302338
-318.484759427
-322.35310826
-326.052705082
-329.572056727
-332.902437529
-336.038331736
-338.977669852
-341.719620473
-344.266616549
-346.62949275
-348.817623792
-350.842727941
-352.715867095
-354.449782727
-356.058151097
-357.554367743
-358.950448321
-360.256179843
-361.47987033
-362.626794655
-363.701155951
-364.707246675
-365.648353916
-366.528703887
-367.349586528
-368.114329569
-368.826241139
-369.489753657
-370.109475895
-370.688898308
-371.226487649
-371.722287258
-372.173565245
-372.581191718
-372.949484116
-373.282434785
-373.577306189
-373.833309491
-374.05818504
-374.257539364
-374.429864332
-374.578513939
-374.707645662
-374.816396257
-374.906030961
-374.978653372
-375.039252112
-375.08690286
-375.12354789
-375.149809036
-375.16763824
-375.175893783
-152.639001533
-152.995122057
-153.699139482
-154.756201545
-156.151368407
-157.867785451
-159.886097955
-162.185357518
-164.743798287
-167.539714488
-170.551744534
-173.759412017
-177.1434928
-180.686219983
-184.371300929
-188.184021852
-192.111431975
-196.142035062
-200.265940053
-204.474709734
-208.761302088
-213.119591976
-217.54407329
-222.029868965
-226.57239656
-231.167258121
-235.810258727
-240.49697657
-245.222878042
-249.983490086
-254.77384633
-259.588304221
-264.420972822
-269.265124826
-274.112547741
-278.95400512
-283.779099629
-288.575433415
-293.329311835
-298.025417112
-302.647033485
-307.176401076
-311.594465329
-315.881999287
-320.019966483
-323.990311257
-327.776756727
-331.365576004
-334.746321099
-337.912416085
-340.861490844
-343.591412557
-346.109479037
-348.429248454
-350.561445239
-352.522233897
-354.322945064
-355.97874015
-357.506776503
-358.923986177
-360.245198742
-361.481484903
-362.641322007
-363.728492012
-364.746144489
-365.69832814
-366.588125806
-367.417919307
-368.18985613
-368.905035399
-369.570423673
-370.192311453
-370.770049689
-371.305472772
-371.799914838
-372.255495531
-372.668671079
-373.040928172
-373.376095642
-373.676209168
-373.941188603
-374.172600709
-374.376891287
-374.556638526
-374.712735564
-374.849930801
-374.967038481
-375.065022158
-375.146587087
-375.213203037
-375.270864006
-375.316383941
-375.350159471
-375.375067561
-375.393944012
-375.399563289
-148.64453441
-149.031264767
-149.793403676
-150.93574031
-152.440012033
-154.28548583
-156.448818957
-158.905088543
-161.628698846
-164.594497802
-167.778218882
-171.156824559
-174.708986836
-178.415283524
-182.258174237
-186.2221306
-190.293674482
-194.461237097
-198.715142037
-203.047520373
-207.452046292
-211.923412658
-216.45714789
-221.049416791
-225.696459271
-230.394731078
-235.1407516
-239.930820801
-244.761467192
-249.628883103
-254.528969947
-259.457075538
-264.407932998
-269.375297191
-274.351605618
-279.328095995
-284.29381984
-289.236235905
-294.140737522
-298.990712222
-303.767542705
-308.450893089
-313.019262776
-317.449968753
-321.720392155
-325.808920553
-329.695858999
-333.364527406
-336.802231945
-340.001372486
-342.955532459
-345.667530782
-348.146926928
-350.411483743
-352.473362675
-354.357616546
-356.071216815
-357.631770125
-359.062323119
-360.385719995
-361.620198182
-362.779389662
-363.870980609
-364.895581994
-365.852578363
-366.745667284
-367.578156915
-368.35234647
-369.069245938
-369.732660871
-370.353804183
-370.929784579
-371.46029307
-371.950639736
-372.404873399
-372.821542959
-373.194648957
-373.529464695
-373.82966833
-374.096599103
-374.331083708
-374.535608242
-374.717925886
-374.87860472
-375.01890598
-375.141206584
-375.24467424
-375.330973624
-375.403316749
-375.465087737
-375.51776748
-375.560392071
-375.592570094
-375.615488194
-375.632562462
-375.637092689
-144.254308276
-144.677913708
-145.50974907
-146.753970756
-148.38775592
-150.385409535
-152.718372402
-155.356810376
-158.270558717
-161.430365539
-164.808530009
-168.379247126
-172.118839326
-176.006129936
-180.022206552
-184.150761
-188.377858576
-192.691878033
-197.083633313
-201.546092157
-206.073817508
-210.662795641
-215.309785496
-220.012103156
-224.767144676
-229.572328093
-234.424780412
-239.321927948
-244.261074296
-249.239421206
-254.25388913
-259.300927805
-264.376206715
-269.47435812
-274.588833585
-279.710842063
-284.829836396
-289.932918532
-295.004692205
-300.027077764
-304.979415292
-309.838550369
-314.579423173
-319.175752898
-323.600174716
-327.826404705
-331.830381847
-335.59143441
-339.094154982
-342.326011775
-345.281738512
-347.971061069
-350.396198866
-352.589205189
-354.558414825
-356.350962158
-357.959870876
-359.412435257
-360.731550327
-361.943479075
-363.074157028
-364.145755238
-365.16262226
-366.122693395
-367.014742293
-367.842682797
-368.612182713
-369.325295183
-369.983460817
-370.597279241
-371.170270263
-371.697955617
-372.180996808
-372.627324827
-373.038746727
-373.408928687
-373.738620826
-374.035493017
-374.300789526
-374.535480818
-374.741275222
-374.923218009
-375.082827594
-375.2225014
-375.345409775
-375.451453972
-375.539876908
-375.613603238
-375.678681384
-375.73456353
-375.780388167
-375.818107853
-375.848724501
-375.869945177
-375.884359971
-375.889119698
-139.431847414
-139.900315512
-140.816611591
-142.183519361
-143.972090258
-146.15009878
-148.682267845
-151.532572255
-154.66539879
-158.046764086
-161.645012243
-165.431251972
-169.379408543
-173.466354173
-177.671904089
-181.978845457
-186.372895596
-190.842585569
-195.379330486
-199.977225625
-204.632238411
-209.342013
-214.104982874
-218.91994034
-223.785546088
-228.700169295
-233.661912774
-238.668761975
-243.719215539
-248.811554243
-253.943997306
-259.114300587
-264.319399137
-269.555413838
-274.816399776
-280.094583254
-285.379754812
-290.658949173
-295.916026464
-301.131488929
-306.282329586
-311.342216846
-316.282308012
-321.070934884
-325.675268086
-330.063119415
-334.204406893
-338.073524275
-341.649847405
-344.915590227
-347.869677219
-350.529180036
-352.872908846
-354.969124498
-356.822177669
-358.577804131
-360.101833236
-361.363734648
-362.480762012
-363.526692097
-364.528477675
-365.515228577
-366.458939516
-367.364328405
-368.181431558
-368.939690339
-369.645395851
-370.307760149
-370.916507488
-371.487179783
-372.012478918
-372.490879396
-372.92685004
-373.324036399
-373.685814125
-374.007478851
-374.294747182
-374.554473146
-374.785712391
-374.990748787
-375.171885098
-375.331462744
-375.468712438
-375.58680023
-375.691127171
-375.781109421
-375.853796696
-375.919664491
-375.975991876
-376.022312613
-376.060156209
-376.091770634
-376.118508561
-376.138866535
-376.151152117
-376.15657478
-134.132872365
-134.656732802
-135.676534256
-137.192653472
-139.167678149
-141.560664988
-144.327786805
-147.425167292
-150.81067966
-154.444982986
-158.292109811
-162.319792474
-166.499492091
-170.8061126
-175.218164268
-179.717615795
-184.289868195
-188.923801959
-193.611656095
-198.348952234
-203.133737415
-207.965849831
-212.846107477
-217.774998741
-222.752757547
-227.778666046
-232.851283675
-237.969650695
-243.133079804
-248.341245731
-253.593926166
-258.890601088
-264.229914572
-269.609289091
-275.024705188
-280.469307868
-285.933700306
-291.405134487
-296.867044057
-302.298490743
-307.674120702
-312.963994291
-318.134239773
-323.147431083
-327.963747674
-332.542782159
-336.847057476
-340.844085237
-344.503697515
-347.806443577
-350.74996194
-353.381395453
-355.6431499
-357.747609031
-359.419814434
-360.805834544
-361.921079313
-362.847041836
-363.776706449
-364.699832155
-365.603028974
-366.60447007
-367.572551641
-368.5122483
-369.305135316
-370.006309852
-370.67020414
-371.281948399
-371.842563696
-372.373548985
-372.859143738
-373.295873685
-373.682413115
-374.02923165
-374.340703347
-374.617415347
-374.86833132
-375.091475439
-375.287367841
-375.462877752
-375.618130736
-375.753019724
-375.868375385
-375.969194988
-376.056568812
-376.129156027
-376.189960724
-376.244306495
-376.287772795
-376.324470174
-376.355364264
-376.381463322
-376.40360475
-376.422485547
-376.433866557
-376.439624886
-128.302977858
-128.896166392
-130.044755823
-131.744530534
-133.946279716
-136.597200666
-139.642544265
-143.028799121
-146.706050276
-150.628963894
-154.757045463
-159.054636373
-163.490727442
-168.038464001
-172.674930418
-177.381307032
-182.142712279
-186.948494195
-191.792130953
-196.670870627
-201.58562621
-206.539432004
-211.536193448
-216.579108266
-221.669621068
-226.807767218
-231.992506369
-237.22298071
-242.499732347
-247.82396469
-253.1974944
-258.621923784
-264.098090554
-269.625470794
-275.2017
-280.822248804
-286.478649795
-292.158955698
-297.846561945
-303.519382875
-309.149475837
-314.703232027
-320.140854733
-325.417975091
-330.485768103
-335.293626434
-339.792854261
-343.938828893
-347.696346656
-351.040426869
-353.977545795
-356.816791457
-358.791725998
-359.945745516
-360.85822715
-361.819183231
-362.667276288
-363.462183466
-364.383536815
-365.225538663
-366.132539099
-367.252164616
-368.328112919
-369.433788019
-370.232190214
-370.927433846
-371.616431155
-372.228271795
-372.769497262
-373.277055169
-373.713772184
-374.097778819
-374.435025749
-374.736039674
-375.001584929
-375.24080808
-375.452005245
-375.634472631
-375.800754348
-375.947072054
-376.076430043
-376.188056968
-376.285047734
-376.367639074
-376.436990669
-376.493809982
-376.541228168
-376.581228795
-376.612863122
-376.64058771
-376.665642021
-376.687354734
-376.705465471
-376.72099109
-376.732288976
-376.737903645
-121.874110061
-122.555954368
-123.867491278
-125.796487477
-128.276759637
-131.239476849
-134.615670591
-138.34024731
-142.354345932
-146.606170356
-151.050699024
-155.649182748
-160.368351132
-165.179775755
-170.059398219
-174.987423967
-179.948692412
-184.932783969
-189.93467628
-194.954366551
-199.996199777
-205.068002827
-210.178201764
-215.333342186
-220.536678671
-225.787880006
-231.085011915
-236.42739355
-241.81624635
-247.254860066
-252.747704377
-258.299170252
-263.912754058
-269.590581427
-275.332874462
-281.137297046
-286.997697203
-292.90349905