/*--------------------------------*- C++ -*----------------------------------*\
| =========                 |                                                 |
| \\      /  F ield         | OpenFOAM: The Open Source CFD Toolbox           |
|  \\    /   O peration     | Version:  v1906                                 |
|   \\  /    A nd           | Web:      www.OpenFOAM.com                      |
|    \\/     M anipulation  |                                                 |
\*---------------------------------------------------------------------------*/
FoamFile
{
    version     2.0;
    format      ascii;
    class       surfaceScalarField;
    location    "431";
    object      phi;
}
// * * * * * * * * * * * * * * * * * * * * * * * * * * * * * * * * * * * * * //

dimensions      [0 3 -1 0 0 0 0];
oriented        oriented;


internalField   nonuniform List<scalar> 
18240
(
-0.000352520490361
0.000352444128749
-0.000738529395207
0.000385919800329
-0.00112418652513
0.000385578429008
-0.00150489803566
0.000380619800368
-0.0018785608332
0.00037358657504
-0.00224347118191
0.000364816200902
-0.0025980718269
0.000354526980473
-0.00294105294862
0.000342884439236
-0.00327119985355
0.000330075904911
-0.00358755820729
0.000316259093157
-0.00388924711774
0.000301620809801
-0.00417565591785
0.000286306953496
-0.00444621386579
0.000270492946638
-0.00470061971407
0.000254301450877
-0.00493856872578
0.00023788742764
-0.00516001944067
0.000221343849148
-0.00536487932506
0.000204801973038
-0.00555331271427
0.000188324197219
-0.00572538603144
0.000172019462186
-0.00588141972702
0.000155922371092
-0.00602159292583
0.000140123685475
-0.00614634095427
0.000124634824771
-0.00625591899708
0.000109533286718
-0.006350845814
9.48120315308e-05
-0.00643142543872
8.05399048187e-05
-0.00649823696345
6.66955092799e-05
-0.00655161378181
5.33425475406e-05
-0.00659217885164
4.04482108042e-05
-0.0066202809977
2.80735674385e-05
-0.00663657485974
1.61765958025e-05
-0.00664141514376
4.81778243812e-06
-0.0066354783683
-6.05398020798e-06
-0.00661911300418
-1.63816003029e-05
-0.00659300639103
-2.62232274436e-05
-0.00655749678172
-3.55192421411e-05
-0.00651327765922
-4.43345908335e-05
-0.00646067009999
-5.26104760989e-05
-0.00640036528524
-6.04185302426e-05
-0.00633266118374
-6.77000389349e-05
-0.00625823995533
-7.45325613964e-05
-0.00617737170786
-8.08571889841e-05
-0.00609072342527
-8.67565555882e-05
-0.00599853376803
-9.21714371749e-05
-0.0059014495757
-9.71887158257e-05
-0.00579967569957
-0.000101748596302
-0.00569383459062
-0.000105941159766
-0.00558409626362
-0.000109705950592
-0.00547105585197
-0.000113135277971
-0.00535484875952
-0.000116167867443
-0.00523604057862
-0.000118897146254
-0.00511473353032
-0.000121261100799
-0.00499146259953
-0.00012335332727
-0.00486629920172
-0.000125111147255
-0.00473974707209
-0.00012662732723
-0.00461184995649
-0.000127838876631
-0.00448308045809
-0.000128836961312
-0.00435345817711
-0.000129558653611
-0.00422342468765
-0.00013009276654
-0.00409297910386
-0.000130377071949
-0.00396253234927
-0.000130497529508
-0.00383206647254
-0.000130393237687
-0.00370196170856
-0.000130146839256
-0.00357218603673
-0.000129699559653
-0.00344308889311
-0.000129130474368
-0.00331462652005
-0.000128383637105
-0.00318711687817
-0.000127534307293
-0.0030605061322
-0.000126530109909
-0.00293507997616
-0.000125442372627
-0.00281077544775
-0.000124222838061
-0.00268784479446
-0.000122938737178
-0.00256621634106
-0.000121546408489
-0.00244610782935
-0.000120108881402
-0.00232743886714
-0.000118587326715
-0.00221039161772
-0.000117040394016
-0.00209487680827
-0.000115434213179
-0.00198104039383
-0.000113822899072
-0.00186878405796
-0.000112177452795
-0.00175821726185
-0.000110547237938
-0.00164923272014
-0.000108907952059
-0.00154190378121
-0.000107304005325
-0.00143611462347
-0.000105715472856
-0.00133190342301
-0.000104181565234
-0.00122914679721
-0.000102686357058
-0.00112784948686
-0.000101263570779
-0.00102788227225
-9.99007241187e-05
-0.000929219284973
-9.86254842588e-05
-0.000831728907317
-9.74276512742e-05
-0.000735360837429
-9.63268904925e-05
-0.000639991067853
-9.53107154203e-05
-0.000545566590165
-9.43803831306e-05
-0.000452018267104
-9.34939298478e-05
-0.000359408098512
-9.25648218376e-05
-0.000268029327333
-9.13314669843e-05
-0.000179088286401
-8.88977584372e-05
-9.70707783075e-05
-8.19655029824e-05
-9.70413697776e-05
-0.00038966255905
0.000742023676539
-0.000824714543473
0.000820881098581
-0.00125729636092
0.000818072307265
-0.00168358449572
0.000806816431281
-0.00210164375821
0.000791558543586
-0.00250970735553
0.00077278771336
-0.00290610525208
0.00075083824338
-0.00328936214055
0.000726048615316
-0.00365815744488
0.000698785315756
-0.00401139884852
0.000669407192002
-0.00434814752939
0.000638284437605
-0.00466769292676
0.000605758533306
-0.00496945383752
0.000572169827766
-0.00525306144008
0.00053781484995
-0.0055182404734
0.00050298363551
-0.00576490529793
0.000467914254356
-0.00599302424803
0.000432839572813
-0.0062027323558
0.000397937893518
-0.00639418078441
0.000363388274459
-0.00656766845887
0.00032931590568
-0.00672347733507
0.000295855024642
-0.00686202395769
0.000263087888879
-0.00698368043348
0.000231114617833
-0.00708894600266
0.000199984960754
-0.00717825311894
0.000169774659387
-0.00725215859794
0.000140509639272
-0.00731113408855
0.000112248799
-0.00735577607406
8.50005260523e-05
-0.00738658013718
5.88119235633e-05
-0.00740416890753
3.36777912471e-05
-0.00740904920674
9.63625412606e-06
-0.00740185911948
-1.33291206881e-05
-0.00738311116579
-3.51870832388e-05
-0.00735345231307
-5.59641531635e-05
-0.00731338877166
-7.5635670477e-05
-0.00726356467677
-9.42373219927e-05
-0.00720447296962
-0.000111750024003
-0.00713674832758
-0.000128217895158
-0.00706086388549
-0.00014362695398
-0.00697743795045
-0.000158028832895
-0.00688691797914
-0.000171413891009
-0.00678989984174
-0.000183840157245
-0.00668680059266
-0.000195301391555
-0.00657818873293
-0.000205860697247
-0.00646444746771
-0.000215514221925
-0.00634611420836
-0.000224328730925
-0.00622353626281
-0.000232301697225
-0.00609721752889
-0.000239502083253
-0.00596746869958
-0.000245927713707
-0.00583475891333
-0.000251648362313
-0.00569936279419
-0.000256661350848
-0.00556171457649
-0.000261035999002
-0.00542205437854
-0.000264768509775
-0.0052807822001
-0.000267926713077
-0.00513810601161
-0.000270505322832
-0.00499439286874
-0.000272569893772
-0.00484982138256
-0.000274113601311
-0.00470472719542
-0.000275199249383
-0.00455926248621
-0.000275818703113
-0.00441373304316
-0.000276031820929
-0.00426826731967
-0.00027582966608
-0.0041231424954
-0.00027526922134
-0.00397846556738
-0.000274341428488
-0.0038344859461
-0.000273100641272
-0.00369129079942
-0.000271538468845
-0.00354910203144
-0.000269706984157
-0.00340798794433
-0.000267599223783
-0.00326814273084
-0.000265265325172
-0.00312961614607
-0.000262700411478
-0.0029925740274
-0.000259952952756
-0.00285704742778
-0.000257020616481
-0.00272317300947
-0.000253950333159
-0.00259096267042
-0.000250742546676
-0.00246052303669
-0.000247442607537
-0.00233184635217
-0.000244053713263
-0.00220500859393
-0.000240619424262
-0.00207998200877
-0.00023714544654
-0.00195681167671
-0.000233673187342
-0.00183544987148
-0.000230210420617
-0.00171591110493
-0.00022679592215
-0.00159812820361
-0.000223438951771
-0.00148208604822
-0.000220175077674
-0.00136769916122
-0.000217014341037
-0.00125492445745
-0.000213988415319
-0.00114365999588
-0.000211107225345
-0.00103383716532
-0.000208397527986
-0.000925340244468
-0.000205867594996
-0.000818078399773
-0.000203537023377
-0.000711924720362
-0.000201408408246
-0.000606765627884
-0.000199487318954
-0.000502447842325
-0.000197758413111
-0.000398768461506
-0.00019619387722
-0.000295314862629
-0.000194734838736
-0.000190876800094
-0.000193288060697
-8.17435915641e-05
-0.000191052982713
-0.000178762358756
-0.000396622390606
0.00113856222305
-0.000837315712605
0.00126148461032
-0.00127615494525
0.00125682198579
-0.00170862637317
0.00123919748142
-0.00213259869947
0.00121544149097
-0.00254620863227
0.00118630713763
-0.00294775012635
0.00115229053213
-0.00333571086047
0.00111391869636
-0.00370876752891
0.0010717529621
-0.00406581203875
0.00102636095654
-0.00440592592313
0.000978309587596
-0.00472839792843
0.000928139802885
-0.00503268396864
0.000876367542452
-0.00531842235783
0.00082346266275
-0.0055853845599
0.000769858122252
-0.00583349299946
0.00071593247092
-0.00606276646869
0.000662026146394
-0.00627334397423
0.000608425774513
-0.00646542719917
0.000555385718287
-0.00663931227111
0.000503112233857
-0.00679533018167
0.000451788554088
-0.00693388707344
0.000401557241842
-0.00705540258988
0.000352547518659
-0.00716035841531
0.000304854798388
-0.00724923387447
0.000258569602478
-0.00732256204889
0.000213753753784
-0.00738086188533
0.000170470627622
-0.00742470109094
0.000128757984427
-0.00745462399079
8.86596829072e-05
-0.00747122052219
5.01952983785e-05
-0.00747504954545
1.33934391706e-05
-0.00746671345315
-2.17411016998e-05
-0.00744677656533
-5.51921286709e-05
-0.00741584490032
-8.69681314461e-05
-0.00737447980288
-0.000117064795747
-0.00732328262742
-0.000145502811608
-0.00726280383223
-0.000172288345772
-0.00719363241581
-0.000197453184878
-0.00711630087776
-0.000221013071973
-0.00703137902178
-0.000243009695599
-0.00693937515063
-0.00026346703669
-0.00684083390865
-0.000282435102135
-0.0067362343096
-0.000299944533719
-0.00662609114982
-0.00031605184861
-0.00651085033995
-0.000330792520563
-0.00639099337382
-0.00034422757281
-0.00626693066057
-0.000356395471397
-0.00613910838337
-0.000367359767941
-0.0060079003903
-0.000377160092182
-0.0058737167455
-0.000385860621143
-0.00573689496017
-0.00039350057482
-0.00559780939971
-0.000400143136949
-0.00545676248401
-0.000405825798509
-0.00531409411375
-0.000410609439397
-0.00517007367425
-0.000414528959896
-0.00502500853782
-0.000417642093272
-0.00487913753561
-0.000419980690612
-0.004732737644
-0.000421598925734
-0.0045860197634
-0.00042252566145
-0.00443923264867
-0.000422811589948
-0.00429256164958
-0.000422483015207
-0.0041462290627
-0.000421587577022
-0.00400039662439
-0.000420149814701
-0.00385526148036
-0.000418215041198
-0.00371096302532
-0.000415806953113
-0.003567673857
-0.000412969347502
-0.00342551164473
-0.000409726054437
-0.00328462449734
-0.000406120150977
-0.00314510833279
-0.000402176400143
-0.00300708627473
-0.000397937756339
-0.00287063203221
-0.000393430495899
-0.00273584300856
-0.000388697800617
-0.00260276998695
-0.000383767685732
-0.00247148379728
-0.000378683579271
-0.00234201160457
-0.000373475147504
-0.00221439702697
-0.000368185788275
-0.0020886431323
-0.000362846390004
-0.00196476601943
-0.000357499759502
-0.00184274462008
-0.000352177340567
-0.00172256777028
-0.000346920589275
-0.00160419076731
-0.000341760630917
-0.00148757602684
-0.000336736656288
-0.00137265633924
-0.000331878478948
-0.0012593691861
-0.000327221993707
-0.00114762652253
-0.000322794548989
-0.0010373428252
-0.000318627498925
-0.000928411112071
-0.000314744241584
-0.000820724375918
-0.000311169812437
-0.000714156606534
-0.000307921475598
-0.000608574861963
-0.000305015574287
-0.000503818167249
-0.000302461810909
-0.000399687712718
-0.000300273315975
-0.000295898797922
-0.000298474642708
-0.000192045547231
-0.000297091941069
-8.81675989834e-05
-0.000294883180656
-0.000266907625516
-0.000402822860968
0.00154130107874
-0.000849628313894
0.00170820025923
-0.00129456488965
0.0017016686867
-0.00173288981612
0.00167743227231
-0.00216233827619
0.00164480008279
-0.00258095361551
0.00160483233336
-0.00298697556325
0.00155822261883
-0.00337885590267
0.00150570884082
-0.00375526282595
0.00144807005728
-0.0041150890479
0.00138609697783
-0.00445743984932
0.00132057066598
-0.0047816293725
0.00125223922243
-0.00508715734784
0.00118180604368
-0.00537369979988
0.00110991526191
-0.00564108039656
0.00103714966261
-0.00588926099416
0.000964023667201
-0.00611831208085
0.000890988837474
-0.00632840674366
0.000818431738498
-0.00651979269445
0.000746684194099
-0.00669279133652
0.000676023169786
-0.00684777220726
0.000606683197866
-0.00698515740178
0.000538856051426
-0.00710539811766
0.000472703582195
-0.00720898383515
0.000408355804826
-0.00729642012823
0.000345923201014
-0.00736824167665
0.000285492642819
-0.00742499035361
0.000227138934027
-0.00746723114222
0.000170918554401
-0.00749552970232
0.000116880610877
-0.00751047050606
6.50587332198e-05
-0.00751263339993
1.54818312402e-05
-0.00750261332394
-3.18352814481e-05
-0.00748099550134
-7.68808780013e-05
-0.00744837687996
-0.000119657156496
-0.00740534006745
-0.000160168557059
-0.00735247612737
-0.000198433033288
-0.00729035714265
-0.000234469859839
-0.00721956052583
-0.000268311530631
-0.00714064049954
-0.000299990807055
-0.00705415382854
-0.000329553119659
-0.00696063040545
-0.000357042910735
-0.00686060037194
-0.00038251648873
-0.006754563987
-0.000406027724738
-0.00664302003594
-0.000427641348376
-0.0065264351795
-0.000447418129829
-0.00640527352737
-0.00046542857969
-0.0062799656359
-0.000481737721191
-0.0061509390458
-0.000496419170013
-0.00601858711083
-0.000509539653653
-0.00588330028345
-0.000521173408985
-0.00574543493577
-0.000531386571697
-0.00560534510666
-0.000540251836442
-0.00546335148657
-0.000547832882791
-0.00531977333493
-0.000554199204811
-0.00517489778515
-0.000559410701169
-0.00502901158672
-0.000563532584104
-0.00488237089179
-0.000566620288803
-0.00473523249443
-0.000568734330428
-0.00458782425541
-0.000569925640435
-0.00444037548937
-0.000570250237518
-0.00429308819258
-0.000569755106502
-0.00414616628207
-0.000568492514826
-0.0039997878015
-0.000566506500399
-0.00385413273413
-0.00056384667179
-0.00370935636906
-0.000560555375401
-0.003565615491
-0.000556680808126
-0.00342304310108
-0.000552264899556
-0.00328177282408
-0.000547355596246
-0.00314191516737
-0.000541995504968
-0.00300358006654
-0.00053623322693
-0.00286685486152
-0.000530112789433
-0.00273182493186
-0.000523683953889
-0.00259855353204
-0.000516992473622
-0.00246710052536
-0.000510089329854
-0.00233750419854
-0.000503021840013
-0.00220979811409
-0.000495841816935
-0.00208399497203
-0.000488597554506
-0.00196010163118
-0.000481340929304
-0.00183810506024
-0.000474120277461
-0.00171798557041
-0.000466986481855
-0.00159970484347
-0.000459986747081
-0.0014832174205
-0.000453169723091
-0.00136846076652
-0.000446580172076
-0.00125536502764
-0.00044026317841
-0.00114384501095
-0.000434259686682
-0.00103380816958
-0.000428609841264
-0.00092514826507
-0.000423349394938
-0.000817751292018
-0.000418512306026
-0.000711490020488
-0.000414128171455
-0.000606226570778
-0.000410224960393
-0.000501806566827
-0.000406829255242
-0.000398056879439
-0.000403971873435
-0.000294786887225
-0.000401693789577
-0.000191861811141
-0.000399968217863
-8.98294184041e-05
-0.000396868208598
-0.00035671370993
-0.000410816332017
0.00195203333401
-0.00086610439131
0.00216339874404
-0.00131929904941
0.00215477330229
-0.00176546465764
0.002123507801
-0.00220220234039
0.00208144772216
-0.00262744918235
0.00202998905089
-0.00303937286255
0.00197005622404
-0.00343638217242
0.00190262795229
-0.00381713236411
0.00182873013215
-0.00418052520019
0.00174939958271
-0.00452569745519
0.00166565284083
-0.00485200738264
0.00157845899033
-0.00515901250776
0.00148872124827
-0.0054464498653
0.00139726268676
-0.00571421021641
0.00130482044089
-0.00596231832762
0.00121204228103
-0.00619090866545
0.00111949017441
-0.00640020949096
0.00102764375725
-0.00659052255618
0.000936909116386
-0.00676221243581
0.000847625232482
-0.00691569071221
0.000760074496507
-0.00705141034995
0.000674489194366
-0.00716985367828
0.000591061454758
-0.00727153078796
0.000509948102479
-0.00735697009272
0.000431278932097
-0.0074267194902
0.000355159290854
-0.00748133829774
0.000281676448897
-0.00752140006573
0.000210900030433
-0.00754748491917
0.000142886841897
-0.00756018325579
7.76796452184e-05
-0.00756008796014
1.53110117269e-05
-0.00754779839675
-4.4198978225e-05
-0.00752391234722
-0.000100838933028
-0.0074890303472
-0.000154609563382
-0.00744374716337
-0.000205519786983
-0.0073886565905
-0.000253589860223
-0.00732434247701
-0.000298847647361
-0.00725138398877
-0.000341331690538
-0.00717034648388
-0.000381087171444
-0.00708178730485
-0.000418168958689
-0.00698624660552
-0.000452637243743
-0.0068842537303
-0.000484560586766
-0.00677631812939
-0.000514011300952
-0.00666293633774
-0.000541068512798
-0.00654458303584
-0.000565813361767
-0.00642171861159
-0.000588332132881
-0.00629478045122
-0.000608711376172
-0.00616419101856
-0.000627041128238
-0.00603034938469
-0.000643410025478
-0.00589363974087
-0.000657908659792
-0.00575442321169
-0.000670624786291
-0.00561304667453
-0.000681646812161
-0.00546983482818
-0.000691059166055
-0.00532509918398
-0.00069894594658
-0.0051791303993
-0.000705386538915
-0.00503220726919
-0.00071045939834
-0.00488458926857
-0.000714237954348
-0.00473652538335
-0.000716794522335
-0.00458824685273
-0.00071819653459
-0.00443997566826
-0.000718510512327
-0.00429191746304
-0.000717798608282
-0.00414426955124
-0.000716122583065
-0.00399721397907
-0.000713540636152
-0.00385092499728
-0.000710111281465
-0.0037055622678
-0.00070589040315
-0.00356127772831
-0.000700934953478
-0.00341820902146
-0.000695300181392
-0.00327648573729
-0.000689043056598
-0.00313622311309
-0.000682219609915
-0.00299752769546
-0.000674888036135
-0.00286049141137
-0.000667106116676
-0.00272519669728
-0.000658933955025
-0.00259171100881
-0.000650431461091
-0.00246009149125
-0.000641660721422
-0.00233038002061
-0.000632683556058
-0.00220260747133
-0.000623563526578
-0.00207678933786
-0.000614363584362
-0.00195292965841
-0.000605147752799
-0.00183101727357
-0.000595978904775
-0.00171102943069
-0.000586920147732
-0.00159292868866
-0.000578032768511
-0.00147666621453
-0.000569377365723
-0.00136217932719
-0.00056101200376
-0.00124939445268
-0.000552993123758
-0.0011382252285
-0.00054537394688
-0.00102857506487
-0.000538205220733
-0.00092033569965
-0.000531533946889
-0.00081338916427
-0.000525404096946
-0.000707606762616
-0.000519856030394
-0.000602850187082
-0.000514927604896
-0.000498970885256
-0.000510655153828
-0.000395814259592
-0.000507077232852
-0.000293229043577
-0.000504229978861
-0.000191126093389
-0.000502021083926
-9.00238010203e-05
-0.000497921757285
-0.00044671498118
-0.000420979932252
0.00237292916659
-0.000887286569631
0.00262961559875
-0.00135115223787
0.0026185489237
-0.00180740060438
0.00257966602575
-0.00225346971032
0.00252742669357
-0.00268716858429
0.00246359773696
-0.00310657642191
0.00238937382256
-0.00351005243338
0.00230601366425
-0.00389623968096
0.00221482703327
-0.00426405899068
0.00211712851159
-0.00461269301894
0.0020141964816
-0.0049415645834
0.00190724019181
-0.00525030988542
0.00179737625632
-0.00553875090977
0.00168561352282
-0.00580686669554
0.00157284620692
-0.0060547672989
0.0014598530815
-0.00628266886193
0.00134730223518
-0.00649087312239
0.00123575886174
-0.00667974862267
0.0011256959109
-0.00684971677181
0.00101750517618
-0.00700123914328
0.000911509287755
-0.0071348092862
0.000807972421505
-0.00725094479563
0.000707110856599
-0.00735018329292
0.000609101338402
-0.00743307758355
0.000514088970717
-0.00750019414339
0.000422192629236
-0.00755210980748
0.000333510102335
-0.00758941140979
0.000248120849116
-0.00761269289565
0.000166088970264
-0.00762255526285
8.74640824774e-05
-0.00761960355009
1.22830102569e-05
-0.00760444645275
-5.94307235322e-05
-0.00757769319053
-0.000127664967496
-0.00753995303424
-0.00019242064482
-0.00749183166192
-0.000253709991449
-0.00743393088614
-0.000311557409921
-0.00736684477488
-0.00036599821122
-0.00729115956572
-0.000417079088232
-0.00720744982114
-0.000464856562424
-0.0071162786663
-0.000509397282738
-0.00701819412306
-0.000550776184837
-0.00691372977787
-0.000589076648867
-0.00680340137966
-0.000624388428054
-0.00668770799219
-0.000656807743526
-0.00656712891578
-0.000686435075729
-0.00644212534298
-0.000713375270397
-0.00631313761307
-0.000737735269516
-0.00618058734812
-0.000759624306929
-0.00604487503664
-0.000779151665908
-0.00590638260549
-0.000796427023898
-0.00576547129287
-0.000811558300772
-0.00562248457747
-0.000824652213684
-0.00547774629308
-0.000835812289887
-0.00533156381744
-0.000845139673425
-0.00518422635005
-0.00085273135117
-0.00503600823243
-0.000858681244788
-0.00488716730631
-0.00086307869414
-0.0047379482304
-0.000866009830297
-0.00458858082567
-0.000867556319168
-0.00443928324601
-0.000867796981939
-0.00429026023958
-0.000866806778684
-0.00414170605834
-0.00086465859686
-0.00399380258809
-0.000861422413228
-0.00384672191177
-0.000857167146971
-0.00370062430662
-0.000851959929676
-0.00355566042951
-0.000845867901542
-0.00341196921813
-0.000838957509346
-0.00326967970609
-0.000831296137403
-0.00312890890059
-0.000822951376076
-0.00298976327825
-0.000813992400196
-0.00285233672979
-0.000804489169549
-0.00271671180422
-0.000794513505263
-0.00258295781379
-0.000784138216128
-0.0024511319084
-0.000773437856071
-0.00232127742536
-0.000762487788576
-0.00219342486741
-0.000751364642054
-0.00206759056025
-0.000740145344555
-0.00194377759978
-0.000728907316397
-0.00182197485855
-0.000717727514078
-0.00170215794309
-0.000706682417935
-0.00158428855767
-0.000695847128281
-0.00146831548831
-0.00068529521375
-0.00135417429901
-0.000675097900775
-0.00124178832748
-0.000665323851445
-0.00113106864629
-0.00065603849069
-0.00102191504806
-0.000647303791032
-0.000914216222683
-0.000639177820815
-0.000807850777556
-0.00063171469051
-0.000702687655767
-0.000624964424575
-0.00059858738923
-0.000618973546193
-0.000495404264269
-0.000613785730123
-0.000392988761424
-0.000609441490396
-0.000291196244998
-0.000605971301681
-0.00018993186769
-0.000603236527882
-8.96491159795e-05
-0.000598156927035
-0.000536340610911
-0.000433577694941
0.00280642270873
-0.0009136061432
0.00310955443451
-0.00139073480202
0.00309558744542
-0.00185947174805
0.00304831280504
-0.00231704785214
0.00298491257731
-0.00276111470191
0.00290757429477
-0.00318964584514
0.00281781460306
-0.00360094629897
0.00271722364475
-0.00399365266775
0.00260744286765
-0.00436672014893
0.00249010536305
-0.00471939850746
0.00236678419754
-0.00505120129386
0.00223895229147
-0.00536187068963
0.00210795502775
-0.005651341887
0.00197499413652
-0.00591970817591
0.00184112208016
-0.00616718952185
0.00170724416528
-0.00639410438416
0.00157412713112
-0.00660084653018
0.00144241133571
-0.00678786553843
0.00131262569557
-0.00695565213863
0.00118520300721
-0.0071047265007
0.00106049549558
-0.00723563041521
0.000938788815411
-0.0073489212507
0.000820314969952
-0.00744516866293
0.000705262851333
-0.00752495190764
0.000593787303922
-0.00758885889896
0.00048601573289
-0.00763748494046
0.00038205344424
-0.00767143249269
0.000281986928681
-0.00769131001711
0.000185886413128
-0.00769773150118
9.38069291565e-05
-0.00769131504885
5.78952689741e-06
-0.00767268145744
-7.81396786741e-05
-0.00764245228564
-0.000157967676277
-0.00760124847021
-0.000233696106683
-0.00754968770957
-0.000305340355712
-0.00748838282051
-0.000372929793881
-0.00741793909897
-0.000436507171463
-0.00733895271282
-0.000496128379224
-0.00725200819366
-0.00055186151009
-0.00715767706864
-0.000603786279605
-0.00705651564676
-0.000651992787386
-0.00694906401822
-0.000696580674934
-0.00683584424571
-0.000737657690311
-0.00671735979861
-0.000775338678956
-0.00659409419206
-0.000809744058622
-0.00646651087445
-0.000840998748806
-0.00633505233049
-0.000869230666139
-0.00620014040309
-0.000894569676464
-0.00606217583288
-0.000917146198932
-0.00592153896951
-0.000937090262584
-0.00577858971144
-0.000954530307598
-0.00563366853479
-0.000969592410796
-0.00548709675784
-0.000982399356343
-0.00533917779141
-0.0009930700981
-0.00519019764109
-0.00100171916859
-0.00504042625508
-0.00100845642087
-0.00489011813951
-0.00101338681016
-0.0047395136682
-0.00101661043799
-0.00458883968973
-0.00101822270725
-0.00443831066428
-0.0010183146401
-0.00428812913667
-0.00101697334707
-0.00413848659805
-0.00101428255627
-0.00398956374261
-0.00101032329663
-0.0038415309966
-0.00100517453259
-0.00369454851001
-0.000998913925538
-0.00354876635812
-0.000991618465214
-0.00340432428185
-0.000983365175737
-0.00326135161613
-0.000974231638377
-0.00311996682383
-0.000964296526014
-0.00298027724782
-0.000953639950599
-0.00284237852085
-0.000942343752973
-0.00270635425041
-0.000930491639051
-0.00257227538714
-0.000918169191487
-0.0024401999532
-0.000905463800325
-0.00231017245881
-0.000892464405025
-0.00218222376332
-0.000879261246808
-0.00205637060867
-0.000865945378855
-0.00193261567939
-0.000852608290067
-0.0018109473118
-0.000839341246658
-0.00169133978153
-0.000826234842126
-0.00157375321638
-0.000813378245371
-0.00145813410664
-0.00080085873839
-0.00134441542265
-0.000788760951713
-0.0012325173118
-0.000777166445563
-0.00112234738475
-0.000766153012176
-0.00101380158748
-0.00075579436755
-0.000906764676017
-0.00074615960325
-0.000801111257523
-0.000737313055496
-0.000696706838346
-0.000729314113647
-0.00059340917194
-0.000722217155729
-0.000491069756141
-0.000716071518463
-0.000389537940837
-0.00071092190444
-0.000288664947761
-0.000706795398147
-0.000188336062693
-0.000703515157567
-8.89607463652e-05
-0.000697483337443
-0.000625278927687
-0.000448887920783
0.00325522649083
-0.000945599503062
0.00360617623995
-0.00143881906359
0.00358871690172
-0.00192265164185
0.00353205516299
-0.00239406664737
0.00345623730044
-0.00285052337013
0.00336394064417
-0.00328987237379
0.00325707309862
-0.00371036326032
0.00313762391305
-0.00411063864939
0.00300762749236
-0.00448971115407
0.0028690870169
-0.00484692795215
0.00272391003252
-0.00518192756096
0.00257386091142
-0.00549459354574
0.00242052998326
-0.00578500854394
0.0022653181702
-0.00605341161273
0.00210943424688
-0.00630016036336
0.00195390219868
-0.00652569907878
0.00179957532521
-0.00673053276315
0.00164715482626
-0.00691520713104
0.00149721022093
-0.00708029371556
0.00135020024065
-0.007226379575
0.00120649253158
-0.00735406057689
0.0010663816625
-0.00746393761468
0.000930104568806
-0.00755661483916
0.000797853495889
-0.00763269931646
0.000669786118055
-0.00769280142394
0.000546033232284
-0.00773753553447
0.000426704068542
-0.00776752060827
0.000311889774887
-0.00778338041148
0.000201665324202
-0.00778574326268
9.60903595989e-05
-0.00777524149486
-4.79010398682e-06
-0.00775251003463
-0.000100947306594
-0.00771818444298
-0.000192367644319
-0.00767289957987
-0.000279053435596
-0.00761728705628
-0.000361023332628
-0.00755197306411
-0.000438312111941
-0.00747757596542
-0.000510970355993
-0.00739470412919
-0.000579063956389
-0.00730395363986
-0.000642673272057
-0.00720590641984
-0.000701892205888
-0.00710112825924
-0.000756826952744
-0.00699016738026
-0.000807594773828
-0.00687355289261
-0.000854322466627
-0.00675179387678
-0.000897144981829
-0.00662537830891
-0.000936203754002
-0.00649477268521
-0.000971645292447
-0.0063604214075
-0.00100361948847
-0.00622274693281
-0.00103227829489
-0.00608214958752
-0.00105777411096
-0.00593900820232
-0.00108025864508
-0.00579368029586
-0.00109988146133
-0.00564650312888
-0.0011167891171
-0.00549779417925
-0.0011311239568
-0.00534785251871
-0.00114302360789
-0.00519695946659
-0.00115262009475
-0.0050453801557
-0.00116003976237
-0.00489336423104
-0.00116540276283
-0.00474114744466
-0.00116882343253
-0.00458895225101
-0.00117041015356
-0.00443698926451
-0.00117026615199
-0.00428545762382
-0.00116848968189
-0.00413454617193
-0.00116517514259
-0.00398443350267
-0.0011604134755
-0.00383528877408
-0.0011542934476
-0.00368727141743
-0.00114690212316
-0.00354053156274
-0.00113832613637
-0.00339520945345
-0.00112865209849
-0.00325143552539
-0.00111796769911
-0.00310932962304
-0.0011063619427
-0.00296900082071
-0.00109392595922
-0.00283054656092
-0.00108075301036
-0.00269405232735
-0.0010669389463
-0.0025595908286
-0.00105258197095
-0.00242722163637
-0.00103778273333
-0.00229699052172
-0.00102264387837
-0.002168929159
-0.00100726980436
-0.00204305469512
-0.00099176605291
-0.0019193695994
-0.000976238796952
-0.00179786151547
-0.000960794136915
-0.00167850330691
-0.000945537407525
-0.001561253205
-0.00093057245386
-0.00144605506626
-0.000916000856029
-0.00133283879124
-0.000901921255735
-0.00122152078308
-0.000888428596662
-0.00111200458809
-0.000875613564471
-0.00100418155963
-0.000863561924996
-0.000897931723279
-0.000852354138245
-0.000793124772762
-0.000842064876653
-0.000689621209105
-0.000832762730304
-0.000587273746794
-0.000824510103272
-0.000485929707198
-0.000817362999265
-0.000385431503688
-0.000811368782036
-0.000285620379222
-0.000806555060712
-0.00018636839217
-0.000802718332723
-8.80534371022e-05
-0.000795750912382
-0.000713308903014
-0.000467249509476
0.00372239185743
-0.000983948927308
0.00412278606128
-0.00149639412235
0.00410107197322
-0.00199818328319
0.00403375411196
-0.00248596003018
0.00394392372971
-0.00295695177915
0.00383484193566
-0.00340886988337
0.0037089005994
-0.00383991339133
0.00356857662605
-0.00424875275141
0.00341637590952
-0.00463449252313
0.00325473566166
-0.00499661934353
0.00308594562121
-0.00533494237335
0.00291209257744
-0.00564953170909
0.0027350279286
-0.00594065989972
0.00255635492837
-0.00620874919574
0.00237743219408
-0.0064543268987
0.0021993886329
-0.00667798889107
0.00202314626862
-0.00688037176229
0.00184944687838
-0.00706213220392
0.00167888022229
-0.00722393323343
0.00151191123034
-0.00736643549958
0.00134890531144
-0.00749029308738
0.00119015035188
-0.00759615216493
0.00103587548997
-0.00768465202203
0.000886265983001
-0.00775642709977
0.000741474764109
-0.00781210977383
0.000601630468736
-0.0078523328274
0.000466842826763
-0.00787773164599
0.00033720550294
-0.00788894544913
0.000212797387909
-0.00788661786835
9.36824683107e-05
-0.00787139619493
-2.00905141e-05
-0.00784393122113
-0.000128489352776
-0.00780487472031
-0.000231499418113
-0.00775487759895
-0.000329123939392
-0.00769458753115
-0.000421384765018
-0.00762464646617
-0.000508322425115
-0.00754568801066