/*--------------------------------*- C++ -*----------------------------------*\
| =========                 |                                                 |
| \\      /  F ield         | OpenFOAM: The Open Source CFD Toolbox           |
|  \\    /   O peration     | Version:  v1906                                 |
|   \\  /    A nd           | Web:      www.OpenFOAM.com                      |
|    \\/     M anipulation  |                                                 |
\*---------------------------------------------------------------------------*/
FoamFile
{
    version     2.0;
    format      ascii;
    class       surfaceScalarField;
    location    "363";
    object      phi;
}
// * * * * * * * * * * * * * * * * * * * * * * * * * * * * * * * * * * * * * //

dimensions      [0 3 -1 0 0 0 0];
oriented        oriented;


internalField   nonuniform List<scalar> 
18240
(
-0.000352603468047
0.000352620925131
-0.000738689310936
0.000386106312565
-0.00112443581879
0.000385764463511
-0.00150522556324
0.000380810808186
-0.00187898685518
0.000373778628422
-0.00224398144996
0.000365016177048
-0.0025986939369
0.000354729181153
-0.00294176939334
0.000343097536094
-0.00327204578887
0.000330292418924
-0.00358851275953
0.000316489504996
-0.00389035323544
0.000301855775819
-0.00417688912173
0.000286558815883
-0.00444762498134
0.000270750397177
-0.00470218040239
0.00025457866677
-0.00494033771725
0.000238171034068
-0.00516196414731
0.00022164989454
-0.00536706620831
0.000205114927914
-0.00555570457265
0.000188661930147
-0.00572805682406
0.000172364218689
-0.00588432715474
0.000156293866693
-0.00602481799689
0.000140501894375
-0.00614983586541
0.000125041231006
-0.00625977131959
0.000109945568416
-0.00635500172599
9.52534479825e-05
-0.00643597836926
8.09858362208e-05
-0.00650312667053
6.71708726852e-05
-0.00655693882907
5.3820443673e-05
-0.0065978720592
4.09551900903e-05
-0.00662644511399
2.85804881201e-05
-0.00664313537017
1.67114728659e-05
-0.00664847799176
5.34925748855e-06
-0.00664296123806
-5.49639375583e-06
-0.00662712401805
-1.58312867898e-05
-0.00660145500669
-2.56496032262e-05
-0.00656649193376
-3.49577498121e-05
-0.00652272010296
-4.3753440781e-05
-0.0064706683315
-5.20469307161e-05
-0.00641081114282
-5.98398532054e-05
-0.00634366151819
-6.71451427901e-05
-0.00626967740313
-7.39678342822e-05
-0.00618935016554
-8.03229659611e-05
-0.00610311636414
-8.6218539264e-05
-0.00601144106177
-9.16711021419e-05
-0.00591473563588
-9.66911075318e-05
-0.00581343536197
-0.00010129599459
-0.00570792378058
-0.000105498095873
-0.00559860416928
-0.000109315121207
-0.00548583069203
-0.000112760680626
-0.00536997367685
-0.000115852187185
-0.00525135745315
-0.000118603946229
-0.00513031959716
-0.000121032593734
-0.00500715505214
-0.000123152600766
-0.00488216980246
-0.000124979477591
-0.00475563057399
-0.000126527427217
-0.00462781362031
-0.000127810638349
-0.00449895905182
-0.000128842729588
-0.00436931564676
-0.000129636544143
-0.00423909867293
-0.000130204940058
-0.00410853175763
-0.000130559553053
-0.00397780697104
-0.000130712437432
-0.00384712487984
-0.000130674301591
-0.00371665566771
-0.000130456475062
-0.00358657845446
-0.000130069110704
-0.00345704234048
-0.000129522971835
-0.00332820598816
-0.000128828067705
-0.00320019768558
-0.000127994797872
-0.00307315596458
-0.000127033409929
-0.00294718806603
-0.000125954130357
-0.00282241212979
-0.000124767749567
-0.00269891377705
-0.00012348447059
-0.00257679006426
-0.00012211580379
-0.00245610425156
-0.000120672001287
-0.00233693141004
-0.000119165333244
-0.00221931177685
-0.000117606096571
-0.00210329755447
-0.000116007214765
-0.00198890555078
-0.000114378943172
-0.00187616445718
-0.000112734633996
-0.001765067699
-0.000111084356056
-0.00165562022916
-0.000109441564997
-0.00154779268548
-0.00010781594744
-0.00144156661665
-0.000106220670197
-0.00133689113742
-0.000104664801041
-0.00123372542527
-0.000103160748161
-0.00113199913417
-0.000101716623537
-0.00103165112235
-0.00010034341895
-0.00093259502101
-9.90475531513e-05
-0.000834753704764
-9.78370745301e-05
-0.000738032442947
-9.67139512021e-05
-0.000642351634731
-9.56769399677e-05
-0.000547636858608
-9.47087137353e-05
-0.000453871994533
-9.37612940532e-05
-0.000361165886754
-9.27011675301e-05
-0.000270010298501
-9.11518553426e-05
-0.000182173858178
-8.78330032666e-05
-0.000100443362246
-8.17276931093e-05
-0.000100441390217
-0.000389745211842
0.000742385165928
-0.000824876790562
0.00082125871946
-0.00125754415113
0.000818451963356
-0.00168391518706
0.000807202826334
-0.00210206813985
0.000791951532196
-0.00251022300962
0.000773192111925
-0.00290672725274
0.000751253162824
-0.00329008828235
0.000726479695129
-0.00365900730051
0.000699230923346
-0.00401237043755
0.000669873792306
-0.00434926503908
0.000638769565219
-0.00466895452384
0.000606269414088
-0.00497088834289
0.00057270304274
-0.00525466698881
0.000538378317296
-0.00552005040777
0.000503572855184
-0.00576691744143
0.00046853774037
-0.00599527623605
0.000433491623494
-0.00620522133076
0.000398627549327
-0.00639694831569
0.000364108531949
-0.00657071055852
0.000330076245622
-0.00672683904636
0.000296647060651
-0.00686569965755
0.000263921485977
-0.00698771806904
0.000231979944902
-0.00709333775358
0.000200892184292
-0.00718304918058
0.000170712454649
-0.00725734835623
0.000141488414746
-0.00731676923411
0.000113255699852
-0.00736184255185
8.60461089589e-05
-0.00739313030516
5.9881778114e-05
-0.00741118461718
3.47825553641e-05
-0.00741658263507
1.07599662166e-05
-0.00740988723894
-1.2175895156e-05
-0.00739168468816
-3.40219816827e-05
-0.0073625425694
-5.47767282439e-05
-0.0073230441859
-7.44450752231e-05
-0.00727375023645
-9.30332958999e-05
-0.00721523365964
-0.000110553190775
-0.00714804207912
-0.000127018211077
-0.00707273116399
-0.000142446400876
-0.00698982898727
-0.000156857603683
-0.0068998677156
-0.000170275140213
-0.00680335033744
-0.000182724241794
-0.00670078041033
-0.000194232370919
-0.00659263148724
-0.000204828976527
-0.00647937472284
-0.000214544406432
-0.00636145120008
-0.000223411053347
-0.00623929726651
-0.000231460863728
-0.00611331983071
-0.000238727889731
-0.00598391939874
-0.000245244444626
-0.00585146826579
-0.000251045031114
-0.00571633130966
-0.000256161251023
-0.00557884686461
-0.00026062701611
-0.00543934543063
-0.000264472364664
-0.00529813288484
-0.000267729811928
-0.00515550734815
-0.000270427278322
-0.00501174428288
-0.000272595374204
-0.00486711183898
-0.000274259674807
-0.00472185730921
-0.00027544869354
-0.0045762213317
-0.000276185769913
-0.00443042514212
-0.000276497439412
-0.00428468404686
-0.000276405203444
-0.00413919492504
-0.000275933989205
-0.00399414939095
-0.000275104072898
-0.00384972106335
-0.000273939311888
-0.00370607881262
-0.000272459466295
-0.0035633734185
-0.000270687913442
-0.00342175123641
-0.000268644588774
-0.00328134000219
-0.000266352926091
-0.00314226316406
-0.000263833591029
-0.00300462474233
-0.000261110458359
-0.00286852445511
-0.000258205268085
-0.00273404169379
-0.000255142515433
-0.00260125144458
-0.000251945100407
-0.00247020757588
-0.000248638088817
-0.00234095942108
-0.000245245374314
-0.00221353469008
-0.000241792334271
-0.00208795646348
-0.000238303465464
-0.00196422612358
-0.000234804025769
-0.0018423404044
-0.000231318557036
-0.00172227479606
-0.000227871644262
-0.00160400023432
-0.000224487193415
-0.00148746746164
-0.000221188468078
-0.00137262290334
-0.000217997945912
-0.00125939448271
-0.000214936774977
-0.00114770625653
-0.000212024960274
-0.0010374661667
-0.000209280267049
-0.000928579010125
-0.000206718258587
-0.000820936337119
-0.000204350202044
-0.000714426442828
-0.000202181632908
-0.000608922648525
-0.000200207147828
-0.000504275454139
-0.000198403723399
-0.000400252837039
-0.00019671901021
-0.000296344239539
-0.00019505677172
-0.00019091598712
-0.000193257859541
-8.14622191392e-05
-0.000191178634939
-0.000181902700306
-0.000396701937152
0.00113910635835
-0.000837474026322
0.00126205143959
-0.00127639452243
0.00125739302466
-0.00170894845276
0.00123977749911
-0.00213300945572
0.00121603301771
-0.0025467109307
0.00118691431007
-0.00294835304005
0.00115291565256
-0.00333641894228
0.00111456627705
-0.00370959290053
0.00107242513217
-0.00406676104408
0.00102706252895
-0.00440701382202
0.00097904241162
-0.00472963283713
0.000928908878471
-0.00503408424914
0.000877174282509
-0.00531999778246
0.000824312085141
-0.00558715644811
0.000770751031362
-0.00583547252469
0.000716873755756
-0.00606497762499
0.000663015839258
-0.00627579899882
0.000609468475289
-0.00646815238588
0.00055648054831
-0.00664232046465
0.000504263396252
-0.0067986494865
0.00045299414226
-0.00693753044163
0.000402820937672
-0.00705939938543
0.000353866290997
-0.00716472109721
0.000306231729709
-0.00725399241675
0.000260000448487
-0.00732772779514
0.000215240883888
-0.00738646472131
0.000172008505746
-0.00743075052339
0.000130348195164
-0.00746114902398
9.02953221329e-05
-0.00747822809496
5.18770547964e-05
-0.0074825669352
1.51129819973e-05
-0.00747474415758
-1.99841269414e-05
-0.00745534515621
-5.34076786636e-05
-0.00742495059435
-8.51576347614e-05
-0.00738414353785
-0.000115239685718
-0.0073334984496
-0.000143665598727
-0.00727358804242
-0.000170451965179
-0.00720497304188
-0.000195621251651
-0.00712820862457
-0.000219199935329
-0.00704383505391
-0.000241219967063
-0.00695238366817
-0.00026171629901
-0.00685436855638
-0.000280728802294
-0.00675029206371
-0.000298299181624
-0.0066406376307
-0.000314473392696
-0.00652587479726
-0.000329297967549
-0.00640645326495
-0.000342822963433
-0.0062828073792
-0.000355097741714
-0.00615535141658
-0.000366174470359
-0.00602448354247
-0.000376103419124
-0.00589058225837
-0.000384937014139
-0.00575400983941
-0.00039272472714
-0.00561510981944
-0.00039951766006
-0.00547420993185
-0.000405363122865
-0.00533162045284
-0.000410309699141
-0.0051876366815
-0.000414401615103
-0.0050425379193
-0.000417684213033
-0.0048965895443
-0.000420198219583
-0.00475004237709
-0.000421985525156
-0.00460313441919
-0.000423083453444
-0.0044560903514
-0.000423530720987
-0.00430912302765
-0.000423361801349
-0.0041624328712
-0.000422612918023
-0.00401620922995
-0.000421316579493
-0.003870629479
-0.000419507451321
-0.00372586036027
-0.000417217126355
-0.00358205665882
-0.000414479723882
-0.00343936264977
-0.000411326944244
-0.00329791028431
-0.000407793264282
-0.00315782086364
-0.000403911320481
-0.00301920273481
-0.000399716596439
-0.00288215328375
-0.000395243170302
-0.00274675619962
-0.000390527830441
-0.00261308385112
-0.000385606221271
-0.00248119421752
-0.000380516356788
-0.00235113366287
-0.000375295189598
-0.0022229336628
-0.000369981529896
-0.00209661395304
-0.000364613055331
-0.00197217919133
-0.000359228665004
-0.00184962240603
-0.000353865931606
-0.00172892174031
-0.000348562940952
-0.0016100440989
-0.000343356170907
-0.00149294211215
-0.000338281867201
-0.00137755784185
-0.000333374305183
-0.00126382008287
-0.00032866673913
-0.00115164794263
-0.000324189955838
-0.00104094847811
-0.000319972771477
-0.000931619707092
-0.000316040696804
-0.000823547986747
-0.000312415862655
-0.000716608544178
-0.000309115579188
-0.000610658419744
-0.000306152043653
-0.000505524797015
-0.000303532742135
-0.000400972306255
-0.000301266890436
-0.000296637169906
-0.000299387354539
-0.000191930934496
-0.000297961231016
-8.70794365263e-05
-0.000296028037864
-0.000268980877731
-0.000402899216892
0.00154202491693
-0.000849780698733
0.00170895361535
-0.00129479480612
0.00170242781477
-0.0017331996291
0.00167820305375
-0.002162732644
0.0016455866767
-0.00258143704389
0.001605639393
-0.00298755514095
0.00155905433145
-0.00337953833334
0.00150657009029
-0.00375605782214
0.00144896510746
-0.00411600564044
0.00138703086581
-0.00445849046759
0.00132154758189
-0.00478282539933
0.00125326416951
-0.0050885139044
0.00118288292068
-0.00537523050867
0.00111104881817
-0.00564280289936
0.0010383432703
-0.00589119091577
0.000965281587834
-0.00612046929699
0.000892313694553
-0.00633080852321
0.000819827112243
-0.00652246074046
0.000748151774523
-0.0066957441151
0.000677565681421
-0.00685103276706
0.000608301241484
-0.00698874487774
0.000540551363538
-0.00710933633424
0.000474475544715
-0.00721329200557
0.000410205032465
-0.00730112222845
0.00034784773456
-0.00737335634006
0.00028749186437
-0.00743054100242
0.000229209430137
-0.00747323511234
0.000173058348034
-0.0075020091038
0.00011908472016
-0.00751744059367
6.73237148284e-05
-0.00752011412094
1.7801028308e-05
-0.00751061696521
-2.94670109408e-05
-0.00748953891718
-7.447210976e-05
-0.0074574684998
-0.000117214683497
-0.00741499272393
-0.00015770273308
-0.00736269345941
-0.000195952374337
-0.00730114698491
-0.000231986561927
-0.00723092077094
-0.000265835807328
-0.00715257300088
-0.000297536612104
-0.0070666498195
-0.000327132244282
-0.00697368486361
-0.000354670855467
-0.00687419707547
-0.000380206338472
-0.00676869028407
-0.000403796150669
-0.00665765165619
-0.000425502294792
-0.00654155135217
-0.000445388889603
-0.00642084164603
-0.000463523324696
-0.00629595665879
-0.000479973633213
-0.00616731214165
-0.00049480986452
-0.00603530527347
-0.000508101315925
-0.00590031506101
-0.000519918161467
-0.00576270217335
-0.000530328605015
-0.00562280987782
-0.00053940078883
-0.0054809638731
-0.000547199928696
-0.00533747364517
-0.000553790515022
-0.00519263225317
-0.000559233488947
-0.00504671796425
-0.000563588727276
-0.00489999394318
-0.00056691230658
-0.00475271000929
-0.000569259240806
-0.00460510218797
-0.000570680867393
-0.0044573944345
-0.000571227775342
-0.00430979802251
-0.000570947323844
-0.00416251309718
-0.000569886675047
-0.00401572790391
-0.000568090440444
-0.0038696200696
-0.000565603709972
-0.00372435570564
-0.000562469805699
-0.00358009036021
-0.000558733196232
-0.00343696806167
-0.000554437338623
-0.00329512193339
-0.000549627372957
-0.0031546732627
-0.000544348037191
-0.00301573181043
-0.000538646063352
-0.00287839499906
-0.000532568166451
-0.00274274798016
-0.000526163092271
-0.00260886302577
-0.000519479692611
-0.00247679943151
-0.000512568611243
-0.00234660317532
-0.000505480470431
-0.00221830673805
-0.000498267208193
-0.00209192906522
-0.000490980402588
-0.00196747537827
-0.000483672296336
-0.00184493744335
-0.000476394284057
-0.00172429343397
-0.000469197668301
-0.00160550848266
-0.000462132324272
-0.00148853463264
-0.000455247231684
-0.00137331161268
-0.000448589317565
-0.00125976687383
-0.000442203795314
-0.00114781645653
-0.000436133169616
-0.00103736497781
-0.000430417406563
-0.000928306220733
-0.000425093105308
-0.00082052249163
-0.000420193624325
-0.000713883823299
-0.000415748795578
-0.000608244883052
-0.0004117859668
-0.00050343994744
-0.000408332706857
-0.000399277248262
-0.000405424942352
-0.000295543018536
-0.000403118109495
-0.000192082197483
-0.000401418690024
-8.96123780746e-05
-0.000398495269412
-0.000358592624611
-0.000410888687029
0.00195293300511
-0.000866248829284
0.00216433442698
-0.0013195165321
0.00215571629837
-0.00176575789892
0.00212446518973
-0.00220257545709
0.00208242497645
-0.00262790708667
0.00203099175662
-0.00303992202163
0.00197108995685
-0.00343702984525
0.00190369859408
-0.00381788757904
0.00182984345638
-0.0041813977572
0.00175056163047
-0.00452669907248
0.00166686938707
-0.00485315045575
0.00157973598688
-0.00516031142115
0.00149006418631
-0.00544791951331
0.00139867711809
-0.00571586747733
0.00130631126359
-0.00596418034546
0.00121361435051
-0.00619299449707
0.00112114751476
-0.00640253816368
0.00102939026422
-0.00659311488884
0.000938747708153
-0.00676508887315
0.000849558641845
-0.00691887332974
0.000762104348466
-0.00705492047872
0.000676616880429
-0.00717371408528
0.000593287146292
-0.00727576308759
0.00051227170209
-0.0073615971076
0.00043369900874
-0.00743176246216
0.000357674104049
-0.00748681941375
0.000284282819591
-0.00752733946425
0.000213594435462
-0.00755390338607
0.000145664207993
-0.007567099042
8.05345110243e-05
-0.0075675196146
1.82362557443e-05
-0.00755576135289
-4.1211056252e-05
-0.00753242195621
-9.77977781702e-05
-0.00749809834921
-0.000151525002768
-0.00745338480591
-0.000202403465959
-0.00739887092843
-0.000250453868409
-0.00733513962787
-0.000295705930901
-0.00726276530862
-0.000338198596031
-0.00718231194085
-0.000377978862747
-0.00709433155328
-0.000415101874332
-0.00699936249454
-0.000449629517373
-0.00689792832722
-0.000481630414614
-0.00679053635095
-0.000511178332072
-0.00667767695867
-0.000538352130298
-0.00655982246522
-0.000563234047105
-0.00643742694738
-0.000585909667795
-0.00631092538901
-0.00060646615546
-0.00618073399316
-0.000624992300773
-0.00604724963004
-0.00064157677214
-0.0059108505767
-0.000656308298012
-0.00577189622965
-0.000669274004576
-0.00563072819944
-0.000680559777502
-0.005487670229
-0.000690248750715
-0.00534302954344
-0.0006984218832
-0.00519709689486
-0.000705156651019
-0.00505014804636
-0.000710527859316
-0.00490244385263
-0.00071460657038
-0.00475423174606
-0.000717461146641
-0.00460574575983
-0.000719156418274
-0.00445720789007
-0.000719754921523
-0.0043088279821
-0.000719316276747
-0.00416080486785
-0.000717898556131
-0.00401332606309
-0.00071555781023
-0.00386656862031
-0.000712349477425
-0.00372069862388
-0.000708327978466
-0.00357587174885
-0.000703548072676
-0.0034322325801
-0.000698064435755
-0.00328991491516
-0.000691932879131
-0.00314904096794
-0.000685209842845
-0.00300972148902
-0.00067795341776
-0.0028720549345
-0.000670222712174
-0.0027361274949
-0.000662078649343
-0.00260201231638
-0.0006535832008
-0.00246976952717
-0.000644799960424
-0.00233944558929
-0.000635793266072
-0.0022110733961
-0.000626628575524
-0.00208467181608
-0.0006173715195
-0.00196024591001
-0.000608088116507
-0.00183778670181
-0.00059884380818
-0.00171727153827
-0.000589703554901
-0.00159866409671
-0.000580730903298
-0.00148191487943
-0.000571987999364
-0.00136696143082
-0.000563534729567
-0.00125372891791
-0.000555428686112
-0.00114213046713
-0.00054772442098
-0.00103206769362
-0.000540473416583
-0.000923430927987
-0.000533723550964
-0.000816099429898
-0.000527519282086
-0.000709941081568
-0.000521901699602
-0.000604812131357
-0.000516909824001
-0.000500557558648
-0.000512582823967
-0.000397014255118
-0.00050896377601
-0.00029402788405
-0.000506099830795
-0.000191526004221
-0.000503918006734
-9.011062105e-05
-0.000499909008816
-0.00044870209132
-0.000421047504471
0.00237399997537
-0.000887420959108
0.00263072868062
-0.00135135436808
0.00261967054425
-0.00180767310149
0.00258080477056
-0.00225381645553
0.00252858915607
-0.00268759448534
0.00246479060059
-0.00310708766375
0.00239060393149
-0.0035106563763
0.00230728808044
-0.00389694511455
0.00221615293462
-0.00426487597024
0.00211851318241
-0.00461363311664
0.00201564716809
-0.00494264064014
0.00190876407017
-0.00525153625742
0.00179898026323
-0.00554014312535
0.00168730433288
-0.00580844170987
0.00157463004902
-0.00605654306361
0.00146173574749
-0.00628466459899
0.00134928889458
-0.00649310880943
0.00123785411341
-0.00668224530347
0.00112790358697
-0.00685249596807
0.00101982843551
-0.00700432320665
0.00091395040571
-0.00713822073309
0.000810532921982
-0.00725470670733
0.000709791272444
-0.00735431857838
0.000611901376826
-0.00743760942347
0.000517007245836
-0.0075051451744
0.000425226860892
-0.00755750261238
0.000336656811863
-0.00759526762858
0.000251375589461
-0.00761903375778
0.000169445992085
-0.00762940062341
9.09165939405e-05
-0.00762697243304
1.58227801199e-05
-0.00761235595299
-5.5813270195e-05
-0.00758615916508
-0.00012398081165
-0.0075489889751
-0.000188681884898
-0.0075014493239
-0.000249930313347
-0.00744413910889
-0.000307751710491
-0.00737765014304
-0.000362183005775
-0.00730256517627
-0.00041327207281
-0.00721945598682
-0.000461077006034
-0.00712888165628
-0.000505665516241
-0.00703138692217
-0.000547113953577
-0.00692750082295
-0.000585506516328
-0.00681773539729
-0.000620934082848
-0.00670258477047
-0.000653493313761
-0.00658252424236
-0.000683285374029
-0.00645800984393
-0.000710415017885
-0.00632947781841
-0.000734989284379
-0.00619734464176
-0.000757116649241
-0.00606200687134
-0.000776905770751
-0.0059238415935
-0.000794464786551
-0.00578320658803
-0.000809900181657
-0.00564044113793
-0.000823316300245
-0.0054958664328
-0.000834814400692
-0.00534978664669
-0.00084449244357
-0.00520248948056
-0.000852444387466
-0.0050542473889
-0.000858760294752
-0.00490531814362
-0.00086352589868
-0.00475594607454
-0.000866823036435
-0.00460636253543
-0.000868729484637
-0.00445678702456
-0.000869319685743
-0.00430742745134
-0.000868664806099
-0.00415848102663
-0.000866833677531
-0.00401013426623
-0.0008638929971
-0.00386256358382
-0.00085990836862
-0.00371593501826
-0.000854944541036
-0.00357040451613
-0.000849066420682
-0.00342611742339
-0.000842339248485
-0.00328320849725
-0.000834829462304
-0.00314180124363
-0.000826604735103
-0.00300200773833
-0.000817734600466
-0.00286392791597
-0.000808290311613
-0.00272764930069
-0.000798345187098
-0.00259324635216
-0.000787974288589
-0.00246078020607
-0.000777254491102
-0.00233029816679
-0.000766264009098
-0.0022018335421
-0.000755082232011
-0.00207540534368
-0.000743789146178
-0.00195101827408
-0.000732464999174
-0.00182866266463
-0.000721189672014
-0.00170831464291
-0.000710042242731
-0.00158993630723
-0.000699100359526
-0.00147347607018
-0.000688439771128
-0.00135886903735
-0.000678133746997
-0.0012460374854
-0.000668252636407
-0.00113489137181
-0.000658863386857
-0.00102532886304
-0.000650029211978
-0.000917236867269
-0.000641809311179
-0.000810491531643
-0.000634258816794
-0.000704958901406
-0.000627429037782
-0.000600495886495
-0.000621368019735
-0.000496952104895
-0.000616121703707
-0.000394175718626
-0.000611735643719
-0.00029202620072
-0.000608246198256
-0.000190421128601
-0.000605519862972
-8.985005504e-05
-0.000600477712528
-0.000538551747124
-0.000433639521187
0.00280765902811
-0.000913728692458
0.00311083865388
-0.00139091868903
0.00309688147057
-0.00185971951633
0.00304962651774
-0.00231736314053
0.00298625369786
-0.00276150225446
0.00290895062705
-0.00319011164425
0.00281923422345
-0.00360149759721
0.00271869492757
-0.00399429816345
0.00260897436796
-0.00436746994192
0.00249170579956
-0.00472026425353
0.00236846226262
-0.00505219607689
0.00224071661532
-0.00536300913984
0.00210981395468
-0.00565263997932
0.00197695569626
-0.00592118331361
0.00184319376831
-0.00616886027811
0.00170943294102
-0.00639599056278
0.00157643921893
-0.00660296887376
0.00144485225098
-0.00679024577596
0.00131520007285
-0.00695831267263
0.00118791464398
-0.00710769044682
0.00106334719612
-0.00723892127704
0.000941782438428
-0.00735256294815
0.000823451283996
-0.0074491851925
0.000708541577976
-0.00752936735755
0.000597206977643
-0.00759369709705
0.000489573735919
-0.0076427694516
0.000385745874746
-0.00767718625002
0.000285808626912
-0.00769755530774
0.000189830833977
-0.00770448959545
9.78661676663e-05
-0.00769860609767
9.9540957899e-06
-0.00768052399249
-7.38810769249e-05
-0.00765086336931
-0.000153627615299
-0.00761024316513
-0.000229288787094
-0.00755927899399
-0.00030088165232
-0.00749858113138
-0.0003684372446
-0.00742875221423
-0.000432000040212
-0.0073503852792
-0.0004916275994
-0.00726406159875
-0.00054738968509
-0.00717034897101
-0.000599367570789
-0.00706979986288
-0.000647652841653
-0.00696295008382
-0.0006923464418
-0.00685031734126
-0.000733557257332
-0.00673240037006
-0.000771401006618
-0.00660967795118
-0.000805998720163
-0.00648260851862
-0.000837475578777
-0.00635162964924
-0.000865959399194
-0.00621715813186
-0.000891579515816
-0.00607958990501
-0.000914465370971
-0.00593930054303
-0.000934745525175
-0.00579664559137
-0.000952546442661
-0.00565196139667
-0.000967991709542
-0.00550556576073
-0.000981201099892
-0.00535775901061
-0.000992290073422
-0.00520882486226
-0.00100136919418
-0.00505903159692
-0.00100854396153
-0.00490863299993
-0.00101391462519
-0.00475786949114
-0.00101757636642
-0.00460696899381
-0.00101961950554
-0.00445614787041
-0.00102013000019
-0.00430561159044
-0.00101918998154
-0.00415555535541
-0.00101687848352
-0.0040061644724
-0.00101327218788
-0.0038576146094
-0.00100844625736
-0.0037100718385
-0.0010024751356
-0.00356369253433
-0.000995433343247
-0.0034186231111
-0.000987396174968
-0.00327499964215
-0.000978440335292
-0.00313294736623
-0.000968644405491
-0.00299258015112
-0.000958089237005
-0.00285399987557
-0.000946858113793
-0.00271729587454
-0.000935036874258
-0.00258254431108
-0.000922713755765
-0.00244980772573
-0.000909979263431
-0.00231913450207
-0.000896925735397
-0.0021905586091
-0.000883647010942
-0.00206409923958
-0.000870237790498
-0.00193976079225
-0.00085679317089
-0.00181753273069
-0.000843407888758
-0.00169738981319
-0.00083017579291
-0.00157929218854
-0.000817189058533
-0.00146318584818
-0.000804537660751
-0.00134900294338
-0.000792308637183
-0.00123666240858
-0.000780585622318
-0.00112607045746
-0.00076944823081
-0.00101712131849
-0.000758971720573
-0.000909697869796
-0.000749226589094
-0.000803672554617
-0.000740278482049
-0.000698908247321
-0.000732188085601
-0.000595259844305
-0.000725011500454
-0.000492576865868
-0.000718800501083
-0.000390706799425
-0.000713601450347
-0.000289503555247
-0.000709444791645
-0.00018886358094
-0.000706157618193
-8.92078438413e-05
-0.000700132222695
-0.000627758522456
-0.000448943229806
0.00325662185597
-0.000945708322677
0.00360762467738
-0.00143898194517
0.00359017608306
-0.00192287083961
0.00353353642086
-0.00239434552368
0.00345774939161
-0.0028508663962
0.00336549251204
-0.00329028524695
0.00325867409576
-0.00371085306577
0.00313928376331
-0.00411121393528
0.00300935625079
-0.00449038205715
0.00287089490856
-0.00484770620063
0.00272580736129
-0.00518282653149
0.00257585784136
-0.00549562819018
0.00242263643523
-0.0057861953754
0.0022675435999
-0.00605476857617
0.0021117875628
-0.00630170676958
0.00195639157354
-0.00652745544581
0.00180220815053
-0.00673252071729
0.00164993756786
-0.00691744924405
0.00150014839872
-0.00708281338611
0.00135329831824
-0.00722920087035
0.00120975390306
-0.00735720809327
0.00106980856225
-0.00746743632482
0.000933698046867
-0.00756048992817
0.000801613340077
-0.00763697603029
0.000673710814158
-0.00769750487491
0.000550119898562
-0.00774269055031
0.000430948397463
-0.00777315150621
0.000316285978575
-0.00778951084063
0.000206206056881
-0.0077923959255
0.000100766663816
-0.00778243809806
1.11471690051e-08
-0.00776027078423
-9.60340038731e-05
-0.00772652792677
-0.000187356631225
-0.00768184252421
-0.000273960839494
-0.00762684410114
-0.000355867265427
-0.00756215636257
-0.000433112648685
-0.00748839496342
-0.000505749623415
-0.00740616513216
-0.000573846058565
-0.00731605959112
-0.000637484333321
-0.00721865645084
-0.00069676021474
-0.00711451748636
-0.00075178173238
-0.00700418646376
-0.000802667724143
-0.00688818788314
-0.00084954644649
-0.0067670258195
-0.000892553935376
-0.00664118317499
-0.000931832489923
-0.00651112105966
-0.000967528987482
-0.00637727854841
-0.000999793363399
-0.00624007258896
-0.00102877700071
-0.00609989822712
-0.00105463131036
-0.00595712900206
-0.00107750630231
-0.00581211757846
-0.00109754936179
-0.00566519656062
-0.00111490410352
-0.00551667943995
-0.00112970943727
-0.00536686172364
-0.00114209880339
-0.00521602206989
-0.00115219961198
-0.00506442358693
-0.00116013293828
-0.00491231499682
-0.00116601338947
-0.00475993192946
-0.00116994929293
-0.00460749794247
-0.00117204298905
-0.00445522563098
-0.00117239147556
-0.0043033173508
-0.00117108705346
-0.00415196599418
-0.001168218313
-0.00400135531666
-0.00116387099456
-0.00385166029241
-0.00115812913901
-0.00370304702297
-0.00115107598662
-0.00355567266692
-0.00114279508801
-0.00340968499009
-0.00113337106867
-0.00326522194208
-0.00112289051385
-0.00312241096921
-0.00111144246873
-0.002981368367
-0.00109911896731
-0.00284219850858
-0.00108601520518
-0.00270499312404
-0.00107222965892
-0.00256983059176
-0.00105786393504
-0.00243677528674
-0.00104302250247
-0.00230587705194
-0.00102781227259
-0.00217717072569
-0.00101234202302
-0.00205067586707
-0.000996721790907
-0.00192639652945
-0.000981062096545
-0.0018043212696
-0.000965473238632
-0.00168442319264
-0.000950064431222
-0.00156666023839
-0.000934943082918
-0.00145097548608
-0.000920213949661
-0.00133729768508
-0.000905978468918
-0.00122554178168
-0.000892334012795
-0.00111560964746
-0.000879373339583
-0.00100739079261
-0.000867184018159
-0.000900763274823
-0.000855848055306
-0.000795594622886
-0.000845441537577
-0.000691743131932
-0.00083603452257
-0.000589059342967
-0.000827690740915
-0.000487387720035
-0.00082046737671
-0.000386570299958
-0.00081441455785
-0.000286451458215
-0.000809560906859
-0.000186905402878
-0.000805700641169
-8.83149060779e-05
-0.000798720566218
-0.000716073270593
-0.000467297438646
0.00372393895313
-0.000984042457838
0.00412439063944
-0.0014965334299
0.00410268812853
-0.00199837032895
0.00403539440425
-0.00248619777847
0.00394559794162
-0.00295724429353
0.00383656014689
-0.00340922250768
0.00371067344507
-0.00384033289567
0.00357041530652
-0.00424924752873
0.00341829204031
-0.00463507264324
0.00325674117993
-0.00499729668394
0.00308805253042
-0.00533573056043
0.00291431281081
-0.00565044616465
0.00273737306217
-0.00594171768706
0.00255883606027
-0.00620996899824
0.00238005969013
-0.00645572881043
0.00220217205791
-0.00667959435863
0.0020260941913
-0.00688220336079
0.00185256685309
-0.00706421356548
0.00168217864598
-0.00722628882993
0.00151539334817
-0.00736909056264
0.00135257510049
-0.00749327340113
0.00119401052199
-0.0075994839686
0.00103992737782
-0.00768836180552
0.000890509535169
-0.00776054148024
0.000745908438204
-0.00781665529158
0.000606251198999
-0.00785733579418
0.000471645937177
-0.00788321793949
0.000342184655767
-0.00789494033868
0.000217944502749
-0.00789314581984
9.89876515755e-05
-0.00787848051021
-1.46391639401e-05
-0.00785159388208
-0.000122906196276
-0.00781313622795
-0.000225800367484
-0.00776375666186
-0.00032332705585
-0.00770410074913
-0.000415510338805
-0.00763480803666
-0.000502393077654
-0.00755650935129
-0.000584036511634