/*--------------------------------*- C++ -*----------------------------------*\
| =========                 |                                                 |
| \\      /  F ield         | OpenFOAM: The Open Source CFD Toolbox           |
|  \\    /   O peration     | Version:  v1906                                 |
|   \\  /    A nd           | Web:      www.OpenFOAM.com                      |
|    \\/     M anipulation  |                                                 |
\*---------------------------------------------------------------------------*/
FoamFile
{
    version     2.0;
    format      ascii;
    class       volVectorField;
    location    "34";
    object      U;
}
// * * * * * * * * * * * * * * * * * * * * * * * * * * * * * * * * * * * * * //

dimensions      [0 1 -1 0 0 0 0];


internalField   nonuniform List<vector> 
9216
(
(-0.0930040832022 0.0930559468138 0)
(-0.0957398166583 0.289900593079 4.48712943605e-26)
(-0.0953015962432 0.48825938702 -6.44894239445e-30)
(-0.0942234467647 0.686063568602 0)
(-0.0927471315533 0.881139584567 0)
(-0.0909131528118 1.0728009511 0)
(-0.0887501446824 1.26034005491 0)
(-0.0862911245094 1.44310133083 0)
(-0.0835598432813 1.62049078484 0)
(-0.0805912034651 1.79197109099 0)
(-0.0774098363471 1.95707000556 0)
(-0.0740525320469 2.11537568883 0)
(-0.0705433434083 2.26654279059 0)
(-0.0669189077972 2.41028619994 0)
(-0.0632008835389 2.54638450878 0)
(-0.0594239710195 2.6746725167 0)
(-0.0556060790375 2.79504260925 0)
(-0.0517787529708 2.90743666266 0)
(-0.0479554075057 3.01184592869 0)
(-0.0441638180325 3.1083029137 0)
(-0.0404126735301 3.19688037634 0)
(-0.0367258303278 3.27768369382 0)
(-0.0331074407523 3.3508493868 0)
(-0.0295776556223 3.41653827759 0)
(-0.0261365260881 3.4749338916 0)
(-0.0228009050444 3.52623662814 0)
(-0.0195673393894 3.57066218963 0)
(-0.0164499149232 3.60843680984 0)
(-0.0134423110368 3.63979585017 0)
(-0.0105564099634 3.66498012335 0)
(-0.00778374137971 3.68423470746 0)
(-0.00513477051981 3.69780644021 0)
(-0.002600209592 3.70594363877 0)
(-0.000192779473978 3.70889128559 0)
(0.00210459422453 3.70691761508 0)
(0.00429152057051 3.70023536817 0)
(0.00637765920345 3.68907055396 0)
(0.00835365548586 3.67364728051 0)
(0.0102316522236 3.6541849143 0)
(0.0120044571457 3.63089734067 0)
(0.0136851364475 3.60399188349 0)
(0.0152670455541 3.57366940266 0)
(0.0167634523802 3.54012331848 0)
(0.0181679435026 3.50354033156 0)
(0.0194937496791 3.46409934866 0)
(0.0207345914666 3.42197265959 0)
(0.0219035128835 3.37732465381 0)
(0.0229943141403 3.33031335469 0)
(0.0240197615764 3.28108894594 0)
(0.0249737249472 3.22979563833 0)
(0.0258686121934 3.17656996451 0)
(0.0266983565067 3.12154291005 0)
(0.02747496098 3.06483801605 0)
(0.0281924423525 3.00657376296 0)
(0.0288623513683 2.94686145525 0)
(0.0294788031399 2.88580780254 0)
(0.0300528729987 2.82351263251 0)
(0.0305788063592 2.76007166359 0)
(0.0310671739385 2.69557402948 0)
(0.0315123738543 2.63010519691 0)
(0.0319244612421 2.56374434927 0)
(0.032298020794 2.496567447 0)
(0.0326425727332 2.42864445829 0)
(0.0329529113874 2.36004252406 0)
(0.0332380166546 2.29082307973 0)
(0.0334929236063 2.22104512522 0)
(0.0337260574239 2.15076222728 0)
(0.0339327148029 2.0800258645 0)
(0.0341207624874 2.00888234829 0)
(0.0342857855159 1.93737624513 0)
(0.0344350800315 1.86554720678 0)
(0.0345645372467 1.7934334457 0)
(0.0346808789842 1.72106850804 0)
(0.0347803242319 1.64848480226 0)
(0.0348690101322 1.57571031058 0)
(0.0349434972097 1.50277214717 0)
(0.0350093349975 1.42969324214 0)
(0.03506344044 1.35649592093 0)
(0.0351107688268 1.28319856636 0)
(0.0351486010364 1.20981919211 0)
(0.0351812983909 1.13637211877 0)
(0.0352065118833 1.06287152896 0)
(0.0352280066734 0.989328164024 0)
(0.0352438057012 0.915752851204 0)
(0.0352570752717 0.842153230308 0)
(0.0352662111837 0.76853726605 0)
(0.0352737645328 0.694909986319 0)
(0.0352784852566 0.621276990764 0)
(0.0352822476033 0.547641260342 0)
(0.0352840044521 0.474006721978 0)
(0.0352845733702 0.400375490307 0)
(0.0352820150608 0.326752071784 0)
(0.0352725050131 0.253144174748 0)
(0.0352488799354 0.179537989597 0)
(0.0351306837487 0.106385387499 0)
(0.0341402013804 0.0341396774804 0)
(-0.290281967422 0.0963524916625 0)
(-0.306984791651 0.308382365048 0)
(-0.305523804511 0.519628577751 -4.54399206412e-26)
(-0.302032470072 0.73042754612 0)
(-0.297304480841 0.938154540637 0)
(-0.291459637141 1.1421872602 0)
(-0.284574269238 1.34179822293 0)
(-0.276738512564 1.53629856593 0)
(-0.268034137198 1.72505747239 0)
(-0.2585619313 1.9075051058 0)
(-0.248410056286 2.08313875652 0)
(-0.237684778906 2.25152219048 0)
(-0.226474172115 2.41228846208 0)
(-0.214883084406 2.56513679071 0)
(-0.202993326088 2.70983281034 0)
(-0.190902683167 2.84620370168 0)
(-0.178682200676 2.97413658043 0)
(-0.166418838706 3.09357259143 0)
(-0.154170295944 3.20450413204 0)
(-0.142010809782 3.30696856738 0)
(-0.129983836295 3.40104490341 0)
(-0.118150509599 3.48684764589 0)
(-0.106540456368 3.56452338442 0)
(-0.0952024312052 3.63424516361 0)
(-0.0841534923008 3.69620929327 0)
(-0.0734313997971 3.75063044371 0)
(-0.0630423910421 3.7977388507 0)
(-0.0530149592199 3.83777622808 0)
(-0.0433464443659 3.87099344005 0)
(-0.034057900748 3.89764722051 0)
(-0.0251397695157 3.91799826052 0)
(-0.0166076579612 3.9323085958 0)
(-0.00844745056343 3.94083858402 0)
(-0.000673663735852 3.943853721 0)
(0.00673983136911 3.94158885836 0)
(0.0137935513484 3.93431402044 0)
(0.0205060490131 3.92227416112 0)
(0.0268696637848 3.90571206102 0)
(0.032907105576 3.88486313626 0)
(0.0386138561091 3.8599556044 0)
(0.0440143040334 3.8312101426 0)
(0.0491051174563 3.79884034768 0)
(0.0539112810741 3.76305184142 0)
(0.0584299826116 3.72404294633 0)
(0.062686231567 3.68200381037 0)
(0.0666773910456 3.63711730513 0)
(0.0704281223389 3.58955813859 0)
(0.0739357531535 3.53949393877 0)
(0.0772243508061 3.48708434127 0)
(0.0802910975875 3.4324822193 0)
(0.0831592884591 3.37583272374 0)
(0.0858259019953 3.31727462791 0)
(0.0883133500181 3.25693931895 0)
(0.0906184018791 3.19495223235 0)
(0.0927625054735 3.13143178437 0)
(0.0947422350225 3.0664908754 0)
(0.0965780327596 3.00023577088 0)
(0.0982663194044 2.9327676578 0)
(0.0998264999431 2.8641814703 0)
(0.101254885529 2.79456748517 0)
(0.102569834905 2.7240101037 0)
(0.10376760689 2.6525894764 0)
(0.104865504552 2.58038024027 0)
(0.105859785431 2.50745316302 0)
(0.106766700506 2.4338738482 0)
(0.107582562958 2.35970439349 0)
(0.108322569649 2.28500206326 0)
(0.108983137048 2.20982095452 0)
(0.109578413351 2.13421064825 0)
(0.110104968262 2.05821788072 0)
(0.110575899388 1.98188517282 0)
(0.110987969891 1.90525250201 0)
(0.111353229685 1.82835592024 0)
(0.111668675684 1.75122922511 0)
(0.111945306631 1.67390256671 0)
(0.112180383733 1.5964041125 0)
(0.112383855703 1.51875865464 0)
(0.112553276166 1.44098926512 0)
(0.112697541623 1.36311590667 0)
(0.112814515994 1.28515707024 0)
(0.112912046578 1.20712840235 0)
(0.112988320882 1.12904432221 0)
(0.113050136614 1.05091666855 0)
(0.113096010482 0.97275629441 0)
(0.113131685011 0.894571736822 0)
(0.113156006666 0.816370793589 0)
(0.113173632781 0.738159199095 0)
(0.113183700733 0.659942176448 0)
(0.113189675003 0.581723113752 0)
(0.11319073726 0.503505049564 0)
(0.113188610334 0.425289253382 0)
(0.113181206357 0.347075867078 0)
(0.113164895151 0.268862487948 0)
(0.113123779031 0.190581599405 0)
(0.112819849023 0.112862205371 0)
(0.106416098772 0.035154301911 0)
(-0.491188838911 0.0973693678966 0)
(-0.51969435881 0.311517308189 0)
(-0.516825461318 0.524515976469 -4.51395554816e-26)
(-0.510786524522 0.737243765307 0)
(-0.502733504583 0.94684128581 0)
(-0.492810207612 1.152657434 0)
(-0.481135311789 1.3539442255 0)
(-0.467847593371 1.55000064371 0)
(-0.453093032147 1.7401860723 0)
(-0.437032943122 1.92392445789 0)
(-0.419827829859 2.10070864675 0)
(-0.401647577793 2.2701013199 0)
(-0.382653962378 2.4317360259 0)
(-0.363013039743 2.5853153346 0)
(-0.342876846643 2.73060932411 0)
(-0.322398027609 2.86745176291 0)
(-0.301711060257 2.99573686697 0)
(-0.280948966172 3.11541430743 0)
(-0.260224195474 3.22648498934 0)
(-0.239647133742 3.32899557978 0)
(-0.219306655578 3.42303395876 0)
(-0.19929009003 3.50872382169 0)
(-0.179663401681 3.58622025567 0)
(-0.160492277129 3.65570477758 0)
(-0.141821885422 3.71738134474 0)
(-0.123698792162 3.77147204537 0)
(-0.106150275247 3.81821368001 0)
(-0.0892068216226 3.85785417759 0)
(-0.0728810035215 3.89064980298 0)
(-0.0571903723791 3.9168622958 0)
(-0.0421359244429 3.93675663833 0)
(-0.0277252194927 3.95059891022 0)
(-0.0139502837414 3.95865341332 0)
(-0.000810761837353 3.96119041524 0)
(0.0117121506416 3.95847193564 0)
(0.0236260682792 3.95074836529 0)
(0.0349485562125 3.93826039816 0)
(0.0456883527062 3.92125171726 0)
(0.0558670444318 3.8999589599 0)
(0.06549572277 3.87461129637 0)
(0.0745977871577 3.84543051986 0)
(0.0831857899928 3.81263089267 0)
(0.0912840737822 3.77641884566 0)
(0.098905815246 3.73699304883 0)
(0.106075543215 3.6945442238 0)
(0.112806467309 3.64925536172 0)
(0.119122774149 3.60130158378 0)
(0.125037310662 3.55085047067 0)
(0.130573567815 3.49806195873 0)
(0.135743781772 3.44308875789 0)
(0.140570517066 3.38607624757 0)
(0.145065254609 3.32716295309 0)
(0.149249495465 3.26648044062 0)
(0.153133897202 3.20415384153 0)
(0.156738821957 3.14030172262 0)
(0.160074086077 3.0750366391 0)
(0.163158884749 3.00846498775 0)
(0.166002211277 2.9406875851 0)
(0.168622092779 2.87179948755 0)
(0.171026737688 2.80189058225 0)
(0.173233025192 2.73104538584 0)
(0.175248430697 2.6593436485 0)
(0.177088713529 2.58686011979 0)
(0.178760671834 2.51366515779 0)
(0.180278980352 2.43982447481 0)
(0.181649818023 2.36539975389 0)
(0.182886808654 2.29044836561 0)
(0.183995566416 2.21502398649 0)
(0.18498869818 2.13917629919 0)
(0.185871305079 2.06295161581 0)
(0.186655005466 1.98639255425 0)
(0.187344432678 1.90953866274 0)
(0.187950242748 1.83242608361 0)
(0.188476641947 1.75508818151 0)
(0.188933344062 1.67755518942 0)
(0.18932416175 1.59985483736 0)
(0.189657884448 1.52201199108 0)
(0.189937959509 1.44404928207 0)
(0.190172265138 1.36598673575 0)
(0.190363904205 1.28784239961 0)
(0.190519855387 1.20963197054 0)
(0.190642892456 1.13136942151 0)
(0.190739100933 1.05306662755 0)
(0.190810933683 0.974733989472 0)
(0.190863582312 0.896380064288 0)
(0.190899178961 0.818012181859 0)
(0.190922002044 0.739636062984 0)
(0.19093383558 0.66125641877 0)
(0.190937984259 0.582876524836 0)
(0.190935781956 0.504498763589 0)
(0.190929425142 0.426124138947 0)
(0.19091972407 0.347752152384 0)
(0.190907881395 0.269382525287 0)
(0.190888488579 0.19095147433 0)
(0.190549190326 0.113184815245 0)
(0.179626900884 0.0352760847956 0)
(-0.695355101256 0.0985548109468 0)
(-0.735989904487 0.315251828429 0)
(-0.731880523974 0.53068079356 4.47898273807e-26)
(-0.723244225666 0.745824414274 0)
(-0.711739981901 0.957740449186 0)
(-0.697576281613 1.16574869986 0)
(-0.680925334134 1.36907476843 0)
(-0.661982830571 1.56699876753 0)
(-0.640961377821 1.758866047 0)
(-0.618089283218 1.94409141967 0)
(-0.593600695505 2.12216259902 0)
(-0.567735431157 2.29264140426 0)
(-0.540729300506 2.45516385473 0)
(-0.512815443509 2.60943838711 0)
(-0.484215295097 2.75524334485 0)
(-0.455141620901 2.89242310611 0)
(-0.425790327522 3.0208838804 0)
(-0.39634514319 3.14058863594 0)
(-0.366970236552 3.25155205042 0)
(-0.337816291741 3.35383500834 0)
(-0.309013746221 3.44753938138 0)
(-0.280679936047 3.53280266093 0)
(-0.252912717564 3.60979303787 0)
(-0.22579834806 3.67870453957 0)
(-0.199405266573 3.73975268529 0)
(-0.173792432239 3.79317031331 0)
(-0.149003094398 3.83920393424 0)
(-0.125073366415 3.87811031167 0)
(-0.102025867669 3.9101535271 0)
(-0.0798783845524 3.93560228096 0)
(-0.0586373180735 3.95472760265 0)
(-0.0383063101121 3.96780091627 0)
(-0.018879438112 3.97509088179 0)
(-0.000350017033672 3.97687398341 0)
(0.0173032548953 3.97341814117 0)
(0.0340977968773 3.96497278312 0)
(0.0500525500228 3.95177849037 0)
(0.065186312657 3.93408140682 0)
(0.0795238133148 3.91211966326 0)
(0.0930872772252 3.88612353488 0)
(0.105903950764 3.85631569195 0)
(0.117997952462 3.82291095292 0)
(0.129397770113 3.78611611758 0)
(0.140128248022 3.74612997375 0)
(0.150218118104 3.70314325986 0)
(0.159692130116 3.65733877521 0)
(0.168578563125 3.60889141563 0)
(0.176901513664 3.55796836806 0)
(0.184688347309 3.5047291928 0)
(0.191962150464 3.449326072 0)
(0.198749080613 3.39190391563 0)
(0.205071000187 3.3326006473 0)
(0.210952692873 3.27154731975 0)
(0.216414689748 3.20886842078 0)
(0.221480317973 3.14468198603 0)
(0.226168740056 3.07909991742 0)
(0.230501808684 3.01222808778 0)
(0.234497331137 2.94416666243 0)
(0.238175702679 2.87501018988 0)
(0.241553417214 2.80484792427 0)
(0.244649457954 2.73376390153 0)
(0.247479066635 2.66183725795 0)
(0.250059868717 2.58914228945 0)
(0.25240592129 2.51574876664 0)
(0.254533555287 2.44172197903 0)
(0.256455713982 2.36712304448 0)
(0.258187493128 2.29200893747 0)
(0.259740788851 2.21643279443 0)
(0.261129520693 2.14044392891 0)
(0.262364600414 2.06408813202 0)
(0.263458821385 1.9874076743 0)
(0.264422165729 1.91044160286 0)
(0.265266346753 1.83322573314 0)
(0.266000465366 1.75579294273 0)
(0.266635191255 1.67817315313 0)
(0.267178783932 1.60039362148 0)
(0.267640901522 1.52247891554 0)
(0.268028995433 1.44445120339 0)
(0.268351735992 1.36633022162 0)
(0.268615791966 1.28813356361 0)
(0.268828865788 1.20987664418 0)
(0.268996862842 1.13157298726 0)
(0.269126529946 1.05323418885 0)
(0.269223021196 0.974870203113 0)
(0.269292133835 0.896489306998 0)
(0.269338275879 0.818098378659 0)
(0.269366290193 0.739702849142 0)
(0.269379832792 0.661306961095 0)
(0.269382782393 0.582913683236 0)
(0.26937804314 0.504524940612 0)
(0.269368585311 0.426141509201 0)
(0.269356810582 0.347762843014 0)
(0.269345090139 0.269390156234 0)
(0.269323962848 0.190961225349 0)
(0.268847972757 0.113220654893 0)
(0.253298703025 0.0352979804198 0)
(-0.902308726197 0.100122148611 0)
(-0.955061145375 0.320241662961 0)
(-0.949662477583 0.539028132778 0)
(-0.938332003877 0.757448770737 0)
(-0.923241530826 0.972497607426 0)
(-0.904671663434 1.18346130525 0)
(-0.882853854853 1.38953253481 0)
(-0.858047795934 1.58996597668 0)
(-0.830537129184 1.78408809794 0)
(-0.800623685113 1.97130130991 0)
(-0.768618792184 2.15108686691 0)
(-0.734838132151 2.3230057888 0)
(-0.69959394418 2.48669819678 0)
(-0.66319143899 2.64188101816 0)
(-0.625922465597 2.78834458913 0)
(-0.58806379527 2.92594817706 0)
(-0.549872415269 3.05461491658 0)
(-0.511585624398 3.17432618266 0)
(-0.473417792618 3.28511581144 0)
(-0.435561962773 3.38706416784 0)
(-0.398187739893 3.4802923787 0)
(-0.361443992149 3.56495669162 0)
(-0.32545748506 3.64124318661 0)
(-0.290336281389 3.70936277534 0)
(-0.256168777052 3.76954664435 0)
(-0.223027467788 3.82204205599 0)
(-0.190968119332 3.86710860462 0)
(-0.160033655947 3.90501484007 0)
(-0.130253284528 3.93603531821 0)
(-0.101646342746 3.96044799348 0)
(-0.0742212660202 3.97853197104 0)
(-0.0479792802679 3.9905656542 0)
(-0.0229133400311 3.99682365494 0)
(0.000989543127392 3.99759107771 0)
(0.0237552044378 3.99313826519 0)
(0.0454072906195 3.98371742604 0)
(0.0659699413404 3.96956972526 0)
(0.0854702664766 3.95094451742 0)
(0.103939088229 3.92808186737 0)
(0.12140772804 3.90121345041 0)
(0.137910064014 3.87056297743 0)
(0.15347963039 3.83634594181 0)
(0.168151728001 3.79876952963 0)
(0.181960653919 3.75803264415 0)
(0.194941905701 3.71432594538 0)
(0.207129521613 3.66783195996 0)
(0.218558344062 3.61872519132 0)
(0.229261458978 3.56717229413 0)
(0.239272489359 3.51333223182 0)
(0.248623122821 3.45735649278 0)
(0.257345411435 3.39938927067 0)
(0.265469381576 3.33956770263 0)
(0.273025318488 3.27802206213 0)
(0.280041454114 3.21487600872 0)
(0.286546219539 3.15024677915 0)
(0.292566010327 3.0842454381 0)
(0.29812739134 3.01697706507 0)
(0.303254939497 2.94854100245 0)
(0.307973388986 2.87903103022 0)
(0.312305554148 2.80853560634 0)
(0.316274403838 2.73713803097 0)
(0.319901066693 2.66491667904 0)
(0.323206825922 2.59194514968 0)
(0.326211211371 2.51829248882 0)
(0.328933906312 2.44402332748 0)
(0.331392929814 2.36919809595 0)
(0.333606448849 2.29387314829 0)
(0.335591056207 2.21810096754 0)
(0.337363481306 2.14193028063 0)
(0.338938967769 2.06540625666 0)
(0.340332877426 1.98857061042 0)
(0.341559173147 1.9114617939 0)
(0.342631910548 1.83411509258 0)
(0.343563830387 1.75656281211 0)
(0.34436773326 1.67883436622 0)
(0.345055186932 1.60095645892 0)
(0.345637779601 1.52295316779 0)
(0.346125945965 1.44484612317 0)
(0.346530095375 1.36665458551 0)
(0.346859560921 1.28839562229 0)
(0.347123599527 1.21008418241 0)
(0.347330466421 1.13173327247 0)
(0.347488284731 1.05335402936 0)
(0.347604248569 0.974955895022 0)
(0.347685359867 0.896546691305 0)
(0.347737763186 0.81813278598 0)
(0.347767347496 0.739719156548 0)
(0.347779219683 0.661309543923 0)
(0.347778175614 0.582906478411 0)
(0.347768331733 0.504511430225 0)
(0.347753502104 0.426124918311 0)
(0.347737044544 0.347746268371 0)
(0.347721722815 0.269377157622 0)
(0.347693443302 0.190955434582 0)
(0.347074044949 0.113226702792 0)
(0.326966573245 0.0353043726855 0)
(-1.11298898707 0.102105209721 0)
(-1.17801134448 0.326589245788 0)
(-1.17124363017 0.549680299016 0)
(-1.15707995649 0.772289633902 0)
(-1.13821862201 0.991333637924 0)
(-1.115018803 1.20605830002 0)
(-1.08777783969 1.41561592547 0)
(-1.05682722975 1.61922929871 0)
(-1.02252855647 1.81620130905 0)
(-0.985264790281 2.00591908137 0)
(-0.945430574489 2.18785645162 0)
(-0.903424079018 2.36157432038 0)
(-0.859638677292 2.52671912726 0)
(-0.814456754324 2.68301966836 0)
(-0.768243527615 2.83028265796 0)
(-0.721343209118 2.96838729022 0)
(-0.674075102672 3.09727916962 0)
(-0.626732003142 3.21696382877 0)
(-0.579578283232 3.32750012284 0)
(-0.53285010039 3.42899364753 0)
(-0.486754978 3.52159037547 0)
(-0.441473283981 3.6054705876 0)
(-0.397158780696 3.68084321491 0)
(-0.353940866179 3.74794061074 0)
(-0.311925636616 3.80701380639 0)
(-0.271198484043 3.85832823411 0)
(-0.231825330284 3.90215993183 0)
(-0.193855290507 3.93879219322 0)
(-0.157321849887 3.9685126526 0)
(-0.122245411983 3.99161076 0)
(-0.088634289469 4.00837563212 0)
(-0.056486996575 4.01909415409 0)
(-0.0257934511294 4.02404905526 0)
(0.00346666582303 4.02353492825 0)
(0.031324785843 4.01782529013 0)
(0.0578097913454 4.00717478751 0)
(0.082953064295 3.99182682562 0)
(0.106789840627 3.97203413455 0)
(0.129358499936 3.94803904946 0)
(0.150699041822 3.92007489465 0)
(0.170853299511 3.88836655721 0)
(0.18986368365 3.85313027066 0)
(0.207773509454 3.81457360148 0)
(0.224625890283 3.77289552493 0)
(0.240464189802 3.72828652432 0)
(0.255331028602 3.68092873337 0)
(0.269268827456 3.63099609929 0)
(0.282318906333 3.57865457841 0)
(0.294522093103 3.52406233654 0)
(0.305917893907 3.46736997326 0)
(0.316545144446 3.40872074138 0)
(0.326441238432 3.34825078576 0)
(0.335642804362 3.28608936899 0)
(0.344184979377 3.22235911275 0)
(0.352102096579 3.15717622083 0)
(0.359426997837 3.09065071703 0)
(0.366191721013 3.02288666024 0)
(0.372426844767 2.95398237342 0)
(0.378162166193 2.8840306474 0)
(0.383426075517 2.81311895958 0)
(0.388246217735 2.74132966517 0)
(0.392648893833 2.66874020382 0)
(0.396659700405 2.59542327772 0)
(0.400302957856 2.52144704699 0)
(0.403602324168 2.44687529544 0)
(0.406580248843 2.3717676146 0)
(0.409258556933 2.29617955774 0)
(0.411657930587 2.22016281425 0)
(0.413798460948 2.14376535352 0)
(0.415699157335 2.06703159021 0)
(0.417378464365 1.99000251898 0)
(0.418853801288 1.91271587254 0)
(0.420142042715 1.83520624889 0)
(0.421259088818 1.75750526315 0)
(0.42222030777 1.67964166827 0)
(0.423040139466 1.60164150224 0)
(0.423732498514 1.52352820398 0)
(0.424310412399 1.44532275668 0)
(0.424786383716 1.36704379926 0)
(0.425172065108 1.2887077674 0)
(0.425478579981 1.21032900163 0)
(0.425716234896 1.13191988759 0)
(0.425894798103 1.05349096339 0)
(0.426023251427 0.975051058246 0)
(0.426110026291 0.896607402391 0)
(0.426162797037 0.818165758039 0)
(0.426188674734 0.739730520965 0)
(0.426194047173 0.66130483854 0)
(0.426184736584 0.582890690947 0)
(0.426165896063 0.504489020477 0)
(0.426142147159 0.426099863017 0)
(0.42611754599 0.34772216959 0)
(0.426095038359 0.269357529684 0)
(0.42605613671 0.190942805048 0)
(0.425291113093 0.113220800473 0)
(0.400642170248 0.0353027631789 0)
(-1.32830215781 0.104541035941 0)
(-1.40581790225 0.334389428858 0)
(-1.39757243251 0.562776432104 4.39659825839e-26)
(-1.38039104183 0.79053546797 0)
(-1.35751852533 1.01448288994 0)
(-1.3294004122 1.23381371472 0)
(-1.29640817933 1.44763094629 0)
(-1.25895444061 1.65511855112 0)
(-1.21748793157 1.85555112838 0)
(-1.17248207305 2.04829801286 0)
(-1.12442319318 2.23282524469 0)
(-1.07379985954 2.40869509597 0)
(-1.02109307021 2.57556343286 0)
(-0.966768174697 2.73317529722 0)
(-0.911267959832 2.88135913926 0)
(-0.855007609348 3.02002008359 0)
(-0.798370756071 3.14913261305 0)
(-0.741707241016 3.26873297086 0)
(-0.685331671522 3.37891155986 0)
(-0.629523369969 3.47980553184 0)
(-0.574526753293 3.5715917365 0)
(-0.520552760803 3.65448012507 0)
(-0.467780366918 3.72870768842 0)
(-0.416358848213 3.79453295467 0)
(-0.366409860425 3.85223106673 0)
(-0.318030050744 3.90208942029 0)
(-0.271293286266 3.94440384669 0)
(-0.226253275267 3.97947530004 0)
(-0.18294568426 4.00760701722 0)
(-0.141390565758 4.02910210072 0)
(-0.101594224663 4.04426152244 0)
(-0.0635512803623 4.05338205071 0)
(-0.0272469856665 4.05675667764 0)
(0.00734778158129 4.05469064921 0)
(0.0402708348281 4.04745973932 0)
(0.0715567514156 4.03532186233 0)
(0.101245231437 4.01852399568 0)
(0.12938016564 3.99732237831 0)
(0.156008478586 3.97196182773 0)
(0.181179134517 3.94267746993 0)
(0.20494271914 3.90969542779 0)
(0.227350645276 3.87323267315 0)
(0.248454897093 3.83349709489 0)
(0.268307407343 3.79068763989 0)
(0.286959946036 3.74499447465 0)
(0.304463624383 3.69659917712 0)
(0.320868893941 3.64567494885 0)
(0.33622514873 3.59238684524 0)
(0.350580805654 3.53689201438 0)
(0.363982980168 3.47933994575 0)
(0.376477625119 3.41987271896 0)
(0.388109260808 3.3586252571 0)
(0.398921153371 3.29572557546 0)
(0.408955084357 3.23129503133 0)
(0.418251554691 3.16544856467 0)
(0.426849582746 3.09829493818 0)
(0.434786922537 3.02993696679 0)
(0.442099882029 2.96047174555 0)
(0.448823547619 2.88999086485 0)
(0.454991616993 2.81858062422 0)
(0.4606366234 2.74632223364 0)
(0.465789778979 2.67329201363 0)
(0.470481194565 2.59956158198 0)
(0.474739731054 2.52519804035 0)
(0.478593211215 2.4502641483 0)
(0.482068277454 2.37481849793 0)
(0.485190593535 2.29891567559 0)
(0.487984708182 2.22260642556 0)
(0.490474244897 2.14593780176 0)
(0.492681771135 2.06895332232 0)
(0.494628975278 1.99169311198 0)
(0.49633654184 1.91419404869 0)
(0.497824314739 1.83648989906 0)
(0.499111178946 1.7586114587 0)
(0.500215209692 1.68058668138 0)
(0.501153561511 1.6024408144 0)
(0.501942603003 1.52419652337 0)
(0.502597813943 1.4458740239 0)
(0.503133905548 1.36749120213 0)
(0.503564726667 1.28906374406 0)
(0.503903369497 1.21060525311 0)
(0.50416208552 1.13212737885 0)
(0.504352376832 1.05363993408 0)
(0.504484923061 0.975151022451 0)
(0.504569658747 0.896667159004 0)
(0.50461571268 0.818193390081 0)
(0.504631472577 0.739733407318 0)
(0.504624540235 0.66128966206 0)
(0.504601786307 0.582863450606 0)
(0.504569327514 0.504455042798 0)
(0.504532574574 0.426063881427 0)
(0.504496200037 0.347688287572 0)
(0.504463395759 0.269329232927 0)
(0.504411710945 0.190922447136 0)
(0.503500666639 0.113207400271 0)
(0.474315951718 0.0352975082035 0)
(-1.54922993188 0.107465915995 0)
(-1.63951990516 0.343751723949 0)
(-1.62966134684 0.578492178164 -4.35965064726e-26)
(-1.60923019012 0.812424970606 0)
(-1.5820450005 1.04224077945 0)
(-1.54864822414 1.26707128215 0)
(-1.50949621939 1.48595991173 0)
(-1.46509437936 1.69804428472 0)
(-1.41599038425 1.9025659959 0)
(-1.36275966608 2.09887455186 0)
(-1.30599087548 2.28642863044 0)
(-1.24627259638 2.46479444095 0)
(-1.18418157236 2.63364160336 0)
(-1.12027289878 2.79273707877 0)
(-1.05507207753 2.94193768949 0)
(-0.989069122453 3.08118172213 0)
(-0.922714381945 3.21048005601 0)
(-0.856416116093 3.32990718183 0)
(-0.790539383505 3.43959240386 0)
(-0.725406227909 3.53971144223 0)
(-0.661296700046 3.63047858747 0)
(-0.598450726042 3.71213950312 0)
(-0.537070388466 3.78496472563 0)
(-0.47732268288 3.84924387563 0)
(-0.419342365932 3.90528056592 0)
(-0.363235015661 3.95338797536 0)
(-0.309079968539 3.99388504254 0)
(-0.256933303492 4.02709322879 0)
(-0.206830576985 4.05333379496 0)
(-0.158789516869 4.07292552802 0)
(-0.112812420637 4.08618295578 0)
(-0.0688883569938 4.09341397009 0)
(-0.0269962932088 4.09492400295 0)
(0.0129038345433 4.09102988586 0)
(0.0508566767388 4.0820082979 0)
(0.0869034379436 4.06812118299 0)
(0.121093250989 4.04962049332 0)
(0.153479478297 4.02676602714 0)
(0.184118451314 3.99980517557 0)
(0.213068666629 3.96897492195 0)
(0.240390121304 3.93450260175 0)
(0.266143616891 3.89660584515 0)
(0.290390301343 3.85549273764 0)
(0.313191168806 3.81136203739 0)
(0.334606762919 3.76440340425 0)
(0.354696817639 3.71479764972 0)
(0.373520084347 3.6627170013 0)
(0.391134080478 3.60832537636 0)
(0.407595008515 3.55177865929 0)
(0.422957583617 3.49322498099 0)
(0.437275018648 3.43280499606 0)
(0.450598908976 3.37065215791 0)
(0.462979263742 3.3068929873 0)
(0.474464430255 3.24164733593 0)
(0.485101155876 3.17502864137 0)
(0.494934539453 3.10714417585 0)
(0.504008112413 3.03809528494 0)
(0.512363807275 2.96797761946 0)
(0.520042049137 2.89688135721 0)
(0.527081734721 2.82489141815 0)
(0.533520328205 2.75208766938 0)
(0.539393845564 2.67854512409 0)
(0.544736950151 2.6043341309 0)
(0.549582939416 2.52952055811 0)
(0.553963837358 2.45416596893 0)
(0.557910381189 2.37832779243 0)
(0.561452108529 2.30205948635 0)
(0.56461734316 2.22541069669 0)
(0.56743327586 2.14842740995 0)
(0.5699259484 2.07115210287 0)
(0.572120327248 1.99362388582 0)
(0.574040286039 1.91587864455 0)
(0.575708671969 1.83794917642 0)
(0.577147286725 1.75986532569 0)
(0.578376945485 1.68165411401 0)
(0.579417457038 1.6033398709 0)
(0.580287675638 1.52494435985 0)
(0.581005480655 1.44648690517 0)
(0.581587821546 1.36798451439 0)
(0.582050697909 1.28945200292 0)
(0.582409197978 1.21090211371 0)
(0.582677479574 1.13234564131 0)
(0.582868802618 1.0537915519 0)
(0.582995511992 0.975247106457 0)
(0.583069064805 0.896717984449 0)
(0.583100016269 0.818208400847 0)
(0.583098042705 0.739721224615 0)
(0.583071932358 0.661258085902 0)
(0.583029606281 0.582819480045 0)
(0.582978113538 0.504404890046 0)
(0.582923646257 0.426012932577 0)
(0.582871512879 0.347641134153 0)
(0.582825231387 0.269289808466 0)
(0.582758609109 0.190893247499 0)
(0.581700798762 0.113187454444 0)
(0.547982275127 0.0352897218153 0)
(-1.77683431051 0.110922151452 0)
(-1.88023360225 0.354808361704 0)
(-1.86859560944 0.597044918326 0)
(-1.84462850572 0.838254533157 0)
(-1.81275913922 1.07497339448 0)
(-1.77364082008 1.30625566171 0)
(-1.72782869222 1.53107353624 0)
(-1.67593569625 1.7485101761 0)
(-1.61862333829 1.95776954666 0)
(-1.55658340854 2.15817997826 0)
(-1.49052004279 2.34919434827 0)
(-1.42113347628 2.5303868124 0)
(-1.34910597446 2.70144668667 0)
(-1.27509026914 2.8621702048 0)
(-1.19970051397 3.01245083869 0)
(-1.1235057321 3.15226880113 0)
(-1.04702549537 3.281680259 0)
(-0.970727625099 3.40080667488 0)
(-0.895027543825 3.50982459746 0)
(-0.820289027029 3.60895611852 0)
(-0.746825987132 3.69846014017 0)
(-0.674905079679 3.77862452104 0)
(-0.604748822728 3.84975912591 0)
(-0.536539091849 3.91218975736 0)
(-0.470420754436 3.96625292894 0)
(-0.406505378156 4.01229141485 0)
(-0.34487484189 4.05065050839 0)
(-0.285584843534 4.08167491135 0)
(-0.228668182432 4.10570618348 0)
(-0.174137851606 4.12308066223 0)
(-0.121989870611 4.13412795666 0)
(-0.0722057546827 4.13916809425 0)
(-0.0247563958119 4.13852116237 0)
(0.0204117634265 4.13251620918 0)
(0.0633504806981 4.12142903463 0)
(0.104108907441 4.10552631474 0)
(0.142746840217 4.08506639393 0)
(0.179328080008 4.06031254235 0)
(0.213919241524 4.03151469323 0)
(0.246589057038 3.99891163678 0)
(0.277407585497 3.96273180056 0)
(0.306445513672 3.92319330639 0)
(0.333773619827 3.8805042348 0)
(0.359462293925 3.83486292634 0)
(0.383581177077 3.78645828539 0)
(0.40619883625 3.73547009484 0)
(0.42738253912 3.68206933713 0)
(0.447198044995 3.62641851542 0)
(0.465709478985 3.56867197254 0)
(0.482979207494 3.50897620472 0)
(0.499067783795 3.44747016857 0)
(0.514033883426 3.38428557967 0)
(0.527934299212 3.31954720196 0)
(0.540823917673 3.25337312713 0)
(0.552755747038 3.18587504339 0)
(0.563780920403 3.11715849377 0)
(0.573948744214 3.04732312365 0)
(0.583306717691 2.97646291812 0)
(0.591900592806 2.90466642872 0)
(0.599774402391 2.83201699061 0)
(0.606970525002 2.75859293012 0)
(0.613529716401 2.6844677637 0)
(0.61949117488 2.60971038795 0)
(0.624892572535 2.53438526217 0)
(0.629770117948 2.45855258324 0)
(0.63415858496 2.38226845413 0)
(0.638091370885 2.30558504557 0)
(0.641600521496 2.22855075251 0)
(0.644716783626 2.15121034494 0)
(0.647469625723 2.07360511447 0)
(0.649887284443 1.99577301604 0)
(0.651996780691 1.91774880641 0)
(0.653823960073 1.83956417881 0)
(0.655393504643 1.76124789521 0)
(0.656728967493 1.68282591532 0)
(0.657852780666 1.60432152416 0)
(0.658786284268 1.52575545699 0)
(0.65954973111 1.44714602354 0)
(0.660162310864 1.36850922948 0)
(0.660642152155 1.28985889876 0)
(0.661006342314 1.21120679255 0)
(0.661270927573 1.13256273148 0)
(0.661450929077 1.05393471517 0)
(0.661560342045 0.975329044048 0)
(0.661612148794 0.896750443416 0)
(0.661618317686 0.818202178658 0)
(0.66158981408 0.739686174521 0)
(0.661536600116 0.66120312706 0)
(0.661467643349 0.582752593648 0)
(0.661390918185 0.504333116263 0)
(0.661313407826 0.425942425124 0)
(0.661241063567 0.347577085117 0)
(0.661177799439 0.269236426218 0)
(0.661093820497 0.190853447214 0)
(0.659888003639 0.113160759268 0)
(0.621636406599 0.0352796918952 0)
(-2.01227376081 0.114960544946 0)