/*--------------------------------*- C++ -*----------------------------------*\
| =========                 |                                                 |
| \\      /  F ield         | OpenFOAM: The Open Source CFD Toolbox           |
|  \\    /   O peration     | Version:  v1906                                 |
|   \\  /    A nd           | Web:      www.OpenFOAM.com                      |
|    \\/     M anipulation  |                                                 |
\*---------------------------------------------------------------------------*/
FoamFile
{
    version     2.0;
    format      ascii;
    class       volVectorField;
    location    "141";
    object      Ua;
}
// * * * * * * * * * * * * * * * * * * * * * * * * * * * * * * * * * * * * * //

dimensions      [0 1 -1 0 0 0 0];


internalField   nonuniform List<vector> 
9216
(
(-0.00857600462538 0.00854600767272 0)
(-0.00688656344294 0.0216898239357 2.55791070486e-27)
(-0.00709399653947 0.0370491391804 -5.06632679978e-31)
(-0.00714582860273 0.0518013988569 0)
(-0.00712581140082 0.0665982881672 0)
(-0.00708051358339 0.081293536633 0)
(-0.00701311076415 0.0958440993199 0)
(-0.00693581766108 0.110211652668 0)
(-0.0068411640582 0.124367778638 0)
(-0.00673949423479 0.138281943597 0)
(-0.00662082091838 0.151928890919 0)
(-0.00649617913057 0.165280815909 0)
(-0.00635434812988 0.178313688198 0)
(-0.00620713429556 0.191001648118 0)
(-0.00604249203445 0.203321454006 0)
(-0.00587274620487 0.215248717408 0)
(-0.00568530138865 0.226760617233 0)
(-0.00549272400303 0.237833786678 0)
(-0.00528211461663 0.24844543932 0)
(-0.00506603389445 0.258572656283 0)
(-0.00483150491277 0.268192164792 0)
(-0.00459087944733 0.277281055311 0)
(-0.00433134672275 0.285815188722 0)
(-0.00406497297856 0.293771206033 0)
(-0.00377929941501 0.301124090932 0)
(-0.00348600622117 0.307849872144 0)
(-0.00317319417832 0.313922794967 0)
(-0.00285219556675 0.319318500297 0)
(-0.00251186316046 0.324011051419 0)
(-0.00216321499154 0.327976531402 0)
(-0.00179602342771 0.331189718053 0)
(-0.00142114404778 0.333628469807 0)
(-0.00102939746501 0.335269965911 0)
(-0.000631696102199 0.336095518647 0)
(-0.000220051232593 0.336087372847 0)
(0.000194547651205 0.335232638622 0)
(0.000618786661745 0.333521033969 0)
(0.00104143648492 0.330948673222 0)
(0.00146788985929 0.327515698845 0)
(0.00188667179474 0.323230229261 0)
(0.00230197700056 0.318105819856 0)
(0.00270223190493 0.312165292412 0)
(0.00309067565449 0.305437972094 0)
(0.00345587472784 0.297963159423 0)
(0.00380042056577 0.289787131236 0)
(0.004113494805 0.280966264738 0)
(0.00439754819186 0.27156324023 0)
(0.00464286511136 0.261649895893 0)
(0.00485225521043 0.251302847004 0)
(0.00501769784266 0.240605788289 0)
(0.00514287832186 0.229644488152 0)
(0.00522197614024 0.218508707046 0)
(0.00525994562589 0.207286688923 0)
(0.00525344738898 0.19606687 0)
(0.00520880188517 0.184932254339 0)
(0.00512508548943 0.173962156927 0)
(0.00500969296169 0.163226955365 0)
(0.00486355204213 0.152790312554 0)
(0.00469439923117 0.142704831475 0)
(0.00450413610018 0.133015014746 0)
(0.00430001841092 0.123754017812 0)
(0.00408408711035 0.114947186075 0)
(0.00386250496174 0.106609792732 0)
(0.00363693652259 0.098750653529 0)
(0.00341225932687 0.0913705491808 0)
(0.00318956885738 0.0844654999284 0)
(0.00297250449085 0.0780256290994 0)
(0.00276160883893 0.0720378828008 0)
(0.00255948721862 0.0664852462489 0)
(0.00236619562139 0.0613488176804 0)
(0.00218345845978 0.0566073132587 0)
(0.00201089943961 0.0522387524166 0)
(0.0018495856367 0.0482200270341 0)
(0.00169882606528 0.0445281474755 0)
(0.00155923477136 0.0411399628216 0)
(0.00142989792508 0.0380329623359 0)
(0.00131109760801 0.0351851069433 0)
(0.00120164618461 0.0325753843058 0)
(0.00110107071962 0.030184176847 0)
(0.00100608555926 0.0279948005228 0)
(0.000908970990302 0.0260039150627 0)
(0.000781740647336 0.0241665658191 0)
(0.000644120268231 0.0224180793821 0)
(0.000632679361008 0.0213486476178 0)
(0.000696507187841 0.0200875222125 0)
(0.000684444064723 0.0186032679184 0)
(0.000601859979105 0.0171859449566 0)
(0.000514923663601 0.0161113207233 0)
(0.000583288875617 0.0152173581737 0)
(0.000722724599518 0.0139221800321 0)
(0.000772343641967 0.0125241426739 0)
(0.000829115477171 0.0109023899926 0)
(0.00100210529985 0.00902132909874 0)
(0.00116368914318 0.00687047507612 0)
(0.00129710637914 0.00420031981427 0)
(0.001362010534 0.00131835400412 0)
(-0.0217899659555 0.00688451552483 0)
(-0.0227117928547 0.0227014371139 0)
(-0.0229566627052 0.0389634292475 -2.62925611736e-27)
(-0.0229173521579 0.0549109638965 0)
(-0.0227731362549 0.0706999123583 0)
(-0.0225652218128 0.0863359473462 0)
(-0.0222967613525 0.101800848966 0)
(-0.0219860779035 0.117066040166 0)
(-0.021623439316 0.132103443802 0)
(-0.0212250719304 0.146883330314 0)
(-0.0207776175097 0.161378216951 0)
(-0.0202982025932 0.175559899628 0)
(-0.0197715892588 0.189402176023 0)
(-0.0192158795079 0.202878432749 0)
(-0.0186145123122 0.215963546441 0)
(-0.0179861548765 0.228632250756 0)
(-0.0173132230105 0.240860155382 0)
(-0.0166144848639 0.252622821938 0)
(-0.0158716694332 0.263896104703 0)
(-0.0151032397998 0.274655850976 0)
(-0.0142905839745 0.284877561514 0)
(-0.0134516306015 0.294536875772 0)
(-0.0125677917323 0.303608579227 0)
(-0.0116564185165 0.312067534592 0)
(-0.0106993831053 0.319887597827 0)
(-0.00971345060608 0.327042809124 0)
(-0.00868138721599 0.333506203635 0)
(-0.00761959846461 0.339251292897 0)
(-0.00651221594378 0.344250774195 0)
(-0.00537554771525 0.348478455375 0)
(-0.00419553953808 0.351907812418 0)
(-0.00298890176417 0.354514134444 0)
(-0.00174387572624 0.356273520574 0)
(-0.000478108253412 0.357164879102 0)
(0.00081746849828 0.357169120197 0)
(0.0021239922189 0.356271426553 0)
(0.00344744181724 0.354460557176 0)
(0.00476739915064 0.351731196751 0)
(0.00608673907487 0.348083178643 0)
(0.00738348299628 0.343523999611 0)
(0.00865766665833 0.338067873549 0)
(0.00988619939006 0.33173805554 0)
(0.0110669738895 0.324565830113 0)
(0.0121766496055 0.316592381313 0)
(0.0132120234809 0.307867297164 0)
(0.0141508022877 0.298450203507 0)
(0.0149902116589 0.288408765149 0)
(0.0157106253979 0.277819539894 0)
(0.016311308085 0.266765521775 0)
(0.0167770470785 0.255336362587 0)
(0.0171107969895 0.243625278101 0)
(0.0173033503065 0.231728736299 0)
(0.017362577343 0.219742844998 0)
(0.0172861287687 0.207762800221 0)
(0.0170871558461 0.19587901863 0)
(0.0167699139498 0.184176667317 0)
(0.0163518627873 0.172732276809 0)
(0.015842122796 0.161613662931 0)
(0.0152601064312 0.150877600848 0)
(0.0146169445665 0.140570633371 0)
(0.0139311820971 0.130728016731 0)
(0.013213358907 0.121375449996 0)
(0.0124792113571 0.112528700773 0)
(0.0117371922051 0.104195718132 0)
(0.0109995244544 0.0963767484418 0)
(0.0102722028541 0.0890662876589 0)
(0.00956408405481 0.0822532513632 0)
(0.00887887100876 0.0759226744739 0)
(0.00822256911511 0.0700559696817 0)
(0.00759693779964 0.0646322388888 0)
(0.00700561650307 0.0596285358954 0)
(0.00644877924761 0.0550208635391 0)
(0.00592823307213 0.0507843772969 0)
(0.0054429344289 0.0468942130951 0)
(0.00499347126324 0.0433255903782 0)
(0.00457800240918 0.040054306618 0)
(0.00419640321005 0.0370566946416 0)
(0.0038463927862 0.0343095979449 0)
(0.00352688283448 0.0317899038381 0)
(0.00323318971397 0.0294731793595 0)
(0.00295706150669 0.0273298678754 0)
(0.0026681526659 0.0253092649649 0)
(0.00235869622185 0.0231851680054 0)
(0.00217190789446 0.0212558353728 0)
(0.00215751988752 0.0197682169095 0)
(0.00209923466452 0.0183233955433 0)
(0.00177653224455 0.0167776213887 0)
(0.00153385836238 0.0158505409989 0)
(0.00168000256498 0.0146660313922 0)
(0.002044969868 0.0137597108949 0)
(0.00229147482758 0.0126765978608 0)
(0.00257908263289 0.0109416907897 0)
(0.00299360940261 0.00901235331872 0)
(0.00383314107173 0.0072653118847 0)
(0.00470178857011 0.00465732277611 0)
(0.00412593655629 0.00124209702949 0)
(-0.0373165488761 0.00713886617687 0)
(-0.0390873136438 0.023131600124 0)
(-0.0389895730066 0.0391674273808 -2.63278822699e-27)
(-0.0387768983488 0.0551909101306 0)
(-0.0384866152697 0.0710722235577 0)
(-0.0381183033892 0.0868018459716 0)
(-0.0376691481112 0.102356177966 0)
(-0.0371468822903 0.117707600346 0)
(-0.0365486149793 0.13282805656 0)
(-0.0358825736953 0.1476888136 0)
(-0.0351446501132 0.1622621302 0)
(-0.0343434005739 0.176520373968 0)
(-0.0334738162931 0.190437068481 0)
(-0.0325446462093 0.203986045144 0)
(-0.0315500723243 0.217142160182 0)
(-0.0304986892159 0.229880368391 0)
(-0.0293838525485 0.24217646376 0)
(-0.0282137240618 0.254006262909 0)
(-0.0269808357226 0.265345837189 0)
(-0.0256926950254 0.276171202567 0)
(-0.0243412007699 0.286458176094 0)
(-0.0229332030428 0.296182329718 0)
(-0.0214602286779 0.305318704773 0)
(-0.0199286355354 0.313842041242 0)
(-0.0183300622276 0.32172623551 0)
(-0.0166707022655 0.328945017027 0)
(-0.014942805172 0.335471282829 0)
(-0.0131528794612 0.341277875522 0)
(-0.0112944855838 0.346337190069 0)
(-0.0093750731809 0.350622019997 0)
(-0.00739014783972 0.354105321217 0)
(-0.00534892462869 0.356761027134 0)
(-0.00324977448454 0.358564380023 0)
(-0.001104455065 0.359492583008 0)
(0.00108507559015 0.359525422725 0)
(0.00330380208535 0.358646269244 0)
(0.00554552876942 0.356842528161 0)
(0.00779152146254 0.354107000798 0)
(0.0100312099875 0.350438286552 0)
(0.0122421736516 0.345842147889 0)
(0.0144098076686 0.340331878607 0)
(0.0165087353897 0.333929509 0)
(0.0185215114672 0.326666032252 0)
(0.0204213452603 0.318582016905 0)
(0.0221897662188 0.309727842962 0)
(0.0238007062897 0.300163502988 0)
(0.0252371957462 0.289958486254 0)
(0.0264767369242 0.279190961814 0)
(0.0275067629146 0.267946898368 0)
(0.0283113634804 0.25631882711 0)
(0.0288852700867 0.244403780582 0)
(0.029221853729 0.23230208958 0)
(0.0293254863168 0.220114374122 0)
(0.0292004263404 0.207939849358 0)
(0.028861386644 0.195873309191 0)
(0.0283231639448 0.18400329896 0)
(0.027609158062 0.172409450509 0)
(0.0267417016755 0.161161355455 0)
(0.0257486678417 0.15031692135 0)
(0.0246548063025 0.139922540949 0)
(0.0234871998883 0.130012782602 0)
(0.0222683689277 0.120611714884 0)
(0.0210211807249 0.111733487105 0)
(0.0197635661208 0.103383919216 0)
(0.018512960396 0.0955613796352 0)
(0.0172823267934 0.0882582629616 0)
(0.0160839453987 0.0814617840058 0)
(0.0149263361256 0.0751551940081 0)
(0.0138174070117 0.0693184276693 0)
(0.0127619559775 0.0639290829841 0)
(0.0117642736901 0.0589629542634 0)
(0.0108261276718 0.0543947501568 0)
(0.00994901379363 0.0501989567624 0)
(0.00913239716186 0.0463496039215 0)
(0.00837586312096 0.0428216711464 0)
(0.00767754473527 0.0395903759168 0)
(0.00703614279975 0.036631805312 0)
(0.00644966710502 0.0339227079919 0)
(0.00591736369804 0.0314397780674 0)
(0.00543926742029 0.029157903278 0)
(0.00502025122783 0.027046837262 0)
(0.00467667808167 0.0250459123192 0)
(0.00428707414028 0.0229176936394 0)
(0.00391740496533 0.0211825982628 0)
(0.00368824912885 0.0196355273887 0)
(0.00348311456843 0.0181340223056 0)
(0.00316973820939 0.0171039962472 0)
(0.00280067584934 0.0153305413473 0)
(0.00268224067801 0.0137751934703 0)
(0.00304987659664 0.0130130344859 0)
(0.00394261607705 0.0125345550532 0)
(0.00429144117665 0.0100541638505 0)
(0.00515170049956 0.00849058378001 0)
(0.00623721732776 0.00631292642395 0)
(0.00711818377941 0.00385557781268 0)
(0.00682184665588 0.00117397125283 0)
(-0.0523810864012 0.00725891633098 0)
(-0.0553002979301 0.0233675988499 0)
(-0.0551562778476 0.0394112500873 2.6324279592e-27)
(-0.0548319508673 0.0555115175012 0)
(-0.054403788448 0.0714814286433 0)
(-0.0538704987124 0.0873034476119 0)
(-0.0532303304627 0.102949229026 0)
(-0.0524867562933 0.118390144104 0)
(-0.0516402356009 0.133597585906 0)
(-0.0506955298504 0.148542969388 0)
(-0.0496531691801 0.163198433399 0)
(-0.0485182046359 0.177536623997 0)
(-0.0472908135929 0.191531082029 0)
(-0.0459759148948 0.205156012434 0)
(-0.0445729953943 0.218386331054 0)
(-0.0430864422612 0.231197571847 0)
(-0.041514875993 0.243565761141 0)
(-0.0398617883627 0.255467201251 0)
(-0.0381247230364 0.266878363466 0)
(-0.0363061663906 0.277775674983 0)
(-0.0344026753059 0.288135323891 0)
(-0.032415816128 0.297933179283 0)
(-0.0303414638675 0.307144461873 0)
(-0.0281806316599 0.315743969726 0)
(-0.0259290389372 0.323705660549 0)
(-0.0235876814799 0.33100289199 0)
(-0.0211528016981 0.337608320766 0)
(-0.018626162146 0.343494079692 0)
(-0.0160054512979 0.348632031121 0)
(-0.0132940626829 0.35299372261 0)
(-0.0104920823953 0.35655096433 0)
(-0.00760572057071 0.359276185647 0)
(-0.00463870411892 0.361142859563 0)
(-0.00160122536337 0.362126259664 0)
(0.00149820972156 0.362204005135 0)
(0.00464433842764 0.361357020473 0)
(0.00782292438755 0.359570406998 0)
(0.0110129462614 0.356834250998 0)
(0.0141940479395 0.353144883448 0)
(0.0173394529629 0.348505690305 0)
(0.0204233058013 0.342928240388 0)
(0.0234141182378 0.336432636524 0)
(0.0262819804248 0.329048926788 0)
(0.0289928127067 0.320817134226 0)
(0.0315153379705 0.311787924055 0)
(0.0338160671089 0.302022448892 0)
(0.0358660399915 0.291592067002 0)
(0.0376363571262 0.280577870093 0)
(0.0391045783813 0.269069575627 0)
(0.0402508802091 0.257164317647 0)
(0.0410637670813 0.244964839159 0)
(0.0415364610382 0.232577199463 0)
(0.0416718847947 0.220108672625 0)
(0.0414789815519 0.207664920465 0)
(0.0409764628444 0.19534711015 0)
(0.0401886912381 0.183249258311 0)
(0.0391478443004 0.171455514509 0)
(0.0378892607213 0.160038289973 0)
(0.0364520719905 0.149056831401 0)
(0.0348745519105 0.138557157732 0)
(0.0331945359266 0.128572306251 0)
(0.0314460269349 0.119123746311 0)
(0.0296603629794 0.11022268375 0)
(0.0278641534876 0.101871652204 0)
(0.0260808394879 0.094065916771 0)
(0.0243294693681 0.0867948166183 0)
(0.0226262464193 0.080042832604 0)
(0.0209837190051 0.0737906178633 0)
(0.0194120669225 0.0680158010487 0)
(0.0179184529913 0.0626938576528 0)
(0.0165081018299 0.0577987152368 0)
(0.0151837626587 0.0533035020859 0)
(0.0139467075395 0.0491811092346 0)
(0.0127963113133 0.0454045731544 0)
(0.0117311774567 0.0419479696948 0)
(0.010748828624 0.0387860734697 0)
(0.00984672609135 0.0358950206684 0)
(0.00902222330101 0.0332522476088 0)
(0.00827387250712 0.0308366251406 0)
(0.00760218550964 0.0286291918321 0)
(0.00701347322634 0.0266190361391 0)
(0.0065347810419 0.0246638318121 0)
(0.00615201336237 0.0230124325318 0)
(0.00568745295394 0.0213605044676 0)
(0.0052600161995 0.019592316317 0)
(0.00492810915356 0.0181480363158 0)
(0.00458405935506 0.0166788449803 0)
(0.00421164906164 0.0148192158625 0)
(0.00420224941769 0.0137220095409 0)
(0.00427634293773 0.0119208987588 0)
(0.00501002959347 0.0104718862117 0)
(0.00647068654241 0.00965296847403 0)
(0.00702914183566 0.00708033541658 0)
(0.00824251178138 0.00506398828501 0)
(0.0094757243393 0.00316955961452 0)
(0.00940451969047 0.00103795692026 0)
(-0.0676969329672 0.00733350857577 0)
(-0.0715741288467 0.0235973293955 0)
(-0.0714005767344 0.0397349125876 0)
(-0.0709772399619 0.055948295792 0)
(-0.070416194648 0.0720362886905 0)
(-0.0697192639092 0.0879784451395 0)
(-0.0688864276243 0.103743706432 0)
(-0.0679201567261 0.119302166457 0)
(-0.0668225605099 0.134624453024 0)
(-0.0655975528993 0.149681766773 0)
(-0.0642478885127 0.164446068219 0)
(-0.0627778583449 0.178890092991 0)
(-0.0611901354511 0.192987522874 0)
(-0.0594887151795 0.206712785169 0)
(-0.0576756088704 0.220041230154 0)
(-0.0557540202112 0.232948852244 0)
(-0.0537248230566 0.245412209639 0)
(-0.0515899586528 0.257408215797 0)
(-0.049348882251 0.268913942965 0)
(-0.0470020988829 0.279906425284 0)
(-0.0445476669048 0.290362333391 0)
(-0.0419848520373 0.300257942619 0)
(-0.039310717016 0.309568902684 0)
(-0.0365237566125 0.318270015305 0)
(-0.0336206517017 0.32633530819 0)
(-0.0305998965945 0.333737756514 0)
(-0.0274587156882 0.34044970841 0)
(-0.0241966222678 0.346442444708 0)
(-0.0208125005802 0.351686829672 0)
(-0.0173079990012 0.356153166929 0)
(-0.0136849671254 0.359811583815 0)
(-0.00994878348279 0.362632467513 0)
(-0.00610580874404 0.364587041217 0)
(-0.002166732047 0.36564770733 0)
(0.0018558935931 0.365789192055 0)
(0.00594453499474 0.364989136962 0)
(0.0100790928097 0.363229196187 0)
(0.0142342290242 0.360496139168 0)
(0.0183817569484 0.356782848649 0)
(0.022488336128 0.352089341673 0)
(0.02651828399 0.34642418606 0)
(0.0304316532741 0.339805492522 0)
(0.0341871514259 0.332261595603 0)
(0.0377409287969 0.323831843029 0)
(0.0410497145168 0.314567153337 0)
(0.044069943611 0.304529787562 0)
(0.0467611308676 0.293793770688 0)
(0.049085365403 0.282443968861 0)
(0.0510106894519 0.270575266339 0)
(0.0525109460848 0.258291181693 0)
(0.0535688015684 0.245701947851 0)
(0.0541755351916 0.232922223643 0)
(0.0543334268066 0.220068418308 0)
(0.0540550435937 0.207255345922 0)
(0.0533646796942 0.19459332917 0)
(0.0522963874829 0.182184390603 0)
(0.0508937090962 0.170119135248 0)
(0.0492061600587 0.15847409164 0)
(0.0472869727636 0.147310073129 0)
(0.0451890542965 0.136672303263 0)
(0.0429628601433 0.126591054395 0)
(0.0406541526947 0.117083920841 0)
(0.0383036050111 0.108157605078 0)
(0.0359460466486 0.0998099668055 0)
(0.0336111451253 0.0920318316824 0)
(0.0313234023606 0.0848084249681 0)
(0.0291029593181 0.0781204024417 0)
(0.0269658149633 0.0719450266385 0)
(0.0249244808223 0.0662568753003 0)
(0.0229879479829 0.0610285361186 0)
(0.0211623301797 0.0562313950079 0)
(0.0194508586443 0.0518362908019 0)
(0.0178545235113 0.0478142583102 0)
(0.0163721118138 0.0441368437466 0)
(0.0150010098856 0.0407768080313 0)
(0.0137374889627 0.0377083517445 0)
(0.0125772858525 0.0349073560317 0)
(0.0115161946046 0.0323518439124 0)
(0.0105508988489 0.0300215153229 0)
(0.00967958010587 0.0278983367806 0)
(0.00890553801323 0.0259687523846 0)
(0.0082374534518 0.0240402354012 0)
(0.00768968281991 0.0223716953799 0)
(0.00725623525819 0.0210212884051 0)
(0.00687879886308 0.0195880119463 0)
(0.00658143482783 0.018226955935 0)
(0.00643198833568 0.0167632188266 0)
(0.00609820030478 0.0148312509665 0)
(0.00565946775833 0.0124174242833 0)
(0.00590612516183 0.0110487987864 0)
(0.00632120581337 0.00908120994117 0)
(0.00789839808914 0.00809084132944 0)
(0.00966932979654 0.00661811148768 0)
(0.0102227801878 0.00424947313589 0)
(0.0110367436998 0.0025218648728 0)
(0.0110116760545 0.000839978910307 0)
(-0.0831797249839 0.00740306808647 0)
(-0.0879787681747 0.0238523921818 0)
(-0.0877766840413 0.0401337002372 0)
(-0.0872579797762 0.0564985643158 0)
(-0.0865657589128 0.0727380647341 0)
(-0.0857050296322 0.0888315227883 0)
(-0.0846774462391 0.104746462951 0)
(-0.0834858913835 0.120451997048 0)
(-0.0821336628659 0.135918068209 0)
(-0.08062502567 0.151115470041 0)
(-0.0789641308523 0.166015948902 0)
(-0.0771557407811 0.180592253395 0)
(-0.0752040287534 0.194818182596 0)
(-0.0731134053354 0.208668530698 0)
(-0.0708873226502 0.222119116491 0)
(-0.0685291212196 0.235146564236 0)
(-0.0660407879712 0.247728154543 0)
(-0.0634239836409 0.259841636198 0)
(-0.0606788170279 0.271464854885 0)
(-0.0578050166587 0.282575650034 0)
(-0.054800833003 0.293151448777 0)
(-0.0516643380468 0.303169151685 0)
(-0.0483923779519 0.312604761854 0)
(-0.0449819292468 0.321433386422 0)
(-0.0414292329077 0.329628961211 0)
(-0.0377312161769 0.337164286146 0)
(-0.0338846807137 0.344011066826 0)
(-0.0298876705917 0.350139836239 0)
(-0.0257388851087 0.355520191872 0)
(-0.0214389114361 0.360120813991 0)
(-0.0169898937311 0.363909833775 0)
(-0.0123969568067 0.366855003262 0)
(-0.00766776478292 0.368924561481 0)
(-0.0028140453003 0.370087601169 0)
(0.00214882180555 0.370314898906 0)
(0.00720044454043 0.369579938753 0)
(0.0123158884121 0.367859949148 0)
(0.0174646752379 0.365136737999 0)
(0.022611443126 0.36139892039 0)
(0.0277152594861 0.356642135784 0)
(0.0327307451176 0.350871265045 0)
(0.0376080511467 0.344101102289 0)
(0.0422944342094 0.336357819257 0)
(0.0467345388529 0.327679314111 0)
(0.0508724808366 0.31811657922 0)
(0.0546527252923 0.307733551588 0)
(0.0580223726134 0.296607212238 0)
(0.0609324868373 0.284827322513 0)
(0.0633405453174 0.272495089188 0)
(0.0652120984491 0.259722396425 0)
(0.0665231860954 0.246629327687 0)
(0.0672616691622 0.233341734975 0)
(0.0674291291083 0.219988238566 0)
(0.0670412931869 0.206696279656 0)
(0.0661290168606 0.193588579907 0)
(0.0647372804994 0.180778523237 0)
(0.0629236335627 0.168365526911 0)
(0.0607546669468 0.156431881882 0)
(0.0583009755137 0.145040006454 0)
(0.0556324451992 0.134233313492 0)
(0.0528144589926 0.12403790716 0)
(0.0499050943746 0.114465121942 0)
(0.0469547619097 0.105515258134 0)
(0.0440062059766 0.0971798635066 0)
(0.0410950366519 0.0894438471094 0)
(0.0382506161198 0.0822870880434 0)
(0.0354968593568 0.0756857051695 0)
(0.0328525852086 0.0696124685348 0)
(0.0303324103438 0.0640381925525 0)
(0.0279468282823 0.058931921641 0)
(0.0257026378483 0.0542618185225 0)
(0.0236031009851 0.049995863046 0)
(0.0216485492593 0.0461025018102 0)
(0.0198367270618 0.0425513433695 0)
(0.0181633634687 0.0393135662733 0)
(0.0166227840883 0.0363624489377 0)
(0.0152085923141 0.0336738080112 0)
(0.0139142290413 0.0312259721576 0)
(0.0127340531292 0.0289999679163 0)
(0.0116643809458 0.0269821945299 0)
(0.0107113778197 0.0251557075859 0)
(0.00987185660956 0.0232260185611 0)
(0.00935424264699 0.0219789804589 0)
(0.00866793053581 0.0202101495667 0)
(0.00827729187029 0.0187397178831 0)
(0.00809913436565 0.0173892317792 0)
(0.00778186947368 0.0154106167933 0)
(0.00784644668793 0.0140574976383 0)
(0.00791074170539 0.0124608442139 0)
(0.00822806806485 0.0108420091857 0)
(0.00799119545163 0.00817105087636 0)
(0.00895399427126 0.00647959176459 0)
(0.0112222641579 0.00557079705789 0)
(0.0122525272909 0.00386408883756 0)
(0.0126134413128 0.0021876524299 0)
(0.0126412189489 0.000728636657535 0)
(-0.0988440551933 0.00747780838006 0)
(-0.104558589198 0.0241470854451 0)
(-0.104324524814 0.0406098967153 2.65123792649e-27)
(-0.103709441313 0.0571623386036 0)
(-0.10288511237 0.0735873947803 0)
(-0.101858853915 0.0898644597483 0)
(-0.100633665101 0.105960277136 0)
(-0.0992133211992 0.121843165427 0)
(-0.0976022416239 0.137482390579 0)
(-0.0958055657302 0.152848285528 0)
(-0.0938287350057 0.167912315012 0)
(-0.091677512762 0.182647213007 0)
(-0.0893574217711 0.197026886591 0)
(-0.0868738627736 0.211026590905 0)
(-0.0842315260173 0.224622746977 0)
(-0.0814343976874 0.237792743219 0)
(-0.0784853298107 0.250514845035 0)
(-0.0753861316933 0.262767822833 0)
(-0.0721372007279 0.274530676131 0)
(-0.068737825236 0.285782276346 0)
(-0.0651859486189 0.296501023067 0)
(-0.0614786433347 0.306664659664 0)
(-0.0576119349126 0.316249741307 0)
(-0.0535814310681 0.325231698647 0)
(-0.0493823056956 0.333584536128 0)
(-0.0450100024804 0.341280884732 0)
(-0.0404601787337 0.348291820442 0)
(-0.0357294288826 0.354586896132 0)
(-0.0308154407706 0.360134402736 0)
(-0.0257176145165 0.364900994047 0)
(-0.0204375765903 0.36885237942 0)
(-0.0149799982429 0.371953427458 0)
(-0.00935301126978 0.374168690895 0)
(-0.00356914565332 0.37546311579 0)
(0.00235417268137 0.375802499774 0)
(0.00839375975386 0.375155237353 0)
(0.0145204980347 0.373492576349 0)
(0.0206984703753 0.37079071874 0)
(0.0268851589844 0.367032211524 0)
(0.0330313845011 0.36220728891 0)
(0.0390818938551 0.356315764625 0)
(0.0449757981767 0.34936796633 0)
(0.0506479857994 0.341386888013 0)
(0.0560300688717 0.332408750883 0)
(0.061052299702 0.322484268417 0)
(0.0656451778748 0.311678667328 0)
(0.0697417731608 0.300072559134 0)
(0.0732798568359 0.287761244518 0)
(0.0762046049202 0.274854087135 0)
(0.0784711474777 0.26147324271 0)
(0.0800472487883 0.247751012634 0)
(0.0809157705753 0.233827689362 0)
(0.0810768033652 0.219847650989 0)
(0.0805487780295 0.205954930039 0)
(0.0793699274096 0.192289143525 0)
(0.0775977034388 0.178978866684 0)
(0.075307495411 0.16613651997 0)
(0.0725870630479 0.153851476121 0)
(0.0695297645069 0.142188288156 0)
(0.0662262173102 0.13118656723 0)
(0.0627584628715 0.120864399481 0)
(0.0591981526273 0.111225116396 0)
(0.0556052007699 0.102259482441 0)
(0.0520297050063 0.0939509047325 0)
(0.0485127724269 0.0862769437214 0)
(0.0450876519066 0.079210715076 0)
(0.0417814029093 0.0727227175542 0)
(0.0386153309766 0.0667808667442 0)
(0.0356058301353 0.0613513668575 0)
(0.0327644075188 0.0563988545332 0)
(0.0300982451811 0.0518876718054 0)
(0.02761029516 0.0477822234714 0)
(0.0252997730469 0.0440478737987 0)
(0.023162756191 0.0406516544331 0)
(0.021192793065 0.0375628896647 0)
(0.0193815193231 0.0347534807875 0)
(0.0177196739112 0.0321987759058 0)
(0.0161974425974 0.0298773324111 0)
(0.014805568126 0.0277715519362 0)
(0.0135363488993 0.0258733743186 0)
(0.0124008635139 0.0241331380176 0)
(0.0113725992358 0.022273087534 0)
(0.0109261113697 0.0212261009983 0)
(0.0103689062124 0.0196317386105 0)
(0.00989510349375 0.0180336073838 0)
(0.00973747610935 0.0165518471663 0)
(0.0095521061128 0.0148900326053 0)
(0.0093185642367 0.013018889757 0)
(0.00965645632286 0.0115881317248 0)
(0.00982334784439 0.00950253860307 0)
(0.010563841645 0.00798519943076 0)
(0.0105932198731 0.00567861298128 0)
(0.0118862111859 0.00437241598733 0)
(0.0137202284496 0.00338139850244 0)
(0.0139828627107 0.00191547577914 0)
(0.0140447446536 0.000638783990556 0)
(-0.114714430898 0.00756208058168 0)
(-0.121349989005 0.0244878229538 0)
(-0.121080772071 0.0411660373872 -2.65081120998e-27)
(-0.120366892022 0.0579415890716 0)
(-0.119407995084 0.0745863569217 0)
(-0.118213177467 0.0910801063574 0)
(-0.116786523225 0.107388788673 0)
(-0.115132827864 0.123479976342 0)
(-0.11325765158 0.139322210554 0)
(-0.111167337465 0.154885267811 0)
(-0.108868715828 0.170140298555 0)
(-0.106368898734 0.185059887557 0)
(-0.103674932808 0.199618183166 0)
(-0.100793591579 0.213790917992 0)
(-0.0977308462934 0.227555205815 0)
(-0.0944917558679 0.240889524642 0)
(-0.0910800068635 0.253773346131 0)
(-0.0874978260581 0.266186824782 0)
(-0.0837457331758 0.278110385617 0)
(-0.079822662764 0.289524290307 0)
(-0.0757259587792 0.300408256799 0)
(-0.0714516099579 0.31074101855 0)
(-0.0669944121216 0.320500003177 0)
(-0.0623484724095 0.32966104783 0)
(-0.0575074788242 0.338198437008 0)
(-0.0524651293788 0.346084547644 0)
(-0.047215419695 0.353289855067 0)
(-0.0417531840388 0.359782990438 0)
(-0.0360744317858 0.365530507654 0)
(-0.030176993811 0.370497183564 0)
(-0.0240612418362 0.374645875489 0)
(-0.017730847951 0.377937994806 0)
(-0.011193521449 0.380333931115 0)
(-0.00446204031542 0.38179330067 0)
(0.00244486606424 0.382276537582 0)
(0.00950174661046 0.38174500527 0)
(0.0166755952511 0.380163142851 0)
(0.0239251108626 0.377499858464 0)
(0.0312007110946 0.373730291923 0)
(0.0384444589638 0.368837303061 0)
(0.0455905296588 0.362814114275 0)
(0.0525659322762 0.355665662612 0)
(0.0592918613196 0.347410456333 0)
(0.0656853037156 0.338082168612 0)
(0.0716608293752 0.32773029011 0)
(0.0771328353185 0.316421731794 0)
(0.0820180681802 0.304240682429 0)
(0.086238518666 0.291289054736 0)
(0.0897242909522 0.277685343358 0)
(0.0924174317177 0.263564102364 0)
(0.0942752620598 0.249073290016 0)
(0.0952734999447 0.234370668987 0)
(0.095409330103 0.219620725153 0)
(0.0947029386112 0.204988947049 0)
(0.0932002480388 0.190637236813 0)
(0.0909730612487 0.176715773396 0)
(0.0881192183422 0.163354758317 0)
(0.0847559961432 0.150654758702 0)
(0.0810057760778 0.138679742891 0)
(0.0769854781872 0.127462790763 0)
(0.0727969649542 0.117010351247 0)
(0.0685253587936 0.107312356766 0)
(0.0642395619608 0.0983472625714 0)
(0.0599957775979 0.0900878606929 0)
(0.0558390936842 0.0825021307668 0)
(0.0518061958143 0.0755562481428 0)
(0.0479259733863 0.0692137393468 0)
(0.0442218071823 0.063437294996 0)
(0.04071127346 0.0581875702582 0)
(0.0374069229045 0.0534245599357 0)
(0.0343159575968 0.0491078802829 0)
(0.0314402898828 0.0451973523636 0)
(0.0287776598977 0.0416548171726 0)
(0.0263218195384 0.0384441436498 0)
(0.0240634099537 0.0355322160389 0)
(0.0219908028057 0.0328893321123 0)
(0.020090932957 0.0304896371057 0)
(0.0183500248703 0.0283117433095 0)
(0.0167540882791 0.0263382466571 0)
(0.0152904235663 0.0245687452866 0)
(0.013970128191 0.022862531265 0)
(0.0129278474893 0.0212701653784 0)
(0.0123210400238 0.0199422022986 0)
(0.0117415157652 0.0183523448849 0)
(0.0114767893622 0.0171041358979 0)
(0.0112359967496 0.0155156817364 0)
(0.0113774875414 0.0142438280598 0)
(0.0113367984232 0.0124706172343 0)
(0.0114762957088 0.0106655488344 0)
(0.0114907129391 0.00859549556073 0)
(0.0119240447468 0.00691178375542 0)
(0.0128227012965 0.00548353417905 0)
(0.0130228379523 0.0037339987919 0)
(0.0150106905979 0.00288273278595 0)
(0.0151949550001 0.00172256034876 0)
(0.0152117453147 0.000553682274535 0)
(-0.130820693783 0.00765687645297 0)
(-0.138387903156 0.0248783707262 0)
(-0.138081118583 0.0418055219219 0)
(-0.137265461309 0.0588391674417 0)
(-0.13616864424 0.075738269292 0)
(-0.134801209073 0.092482408259 0)
(-0.13316817355 0.10903672073 0)
(-0.131275372488 0.125367851855 0)
(-0.129129624142 0.141443493074 0)
(-0.126738679472 0.157232741976 0)
(-0.12411098076 0.172706275998 0)
(-0.121255335319 0.187836526556 0)
(-0.118180609211 0.202597845757 0)
(-0.114895251706 0.216966464001 0)
(-0.111406912739 0.230920492199 0)
(-0.107721973723 0.244439674149 0)
(-0.103845163138 0.257505061166 0)
(-0.0997792584982 0.270098580962 0)
(-0.0955249096144 0.282202521947 0)
(-0.0910806397228 0.293798945193 0)
(-0.0864429618805 0.304869297411 0)
(-0.0816065291014 0.315393593876 0)
(-0.076564576637 0.3253503645 0)
(-0.071309408948 0.334716155191 0)
(-0.0658327871227 0.343465518804 0)
(-0.0601263113215 0.351570693916 0)
(-0.0541818501622 0.359001705673 0)
(-0.0479919663407 0.365725964087 0)
(-0.0415504705187 0.371708653446 0)
(-0.034852986386 0.376912256344 0)
(-0.0278978020628 0.38129661198 0)
(-0.0206867728562 0.384819344182 0)
(-0.0132262512669 0.387435693803 0)
(-0.00552841361473 0.389099826434 0)
(0.0023877175028 0.389764718222 0)
(0.0104950090251 0.389384123236 0)
(0.0187570639056 0.387913926126 0)
(0.0271275666719 0.385313938618 0)
(0.0355498665083 0.381549645512 0)