/*--------------------------------*- C++ -*----------------------------------*\
| =========                 |                                                 |
| \\      /  F ield         | OpenFOAM: The Open Source CFD Toolbox           |
|  \\    /   O peration     | Version:  v1906                                 |
|   \\  /    A nd           | Web:      www.OpenFOAM.com                      |
|    \\/     M anipulation  |                                                 |
\*---------------------------------------------------------------------------*/
FoamFile
{
    version     2.0;
    format      ascii;
    class       volVectorField;
    location    "164";
    object      U;
}
// * * * * * * * * * * * * * * * * * * * * * * * * * * * * * * * * * * * * * //

dimensions      [0 1 -1 0 0 0 0];


internalField   nonuniform List<vector> 
9216
(
(0.00189662826188 -0.00189836168915 0)
(0.00157591013492 -0.00496745615391 6.75776608277e-28)
(0.00160262166553 -0.00844506141011 1.15933905895e-31)
(0.0015915292892 -0.0117759430854 0)
(0.00156099509578 -0.0150681808645 0)
(0.00151928553095 -0.0182827685029 0)
(0.00146937149807 -0.0214009008498 0)
(0.00141276299232 -0.0244073938893 0)
(0.00135079967845 -0.0272897906305 0)
(0.00128437838504 -0.0300379230792 0)
(0.00121459136288 -0.0326436560228 0)
(0.00114216622556 -0.0351007562042 0)
(0.00106804183326 -0.0374047392001 0)
(0.000992785785151 -0.0395526700908 0)
(0.000917152522715 -0.0415430329787 0)
(0.000841539593202 -0.0433754604662 0)
(0.00076650372108 -0.0450506467891 0)
(0.00069228733036 -0.0465700370268 0)
(0.000619260482437 -0.0479358058473 0)
(0.000547543271514 -0.049150531811 0)
(0.00047734494951 -0.050217248099 0)
(0.000408702916797 -0.0511391205664 0)
(0.000341696231079 -0.0519195620802 0)
(0.000276318636857 -0.0525619241641 0)
(0.000212547784507 -0.0530696662827 0)
(0.000150365860925 -0.0534460596371 0)
(8.96753799684e-05 -0.053694400101 0)
(3.04744876763e-05 -0.053817728899 0)
(-2.73868120388e-05 -0.0538190774577 0)
(-8.38773537953e-05 -0.0537012083313 0)
(-0.000139176363993 -0.0534668598432 0)
(-0.000193196098548 -0.053118551708 0)
(-0.000246122058885 -0.0526588149382 0)
(-0.00029779762862 -0.0520900411902 0)
(-0.00034839051164 -0.0514147075979 0)
(-0.000397664071811 -0.0506352733071 0)
(-0.000445742705309 -0.049754385733 0)
(-0.000492301021939 -0.0487748458151 0)
(-0.000537397598531 -0.0476997665918 0)
(-0.000580617558197 -0.0465326161163 0)
(-0.000621937278226 -0.0452773137393 0)
(-0.000660862626986 -0.0439383448888 0)
(-0.000697282388171 -0.0425207795641 0)
(-0.000730646859713 -0.0410304451903 0)
(-0.000760766979667 -0.0394738533597 0)
(-0.000787080139923 -0.0378584101024 0)
(-0.000809351543499 -0.0361922300531 0)
(-0.000827068525015 -0.0344843538944 0)
(-0.000840007222793 -0.0327444403372 0)
(-0.000847789265338 -0.0309829479732 0)
(-0.000850280699509 -0.0292107010778 0)
(-0.000847329448314 -0.0274390066564 0)
(-0.000838970381484 -0.025679116419 0)
(-0.000825344700712 -0.0239422795883 0)
(-0.000806696986778 -0.0222391662681 0)
(-0.000783466747205 -0.0205798986232 0)
(-0.000756080607683 -0.0189735293239 0)
(-0.000725203683961 -0.017428112672 0)
(-0.00069135372922 -0.0159503251733 0)
(-0.000655301058246 -0.0145456131859 0)
(-0.000617547381699 -0.0132179846331 0)
(-0.000578857222308 -0.0119702119123 0)
(-0.000539642414739 -0.0108037649511 0)
(-0.000500592672502 -0.00971902159447 0)
(-0.000461996633483 -0.00871529722556 0)
(-0.000424432946027 -0.00779103056283 0)
(-0.000388056924332 -0.00694388155597 0)
(-0.000353318677027 -0.00617088248902 0)
(-0.000320243613997 -0.00546858066051 0)
(-0.000289152342009 -0.00483314669326 0)
(-0.000259959118268 -0.00426053513348 0)
(-0.000232872574948 -0.00374654322521 0)
(-0.000207727283368 -0.00328696378565 0)
(-0.000184647305959 -0.00287759300459 0)
(-0.000163420565067 -0.00251436691829 0)
(-0.000144113266865 -0.00219332742091 0)
(-0.00012649297234 -0.00191074058525 0)
(-0.000110586621137 -0.00166303523578 0)
(-9.61491815722e-05 -0.00144691166484 0)
(-8.31438274355e-05 -0.00125929339238 0)
(-7.12012989025e-05 -0.00109751914262 0)
(-5.9687556623e-05 -0.000960211071493 0)
(-4.70341869797e-05 -0.000835520567121 0)
(-4.15329293012e-05 -0.000751981208856 0)
(-4.07192862385e-05 -0.000671086657645 0)
(-3.68084815162e-05 -0.000588189599809 0)
(-3.09256332346e-05 -0.000514867200003 0)
(-2.52245477549e-05 -0.00045797207383 0)
(-2.40892419007e-05 -0.000411481368682 0)
(-2.4909383504e-05 -0.000359384204564 0)
(-2.35166171657e-05 -0.000308964961346 0)
(-2.2117484241e-05 -0.000257744365961 0)
(-2.34665077156e-05 -0.000205522069268 0)
(-2.4570539752e-05 -0.000151243299291 0)
(-2.54943597196e-05 -8.91282847674e-05 0)
(-2.64981207202e-05 -2.70407702088e-05 0)
(0.00498135391399 -0.00159633188328 0)
(0.00518505414302 -0.00523038271458 0)
(0.00519246085896 -0.00892747786074 -6.94881605825e-28)
(0.00512239928328 -0.0125314513372 0)
(0.0050145227788 -0.0160534236818 0)
(0.00487690898264 -0.019482644767 0)
(0.00471490721174 -0.0228046304099 0)
(0.00453223147188 -0.0260051747862 0)
(0.00433251541348 -0.0290717331666 0)
(0.00411875370833 -0.0319937926429 0)
(0.00389416381583 -0.0347629106331 0)
(0.00366133127958 -0.0373726427202 0)
(0.0034230166486 -0.0398184081574 0)
(0.00318129096935 -0.0420972917461 0)
(0.0029383345996 -0.0442078705899 0)
(0.00269564632331 -0.0461499672587 0)
(0.00245479407307 -0.0479244862376 0)
(0.00221674014452 -0.0495331598179 0)
(0.00198249151428 -0.0509784262231 0)
(0.00175257036297 -0.0522631925345 0)
(0.00152751867986 -0.053390763982 0)
(0.00130753903277 -0.0543646380271 0)
(0.00109281527747 -0.0551884827596 0)
(0.000883347820356 -0.0558659596557 0)
(0.000679062711645 -0.0564007501526 0)
(0.000479857791186 -0.0567964031131 0)
(0.000285487502945 -0.0570563970961 0)
(9.58306278313e-05 -0.0571840134186 0)
(-8.9456001359e-05 -0.0571824192297 0)
(-0.000270447458637 -0.0570545751952 0)
(-0.000447515287473 -0.05680333916 0)
(-0.000620623055133 -0.05643138743 0)
(-0.000790102965928 -0.0559413361177 0)
(-0.000955753206165 -0.0553357010096 0)
(-0.00111779804598 -0.0546170212307 0)
(-0.00127582126705 -0.0537878605615 0)
(-0.00142987007374 -0.0528509302148 0)
(-0.00157927254334 -0.0518091317196 0)
(-0.00172384172826 -0.0506656691051 0)
(-0.00186262944868 -0.0494241336794 0)
(-0.00199517901179 -0.0480885948442 0)
(-0.00212027833359 -0.0466637160087 0)
(-0.00223720162867 -0.0451548126251 0)
(-0.00234452945595 -0.0435679832816 0)
(-0.00244131763192 -0.0419101147712 0)
(-0.00252605375616 -0.0401890115789 0)
(-0.00259769463967 -0.038413328925 0)
(-0.00265482059395 -0.0365926652869 0)
(-0.00269648780597 -0.0347374017728 0)
(-0.00272162893897 -0.0328587242752 0)
(-0.00272966853624 -0.0309683473152 0)
(-0.00272018675704 -0.0290784400647 0)
(-0.00269324378337 -0.0272012411751 0)
(-0.00264928993484 -0.0253489023385 0)
(-0.00258915905127 -0.0235330502527 0)
(-0.00251419396335 -0.0217646115797 0)
(-0.00242590659878 -0.0200534220251 0)
(-0.00232630164546 -0.0184081189335 0)
(-0.00221725520615 -0.0168358908441 0)
(-0.00210104452314 -0.0153424946831 0)
(-0.00197953939627 -0.0139321715501 0)
(-0.00185494095572 -0.0126077654124 0)
(-0.00172886002104 -0.0113707534119 0)
(-0.00160321736057 -0.0102214047152 0)
(-0.00147924786995 -0.00915887434103 0)
(-0.00135849499248 -0.00818136498172 0)
(-0.00124177359379 -0.00728625784386 0)
(-0.00113020625975 -0.00647026755265 0)
(-0.00102418621979 -0.00572959514566 0)
(-0.000924422639599 -0.00506006252791 0)
(-0.000830939459856 -0.0044572621379 0)
(-0.000744098945931 -0.0039166529948 0)
(-0.00066365246854 -0.00343368500418 0)
(-0.000589710930578 -0.00300385121795 0)
(-0.000521856714629 -0.00262278215241 0)
(-0.000460040131944 -0.00228625952721 0)
(-0.000403760387903 -0.00199028359551 0)
(-0.000352878318684 -0.00173105388383 0)
(-0.000306862972618 -0.00150500385262 0)
(-0.000265497654049 -0.00130873209043 0)
(-0.000228125109945 -0.0011389245726 0)
(-0.000194094291061 -0.000992277210504 0)
(-0.000161181742043 -0.000860948856404 0)
(-0.000136037309688 -0.000738229739798 0)
(-0.000124141571964 -0.00065164859862 0)
(-0.000111437642625 -0.000570338136511 0)
(-9.12657246124e-05 -0.000493749620814 0)
(-7.53524993421e-05 -0.00044128216762 0)
(-7.03832892725e-05 -0.000388293203781 0)
(-7.20594826592e-05 -0.000347153505099 0)
(-7.06593379059e-05 -0.00030470717528 0)
(-6.95599245828e-05 -0.000251796693895 0)
(-7.14463942152e-05 -0.000199540586417 0)
(-8.28892406765e-05 -0.000154603770087 0)
(-9.55948950833e-05 -9.51632857835e-05 0)
(-8.18307283826e-05 -2.44912934115e-05 0)
(0.00853268806262 -0.00166030694497 0)
(0.00891946236185 -0.00535726179104 0)
(0.00883071712101 -0.00903997166614 -6.93911202008e-28)
(0.00868210277075 -0.0126858344457 0)
(0.00848693154455 -0.0162501635151 0)
(0.00824804895796 -0.0197186991439 0)
(0.00797015228275 -0.0230756493342 0)
(0.00765835525722 -0.0263066256875 0)
(0.00731806686714 -0.0293991278535 0)
(0.00695448692232 -0.0323427761938 0)
(0.00657275978297 -0.03512934318 0)
(0.00617755222005 -0.0377526675575 0)
(0.00577326932032 -0.0402085053447 0)
(0.00536369324966 -0.0424943222228 0)
(0.00495224178749 -0.0446090864222 0)
(0.00454168379435 -0.046553021067 0)
(0.00413441240025 -0.0483274060133 0)
(0.003732238201 -0.0499343403022 0)
(0.00333663923163 -0.0513765760144 0)
(0.00294862929027 -0.0526573212541 0)
(0.00256895367611 -0.0537801190248 0)
(0.00219802964898 -0.0547486925436 0)
(0.00183606416787 -0.0555668715516 0)
(0.00148307045235 -0.0562384770714 0)
(0.00113889458561 -0.0567672843677 0)
(0.00080331077443 -0.0571569438057 0)
(0.000475951546105 -0.0574109730891 0)
(0.000156487712239 -0.05753270326 0)
(-0.000155536586619 -0.0575252994835 0)
(-0.000460437654007 -0.0573917264216 0)
(-0.000758649477297 -0.0571347891451 0)
(-0.0010503713534 -0.0567571230994 0)
(-0.00133590719759 -0.0562612561479 0)
(-0.00161523648235 -0.055649618518 0)
(-0.00188842561474 -0.0549246239336 0)
(-0.00215513608387 -0.054088710425 0)
(-0.00241509308139 -0.0531444315338 0)
(-0.00266755407594 -0.0520945291057 0)
(-0.00291181985966 -0.0509420323817 0)
(-0.00314668817662 -0.04969035486 0)
(-0.00337099014137 -0.0483433945961 0)
(-0.00358306041859 -0.0469056452096 0)
(-0.00378127897714 -0.0453822846164 0)
(-0.00396358858106 -0.0437792819404 0)
(-0.00412802052218 -0.0421034617916 0)
(-0.00427229326474 -0.0403625861223 0)
(-0.00439430511378 -0.0385653689194 0)
(-0.00449184500605 -0.0367215084402 0)
(-0.00456303281047 -0.0348416178038 0)
(-0.00460616214981 -0.0329371717874 0)
(-0.00462005800802 -0.031020314187 0)
(-0.00460403591621 -0.0291036900313 0)
(-0.00455811931768 -0.0272001212868 0)
(-0.00448305567687 -0.0253223290231 0)
(-0.00438032679725 -0.0234825397439 0)
(-0.00425216794953 -0.021692181663 0)
(-0.00410134736419 -0.0199615320626 0)
(-0.00393118278172 -0.0182995087671 0)
(-0.00374514330934 -0.0167134752342 0)
(-0.00354692994752 -0.0152092080871 0)
(-0.00334002438304 -0.0137908862296 0)
(-0.00312790990632 -0.0124611931181 0)
(-0.00291363424443 -0.0112214082871 0)
(-0.00270014669231 -0.0100715553304 0)
(-0.00248986524584 -0.00901052829309 0)
(-0.00228507224127 -0.00803624765152 0)
(-0.00208747568753 -0.0071458058165 0)
(-0.00189863137665 -0.00633562799878 0)
(-0.00171951896059 -0.00560163213399 0)
(-0.00155098811883 -0.00493938168923 0)
(-0.00139337209534 -0.00434423231658 0)
(-0.00124694268643 -0.00381144719305 0)
(-0.00111155463275 -0.00333630782936 0)
(-0.000987078138767 -0.0029141789063 0)
(-0.000873065287668 -0.00254058563682 0)
(-0.000769146068591 -0.00221124079506 0)
(-0.000674716992395 -0.00192208900798 0)
(-0.00058930219748 -0.00166930796552 0)
(-0.000512271303496 -0.0014493147911 0)
(-0.000443176313363 -0.001258713499 0)
(-0.000381522746636 -0.00109423392763 0)
(-0.000327335279676 -0.000952679153034 0)
(-0.000279819805744 -0.000825530397964 0)
(-0.000238806989149 -0.000712938586117 0)
(-0.00020930553551 -0.00062497647953 0)
(-0.000184180752267 -0.000543710741536 0)
(-0.000159020375898 -0.000482660821677 0)
(-0.000130394742007 -0.000408838285686 0)
(-0.000111716967508 -0.000348353278997 0)
(-0.000109971427521 -0.000311893708078 0)
(-0.00011981259631 -0.000285110093484 0)
(-0.000113630371608 -0.000218902084131 0)
(-0.000121043172793 -0.000176589755376 0)
(-0.000133049792644 -0.000125657024527 0)
(-0.000143030333649 -7.37567447053e-05 0)
(-0.000133256608767 -2.1777981731e-05 0)
(0.0120351800817 -0.00170582525816 0)
(0.0126639066316 -0.00546843461863 0)
(0.0125346352514 -0.00919653171179 6.9381635361e-28)
(0.0123165644483 -0.0128978537626 0)
(0.0120324555346 -0.0165158228416 0)
(0.0116873509381 -0.0200337946212 0)
(0.0112875719746 -0.0234345476974 0)
(0.0108402664529 -0.0267031232011 0)
(0.0103529866335 -0.0298268673178 0)
(0.00983324487811 -0.0327955122828 0)
(0.00928832750041 -0.0356011336845 0)
(0.00872501106524 -0.0382380148414 0)
(0.00814949990352 -0.0407024513806 0)
(0.00756725680566 -0.0429925112284 0)
(0.00698303133431 -0.0451077813053 0)
(0.00640078844804 -0.0470491088408 0)
(0.00582379392443 -0.0488183588448 0)
(0.00525461035739 -0.0504181811538 0)
(0.004695203429 -0.0518518154366 0)
(0.00414698194613 -0.0531229065286 0)
(0.00361089183233 -0.0542353634907 0)
(0.00308748214995 -0.0551932267004 0)
(0.00257696815912 -0.0560005747726 0)
(0.00207931567648 -0.0566614381609 0)
(0.00159426364586 -0.0571797436785 0)
(0.00112142638539 -0.0575592596521 0)
(0.00066027470003 -0.0578035741544 0)
(0.000210260351281 -0.0579160620627 0)
(-0.000229241694209 -0.0578998920233 0)
(-0.000658783205611 -0.0577580046418 0)
(-0.00107893268586 -0.0574931415286 0)
(-0.00149009808143 -0.0571078541559 0)
(-0.00189264350173 -0.0566045429383 0)
(-0.00228668565851 -0.055985490609 0)
(-0.00267223402677 -0.0552529228489 0)
(-0.00304896731792 -0.054409067025 0)
(-0.00341639476425 -0.0534562363182 0)
(-0.00377362466271 -0.0523969103374 0)
(-0.00411954599424 -0.0512338416285 0)
(-0.00445260471202 -0.0499701571956 0)
(-0.00477100712235 -0.0486094742916 0)
(-0.00507251750051 -0.0471560090871 0)
(-0.0053546816998 -0.0456146962144 0)
(-0.00561466677026 -0.0439912939314 0)
(-0.00584950195988 -0.042292480211 0)
(-0.00605597857196 -0.0405259394197 0)
(-0.00623091163258 -0.0387004124508 0)
(-0.0063711199557 -0.0368257361915 0)
(-0.00647371308382 -0.0349128143122 0)
(-0.00653616531287 -0.032973557715 0)
(-0.006556609096 -0.031020723877 0)
(-0.00653396487282 -0.0290676989872 0)
(-0.0064681661834 -0.027128175858 0)
(-0.00636024369229 -0.0252157850358 0)
(-0.00621236734165 -0.0233436614506 0)
(-0.00602779337457 -0.0215240371639 0)
(-0.00581067521632 -0.0197678465954 0)
(-0.00556586965003 -0.0180844429877 0)
(-0.00529857710931 -0.0164814100592 0)
(-0.00501413997034 -0.0149645293006 0)
(-0.00471771475458 -0.0135378309219 0)
(-0.0044142238009 -0.0122037294442 0)
(-0.00410813953866 -0.0109631706341 0)
(-0.00380355751735 -0.00981579464251 0)
(-0.00350403001543 -0.00876008805605 0)
(-0.00321268007019 -0.00779354079526 0)
(-0.00293203981268 -0.00691280334466 0)
(-0.00266417947636 -0.0061138565236 0)
(-0.00241056806721 -0.00539218847455 0)
(-0.00217224583249 -0.00474296781628 0)
(-0.00194973675333 -0.00416120123634 0)
(-0.00174325495277 -0.00364186104604 0)
(-0.00155263943255 -0.00317998839207 0)
(-0.00137755075128 -0.00277076496742 0)
(-0.00121740347411 -0.00240957463632 0)
(-0.00107153837888 -0.00209203609416 0)
(-0.000939152624103 -0.00181403646085 0)
(-0.000819456651013 -0.00157174201033 0)
(-0.000711616730091 -0.00136160788663 0)
(-0.000614919894155 -0.00118036184695 0)
(-0.00052876104257 -0.00102515802852 0)
(-0.00045323662726 -0.000892382943796 0)
(-0.000389257527186 -0.000773880369473 0)
(-0.000339190998173 -0.000681060586203 0)
(-0.000292807046074 -0.000587457447906 0)
(-0.000256466726329 -0.000510690039063 0)
(-0.000221510276958 -0.000440322199251 0)
(-0.000186799259949 -0.000368162565678 0)
(-0.000167852036524 -0.000320863211115 0)
(-0.000150694720441 -0.000262460167279 0)
(-0.000150069641398 -0.000217722805552 0)
(-0.000166494452971 -0.000190027543563 0)
(-0.000161029794183 -0.000131956554823 0)
(-0.000172059515668 -8.92986160282e-05 0)
(-0.000185771154988 -5.34462942784e-05 0)
(-0.00017846188447 -1.69763640063e-05 0)
(0.0156370934028 -0.00175116932253 0)
(0.0164724807848 -0.00560350086109 0)
(0.0163030670127 -0.00941025491101 0)
(0.0160135627869 -0.0131893715884 0)
(0.0156361387954 -0.0168802674943 0)
(0.0151787295873 -0.0204646368371 0)
(0.0146500904812 -0.0239239649231 0)
(0.0140598987823 -0.0272426130816 0)
(0.0134182578625 -0.0304077147469 0)
(0.0127352259056 -0.0334091557708 0)
(0.01202047311 -0.036239443936 0)
(0.0112829885911 -0.038893500016 0)
(0.0105309072695 -0.0413683941849 0)
(0.00977137685155 -0.0436630451159 0)
(0.00901052466406 -0.0457779183293 0)
(0.00825344902721 -0.0477147239451 0)
(0.00750427526533 -0.0494761420029 0)
(0.00676622349715 -0.0510655722026 0)
(0.00604170526823 -0.0524869205829 0)
(0.00533242446981 -0.053744415776 0)
(0.00463947675346 -0.0548424596231 0)
(0.00396345641717 -0.0557855066989 0)
(0.00330453645428 -0.0565779711003 0)
(0.00266256835178 -0.0572241488616 0)
(0.00203713581748 -0.0577281688909 0)
(0.00142764705652 -0.0580939462543 0)
(0.000833363128534 -0.0583251648482 0)
(0.000253487009561 -0.0584252491124 0)
(-0.000312828344979 -0.0583973715554 0)
(-0.00086638722748 -0.0582444387868 0)
(-0.00140795366858 -0.0579691111597 0)
(-0.00193815238759 -0.0575738210741 0)
(-0.00245747844983 -0.0570608047638 0)
(-0.00296618579993 -0.0564321376701 0)
(-0.00346430328388 -0.055689795788 0)
(-0.00395151743738 -0.0548357170291 0)
(-0.00442719583388 -0.0538718848574 0)
(-0.00489027498765 -0.0528004221547 0)
(-0.00533929706839 -0.0516236963346 0)
(-0.00577231287918 -0.050344435182 0)
(-0.00618694549079 -0.0489658553181 0)
(-0.00658032123614 -0.0474917919114 0)
(-0.00694916219129 -0.0459268250062 0)
(-0.00728976160601 -0.0442764092407 0)
(-0.00759811396988 -0.0425469931016 0)
(-0.00786994506379 -0.0407461242007 0)
(-0.00810089395976 -0.0388825438387 0)
(-0.00828662355388 -0.0369662473682 0)
(-0.00842307584673 -0.0350085020113 0)
(-0.00850668722405 -0.033021806484 0)
(-0.00853471367865 -0.0310197531274 0)
(-0.00850550596965 -0.029016787591 0)
(-0.00841879876837 -0.0270278432588 0)
(-0.00827587947948 -0.0250678761493 0)
(-0.0080796596854 -0.0231513400723 0)
(-0.00783458814369 -0.0212916473624 0)
(-0.00754642062881 -0.0195006762442 0)
(-0.00722185941921 -0.0177883917899 0)
(-0.00686808228142 -0.0161626430373 0)
(-0.00649233111971 -0.0146291642727 0)
(-0.0061015590399 -0.0131917143661 0)
(-0.00570226680983 -0.0118522929586 0)
(-0.00530036748754 -0.01061135232 0)
(-0.00490118120038 -0.00946799536263 0)
(-0.00450937278685 -0.00842014373753 0)
(-0.00412897155944 -0.00746469835016 0)
(-0.00376329778142 -0.0065976982694 0)
(-0.00341497738301 -0.00581450567412 0)
(-0.00308589362348 -0.00511000841166 0)
(-0.00277727007622 -0.00447882437928 0)
(-0.00248971112113 -0.00391548297813 0)
(-0.00222334684208 -0.00341456269081 0)
(-0.00197789448249 -0.00297079081695 0)
(-0.00175278674653 -0.0025791081413 0)
(-0.00154721023779 -0.00223471781467 0)
(-0.00136020594734 -0.00193311621921 0)
(-0.0011906898738 -0.00167011707561 0)
(-0.00103754179432 -0.00144186767568 0)
(-0.000899628920817 -0.00124486073496 0)
(-0.000775909468763 -0.00107592176477 0)
(-0.000665495388057 -0.000932462158107 0)
(-0.00056843771532 -0.000810216343338 0)
(-0.000484426815438 -0.000698393974319 0)
(-0.000427082243793 -0.000617427560699 0)
(-0.000376406693844 -0.000537244618922 0)
(-0.000333761488682 -0.000466053455454 0)
(-0.000296421709806 -0.000400432775038 0)
(-0.000253413145211 -0.000331939381661 0)
(-0.000212054052776 -0.000259438770704 0)
(-0.000197823875822 -0.000212649303199 0)
(-0.000184727523141 -0.000160765568189 0)
(-0.00019737398748 -0.000134003200774 0)
(-0.000212822660924 -0.000102503234538 0)
(-0.000205725910742 -6.08251374963e-05 0)
(-0.000208666186333 -3.39235694448e-05 0)
(-0.000201158522573 -1.10116145632e-05 0)
(0.0193398519292 -0.00180490912156 0)
(0.0203769358322 -0.0057712376138 0)
(0.0201636232376 -0.00968465403256 0)
(0.01979739379 -0.0135656923558 0)
(0.0193195646303 -0.0173507209104 0)
(0.0187412342572 -0.0210198880508 0)
(0.0180741597671 -0.0245534286207 0)
(0.0173310676543 -0.0279350110659 0)
(0.0165250755882 -0.031151599919 0)
(0.0156691376262 -0.0341933610758 0)
(0.0147755950505 -0.0370534389853 0)
(0.0138558302096 -0.0397276527084 0)
(0.0129200373334 -0.0422141387691 0)
(0.011977090059 -0.044512971456 0)
(0.0110345018405 -0.0466257892375 0)
(0.0100984505957 -0.0485554406012 0)
(0.00917385799707 -0.0503056687237 0)
(0.00826450227919 -0.0518808378061 0)
(0.00737314791511 -0.0532857026823 0)
(0.00650168653296 -0.0545252245211 0)
(0.00565126961567 -0.0556044220305 0)
(0.00482244216644 -0.0565282587569 0)
(0.00401525225507 -0.0573015564026 0)
(0.00322936259561 -0.0579289335795 0)
(0.00246413290821 -0.0584147601665 0)
(0.00171871044828 -0.0587631268139 0)
(0.000992087085941 -0.0589778278952 0)
(0.000283174650637 -0.0590623462555 0)
(-0.000409152519833 -0.0590198579079 0)
(-0.00108598598948 -0.0588532211861 0)
(-0.00174834634995 -0.0585649987652 0)
(-0.00239710809188 -0.058157470363 0)
(-0.00303296188715 -0.0576326668656 0)
(-0.00365633091609 -0.0569924049356 0)
(-0.00426733063295 -0.0562383427003 0)
(-0.00486568187998 -0.0553720477118 0)
(-0.00545067316765 -0.0543950821052 0)
(-0.0060210806732 -0.0533090975869 0)
(-0.00657514550234 -0.0521159649299 0)
(-0.00711051233887 -0.0508178888323 0)
(-0.00762423689671 -0.0494175608693 0)
(-0.00811276234056 -0.0479183000314 0)
(-0.00857196658716 -0.0463242082301 0)
(-0.00899718241224 -0.0446403142807 0)
(-0.00938329504105 -0.0428727293646 0)
(-0.00972482294503 -0.0410287824465 0)
(-0.0100160805395 -0.0391171510463 0)
(-0.0102513534301 -0.0371479767489 0)
(-0.0104251731439 -0.0351329336833 0)
(-0.010532641349 -0.0330852482543 0)
(-0.0105698495828 -0.0310195912735 0)
(-0.0105343138005 -0.0289518295971 0)
(-0.0104253955085 -0.0268985934203 0)
(-0.0102445810823 -0.0248766876454 0)
(-0.00999560557812 -0.022902409174 0)
(-0.00968434211131 -0.0209908355859 0)
(-0.00931850260864 -0.0191551527888 0)
(-0.00890708183645 -0.0174061379451 0)
(-0.00845963832724 -0.0157519120973 0)
(-0.0079856470158 -0.0141980338619 0)
(-0.00749404729377 -0.012747794312 0)
(-0.00699303970268 -0.0114025645188 0)
(-0.00649001243244 -0.0101621100085 0)
(-0.00599155369846 -0.00902482285661 0)
(-0.00550344608179 -0.00798789853225 0)
(-0.00503067011734 -0.00704748319348 0)
(-0.00457734277135 -0.00619882505777 0)
(-0.00414666348203 -0.0054364657781 0)
(-0.00374087325833 -0.00475449261371 0)
(-0.00336131843609 -0.00414679523062 0)
(-0.00300856708121 -0.00360728672664 0)
(-0.00268258159461 -0.00313005186938 0)
(-0.00238285099546 -0.00270943447821 0)
(-0.0021085200246 -0.00234008671906 0)
(-0.00185846760815 -0.00201699878414 0)
(-0.00163139156031 -0.00173551984402 0)
(-0.00142585942062 -0.00149137586926 0)
(-0.00124037360113 -0.00128068398979 0)
(-0.00107341961534 -0.00109997700468 0)
(-0.000923539684084 -0.000946214486328 0)
(-0.000789429998689 -0.000817406004967 0)
(-0.000671193980869 -0.000705630104692 0)
(-0.000582051379867 -0.000615318640474 0)
(-0.000504074883871 -0.000526644692614 0)
(-0.000445003964604 -0.000451527750943 0)
(-0.000397329624008 -0.000387215223166 0)
(-0.000343748916612 -0.000318166586871 0)
(-0.000309149332922 -0.000268551695022 0)
(-0.000280211861674 -0.000216654946769 0)
(-0.000258630712892 -0.000168640812194 0)
(-0.000220726483281 -0.000112647630768 0)
(-0.000215419807134 -7.8558667843e-05 0)
(-0.000236268105435 -6.23109310391e-05 0)
(-0.000234323255669 -3.99424349184e-05 0)
(-0.000226873312282 -2.03203993485e-05 0)
(-0.0002195262381 -6.49394353454e-06 0)
(0.0231656794507 -0.0018702892695 0)
(0.0244057400386 -0.00597795400457 0)
(0.0241425127954 -0.0100259000606 6.88936614775e-28)
(0.0236914264426 -0.0140345308296 0)
(0.0231031441904 -0.0179364748322 0)
(0.0223922803896 -0.0217100584744 0)
(0.0215741629387 -0.0253341475481 0)
(0.0206651620261 -0.0287917129716 0)
(0.0196819553498 -0.0320696602537 0)
(0.0186408399977 -0.0351586514141 0)
(0.0175571738954 -0.0380527660883 0)
(0.0164449628572 -0.0407490726697 0)
(0.0153165959281 -0.0432471478134 0)
(0.0141827162955 -0.0455485931778 0)
(0.0130522020965 -0.0476565701142 0)
(0.0119322334351 -0.049575379345 0)
(0.0108284210806 -0.051310101192 0)
(0.00974497079542 -0.0528662923837 0)
(0.00868486469579 -0.0542497455714 0)
(0.0076500466442 -0.0554663020102 0)
(0.00664159656234 -0.0565217114212 0)
(0.00565989356601 -0.057421532925 0)
(0.00470475574324 -0.0581710597929 0)
(0.00377556760509 -0.058775276899 0)
(0.00287138331926 -0.0592388276195 0)
(0.00199102193705 -0.0595659981312 0)
(0.00113313981857 -0.05976070523 0)
(0.000296304235782 -0.0598264919757 0)
(-0.000520949962135 -0.0597665367882 0)
(-0.00132005140401 -0.0595836368096 0)
(-0.00210233850758 -0.0592802374355 0)
(-0.00286898861495 -0.0588584407139 0)
(-0.0036209548201 -0.0583200304259 0)
(-0.004358886267 -0.0576665104506 0)
(-0.00508305489986 -0.0568991506664 0)
(-0.00579326977388 -0.0560190661326 0)
(-0.00648880442529 -0.0550272917289 0)
(-0.00716831348907 -0.053924900855 0)
(-0.00782977644853 -0.0527131309417 0)
(-0.00847044272188 -0.0513935275936 0)
(-0.00908680860337 -0.0499681076376 0)
(-0.00967460387572 -0.0484395231805 0)
(-0.0102288211253 -0.0468112461652 0)
(-0.0107437539205 -0.0450877387136 0)
(-0.0112130794612 -0.0432746345022 0)
(-0.0116299586018 -0.0413789102615 0)
(-0.0119871904428 -0.039409074218 0)
(-0.0122774166634 -0.0373753397346 0)
(-0.0124934283087 -0.0352897900443 0)
(-0.0126285873005 -0.0331664845407 0)
(-0.0126773890951 -0.0310214272351 0)
(-0.0126361158267 -0.0288723347234 0)
(-0.0125034756177 -0.0267381121262 0)
(-0.0122810486408 -0.0246380884083 0)
(-0.0119734939997 -0.0225911042098 0)
(-0.0115884213223 -0.020614547555 0)
(-0.0111360410591 -0.0187234203201 0)
(-0.0106283141953 -0.0169295321043 0)
(-0.010077814496 -0.0152412163557 0)
(-0.00949668512868 -0.0136635837648 0)
(-0.00889606677677 -0.0121991162166 0)
(-0.00828595072532 -0.0108482688735 0)
(-0.00767520715634 -0.00960987579507 0)
(-0.00707169439757 -0.00848143733259 0)
(-0.00648232256755 -0.00745926835461 0)
(-0.00591306727909 -0.00653860083499 0)
(-0.00536889209597 -0.00571369622242 0)
(-0.00485360042767 -0.00497804015251 0)
(-0.0043697374729 -0.00432466654592 0)
(-0.00391865425426 -0.00374652004787 0)
(-0.00350072599298 -0.00323674712761 0)
(-0.00311560904396 -0.00278884732457 0)
(-0.0027624428451 -0.00239672943743 0)
(-0.00243999539283 -0.00205472486052 0)
(-0.00214676071456 -0.00175758985182 0)
(-0.00188103463233 -0.00150050796548 0)
(-0.00164097457514 -0.00127909883603 0)
(-0.00142465171097 -0.00108942765971 0)
(-0.00123010222031 -0.000928025329713 0)
(-0.0010553749245 -0.000791895431783 0)
(-0.000898705392395 -0.000679167905748 0)
(-0.000759640337603 -0.000578898102862 0)
(-0.000669345140478 -0.000505381494016 0)
(-0.000586993014264 -0.000428401847407 0)
(-0.000514460785759 -0.000358208350804 0)
(-0.000457125572896 -0.000299533341998 0)
(-0.00040271335231 -0.000244538636655 0)
(-0.000352986965684 -0.000190507276891 0)
(-0.000324888696169 -0.000147581656837 0)
(-0.000289209261679 -0.000104180074275 0)
(-0.000271140408686 -7.27549282227e-05 0)
(-0.000239695362037 -3.81575548291e-05 0)
(-0.000237352837395 -2.30415446729e-05 0)
(-0.000247142080424 -1.66303365754e-05 0)
(-0.000236022577831 -7.59840527173e-06 0)
(-0.000228508410256 -2.27256274823e-06 0)
(0.0271414570211 -0.00194963767677 0)
(0.0285885109884 -0.0062296278789 0)
(0.0282677353709 -0.0104422109841 -6.8882590639e-28)
(0.0277209580654 -0.014606378364 0)
(0.027008912651 -0.0186499230811 0)
(0.0261503734693 -0.0225488875309 0)
(0.0251649937709 -0.0262805636428 0)
(0.0240735416135 -0.0298272351074 0)
(0.0228969339843 -0.0331759378609 0)
(0.0216553663683 -0.036318157789 0)
(0.0203676256106 -0.0392493312953 0)
(0.0190506067166 -0.0419682449958 0)
(0.0177190295523 -0.0444763980191 0)
(0.0163853293995 -0.0467773776641 0)
(0.015059686095 -0.0488762835108 0)
(0.0137501592835 -0.0507792319115 0)
(0.0124628878354 -0.0524929407016 0)
(0.0112023263166 -0.0540244020313 0)
(0.00997149226832 -0.0553806337812 0)
(0.00877220726132 -0.0565684988128 0)
(0.00760531909702 -0.0575945817163 0)
(0.00647089834269 -0.0584651066817 0)
(0.00536840800695 -0.0591858895927 0)
(0.00429684889785 -0.0597623109407 0)
(0.0032548780339 -0.0601993089912 0)
(0.00224090824904 -0.0605013730424 0)
(0.00125318972919 -0.0606725480194 0)
(0.000289882807666 -0.060716437857 0)
(-0.000650880456101 -0.0606362154624 0)
(-0.00157092500688 -0.0604346110631 0)
(-0.00247197396442 -0.0601139360401 0)
(-0.00335557383634 -0.0596760867384 0)
(-0.00422301805114 -0.0591225657693 0)
(-0.00507525594402 -0.058454506314 0)
(-0.0059127997552 -0.0576727303502 0)
(-0.00673562273915 -0.0567778013483 0)
(-0.00754305856773 -0.055770126782 0)
(-0.0083337000639 -0.0546500703356 0)
(-0.00910531863818 -0.0534180946401 0)
(-0.00985479254105 -0.0520749206852 0)
(-0.010578066618 -0.0506217212747 0)
(-0.0112701340671 -0.0490603116915 0)
(-0.0119250572164 -0.0473933553528 0)
(-0.0125360118432 -0.0456245707278 0)
(-0.0130953617119 -0.0437589318193 0)
(-0.0135947554094 -0.0418028914083 0)
(-0.0140252642056 -0.0397646068682 0)
(-0.0143775777697 -0.0376542124298 0)
(-0.0146423193497 -0.0354841016262 0)
(-0.0148105588545 -0.0332692064481 0)
(-0.0148745643098 -0.0310271195311 0)
(-0.0148287689196 -0.0287779154175 0)
(-0.0146707913056 -0.026543525991 0)
(-0.0144021081414 -0.0243467060003 0)
(-0.0140284259771 -0.0222097834195 0)
(-0.0135594753533 -0.0201533834213 0)
(-0.0130087830945 -0.0181950480958 0)
(-0.0123923732533 -0.0163479203027 0)
(-0.0117267825586 -0.0146202904651 0)
(-0.0110274016386 -0.0130162955848 0)
(-0.0103077648319 -0.0115370671879 0)
(-0.00957964280832 -0.0101817119485 0)
(-0.00885331213386 -0.00894786060978 0)
(-0.00813784038636 -0.00783194415741 0)
(-0.00744124694656 -0.00682927622446 0)
(-0.00677058174763 -0.00593405895411 0)
(-0.00613176983195 -0.00513936276282 0)
(-0.00552930573996 -0.00443731524245 0)
(-0.00496597705152 -0.00381954955557 0)