/*--------------------------------*- C++ -*----------------------------------*\
| =========                 |                                                 |
| \\      /  F ield         | OpenFOAM: The Open Source CFD Toolbox           |
|  \\    /   O peration     | Version:  v1906                                 |
|   \\  /    A nd           | Web:      www.OpenFOAM.com                      |
|    \\/     M anipulation  |                                                 |
\*---------------------------------------------------------------------------*/
FoamFile
{
    version     2.0;
    format      ascii;
    class       volScalarField;
    location    "618";
    object      pa;
}
// * * * * * * * * * * * * * * * * * * * * * * * * * * * * * * * * * * * * * //

dimensions      [0 2 -2 0 0 0 0];


internalField   nonuniform List<scalar> 
9216
(
978.072542812
977.710319022
976.9743438
975.861469224
974.37535919
972.520304047
970.301679068
967.725879254
964.800227659
961.532943438
957.933042514
954.010306497
949.775176565
945.238725056
940.412548503
935.308745882
929.93981706
924.318651208
918.458435982
912.372658247
906.07502767
899.579490159
892.900167534
886.051382135
879.047612168
871.903524219
864.633942132
857.253882859
849.778535409
842.223294587
834.603746273
826.935692806
819.235138126
811.51830036
803.801592668
796.101615819
788.435129343
780.819019994
773.270259686
765.80584724
758.442751618
751.19782707
744.087742515
737.128872462
730.337214544
723.728259098
717.316895515
711.117261692
705.142636553
699.405268565
693.916250087
688.685327004
683.720756818
679.02911428
674.61515233
670.481637781
666.629251028
663.056490567
659.759641085
656.732763806
653.96774906
651.454415171
649.180696131
647.132921027
645.296203735
643.654913127
642.193130193
640.895079486
639.745423075
638.729522217
637.833548233
637.044626437
636.350842569
635.741312138
635.206116922
634.736317761
634.323859246
633.961556796
633.642997864
633.362512591
633.115073557
632.896253057
632.702116087
632.52913487
632.373585432
632.238418598
632.126852703
632.037545269
631.9691384
631.918809546
631.883406674
631.859298449
631.843280342
631.833615935
631.828769873
631.827078836
978.434317793
978.07094251
977.333701195
976.217764309
974.727347232
972.866884168
970.641840314
968.058674991
965.124782803
961.848445672
958.238754928
954.305556982
950.059369518
945.511327247
940.673098941
935.55683862
930.175109261
924.540843867
918.66728057
912.567936595
906.256557774
899.74710657
893.053726951
886.190745557
879.172650817
872.014104482
864.729932145
857.335141014
849.844917801
842.274647803
834.639915165
826.956517231
819.240462757
811.507976224
803.775486743
796.059616708
788.377156993
780.745034836
773.180271338
765.699925895
758.321034567
751.060531196
743.935167942
736.961415679
730.155369534
723.532631665
717.108203409
710.896351116
704.910482663
699.162993396
693.665122012
688.426774749
683.456361584
678.760610103
674.344403041
670.210617503
666.360006877
662.791109958
659.500208887
656.481319588
653.726228078
651.224575145
648.964025254
646.930540951
645.108806772
643.482754724
642.036084193
640.752713163
639.617092261
638.61443018
637.730810964
636.953298431
636.269967755
635.669937782
635.143331421
634.681248806
634.275694806
633.91953641
633.606428896
633.330763247
633.087587323
632.872551235
632.681841458
632.51216773
632.360548658
632.227595726
632.117312357
632.030365499
631.963168413
631.9135611
631.879301486
631.856059965
631.840410333
631.831318429
631.826981826
631.825234441
979.17174121
978.805203656
978.063724246
976.941429645
975.442572406
973.571646426
971.334213657
968.736839744
965.787039197
962.493216765
958.864595961
954.911152829
950.643539263
946.073015918
941.211377199
936.070889401
930.664223272
925.004402455
919.104748318
912.97884227
906.640485738
900.103677919
893.382591575
886.491565485
879.445094504
872.257833974
864.944600728
857.520385305
850.000359465
842.399891215
834.734553984
827.020138331
819.272657071
811.508348923
803.743672778
795.995296611
788.280075683
780.61502137
773.017258887
765.503972962
758.092343576
750.799468747
743.642280204
736.637446736
729.801273987
723.149592611
716.697645116
710.45995969
704.450221518
698.681126671
693.164229425
687.909768142
682.926484188
678.221425772
673.79975993
669.664596019
665.816848763
662.255142748
658.975766496
655.97265409
653.237398644
650.759292271
648.525453295
646.521065635
644.729882056
643.134894409
641.718987025
640.465452675
639.358313304
638.382490827
637.52388883
636.769461552
636.107253108
635.526407671
635.017125654
634.570603761
634.178959513
633.835174131
633.533030271
633.267047973
633.032409053
632.824892594
632.640813035
632.476992813
632.330412201
632.2019624
632.097831869
632.015837314
631.951042034
631.90353051
631.871524092
631.849398432
631.834967236
631.826738347
631.822411446
631.820271222
980.292287627
979.922080934
979.174077329
978.041996838
976.530177977
974.643217991
972.386818425
969.767706498
966.793577017
963.473026242
959.815478824
955.831114134
951.530788411
946.92596016
942.028614538
936.851194411
931.406533237
925.707797395
919.768432589
913.602121496
907.222746773
900.644365824
893.881190996
886.947580671
879.858034725
872.627198908
865.269871752
857.801017774
850.235781031
842.58950196
834.877732784
827.116251473
819.321072664
811.50845442
803.694897438
795.897136881
788.132123919
780.416996497
772.769037994
765.205623225
757.744152421
750.40197295
743.196291432
736.144076122
729.261953477
722.566097798
716.072117415
709.794933603
703.748653407
697.946428891
692.400301807
687.121025239
682.117864167
677.398375233
672.968181071
668.830760975
664.987283966
661.43651149
658.174754465
655.195852991
652.491155528
650.049471891
647.857113797
645.897994865
644.154295105
642.607433293
641.238973103
640.031255955
638.967695151
638.032833064
637.212323411
636.492969781
635.862776997
635.310952378
634.827833743
634.404785195
634.034098343
633.708930401
633.423256897
633.171799388
632.949939424
632.753643378
632.57939283
632.424128119
632.284741491
632.164323101
632.068314477
631.992056583
631.932973074
631.889507297
631.85914004
631.838788217
631.825824794
631.818129493
631.813842754
631.811739135
981.798953022
981.424031809
980.667203787
979.521859444
977.992475251
976.083800619
973.801728599
971.15320801
968.146179719
964.789503202
961.092878189
957.066763782
952.722295585
948.071204117
943.125734817
937.898572854
932.402772801
926.651696115
920.658956066
914.438372517
908.003935587
901.369779808
894.550167084
887.559479235
880.412217848
873.1230116
865.706628533
858.17799314
850.552205813
842.844564246
835.070585319
827.246023888
819.386890351
811.509462898
803.630292725
795.766200742
787.934263527
780.151787026
772.436266721
764.805333547
757.276685886
749.86800833
742.596879449
735.480670571
728.536438914
721.780816904
715.229899813
708.899130505
702.803179054
696.955810317
691.369731805
686.056410438
681.025852971
676.28634505
671.844172068
667.703342096
663.865383809
660.329237439
657.091267607
654.145238016
651.482285159
649.090689777
646.955790145
645.059596664
643.381803058
641.901387741
640.597973825
639.452642406
638.448119795
637.568565005
636.799347542
636.127072625
635.539707459
635.026587544
634.578287281
634.186433294
633.843557379
633.5430461
633.27913734
633.046837325
632.841802848
632.660255627
632.498902575
632.354780662
632.225218359
632.115774071
632.029699559
631.961230815
631.907578148
631.868489054
631.841686768
631.823625655
631.811792626
631.804695524
631.800639143
631.798625368
983.696379159
983.315545024
982.547523337
981.385326269
979.833620504
977.897360316
975.582689217
972.896844047
969.848084164
966.445609951
962.699476644
958.620505236
954.220191895
949.51061852
944.504365717
939.214430777
933.654151732
927.837139833
921.777221113
915.48838879
908.984766432
902.280582743
895.390156925
888.327894505
881.108291809
873.745948333
866.255584903
858.652066733
850.950429435
843.16590704
835.31396131
827.41030746
819.470939789
811.5121517
803.550548559
795.603051383
787.686888678
779.81957438
772.018870109
764.302730814
756.689233903
749.196493077
741.842559569
734.645314355
727.622355857
720.790887269
714.167606652
707.768600156
701.609234859
695.704042784
690.066581129
684.709252077
679.643058657
674.877295053
670.419166977
666.273420423
662.442037496
658.924161344
655.716224275
652.811973154
650.20250903
647.875706984
645.816101096
644.002874231
642.411770953
641.018029918
639.798534029
638.73288508
637.80327541
636.993670567
636.28914006
635.675991277
635.142147625
634.677192864
634.272109952
633.918928747
633.610482338
633.340407233
633.103278148
632.89449576
632.710081482
632.546596968
632.401079291
632.270751442
632.154376958
632.058254664
631.981711367
631.920813756
631.874431221
631.841918311
631.818467417
631.802697259
631.792550657
631.785647956
631.781763522
631.77980827
985.990381067
985.602338653
984.82064273
983.63784629
982.058858089
980.088892989
977.734410289
975.003008426
971.903345614
968.445048598
964.638616725
960.495322695
956.027112271
951.246505057
946.16649855
940.800477503
935.162130767
929.26537739
923.124303787
916.753113131
910.166087893
903.377565556
896.401927187
889.25359765
881.947056102
874.496854838
866.917644834
859.224206157
851.431481939
843.55461437
835.608983026
827.610239122
819.574341334
811.517585723
803.456628652
795.408499775
787.390601935
779.420694964
771.516860981
763.697449607
755.981002979
748.386162056
740.93155777
733.63569236
726.516817684
719.592817644
712.88110069
706.398505026
700.161213838
694.184668737
688.483462378
683.071173783
677.96011748
673.160952457
668.682178849
664.529540145
660.705576553
657.209527857
654.037886543
651.184409358
648.640615935
646.394332424
644.430569529
642.724084488
641.244052419
639.959902998
638.844720955
637.876671786
637.038111038
636.313396119
635.687224524
635.145290634
634.675435223
634.267720679
633.91386263
633.606520054
633.338852156
633.104662502
632.898945686
632.717676084
632.557335512
632.414901424
632.287859843
632.173714004
632.072788736
631.99050458
631.924764644
631.873550808
631.835599607
631.80830489
631.788375984
631.774904897
631.766611335
631.76050777
631.757026656
631.755305508
988.688048275
988.291414136
987.493424332
986.286080508
984.674588877
982.664486077
980.262620021
977.477033132
974.3168723
970.792285962
966.914316059
962.694786706
958.146191784
953.28158406
948.114467922
942.658698397
936.928388545
930.93782786
924.70141345
918.233595978
911.548841067
904.661606733
897.586335872
890.337462655
882.929430466
875.376719305
867.693880081
859.89557411
851.996616105
844.012019668
835.957045882
827.847247988
819.698519477
811.527136667
803.349794483
795.183631897
787.046242719
778.955667683
770.930364211
762.989151323
755.151128951
747.435573215
739.86181224
732.449089989
725.21642836
718.182499124
711.365516516
704.783158142
698.452513101
692.390048096
686.611558636
681.132066155
675.965572182
671.124613936
666.619518249
662.457466646
658.641592504
655.170864591
652.041709593
649.247710048
646.781757848
644.631932516
642.788665399
641.218788667
639.879779452
638.731878607
637.742964186
636.890482344
636.15885357
635.534297711
635.000680101
634.542123991
634.146283484
633.8042034
633.508972467
633.254279934
633.033515309
632.840265096
632.670053096
632.519824415
632.38658684
632.267757569
632.161461254
632.065680635
631.982094237
631.914418124
631.860829099
631.819622862
631.78935729
631.766936884
631.751614615
631.740655408
631.733698488
631.729454311
631.726503778
631.725162469
991.797823723
991.391116525
990.574044481
989.337957047
987.688420213
985.631361257
983.174099164
980.325213463
977.094441186
973.492559671
969.531264124
965.223041655
960.581044591
955.618965369
950.350915799
944.791313099
938.954775821
932.856032226
926.509844111
919.930948019
913.134015573
906.133632971
898.944299088
891.580439792
884.056435878
876.386661024
868.585526996
860.667533495
852.647321503
844.539729076
836.359851637
828.123098515
819.845255959
811.542545301
803.231675398
794.929884484
786.654965931
778.425272065
770.259690838
762.177591075
754.198734393
746.343154924
738.631012317
731.082428126
723.717320494
716.555255138
709.615331797
702.916120867
696.475658838
690.311491702
684.440741613
678.880120076
673.645788933
668.752867316
664.214422663
660.039821501
656.23283623
652.790976677
649.71045991
646.983598512
644.60681896
642.566457359
640.875209996
639.482395313
638.323180794
637.343294147
636.503564007
635.782948878
635.172535391
634.664042217
634.238532014
633.875728386
633.563065137
633.293757073
633.063582467
632.868031562
632.700328824
632.552600967
632.421119807
632.304888145
632.20131145
632.108034835
632.024193696
631.948334787
631.883128705
631.830685359
631.789749926
631.758795785
631.736040755
631.7195327
631.708008539
631.700445348
631.69533281
631.692927154
631.69064697
631.689785663
995.329594674
994.911218018
994.072071775
992.802743584
991.1092305
988.997929646
986.476725483
983.554841085
980.242719051
976.551887294
972.494819329
968.084791289
963.335738208
958.262112381
952.878746185
947.200722626
941.243256653
935.021591173
928.550911029
921.846278412
914.922591464
907.794567039
900.476746079
892.983519008
885.329166531
877.527911402
869.59397657
861.541647061
853.385334156
845.139642137
836.819440793
828.439935422
820.016747253
811.565991008
803.104348595
794.649132868
786.218333871
777.830639657
769.50542379
761.262692771
753.122989167
745.107250284
737.236628198
729.532284145
722.015178055
714.705880741
707.624439113
700.790324107
694.222479949
687.939483146
681.959783425
676.301966139
670.984859773
666.02720495
661.446346097
657.25548412
653.459180088
650.050132204
647.024948939
644.370617861
642.092669666
640.159904972
638.665613925
637.510226222
636.583973325
635.81103157
635.14265899
634.564612935
634.084943842
633.710643297
633.412602976
633.158194894
632.935869186
632.74398238
632.583646929
632.453778014
632.346363736
632.248325121
632.157110621
632.077242569
632.005532253
631.938870056
631.878531911
631.823427348
631.776767735
631.739610098
631.711702503
631.691484518
631.677001197
631.666740821
631.659074983
631.654308446
631.652044457
631.651217704
631.65006791
631.649647012
999.294799493
998.863019043
997.998562558
996.691134562
994.947246388
992.773857085
990.179526009
987.174242347
983.769286627
979.977076021
975.811004548
971.285280159
966.414761619
961.214797367
955.701069189
949.889443647
943.795835524
937.436087623
930.825872214
923.980618263
916.915468103
909.64526427
902.184565377
894.547686353
886.748757031
878.801791534
870.720762509
862.519676026
854.212646724
845.813974639
837.33822975
828.800336301
820.21567347
811.600176594
802.97043829
794.343801232
785.738432793
777.173370483
768.668526816
760.244642851
751.923182338
743.726163326
735.675932126
727.794895078
720.10523629
712.628660928
705.386212359
698.398210903
691.684357206
685.264027705
679.156776359
673.383002475
667.964635301
662.925403311
658.2896619
654.078288918
650.297914765
646.926478071
643.96598554
641.38539634
639.221521428
637.343221143
636.129292358
635.31170888
634.69253853
634.172048515
633.680840154
633.225269963
632.862240757
632.653139647
632.524546744
632.400186517
632.276367865
632.164310212
632.076153626
632.0189024
631.981804007
631.936632381
631.882555104
631.841276931
631.804144305
631.763603775
631.727493602
631.69316038
631.664927036
631.643522929
631.628690799
631.618541338
631.611867258
631.607826759
631.605394556
631.604041546
631.603995528
631.604945909
631.605377535
631.605421151
1003.70655522
1003.25947121
1002.36617594
1001.01535598
999.214134654
996.970141396
994.292738266
991.192822898
987.682666179
983.775733393
979.486500937
974.830271014
969.822986383
964.481047303
958.821132525
952.860027951
946.614467275
940.100991108
933.335831143
926.334826489
919.113376966
911.686435951
904.068540529
896.273873086
888.316344227
880.209686126
871.967546277
863.603576502
855.13151715
846.565281698
837.919050647
829.207370718
820.445278233
811.648429366
802.833236432
794.016999373
785.218019545
776.455681033
767.750483228
759.124008149
750.598808171
742.198205241
733.946002907
725.86612768
717.982235612
710.317340586
702.893535397
695.731882298
688.852540369
682.275195895
676.019870062
670.108185083
664.565086519
659.42074817
654.71104727
650.474289517
646.725261545
643.395972786
640.51986693
638.000133646
635.965604843
633.624296183
632.882932107
632.651128853
632.493044636
632.33513458
632.174744251
632.036373957
631.951316733
631.882701128
631.787350751
631.673140831
631.57183316
631.499467769
631.475184809
631.516210738
631.595270563
631.627106272
631.598930507
631.601637955
631.604647698
631.584981374
631.57410452
631.559178625
631.549379118
631.543515912
631.541059761
631.540475728
631.541659837
631.544234543
631.54716996
631.550297709
631.552892022
631.555421651
631.557687557
631.55843645
1008.57981004
1008.11532345
1007.18931134
1005.78928982
1003.92311074
1001.59920271
998.827881275
995.621118708
991.992352708
987.956278707
983.528639994
978.726017409
973.565620235
968.065078598
962.242238765
956.114963963
949.700946579
943.017539457
936.081616679
928.909473665
921.516775494
913.918557259
906.129274953
898.162897439
890.033024724
881.75301418
873.33609932
864.795492549
856.144474202
847.396478572
838.565191788
829.664664186
820.709459441
811.714820002
802.696848829
793.672692086
784.660706837
775.680594227
766.753475821
757.901888475
749.14967364
740.52174199
732.04370633
723.741396288
715.640298733
707.765000889
700.138741894
692.783185612
685.718505982
678.963878525
672.538535862
666.463673853
660.765666663
655.481278699
650.663923543
646.393714123
642.72321614
639.423033345
636.617818844
633.853587829
632.594089685
632.345448314
632.352360462
632.377330173
632.350872949
632.290510162
632.209328212
632.120223249
632.036426574
631.954681632
631.866204346
631.774498899
631.691682199
631.632474523
631.614452381
631.631079965
631.594068795
631.390874005
631.255003512
631.332125106
631.415315767
631.401954885
631.422516652
631.422550671
631.431095884
631.439204918
631.449128362
631.458215861
631.468248026
631.477969535
631.486487667
631.49387612
631.499925537
631.504349626
631.508447347
631.509949278
1013.93152567
1013.44729746
1012.4842719
1011.02862127
1009.08906585
1006.67498826
1003.79783673
1000.47085371
996.708848393
992.527955126
987.945393471
982.979231632
977.648152394
971.971219914
965.967645876
959.656557321
953.056772016
946.186592643
939.063633887
931.704698701
924.125717319
916.341757622
908.367105207
900.215400652
891.89980988
883.433198406
874.828282582
866.097744667
857.25431675
848.310855747
839.280434683
830.176464176
821.012869509
811.80430036
802.566370615
793.315908672
784.071198281
774.852185904
765.680624855
756.580120987
747.576041361
738.69524988
729.96564557
721.415506889
713.072688868
704.963780373
697.1133758
689.543636032
682.274226415
675.32270254
668.705521249
662.440174217
656.5496054
651.072665036
646.080722551
641.750613724
638.267135109
634.616119292
632.81393917
632.675252192
632.659069237
632.646970388
632.664881886
632.66552486
632.638164722
632.586803978
632.513408481
632.424087603
632.328010429
632.226227251
632.116081121
632.001286799
631.890043848
631.793326875
631.721138402
631.664102684
631.58346286
631.491961748
631.46250827
631.469509531
631.352998628
631.174666804
631.270042989
631.281067618
631.310041383
631.33167133
631.354844767
631.373122944
631.392853072
631.410278276
631.424837341
631.436757614
631.446157602
631.453085066
631.458680236
631.461037165
1019.78089573
1019.27429607
1018.26945879
1016.751012
1014.72871514
1012.21309257
1009.21694067
1005.75500345
1001.84369994
997.500841916
992.745361436
987.597047922
982.076291005
976.20382206
970.000449378
963.486786278
956.68297933
949.608450942
942.281677905
934.72003013
926.939693238
918.955690134
910.782003374
902.43178014
893.917583034
885.251636784
876.446024827
867.512811497
858.464101887
849.312081457
840.0690817
830.747702839
821.361022186
811.922860124
802.448095011
792.953001165
783.455587305
773.975907641
764.536308726
755.161563316
745.87883282
736.717395024
727.708082267
718.88240468
710.271400987
701.904358964
693.807649269
686.003973637
678.512061673
671.346724322
664.519239429
658.038337038
651.913150288
646.159790657
640.781092588
635.849066458
633.334396525
633.170639498
633.142453881
633.129878551
633.136669846
633.117793159
633.094562248
633.069263138
633.034760456
632.982854463
632.908847232
632.814601926
632.706658984
632.587363196
632.457315845
632.321282059
632.186774147
632.062920162
631.956116098
631.858924537
631.74998432
631.635077613
631.547243759
631.476568267
631.405189368
631.384658179
631.332363137
631.120019776
631.174759723
631.220336184
631.261688766
631.285587272
631.316733792
631.342517908
631.363418459
631.380081631
631.393169344
631.402758983
631.409454891
631.412847238
1026.14960771
1025.61765305
1024.56560161
1022.97630409
1020.86076922
1018.2308941
1015.10108488
1011.48786367
1007.40953731
1002.88586649
997.937758603
992.586982444
986.855893604
980.767155721
974.343444205
967.607128045
960.579936052
953.282627643
945.734698677
937.954161005
929.957433823
921.759376371
913.373469918
904.812126676
896.08706738
887.209683871
878.191302367
869.043302399
859.77711486
850.404181962
840.935963348
831.384047955
821.76040008
812.077700418
802.349758148
792.591960471
782.82173697
773.059011956
763.326602247
753.650496824
744.059933462
734.587170046
725.266840011
716.134808982
707.226534772
698.575121937
690.209458885
682.153102862
674.423785438
667.033104528
659.985922867
653.27960775
646.898291979
640.768533455
634.399704074
633.911137653
633.784244369
633.75582457
633.779315676
633.754813017
633.705494183
633.656938637
633.614211394
633.573952265
633.527128379
633.464548534
633.380580499
633.276044172
633.154484373
633.017850645
632.869182098
632.713442386
632.557179969
632.407417916
632.268238595
632.135210478
631.997756885
631.858106424
631.732572918
631.619046037
631.511046463
631.424698089
631.338795631
631.298413728
631.256749975
631.113190348
631.171217195
631.191083082
631.24140948
631.27717267
631.304134037
631.325314552
631.342065098
631.354316792
631.362397819
631.36674173
1033.0621587
1032.5014317
1031.3960327
1029.7267593
1027.50613202
1024.74770815
1021.46782621
1017.68512049
1013.42011151
1008.6948149
1003.53240017
997.956892356
991.992894321
985.665299048
978.998966433
972.01835127
964.747088562
957.207561842
949.420499848
941.404659751
933.176660658
924.75102047
916.140421222
907.356177638
898.408821138
889.308655174
880.066126003
870.691916171
861.196808447
851.591483608
841.88641022
832.091929043
822.218553831
812.277419289
802.280820498
792.242798509
782.179759622
772.11111246
762.059880508
752.053211353
742.122668164
732.304147372
722.637225037
713.163726086
703.925402937
694.960938254
686.302869183
677.976176064
669.997993197
662.377482085
655.115832611
648.202596487
641.576813022
634.774961179
633.964486061
634.258912132
634.428953698
634.476733058
634.453655274
634.407211304
634.347516912
634.288326718
634.231953011
634.174578892
634.108958687
634.027780602
633.926397056
633.805952236
633.668018628
633.513502619
633.346013005
633.170051205
632.990996344
632.814093607
632.642246009
632.473708952
632.304633861
632.13735705
631.979781693
631.832217478
631.69200921
631.564169431
631.445407113
631.351000913
631.271530451
631.244863542
631.198311856
631.062130565
631.168949909
631.217992238
631.249056868
631.274004584
631.294144085
631.309205456
631.318952525
631.324128304
1040.54623732
1039.95278488
1038.78701409
1037.02734054
1034.68812752
1031.78495526
1028.33649934
1024.3639169
1019.89032625
1014.94033907
1009.53968862
1003.71493952
997.493234347
990.902021627
983.968716946
976.720271372
969.182649561
961.38025215
953.335345929
945.067590662
936.593764302
927.927783436
919.08107864
910.063309332
900.883289681
891.549879946
882.072544823
872.461378548
862.726690865
852.878490904
842.926165291
832.878520109
822.744179179
812.532199845
802.252780612
791.918000769
781.542614441
771.144916986
760.747651055
750.378861069
740.072554198
729.868955435
719.814029943
709.957841312
700.351315267
691.04153503
682.066160109
673.452033615
665.215976495
657.366488085
649.901306141
642.769442965
635.524232159
634.652218545
634.852561751
635.116750395
635.195816569
635.220934156
635.190788344
635.136985105
635.072039279
635.0037375
634.932853908
634.856252663
634.76873044
634.665015416
634.542081327
634.402048067
634.245070747
634.070920618
633.882979912
633.685040791
633.481437239
633.276236224
633.071958336
632.86876341
632.666247714
632.466894825
632.275106439
632.09238874
631.919173817
631.758006332
631.608947816
631.476426014
631.363361287
631.280891164
631.208090011
631.175653367
631.150835392
631.176597374
631.200229048
631.226820791
631.250754136
631.268630591
631.280220487
631.28619656
1048.6331889
1048.00239085
1046.76812925
1044.90604347
1042.43275907
1039.36634213
1035.72832485
1031.54290408
1026.83625453
1021.63595653
1015.97060502
1009.86956785
1003.36280902
996.480676997
989.253575123
981.711466707
973.88321247
965.795783682
957.473439998
948.937001067
940.203373294
931.285500454
922.192871301
912.932608454
903.510969908
893.934847653
884.212684136
874.354343066
864.370126071
854.269658449
844.061201566
833.751654159
823.347154669
812.853986249
802.279509124
791.633044602
780.926834606
770.177172185
759.405692158
748.640716089
737.9185017
727.284157705
716.791747941
706.502780526
696.481892691
686.789435341
677.469813548
668.55129523
660.050627307
651.973922092
644.276488966
636.502442486
635.622872238
635.855906765
636.039545508
636.105050805
636.101390574
636.077524603
636.024168458
635.955631701
635.878843184
635.79692432
635.708534595
635.610449316
635.498676499
635.369665214
635.222365733
635.0594834
634.880077901
634.683566617
634.472878531
634.251090618
634.021627528
633.787717987
633.551718233
633.314875121
633.078359159
632.844660367
632.616972565
632.397487634
632.188123425
631.99134269
631.808991344
631.644331015
631.500328059
631.379622441
631.279652084
631.213095273
631.189005477
631.158852457
631.146026012
631.180513499
631.212343146
631.233710663
631.247248274
631.25394301
1057.35858403
1056.684987
1055.37275405
1053.39428929
1050.76900595
1047.51804992
1043.66649702
1039.24225843
1034.2751234
1028.7960359
1022.83670932
1016.42951077
1009.60745401
1002.40412751
994.853418987
986.988959631
978.843276942
970.446711362
961.826213911
953.004206953
943.99775147
934.818308694
925.472369654
915.963094585
906.292787836
896.46553198
886.488844705
876.373224103
866.129979625
855.768987489
845.297394147
834.719641306
824.038522108
813.256627625
802.37757804
791.406961469
780.353378583
769.229848167
758.055581787
746.857978166
735.674723398
724.55585544
713.565242854
702.780204413
692.286434564
682.167066723
672.474372376
663.236068725
654.463540501
646.11764815
637.730837526
636.835731837
637.152933833
637.329598964
637.284335702
637.205252852
637.123040802
637.041349417
636.952602244
636.860673082
636.764904076
636.663316473
636.552412016
636.428603942
636.28855538
636.130321923
635.955920785
635.766347407
635.559984117
635.338067654
635.102635466
634.856003497
634.600675765
634.33906794
634.073194468
633.804652627
633.535170957
633.267180025
633.003522821
632.746842232
632.49981614
632.265360435
632.046396445
631.846421836
631.668584163
631.515145232
631.386505807
631.286634773
631.220163903
631.172444945
631.137886113
631.133165051
631.181296895
631.206150814
631.220954181
631.228223878
1066.76291463
1066.04003467
1064.63862374
1062.52739491
1059.72916696
1056.26892168
1052.17622498
1047.48362816
1042.22523703
1036.4357547
1030.15015842
1023.40385539
1016.23300966
1008.67474208
1000.76698513
992.547876121
984.054671539
975.322249186
966.381345416
957.256764985
947.965913505
938.518118233
928.915270781
919.154219378
909.230879811
899.145047591
888.90370579
878.519892588
868.007985198
857.379329147
846.639976845
835.790967699
824.83040284
813.755966632
802.566540685
791.262890706
779.848565904
768.331558972
756.726687331
745.058364048
733.363753806
721.696598177
710.131426122
698.766743524
687.721151511
677.122132479
667.02891851
657.456902711
648.358081337
639.264884288
638.31384258
638.712280363
638.912060411
638.787771118
638.575253269
638.387687749
638.228664002
638.09110252
637.96442955
637.84345487
637.721551658
637.592923846
637.452487968
637.296378085
637.121887586
636.928686773
636.721001803
636.499382379
636.262597964
636.012807093
635.751583361
635.480474965
635.200967563
634.914490283
634.622370877
634.325935121
634.026817819
633.727218457
633.429789142
633.137404583
632.853205487
632.580629067
632.323342359
632.085313284
631.870289776
631.681336358
631.520307669
631.389200027
631.28829323
631.210959831
631.155244185
631.135288589
631.169361616
631.189195204
631.202258571
631.209756135
1076.89243539
1076.11257789
1074.60850591
1072.34514466
1069.34927397
1065.65063921
1061.28467941
1056.28994554
1050.7057842
1044.57100651
1037.92375473
1030.80220822
1023.24552702
1015.29453629
1006.99182706
998.381118301
989.505866169
980.407203597
971.121375638
961.676950125
952.09226025
942.373786017
932.516446772
922.506863149
912.330142229
901.978936369
891.460689674
880.795080743
870.00358923
859.10119238
848.092692063
836.973885323
825.735880749
814.369852826
802.869085465
791.228522465
779.44499832
767.519144059
755.458613946
743.281649383
731.021147666
718.730675353
706.493247253
694.433189532
682.719336045
671.580454882
661.065168801
651.105121288
641.177057057
640.092084848
640.532220066
640.749129549
640.560620565
640.224080313
639.894820513
639.621016318
639.397329129
639.210299892
639.044667528
638.889020854
638.733102583
638.568902806
638.390385453
638.193497282
637.97625459
637.740243932
637.491635318
637.231710441
636.960402878
636.680496164
636.393248703
636.099295583
635.798870294
635.492107104
635.17923716
634.860789035
634.537810162
634.212004239
633.885690684
633.561703133
633.243369592
632.934491347