/*--------------------------------*- C++ -*----------------------------------*\
| =========                 |                                                 |
| \\      /  F ield         | OpenFOAM: The Open Source CFD Toolbox           |
|  \\    /   O peration     | Version:  v1906                                 |
|   \\  /    A nd           | Web:      www.OpenFOAM.com                      |
|    \\/     M anipulation  |                                                 |
\*---------------------------------------------------------------------------*/
FoamFile
{
    version     2.0;
    format      ascii;
    class       surfaceScalarField;
    location    "356";
    object      phia;
}
// * * * * * * * * * * * * * * * * * * * * * * * * * * * * * * * * * * * * * //

dimensions      [0 3 -1 0 0 0 0];
oriented        oriented;


internalField   nonuniform List<scalar> 
18240
(
0.00134768934793
-0.00134774179862
0.00282313859171
-0.00147551892584
0.00429766193465
-0.00147457368354
0.00575358697972
-0.00145599660336
0.00718299942162
-0.00142945627009
0.00857914776932
-0.00139621998776
0.00993607750958
-0.00135696614518
0.0112483067614
-0.00131229928828
0.0125110508395
-0.00126277231081
0.0137199832177
-0.00120899918209
0.0148715147448
-0.00115155098428
0.0159625093112
-0.00109105667397
0.0169905764879
-0.00102807759788
0.0179537399391
-0.000963219584421
0.0188507369655
-0.000896998319201
0.0196806516058
-0.000829963743779
0.0204432197438
-0.000762560526138
0.0211384409577
-0.000695262452681
0.0217668879445
-0.000628430824695
0.0223293106649
-0.000562455505097
0.0228269481178
-0.000497613359465
0.023261136512
-0.000434212364476
0.0236336197465
-0.000372451913109
0.0239461709665
-0.000312566251278
0.0242008968392
-0.000254688219386
0.0243998793942
-0.000198988727484
0.0245454681118
-0.000145545659435
0.0246399471654
-9.4476644315e-05
0.0246858096161
-4.58150271058e-05
0.0246854543965
3.65774344681e-07
0.024641439135
4.40660292854e-05
0.0245562046256
8.52526307142e-05
0.0244322922363
0.000123965441715
0.0242721146952
0.000160202548811
0.0240781529374
0.000194016090532
0.0238527549275
0.00022542913929
0.0235982952479
0.000254514312484
0.0233170143609
0.000281317318896
0.0230111447339
0.000305923651871
0.0226827891983
0.000328396414197
0.0223340124098
0.000348829365906
0.0219667580226
0.000367298842791
0.0215829054393
0.000383902950393
0.0211842251175
0.000398727485826
0.0207724012318
0.000411871377338
0.0203490239131
0.000423426337269
0.0199155790203
0.000433488913954
0.0194734756529
0.000442153412643
0.0190240046218
0.000449511100076
0.0185683991036
0.000455655793738
0.0181077638102
0.000460670985747
0.0176431662311
0.000464647328925
0.0171755386896
0.000467658552679
0.0167057972176
0.000469789980232
0.0162347190008
0.00047110428539
0.0157630855942
0.000471680005346
0.0152915383546
0.000471568225925
0.0148207424361
0.00047083998499
0.0143512231294
0.000469535102916
0.0138835468876
0.000467717207394
0.0134181415874
0.00046541591987
0.0129554907393
0.000462688195864
0.0124959410421
0.000459555179287
0.0120399059003
0.000456068418937
0.0115876637266
0.000452242676873
0.0111395669479
0.000448125596731
0.0106958348229
0.000443727832136
0.0102567642084
0.000439094666708
0.00982252063301
0.00043423478474
0.00939334727541
0.000429192423019
0.0089693581669
0.000423976145555
0.00855074202396
0.000418630106183
0.00813756121567
0.000413164106389
0.00772994737769
0.000407622693838
0.00732790964829
0.000402017752594
0.00693151928075
0.000396394235128
0.00654073019165
0.000390766394178
0.00615555017095
0.000385179138338
0.00577587643337
0.000379648905198
0.00540165140249
0.000374219749571
0.0050327154022
0.000368909665343
0.00466894545165
0.000363760697079
0.00431012689292
0.00035879132674
0.00395607417202
0.000354039941064
0.00360652304625
0.000349523533711
0.00326123352188
0.000345273600093
0.00291990568906
0.000341300236259
0.00258226967967
0.000337617217028
0.00224803817468
0.00033420416048
0.00191701594836
0.000331001163184
0.00158917254671
0.000327817099995
0.00126499316146
0.000324157220271
0.000946374485126
0.000318595355893
0.000640010520288
0.000306342290625
0.000353624429383
0.000286357777063
0.00035360805481
0.00148984457346
-0.00283764613381
0.00315295775245
-0.00313869995164
0.00480710801662
-0.00312878565594
0.006437641321
-0.00308659649059
0.00803721533665
-0.00302908808029
0.00959892078097
-0.00295798915216
0.0111162415115
-0.00287433944008
0.0125831391887
-0.00277925639187
0.0139942335548
-0.00267391279378
0.0153447445459
-0.00255956395718
0.0166306232678
-0.00243746839474
0.0178484398471
-0.00230892025445
0.0189954964325
-0.00217516468362
0.0200696786586
-0.00203744111717
0.0210695573944
-0.00189689888195
0.0219942151877
-0.0017546524853
0.022843341894
-0.00161170012419
0.0236170470808
-0.0014689898039
0.0243159540616
-0.0013273417543
0.0249410082563
-0.00118752289935
0.0254935728175
-0.00105017312276
0.0259752409588
-0.000915884782665
0.0263879342883
-0.000785132104631
0.0267337245926
-0.000658352164125
0.0270149338743
-0.000535876590914
0.0272339686377
-0.000418010865596
0.0273934190176
-0.000304968071557
0.0274959069757
-0.00019694433546
0.0275441813127
-9.40551590631e-05
0.0275409800447
3.594236594e-06
0.0274891161993
9.59694193742e-05
0.0273913603888
0.000183041750352
0.0272505281245
0.000264841640343
0.0270693675391
0.000341401683713
0.0268506238918
0.000412807099293
0.0265969540043
0.000479141905228
0.0263109852735
0.000540532865545
0.0259952445611
0.000597104312335
0.0256522045466
0.000649015015272
0.0252842295987
0.000696420125552
0.0248936096535
0.000739501279941
0.0244825230116
0.000778435831944
0.0240530576495
0.000813420059422
0.0236071905631
0.000844645641828
0.0231467966907
0.000872315978956
0.0226736442368
0.000896629765808
0.0221893915945
0.000917790554693
0.0216955978946
0.000935997229944
0.0211937084961
0.000951447106776
0.0206850798004
0.000964333042684
0.020170953962
0.000974840471821
0.0196524967817
0.000983150854148
0.0191307623473
0.000989433158626
0.0186067426064
0.00099385327233
0.0180813226713
0.000996560489021
0.0175553404769
0.000997702436834
0.0170295335232
0.000997407171822
0.0165046068972
0.00099580307356
0.0159811723006
0.000992997128301
0.0154598226418
0.000989099160435
0.0149410643041
0.000984196890561
0.0144253965277
0.000978383767181
0.0139132380378
0.000971731358628
0.0134050094965
0.000964319996569
0.0129010557668
0.000956209065414
0.0124017298362
0.000947469616981
0.0119073121787
0.000938153118122
0.0114180946796
0.000928325203547
0.0109342986689
0.000918033465281
0.0104561575328
0.000907341525982
0.00998383508692
0.000896296467887
0.00951750569371
0.000884962475046
0.0090572746167
0.000873388516151
0.00860325460599
0.000861640871242
0.00815548981549
0.000849771679162
0.00771402793813
0.000837849761552
0.00727884908685
0.000825930620532
0.00684993269224
0.000814085059105
0.00642719256698
0.000802371162864
0.00601053789874
0.000790860307143
0.00559981546574
0.000779611566594
0.00519486420465
0.000768694752741
0.00479546536718
0.000758167556283
0.0044013903196
0.000748095224606
0.00401235927063
0.000738530426482
0.00362808217369
0.000729528810972
0.00324822643352
0.000721130628927
0.00287245016141
0.000713369786573
0.00250037525989
0.000706252798339
0.00213159832977
0.000699753008522
0.00176561644903
0.000693773070673
0.00140164093516
0.000688107899294
0.00103782893125
0.000682382172207
0.00066815974271
0.000675987427558
0.000285459657771
0.000669033938299
0.000639055353945
0.00151604201689
-0.00435374979393
0.00320031883861
-0.00482304336453
0.00487809261682
-0.00480662442187
0.00653214918904
-0.00474071804688
0.0081543957646
-0.00465139629846
0.00973761453438
-0.00454126929369
0.011275101104
-0.00441188291603
0.012760710929
-0.00426492254732
0.0141889577404
-0.00410221050186
0.0155550208445
-0.00392567706827
0.0168548018121
-0.00373729312312
0.0180848883032
-0.00353904937842
0.0192425826553
-0.00333289480663
0.0203258352382
-0.00312072814832
0.0213332542612
-0.00290434505269
0.0222640191312
-0.00268544306983
0.0231178796691
-0.00246557883758
0.0238950591518
-0.00224618595939
0.0245962501375
-0.00202854180761
0.0252225156516
-0.00181379598737
0.0257752872586
-0.0016029448153
0.0262562706897
-0.00139686684753
0.0266674492939
-0.00119630211996
0.0270109976841
-0.00100189061817
0.0272892911197
-0.000814153280488
0.0275048281472
-0.000633529922903
0.0276602444324
-0.000460360100469
0.027758243887
-0.000294918473516
0.027801614859
-0.000137395152611
0.0277931689613
1.20720063824e-05
0.0277357581223
0.000153417099042
0.0276322204552
0.00028661696283
0.0274853977508
0.000411706110569
0.0272980887118
0.00052875301581
0.0270730641678
0.000637877381513
0.0268130279079
0.000739224252699
0.0265206305551
0.000832978963169
0.0261984380251
0.00091934577405
0.025848943287
0.000998560557654
0.0254745419357
0.00107087231693
0.0250775415135
0.00113655364924
0.0246601439919
0.00119588520217
0.0242244524622
0.0012491638052
0.0237724603099
0.00129668979586
0.0233060552214
0.0013387727387
0.0228270148031
0.00137572153855
0.0223370079526
0.00140784777171
0.0218375966248
0.00143545852526
0.021330234652
0.00145885745761
0.0208162752541
0.0014783403444
0.0202969673899
0.00149419409738
0.0197734684754
0.00150669499924
0.0192468382746
0.00151610595834
0.0187180561431
0.00152267741542
0.0181880124287
0.00152664314654
0.0176575294272
0.00152822375358
0.0171273501936
0.00152762128387
0.0165981623212
0.00152502514956
0.0160705841101
0.00152060579356
0.0155451902589
0.00151452275822
0.0150224953676
0.00150691753837
0.0145029806958
0.00149792344601
0.0139870751411
0.00148765774941
0.0134751823153
0.00147623288211
0.0129676592546
0.00146374791034
0.0124648432236
0.00145030062284
0.0119670286221
0.00143597837991
0.0114744930668
0.00142087059766
0.0109874730612
0.00140505903686
0.0105061890628
0.00138863026045
0.0100308206271
0.00137166547982
0.00956153026427
0.00135425260687
0.00909843877204
0.00133647581276
0.00864164777908
0.00131842690125
0.00819121600292
0.00130019479449
0.00774718040121
0.00128187601444
0.00730953398635
0.00126356432909
0.00687824553521
0.00124536021899
0.00645323951654
0.00122736093033
0.006034414289
0.00120966883369
0.00562162454147
0.00119238209484
0.00521469790523
0.00117560185858
0.00481342018572
0.00115942367686
0.00441755024199
0.00114394337838
0.00402680800941
0.00112924921531
0.00364088713984
0.00111542608393
0.00325944485276
0.00110254799556
0.00288210955589
0.001090679957
0.00250846596088
0.00107987033061
0.00213804164895
0.00107015129496
0.00177024996743
0.00106153828617
0.00140427509909
0.00105405717821
0.00103880767318
0.00104782499397
0.000671661379005
0.00104310822025
0.000303866269726
0.00103680367931
0.00094290960871
0.00153920367569
-0.00589301631408
0.00324631748511
-0.00653022496462
0.00494705723663
-0.00650743062578
0.00662341522222
-0.00641714158314
0.00826682864999
-0.00629487298367
0.0098697631691
-0.00614426540833
0.0114252879588
-0.00596746625335
0.0129271086452
-0.00576679949488
0.0143696316948
-0.00554478601776
0.0157479885431
-0.00530408356553
0.0170580631953
-0.00504741300774
0.0182964774264
-0.00477750559475
0.019460586845
-0.00449704130821
0.0205484370959
-0.00420861192416
0.0215587384057
-0.0039146746584
0.0224908033834
-0.00361753258191
0.0233445097481
-0.00331930432211
0.0241202296242
-0.00302192110553
0.0248187891307
-0.00272711113529
0.0254413976718
-0.00243641051206
0.0259896111984
-0.0021511589702
0.0264652675743
-0.0018725201258
0.0268704574502
-0.00160148376237
0.0272074685515
-0.00133888995292
0.027478764832
-0.00108543297732
0.02768693948
-0.000841684718996
0.027834700639
-0.000608096998307
0.0279248313703
-0.000385021995135
0.0279601796593
-0.000172712294203
0.0279436237544
2.86616469079e-05
0.0278780650883
0.000219012915693
0.0277663973611
0.000398324035769
0.0276115023221
0.000566643355055
0.0274162234151
0.000724075919601
0.0271833630323
0.00087078405323
0.0269156610229
0.00100697393374
0.0266157926948
0.00113289668449
0.0262863517875
0.00124883705582
0.0259298496485
0.00135511423397
0.0255487021172
0.00145207197618
0.0251452294769
0.00154007903808
0.0247216469741
0.00161952067518
0.0242800653219
0.00169079853591
0.0238224846748
0.00175432339446
0.0233507955944
0.00181051439457
0.0228667763516
0.00185979291055
0.0223720943202
0.00190258111279
0.0218683064692
0.001939296944
0.0213568611617
0.00197035210296
0.0208391016353
0.00199614820351
0.0203162681064
0.00201707436335
0.0197895039164
0.00203350468151
0.0192598577502
0.00204579569016
0.0187282919873
0.00205428529099
0.0181956847227
0.00205929031125
0.0176628397381
0.00206110699967
0.0171304879413
0.00206000887834
0.0165992983068
0.00205624878715
0.0160698783262
0.00205005710714
0.0155427852662
0.00204164522331
0.0150185252821
0.00203120408648
0.0144975644253
0.00201890883545
0.0139803261902
0.00200491755194
0.0134672018318
0.00198937669813
0.0129585462852
0.00197241986517
0.0124546875296
0.00195417363227
0.0119559209963
0.00193475608575
0.011462517881
0.00191428271889
0.0109747183197
0.00189286453965
0.0104927387053
0.00187061367923
0.0100167640331
0.0018476409695
0.00954695437395
0.0018240610178
0.00908343685715
0.00179998923028
0.00862631150972
0.00177554620385
0.00817564335265
0.00175085425635
0.0077314678132
0.00172604108019
0.00729378336272
0.00170123591458
0.00686255667792
0.00167657247226
0.00643771617031
0.00165218492739
0.00601915700636
0.00162821016771
0.00560673576219
0.00160478377714
0.00520027533166
0.00158204167019
0.00479956079511
0.00156011621408
0.00440434408662
0.00153913727474
0.00401434085429
0.00151922856425
0.00362923428825
0.00150050811662
0.0032486718659
0.00148308501827
0.00287226611995
0.00146705976774
0.00249958708645
0.00145252276014
0.00213015296588
0.00143955850826
0.00176340920594
0.00142825560857
0.00139870499252
0.00141873527393
0.00103530443041
0.00141119906316
0.000672686582784
0.00140570061311
0.000313552475766
0.0013959123483
0.00125644902508
0.00156892227103
-0.0074620028273
0.00330763647985
-0.00826900767005
0.00503939183046
-0.00823925410338
0.00674555839926
-0.00812337475985
0.00841713290521
-0.00796651221859
0.0100462160775
-0.00777341110497
0.0116255903775
-0.00754690039761
0.0131487557828
-0.00729002184994
0.0146099814963
-0.0070060653155
0.0160043324868
-0.00669848461474
0.0173276821705
-0.0063708088148
0.0185766997173
-0.00602656523816
0.0197488287123
-0.00566920803544
0.0208422452684
-0.00530206181632
0.0218558137894
-0.00492827185475
0.022789027336
-0.00455077018396
0.0236419515347
-0.00417224775998
0.0244151578921
-0.00379514198774
0.0251096657586
-0.00342162868021
0.0257268777917
-0.00305362754899
0.0262685278691
-0.00269280930016
0.0267366251623
-0.00234061314556
0.0271334124078
-0.00199826218247
0.0274613210457
-0.00166678549336
0.0277229400869
-0.00134703466364
0.0279209808963
-0.0010397042324
0.0280582538929
-0.000745344808233
0.02813763984
-0.000464379214838
0.0281620712798
-0.000197111542364
0.0281345079569
5.62602608035e-05
0.0280579213458
0.000295637814272
0.0279352722816
0.000521014003193
0.0277695002639
0.000732458775551
0.0275635038124
0.000930117898338
0.027320131089
0.0011142042986
0.0270421652753
0.00128498889744
0.02673231703
0.00144279556975
0.0263932130744
0.00158799279219
0.0260273908647
0.00172098921976
0.0256372899488
0.00184222633744
0.0252252484487
0.00195217450359
0.0247934968853
0.00205132642572
0.0243441562362
0.00214019344015
0.0238792340869
0.00221929960167
0.0234006241782
0.00228917800854
0.0229101048297
0.00235036537886
0.0224093399586
0.00240339836031
0.0218998797402
0.00244880860008
0.0213831630612
0.00248711912227
0.0208605203105
0.00251884003439
0.0203331771446
0.00254446518969
0.0198022591731
0.00256446876813
0.0192687967653
0.00257930250864
0.0187337312343
0.00258939343238
0.0181979202698
0.00259514192793
0.017662145081
0.0025969208206
0.0171271159261
0.00259507449021
0.0165934795927
0.0025899193657
0.0160618244701
0.00258174411345
0.0155326877506
0.00257081145726
0.0150065595382
0.00255735930311
0.0144838892489
0.00254160363038
0.0139650883961
0.00252374028427
0.0134505358263
0.00250394855667
0.0129405789962
0.00248239328393
0.0124355378796
0.00245922868817
0.0119357047661
0.00243460040488
0.0114413468676
0.00240864916087
0.0109527048394
0.0023815123952
0.0104699942822
0.00235332743351
0.00999340333529
0.00232423246625
0.00952309337554
0.00229436898659
0.00905919609042
0.00226388200553
0.00860181372796
0.00223292166059
0.00815101607331
0.00220164267163
0.00770684058598
0.00217020513973
0.00726928964041
0.00213877334057
0.00683833083548
0.00210751582962
0.00641389477827
0.0020766037328
0.00599587575582
0.00204621031701
0.00558413021528
0.00201650895846
0.00517847787824
0.00198767235344
0.0047787009273
0.0019598703426
0.00438454546582
0.00193326893046
0.00399572116518
0.00190802815818
0.0036119026328
0.00188430118368
0.00323272882549
0.00186223263162
0.00285780322465
0.00184195852929
0.00248669186549
0.0018236068256
0.00211892167265
0.00180730124437
0.00175397994003
0.00179316958506
0.00139132835157
0.00178135998116
0.0010304617748
0.00177204000009
0.000671171594174
0.00176496373616
0.000315680551526
0.0017513762566
0.00157211684846
0.00160649343493
-0.00906856202036
0.00338605509158
-0.0100486401249
0.00515771797447
-0.0100109866006
0.00690208819929
-0.0098678132706
0.00860964547755
-0.00967413568914
0.0102720515957
-0.00943588115773
0.0118817379723
-0.00915664789117
0.0134319479474
-0.00884028993616
0.014916785276
-0.00849095721641
0.0163312370669
-0.00811298733836
0.0176711764956
-0.00771079503511
0.0189333426333
-0.00728877402626
0.0201153063833
-0.00685120983627
0.0212154198371
-0.00640220882265
0.022232758624
-0.00594563929251
0.0231670538066
-0.00548508930064
0.0240186230378
-0.00502383586845
0.0247882968938
-0.00456482992452
0.0254773500222
-0.00411069082303
0.0260874323428
-0.00366371413391
0.0266205092874
-0.00322588556083
0.0270788052368
-0.00279890382373
0.0274647577637
-0.00238420472411
0.0277809755046
-0.00198298892191
0.0280302057171
-0.00159624617733
0.0282153035733
-0.00122477940476
0.0283392084254
-0.000869222994631
0.028404919507
-0.000530060050678
0.0284154763884
-0.000207634655834
0.0283739378243
9.78357238993e-05
0.0282833646065
0.000386250951266
0.0281467995482
0.000657621623422
0.0279672558116
0.000912047566821
0.0277476988265
0.00114972208459
0.0274910353078
0.00137091698024
0.0272001009835
0.00157597403133
0.026877651632
0.00176529716553
0.0265263537937
0.00193934403016
0.0261487781989
0.0020986191373
0.0257473929469
0.00224366659206
0.0253245588711
0.0023750640149
0.02488252484
0.00249341612135
0.0244234248367
0.00259934908056
0.0239492752623
0.00269350461822
0.0234619737043
0.00277653455236
0.0229632982531
0.00284909522964
0.0224549080094
0.00291184215506
0.0219383444488
0.00296542476622
0.021415033697
0.0030104812731
0.0208862899021
0.0030476339588
0.0203533191829
0.00307748451184
0.0198172248087
0.00310061018385
0.0192790125468
0.00311755999841
0.0187395972513
0.00312885213699
0.0181998091351
0.00313497138862
0.0176604011896
0.00313636806474
0.0171220557642
0.0031334569296
0.0165853921398
0.00312661776404
0.0160509727477
0.003116195809
0.0155193102227
0.00310250388132
0.0149908726591
0.00308582413949
0.0144660895857
0.00306641144175
0.0139453558087
0.00304449605285
0.0134290359416
0.00302028778338
0.0129174666077
0.00299397914668
0.012410959389
0.00296574974723
0.0119098013943
0.00293576936917
0.0114142567183
0.0029042021052
0.0109245655955
0.00287120892433
0.0104409446448
0.00283695112897
0.00996358498599
0.00280159207566
0.00949265165844
0.00276529969915
0.0090282811578
0.00272824722723
0.00857058045793
0.00269061467365
0.00811962442654
0.00265258855027
0.00767545484381
0.0026143623793
0.00723807809562
0.00257613554128
0.00680746450042
0.00253811295895
0.00638354657416
0.00250050330575
0.00596621886205
0.00246351807094
0.00555533693971
0.00242736938793
0.00515071781971
0.00239226870767
0.00475213970529
0.00235842451168
0.00435934289701
0.00232604083144
0.00397203013502
0.0022953151365
0.00358986776435
0.00226643702874
0.00321248638959
0.00223958679024
0.0028394821489
0.0022149349876
0.0024704179278
0.00219264274722
0.00210482649405
0.0021728640849
0.00174221823098
0.00215574997079
0.00138209879342
0.00214145182318
0.00102401521851
0.00213009545871
0.000667731657941
0.00212122041932
0.000315031414442
0.00210404959911
0.00188713440491
0.00165273853891
-0.0107213682781
0.00348284283011
-0.0118788165358
0.00530382972908
-0.0118320452983
0.00709531671339
-0.0116593702822
0.00884713652523
-0.0114260235612
0.0105504143684
-0.0111392245212
0.0121971570887
-0.010803453311
0.0137803021349
-0.0104234943682
0.015293763205
-0.0100044741274
0.016732447296
-0.00955172326123
0.0180922454005
-0.00907064083567
0.0193700010477
-0.00856657281352
0.0205634608392
-0.00804470819367
0.0216712112099
-0.00750999281688
0.0226926048563
-0.00696706170047
0.0236276805971
-0.0064201886386
0.024477079586
-0.00587325345498
0.0252419614277
-0.0053297251315
0.0259239228664
-0.00479266062851
0.0265249221887
-0.00426471666832
0.0270472112778
-0.00374817299297
0.0274932770973
-0.00324496303396
0.0278657928796
-0.00275670926659
0.0281675786443
-0.00228475880442
0.0284015695033
-0.00183021685439
0.0285707897922
-0.0013939752624
0.0286783310108
-0.000976735884455
0.0287273317359
-0.000579028656881
0.0287209586027
-0.000201225961626
0.0286623876016
0.000156445575064
0.0285547865227
0.000493893828534
0.0284012961568
0.00081115653439
0.0282050176462
0.0011083730519
0.027968995871
0.00138579303743
0.0276962077097
0.00164375622877
0.027389551012
0.00188268347544
0.0270518354748
0.00210306684386
0.0266857744857
0.0023054602887
0.0262939785231
0.00249047126359
0.0258789491678
0.00265875273
0.0254430744508
0.0028109959312
0.0249886246493
0.00294792326028
0.0245177493657
0.00307028166827
0.0240324750557
0.00317883592258
0.0235347038797
0.00327436227204
0.0230262130782
0.00335764185275
0.0225086557324
0.00342945448793
0.0219835621307
0.00349057225804
0.0214523425419
0.00354175356927
0.0209162906217
0.00358373715102
0.0203765881525
0.0036172367557
0.0198343103398
0.0036429360342
0.0192904322356
0.00366148436309
0.0187458355153
0.00367349311276
0.0182013160501
0.00367953308369
0.0176575915223
0.00368013258296
0.0171153094217
0.00367577677907
0.0165750547236
0.00366690776785
0.0160373575214
0.00365392588856
0.0155026999977
0.00363719166711
0.0149715229769
0.00361702883935
0.0144442315539
0.00359372778677
0.0139212000461
0.00356754977675
0.0134027758749
0.00353873130676
0.0128892826563
0.0035074889276
0.0123810222046
0.00347402382864
0.0118782757856
0.00343852658693
0.0113813043814
0.00340118135506
0.0108903483722
0.00336216996067
0.0104056264163
0.00332167519279
0.00992733400841
0.00327988384533
0.00945564145723
0.00323698879188
0.00899069184508
0.00319319077396
0.00853259862547
0.00314869917623
0.0080814434958
0.00310373256277
0.00763727409088
0.00305851825673
0.00720010218756
0.00301329178721
0.00676990186969
0.00296829551603
0.00634660835133
0.00292377725514
0.00593011685617
0.00287998825324
0.00552028219514
0.00283718128099
0.00511691846699
0.00279560830874
0.00471979938633
0.00275551836032
0.00432865878414
0.00271715520764
0.00394319157147
0.0026807553073
0.00356305496023
0.00264654587372
0.00318787004419
0.00261474330991
0.00281722390243
0.00258555214791
0.00245067270282
0.00255916464265
0.00208774648453
0.00253576096359
0.00172795704985
0.00251550975015
0.00137081342389
0.00249856681848
0.00101584841793
0.00248503333558
0.000662741048062
0.00247429904799
0.000313023184123
0.0024537386843
0.00220014415535
0.00170846382308
-0.0124299018833
0.00359952649879
-0.0137699543698
0.00547994188422
-0.0137125345231
0.00732808234473
-0.0135075830821
0.00913297743214
-0.0132309886746
0.0108850996428
-0.0128914142194
0.0125759508692
-0.0124943689095
0.01419811423
-0.0120457187375
0.0157452956639
-0.0115517126676
0.0172123297965
-0.0110188104455
0.018595156304
-0.0104535158441
0.0198907709919
-0.00986223141361
0.0210971590561
-0.00925113514147
0.0222132132835
-0.00862608097092
0.0232386434667
-0.00799252048164
0.0241738784955
-0.00735544710207
0.0250199669512
-0.00671935988674
0.0257784774495
-0.00608824839197
0.0264514046776
-0.00546559519025
0.0270410822539
-0.0048543964545
0.0275501076255
-0.00425719531648
0.0279812786692
-0.00367612612053
0.028337544699
-0.00311296237186
0.0286219687169
-0.00256916530541
0.0288377005371
-0.00204592657606
0.0289879556538
-0.00154420408619
0.0290759984786
-0.00106474829449
0.0291051257155
-0.000608121743445
0.02907865004
-0.000174712525891
0.0289998821085
0.000235254503828
0.0288721135487
0.000621706445781
0.0286986003921
0.000984716446654
0.0284825446551
0.00132447803325
0.028227083232
0.00164130586646
0.027935274268
0.00193561852053
0.0276100869363
0.0022079257603
0.0272543929741
0.00245881712382
0.0268709593567
0.0026889513266
0.0264624421719
0.00289904669724
0.0260313813236
0.00308987242855
0.0255801960348
0.00326224038994
0.0251111811442
0.00341699744957
0.0246265040768
0.00355501787962
0.0241282027626
0.00367719606874
0.0236181842491
0.00378443902472
0.0230982244758
0.00387765914844
0.0225699688028
0.00395776669151
0.0220349339019
0.00402566260353
0.0214945104328
0.00408223112995
0.0209499671955
0.0041283330611
0.0204024559966
0.00416479895133
0.0198530179541
0.00419242335633
0.0193025902906
0.00421195934189
0.0187520143487
0.00422411438809
0.0182020437102
0.00422954683732
0.0176533531753
0.00422886401726
0.0171065473617
0.00422262105021
0.0165621697287
0.00421132143946
0.0160207107198
0.00419541830056
0.0154826159219
0.00417531727479
0.0149482929061
0.00415137986435
0.0144181177806
0.00412392818468
0.0138924401182
0.00409324977757
0.0133715874461
0.00405960347034
0.0128558679685
0.00402322486488
0.0123455728706
0.00398433247035
0.0118409768799
0.00394313303674
0.0113423385829
0.00389982717519
0.0108498991649
0.00385461381881
0.0103638811872
0.00380769471459
0.00988448605023
0.00375927751196
0.00941189181972
0.00370957876298
0.00894625005232
0.00365882541122
0.00848768328237
0.00360725620798
0.00803628181943
0.0035551216412
0.00759210143052
0.00350268390625
0.00715516061062
0.00345021552308
0.00672543885093
0.00339799815438
0.00630287472426
0.00334632028331
0.00588736496543
0.00329547524175
0.00547876354471
0.00324575836395
0.00507688163602
0.00319746459318
0.00468148770305
0.00315088551369
0.00429230832308
0.00310630688031
0.00390902922162
0.00306400589678
0.00353129691863
0.00302424899411
0.00315872076078
0.00298728969964
0.00279087569968
0.00295336698357
0.00242730586237
0.00292270385291
0.0020675296066
0.0028955063989
0.00171104705393
0.00287196243825
0.00135734856364
0.00285223575314
0.00100593111692
0.00283642064375
0.000656402975172
0.0028237986469
0.000310152555928
0.00279996064177
0.00251028201545
0.00177460897774
-0.0142045832378
0.0037379988418
-0.0157334213018
0.00568882637161
-0.0156634387226
0.00760393279593
-0.0154227641773
0.0094713628683
-0.0150984911997
0.0112808058575
-0.0147009267881
0.0130231727233
-0.0142368021879
0.0146906482634
-0.0137132569494
0.0162767224691
-0.0131378455815
0.0177761804195
-0.0125183225992
0.0191850570966
-0.0118624421245
0.0205005669098
-0.0111777857379
0.0217210133769
-0.010471621061
0.0228456862212
-0.00975078778026
0.0238747483257
-0.00902161121143
0.0248091182364
-0.00828983994601
0.0256503497717
-0.00756060890554
0.0264005148175
-0.00683842520289
0.0270620915348
-0.00612717826945
0.0276378646047
-0.00543017030298
0.0281308394222
-0.00475016569501
0.0285441749661
-0.00408945191237
0.0288811340582
-0.00344990679544
0.0291450511077
-0.00283306275308
0.0293393117051
-0.00224016304812
0.0294673405634
-0.00167220434784
0.0295325913122
-0.00112996638539
0.0295385358254
-0.000614029650777
0.0294886501187
-0.000124786663338
0.0293863979904
0.000337550174339
0.0292352095138
0.000772941468657
0.0290384717513
0.00118150354058
0.0287995039907
0.00156349756409
0.0285215466194
0.00191931720121
0.0282077491329
0.00224947185076
0.0278611606521
0.00255457169192
0.0274847222712
0.00283531428766
0.0270812607232
0.00309247269842
0.0266534830664
0.00332688498255
0.026203971942
0.0035394446845
0.0257351815982
0.00373109217059
0.0252494342782
0.00390280620655
0.0247489175065
0.00405559592715
0.0242356818131
0.00419049257368
0.0237116396179
0.00430854144076
0.0231785647098
0.00441079338917
0.0226380931592
0.00449829659174
0.0220917249854
0.00457208785552
0.0215408274702
0.00463318438592
0.0209866393076
0.00468257534915
0.0204302764632
0.00472121426534
0.0198727387773
0.0047500115901
0.0193149181171
0.0047698286104
0.0187576069606
0.00478147195931
0.0182015081465
0.0047856898741
0.0176472445654
0.00478316938793
0.0170953694851
0.00477453550528
0.0165463762508
0.00476035140497
0.0160007080565
0.00474112061566
0.0154587665622
0.00471729006358
0.0149209201005
0.00468925484242
0.0143875103312
0.00465736348921
0.0138588581675
0.00462192456004
0.0133352679417
0.004583213211
0.0128170307267
0.00454147857724
0.012304425892
0.00449695061445
0.0117977219103
0.00444984725554
0.0112971755674
0.00440038053319
0.0108030306964
0.00434876263764
0.010315515601
0.00429521056454
0.0098348403975
0.00423995047879
0.00936119337816
0.00418322045643
0.00889473772782
0.00412527290122
0.00843560757112
0.00406637530389
0.00798390477437
0.00400681078328
0.00753969531741
0.00394687708531
0.00710300672735
0.00388688555917
0.00667382524548
0.00382715881849
0.00625209422612
0.00376802858873
0.00583771237758
0.003709832537
0.00543053325395
0.00365291145354
0.00503036468023
0.00359760575012
0.0046369693054
0.00354425240101
0.004250065203
0.0034931815464
0.00386932737824
0.00344471355118
0.00349438952411
0.00339915605691
0.00312484649636
0.00335680142464
0.00276025732136
0.00331792440751
0.00240014914116
0.00328278011763
0.00204402187845
0.00325160189425
0.00169135344879
0.00322459881878
0.00134160747377
0.00320195090278
0.000994242859404
0.00318375621274
0.000648808500906
0.00316920233208
0.000306602674986
0.00314213589607
0.0028168704523
0.00185231972172
-0.0160569779959
0.00390060042341
-0.0177817828194
0.00593392074335
-0.0176968383759
0.00792725630149
-0.0174161773384
0.00986745889498
-0.01703876876