/*--------------------------------*- C++ -*----------------------------------*\
| =========                 |                                                 |
| \\      /  F ield         | OpenFOAM: The Open Source CFD Toolbox           |
|  \\    /   O peration     | Version:  v1906                                 |
|   \\  /    A nd           | Web:      www.OpenFOAM.com                      |
|    \\/     M anipulation  |                                                 |
\*---------------------------------------------------------------------------*/
FoamFile
{
    version     2.0;
    format      ascii;
    class       volScalarField;
    location    "808";
    object      pa;
}
// * * * * * * * * * * * * * * * * * * * * * * * * * * * * * * * * * * * * * //

dimensions      [0 2 -2 0 0 0 0];


internalField   nonuniform List<scalar> 
9216
(
976.219836409
975.855447811
975.115071243
973.995513121
972.500436275
970.634105978
968.401888999
965.810145219
962.866183808
959.57817863
955.955126179
952.006753321
947.743476845
943.176306509
938.316810995
933.177021588
927.769409648
922.106795745
916.202342747
910.069473966
903.721884384
897.17346953
890.438355364
883.530837632
876.465428996
869.256806716
861.91987386
854.469711741
846.92165078
839.291222948
831.594237156
823.846726347
816.06501992
808.265679598
800.46556389
792.681745791
784.931561471
777.232504649
769.602254679
762.058544089
754.619163783
747.301803637
740.124036183
733.103133912
726.256035444
719.599145226
713.148285065
706.918480753
700.923895598
695.17760458
689.691498173
684.476043695
679.540146722
674.890910156
670.533458058
666.47072996
662.703306952
659.229307236
656.044285597
653.141303808
650.510989716
648.141838303
646.020431113
644.131859138
642.460011512
640.987997105
639.698365159
638.573550394
637.59625487
636.749918748
636.018993783
635.389173036
634.847443852
634.382111011
633.982728722
633.640041718
633.345903223
633.093210189
632.875819068
632.688443598
632.526546344
632.386234492
632.264161917
632.157427368
632.06312872
631.981808765
631.915154918
631.862629149
631.822940884
631.794101019
631.774047963
631.760548595
631.751677605
631.746374636
631.743735345
631.742819515
976.583794562
976.218257436
975.476624812
974.35401554
972.85464209
970.982920139
968.744299901
966.145213214
963.193032475
959.896003255
956.263187564
952.304387133
948.030083909
943.45136094
938.57984648
933.427638363
928.007257187
922.331579155
916.413802663
910.267393208
903.906066014
897.343744714
890.594560636
883.672824863
876.593042744
869.369897023
862.018274411
854.553256023
846.990151583
839.344492388
831.632067714
823.868914183
816.071348657
808.255948584
800.439573477
792.639328877
784.872570703
777.1568468
769.509878474
761.949475808
754.493494038
747.159722425
739.96581719
732.929167857
726.066811799
719.39528425
712.930519183
706.68768709
700.681081045
694.92393972
689.428308599
684.204840633
679.262620659
674.608944417
670.249112802
666.186220469
662.420965909
658.951517316
655.773414321
652.879591948
650.26047577
647.904267635
645.797243217
643.924134091
642.268524217
640.813211075
639.540397992
638.432101322
637.470647297
636.639172971
635.921951791
635.304590793
634.774076636
634.318755675
633.928250531
633.593374866
633.3060527
633.059259792
632.846948841
632.663936318
632.505783993
632.368697391
632.24944187
632.145278227
632.053845674
631.97428352
631.908681319
631.85781322
631.8190688
631.790830424
631.771553331
631.758636004
631.75003971
631.745092661
631.742750806
631.741813991
977.325656621
976.956957756
976.211100613
975.082155806
973.574370661
971.692223128
969.441257404
966.828014864
963.85998426
960.545537558
956.893864512
952.914900197
948.619255371
944.018142645
939.123309475
933.946969268
928.501742844
922.800599772
916.856812937
910.683913903
904.29566344
897.706022689
890.929140307
883.979338935
876.871117407
869.61914998
862.238300259
854.743629186
847.150416148
839.474170723
831.730655734
823.93589668
816.106200199
808.258155396
800.408640635
792.574808707
784.774074995
777.024079857
769.34265197
761.747743329
754.257364984
746.889494236
739.661984895
732.592451467
725.698160706
718.99590089
712.501862122
706.231496305
700.199386927
694.419095268
688.903007779
683.662152588
678.706005553
674.042265184
669.676617495
665.61249587
661.850855999
658.389998596
655.225438345
652.349868117
649.753259794
647.423212332
645.345334073
643.503606622
641.880976745
640.459682933
639.221195391
638.146628829
637.21746989
636.416223601
635.726795645
635.134645999
634.626778996
634.191653002
633.819041728
633.499904074
633.226297877
632.991352898
632.789223491
632.614941792
632.464267663
632.333585232
632.219826327
632.120392049
632.032958904
631.956843425
631.895527235
631.848092773
631.811204004
631.78454873
631.766815232
631.754711837
631.746924776
631.742536131
631.74025224
631.739127913
978.452922033
978.0805608
977.328200447
976.189502109
974.668798755
972.770672487
970.500806423
967.86590451
964.873634703
961.532561304
957.852073486
953.842310041
949.514083505
944.878804034
939.948406221
934.735278785
929.252200373
923.512280798
917.528910898
911.315719487
904.886540405
898.255387134
891.436437711
884.444026369
877.292644494
869.99694642
862.571762713
855.032115776
847.393240697
839.670605503
831.879934412
824.037226537
816.15877447
808.261175658
800.361339185
792.4764807
784.624109326
776.821998459
769.088145396
761.440712189
753.897954295
746.478130672
739.199403994
732.079726203
725.13671964
718.387549697
711.848798657
705.536334873
699.465182911
693.649384111
688.101846879
682.834171683
677.856447672
673.177010084
668.802167696
664.735911076
660.97963266
657.53188597
654.388192474
651.540885852
648.979165952
646.689648275
644.656884612
642.863577313
641.291732649
639.922972102
638.737624593
637.715232508
636.835832775
636.080914154
635.433852031
634.879954352
634.40632659
634.001667022
633.656025895
633.360592714
633.107600515
632.890389333
632.703447438
632.542165326
632.402608446
632.281420232
632.175778222
632.083276562
632.001597519
631.931310927
631.875770814
631.832484755
631.799532542
631.775693064
631.759332337
631.748511713
631.741731042
631.737777064
631.735600072
631.734534345
979.968574101
979.591508845
978.830351934
977.678432663
976.140221952
974.220454629
971.925005318
969.260800005
966.2357524
962.858690049
959.139276235
955.087928762
950.715737582
946.034383088
941.056056914
935.793386925
930.259368049
924.467300303
918.430735317
912.163432117
905.67932291
898.992488807
892.117145563
885.067638409
877.858445498
870.504188427
863.0196491
855.419791108
847.719784905
839.935034706
832.081206957
824.174256431
816.230450573
808.266389157
800.299016934
792.345626399
784.423849319
776.55163329
768.747202796
761.02900184
753.415619254
745.925695691
738.577815977
731.390388464
724.381517449
717.568872039
710.969557294
704.599989173
698.475773637
692.611584051
687.021026902
681.716480203
676.708887177
672.007491006
667.619508619
663.549764655
659.800326594
656.370194034
653.255023711
650.446704869
647.933178309
645.699593689
643.72906985
642.002118983
640.499554997
639.202946187
638.091002752
637.140582979
636.32937016
635.637388745
635.047407349
634.544694148
634.116651111
633.752443558
633.442597668
633.178627753
632.952911369
632.758989255
632.59188256
632.447552416
632.322480166
632.213629236
632.118531311
632.0350501
631.960966953
631.89852449
631.850132533
631.81235513
631.783348037
631.762657795
631.748837722
631.739732113
631.733853387
631.730417176
631.728495514
631.727542497
981.877240997
981.494275951
980.721960383
979.553241606
977.992781564
976.045520404
973.717583689
971.016185811
967.949559055
964.526871708
960.758141858
956.654148057
952.226338929
947.486743731
942.447885806
937.122700864
931.524461877
925.666712221
919.563208486
913.227873986
906.674763677
899.918040599
892.971963632
885.850885714
878.569261549
871.141663335
863.582803252
855.907561138
848.13101618
840.268481064
832.335538133
824.34807374
816.322311339
808.274840761
800.222640044
792.183087555
784.173961385
776.213422671
768.319980392
760.512435245
752.809801918
745.231209994
737.795786165
730.522522084
723.430134311
716.536924167
709.860644781
703.418381595
697.226446763
691.300282676
685.654359158
680.302040027
675.255388909
670.524877636
666.118991534
662.043743715
658.302196972
654.894087357
651.815570745
649.058143912
646.607551873
644.446828738
642.557617324
640.916123055
639.501746027
638.298511364
637.282710549
636.426306673
635.703163823
635.091381884
634.573279534
634.134422289
633.762874724
633.448655402
633.183105405
632.958174205
632.766162562
632.600601022
632.457434311
632.333584011
632.226026632
632.132018589
632.049622588
631.977038713
631.912716379
631.859875549
631.818623503
631.786488236
631.762571138
631.746341327
631.73500719
631.727725031
631.723178666
631.720122868
631.718472429
631.717643455
984.18472052
983.794563033
983.008614433
981.819359501
980.231702902
978.25084628
975.883231699
973.136435839
970.01909017
966.540789352
962.71199497
958.543936108
954.048508941
949.238177597
944.125878378
938.724929534
933.04894859
927.111779225
920.927429309
914.510021491
907.873757066
901.032893418
894.001734518
886.794633604
879.426006449
871.910353686
864.262290336
856.496581093
848.628179909
840.672272715
832.64432292
824.560115712
816.435802248
808.287940974
800.133531664
791.990039747
783.875406811
775.808043129
767.806798474
759.890907864
752.079910517
744.393541879
736.851601611
729.473803235
722.279614616
715.288101056
708.517783486
701.986523355
695.711438642
689.7088484
683.994224448
678.582118165
673.48600306
668.717973763
664.288248664
660.204497939
656.471160937
653.08908754
650.055851154
647.36317619
644.992298066
642.923267192
641.137974356
639.602311418
638.293789556
637.207438321
636.314853667
635.578119376
634.964877829
634.451109888
634.0194554
633.65650535
633.351556043
633.096099438
632.882909299
632.704554843
632.552566933
632.41965003
632.303632287
632.203253129
632.115889476
632.038752313
631.970832219
631.910707559
631.857710427
631.815011696
631.78164982
631.756443433
631.73843748
631.72607537
631.717429697
631.711992937
631.708991796
631.706751789
631.705552137
631.704967179
986.898081649
986.499350098
985.697155098
984.483425152
982.863363951
980.842495997
978.427653239
975.626857374
972.449229324
968.904885692
965.004830323
960.760842555
956.185364662
951.291390827
946.092360037
940.60205526
934.834511342
928.803933899
922.524631355
916.010961738
909.277295368
902.337993612
895.207403213
887.899864701
880.429733008
872.81140793
865.059372382
857.188236523
849.212786573
841.148037191
833.009287875
824.812178836
816.572748802
808.307491209
800.033403983
791.76802988
783.529482143
775.336449986
767.208178526
759.164418176
751.225340104
743.411416613
735.743269007
728.24149011
720.926453803
713.818129164
706.935919525
700.298546957
693.923995413
687.829514861
682.031664155
676.546348929
671.388762435
666.57311229
662.111987383
658.015349045
654.289366597
650.936175571
647.957012354
645.346676866
643.075097727
641.118244843
639.46717687
638.058829429
636.866295762
635.92405586
635.190134972
634.604713613
634.12557133
633.727634343
633.396131173
633.119958507
632.890321347
632.701107081
632.547794227
632.42412121
632.319038653
632.22168003
632.134381981
632.059914323
631.995268309
631.936297358
631.88416993
631.837914523
631.797380367
631.765271584
631.740627714
631.722537471
631.710091217
631.701486202
631.696318164
631.692983418
631.691311612
631.690534575
631.689932855
631.689701273
990.025743904
989.616958925
988.795733995
987.553341096
985.895345163
983.827663194
981.357599939
978.493715883
975.245723351
971.624368611
967.641308738
963.30898519
958.640496683
953.649473952
948.349958883
942.756290761
936.883002372
930.74472892
924.35613233
917.731843321
910.886422555
903.834341386
896.589981256
889.167649875
881.581611243
873.846126496
865.97550253
857.984146422
849.88662431
841.697724391
833.432525233
825.106464888
816.735414741
808.335753977
799.92443926
791.519066042
783.137914719
774.799974427
766.524936843
758.333152503
750.245543658
742.283470252
734.468550473
726.822443681
719.366612056
712.122085719
705.109263893
698.347785963
691.85650301
685.653561131
679.756587541
674.182920924
668.949772324
664.074086533
659.571783208
655.456089452
651.734976854
648.410423466
645.492768619
642.990876719
640.841243672
639.014255415
637.54866506
636.291653271
635.198630462
634.439867059
633.918893699
633.525663772
633.205003829
632.936828186
632.716235899
632.536274459
632.389282167
632.27194514
632.185023804
632.125633876
632.076109288
632.013754507
631.952982066
631.906749352
631.868177725
631.827261819
631.791597066
631.760337812
631.732413288
631.711198178
631.695502914
631.684836082
631.677968213
631.673764157
631.671669627
631.671112738
631.671153033
631.671900939
631.672060636
631.672262013
993.57756862
993.157134539
992.313892231
991.03834587
989.336494219
987.21472644
984.680915418
981.744267579
978.415202871
974.70521949
970.626753368
966.193034412
961.41794234
956.315864593
950.901559083
945.190024639
939.196382573
932.935772864
926.423268666
919.673812112
912.702173699
905.52293571
898.150498724
890.59910816
882.882896888
875.015939114
867.012311634
858.886159601
850.651766081
842.32362569
833.916525421
825.445628044
816.926564654
808.375531073
799.809382628
791.245722643
782.702976281
774.200440174
765.758297308
757.397586096
749.140113562
741.008305281
733.02499033
725.213128473
717.595499062
710.194386231
703.031308435
696.126849942
689.500647132
683.171570734
677.158106305
671.478911634
666.153402953
661.202069532
656.645735621
652.502938505
648.78285389
645.478879456
642.621764938
640.279220971
638.278278221
636.578603582
635.409688481
634.306514409
633.076313326
632.549261063
632.367188436
632.250481172
632.145146472
632.048573872
631.960981767
631.881140972
631.811345615
631.76183457
631.750725089
631.786001403
631.827317247
631.802981067
631.760057935
631.747027669
631.741328544
631.71410176
631.694636117
631.679761429
631.663337411
631.653228003
631.646373586
631.643595983
631.642873196
631.643476378
631.644642188
631.6465902
631.649004623
631.651267687
631.652492499
631.653149223
997.564966375
997.131149491
996.262655961
994.949101854
993.197003129
991.01331445
988.406587141
985.386797263
981.965205666
978.154202079
973.96714413
969.418193585
964.522152456
959.294301452
953.750243275
947.905754033
941.776646613
935.378650747
928.727314553
921.837932197
914.725500751
907.404707579
899.889946571
892.195359225
884.334894104
876.322377859
868.171591545
859.896348866
851.51057578
843.028393861
834.4642128
825.832828663
817.149537375
808.430257416
799.691655757
790.951271557
782.22762705
773.540313521
764.910038026
756.358614976
747.908886488
739.58455739
731.409936833
723.409589614
715.607918392
708.028721132
700.694795075
693.627674887
686.847602676
680.373796506
674.225079412
668.420902495
662.982720072
657.935452778
653.307676705
649.129090291
645.409817037
642.100549267
639.266890944
637.207599492
635.316337386
633.391633271
632.961084569
632.406304053
632.171259415
632.14430132
632.162121554
632.150287304
632.111182697
632.05709733
631.997345144
631.938811252
631.888159257
631.856541153
631.856602204
631.873059
631.816934871
631.615606715
631.512575785
631.557295051
631.62026483
631.596690321
631.593840235
631.600028135
631.590674428
631.593147606
631.594264983
631.599542788
631.604848999
631.610312125
631.615719707
631.620669332
631.625232984
631.629248646
631.631838318
631.63300674
1002.00102537
1001.55192464
1000.65465238
999.297800049
997.488500446
995.234383174
992.544807359
989.430662299
985.904203516
981.978872166
977.669110441
972.990175027
967.957951086
962.588768472
956.899222465
950.906002106
944.625730928
938.074825978
931.269382203
924.225088692
916.957182136
909.480439479
901.809208154
893.957467513
885.938912054
877.767045158
869.455274131
861.017001154
852.465711063
843.815060978
835.078982027
826.271791368
817.40832883
808.504110439
799.575493055
790.639843025
781.715696361
772.822895211
763.982682072
755.217729568
746.55208129
738.010979025
729.620556588
721.407393394
713.397944685
705.617902641
698.091586606
690.841500444
683.888209912
677.250649645
670.946972106
664.996115902
659.420375692
654.249338711
649.523879561
645.302170982
641.603689142
638.183961686
634.918448107
633.634669121
632.555807818
632.506544116
632.583527932
632.518309073
632.441583948
632.4006125
632.373991148
632.336914789
632.286608758
632.224788069
632.156222968
632.085309882
632.016483494
631.957220081
631.91307017
631.871025738
631.798020756
631.712657858
631.678980494
631.707692402
631.673571296
631.459786356
631.465630788
631.526177149
631.511126135
631.532967803
631.538470941
631.55354935
631.564855419
631.575239605
631.58511932
631.593916322
631.601072072
631.606831835
631.610965327
631.612811351
1006.90066503
1006.43417948
1005.50424765
1004.09828548
1002.22415983
999.890306105
997.107043619
993.886342982
990.241632372
986.187587886
981.739921854
976.915171242
971.730487419
966.203427945
960.351751317
954.193217695
947.745400882
941.025519763
934.050298881
926.835868577
919.397712822
911.750669231
903.908979067
895.886378512
887.696215909
879.351577458
870.865405586
862.250602393
853.520120332
844.687051362
835.764731675
826.76686477
817.707682526
808.602135039
799.466102616
790.316621515
781.172108496
772.052566511
762.97974825
753.977248255
745.07048792
736.286553232
727.653845759
719.201519
710.95870167
702.953564417
695.212364173
687.758673587
680.613051496
673.793266262
667.315183827
661.194664087
655.451324293
650.117199076
645.249154261
640.98677964
637.422287248
633.692186351
633.027956869
632.951294017
632.875206153
632.850134743
632.873149511
632.836685168
632.779644243
632.718779842
632.661358556
632.602638133
632.537731319
632.465356455
632.38683852
632.304080939
632.221472285
632.144754697
632.076839
632.008754067
631.923046229
631.828968325
631.758436314
631.715305019
631.650711124
631.603838877
631.610256547
631.545114722
631.394324351
631.473784875
631.474512935
631.507559652
631.524400717
631.53937968
631.554200586
631.567012142
631.577411785
631.585247153
631.590952736
631.593548499
1012.28081998
1011.79460557
1010.82771194
1009.36620471
1007.41882771
1004.99497888
1002.10611955
998.765499292
994.987925764
990.789520402
986.187476535
981.199821079
975.845179432
970.142541359
964.111026862
957.769653671
951.137112743
944.231562307
937.070455051
929.670413946
922.047170838
914.215575637
906.189675136
897.982848268
889.607974544
881.077605953
872.404116401
863.599815164
854.677030529
845.648184654
836.525890163
827.323078049
818.053184385
808.730382541
799.36985331
789.988081594
780.603163643
771.235105138
761.906083554
752.640637806
743.465736596
734.410664012
725.506652321
716.786194806
708.282002133
700.025641415
692.046032965
684.368121435
677.012204415
669.993909764
663.324716751
657.013146684
651.067859891
645.504234966
640.326538528
635.606636616
633.332391688
633.034730385
633.20709508
633.299117077
633.308130074
633.291174345
633.269920334
633.222886587
633.160388994
633.089514127
633.016991537
632.941906446
632.861372875
632.7754776
632.683987598
632.587362342
632.489347708
632.39390609
632.302398002
632.209334915
632.106027079
631.997424308
631.901841938
631.821950508
631.738890461
631.666714808
631.614662195
631.562206184
631.547729914
631.514618118
631.378300862
631.465029462
631.484004699
631.502607806
631.523852813
631.54136858
631.555249035
631.565521934
631.572731136
631.576168276
1018.16066049
1017.65208048
1016.64341469
1015.11918062
1013.08917162
1010.56393947
1007.55630579
1004.08103358
1000.15455069
995.794664622
991.020287444
985.851171169
980.307649242
974.410377421
968.18006847
961.637220374
954.801844529
947.693208673
940.329615276
932.728240169
924.905054138
916.874843248
908.651328815
900.247369661
891.675209185
882.946718326
874.073587926
865.067447234
855.939920339
846.702662101
837.367426037
827.946187299
818.451355893
808.896060134
799.294487457
789.662268003
780.016884415
770.378089813
760.768305959
751.212959404
741.740693515
732.383369842
723.175744407
714.154685412
705.357813902
696.821538857
688.578695372
680.656264059
673.074304514
665.845723004
658.976185942
652.464075408
646.295922541
640.405960934
634.342964596
633.867297827
633.765704723
633.696337654
633.781675373
633.80962262
633.79397679
633.767478576
633.731683734
633.678115037
633.609648758
633.530695988
633.445647003
633.354796788
633.258159979
633.15650933
633.048594376
632.934719305
632.817631101
632.699925627
632.582358558
632.462269462
632.336563346
632.209236562
632.090174104
631.981599358
631.876786758
631.779772521
631.697289712
631.62326418
631.568859379
631.517265968
631.502098167
631.491363022
631.445402928
631.463417764
631.495224104
631.518230657
631.535858958
631.548726598
631.55735901
631.561670514
1024.56185739
1024.02791623
1022.9720576
1021.37701701
1019.25385253
1016.61450444
1013.47342068
1009.84715768
1005.75404474
1001.2138492
996.247466682
990.876633618
985.123651537
979.011107479
972.561577733
965.79730967
958.739888631
951.409908989
943.826680493
936.008007471
927.970079522
919.727502178
911.293476143
902.680101864
893.898752156
884.960428616
875.876018699
866.656407854
857.312471268
847.855025082
838.2948313
828.642700646
818.9097366
809.10768368
799.249355547
789.349121208
779.423437179
769.491413869
759.575393141
749.701493605
739.900053493
730.20585992
720.657995462
711.299064771
702.173524053
693.324894482
684.792041048
676.60509501
668.78423285
661.339923302
654.273941024
647.57691531
641.192156509
634.683816924
633.912495388
634.182243497
634.344502669
634.369215674
634.385503368
634.378166439
634.352346326
634.315522493
634.267832239
634.205577789
634.129641242
634.042163023
633.945179042
633.839320964
633.727166078
633.60845637
633.481309666
633.346977364
633.207391589
633.06445629
632.919008732
632.770400664
632.618460809
632.466635743
632.320632999
632.182676346
632.051607316
631.930091993
631.821806796
631.724982586
631.642969394
631.57424565
631.53248322
631.513285937
631.476679558
631.404502978
631.467642588
631.498885355
631.520395907
631.535886929
631.546009929
631.551097615
1031.50890169
1030.94616557
1029.83695093
1028.16194012
1025.93372287
1023.1659216
1019.87493824
1016.07946154
1011.80005163
1007.05874475
1001.8787087
996.283942694
990.298998179
983.948690945
977.257777836
970.250585549
962.950596694
955.38001937
947.559384432
939.507229222
931.239930149
922.771737739
914.115038051
905.280815975
896.279231999
887.120169442
877.813596009
868.369647988
858.798484104
849.110069772
839.314060648
829.419867153
819.436942537
809.375222882
799.245664133
789.06084455
778.835632543
768.587926713
758.339457295
748.116613785
737.951232313
727.881223165
717.950818246
708.210062122
698.712993867
689.513830857
680.661090105
672.189441179
664.11919388
656.459145341
649.206372477
642.311742811
635.349675852
634.51021102
634.693369699
634.943143242
635.021016827
635.041429164
635.039747826
635.018251564
634.982461704
634.935200284
634.876880315
634.805821776
634.721814731
634.625131023
634.516114882
634.395674504
634.26730452
634.129971435
633.981939102
633.824821907
633.660316374
633.490140315
633.315471342
633.136941858
632.955761917
632.774980826
632.598559497
632.428991766
632.267583069
632.116982865
631.979836335
631.856819012
631.749797327
631.65916168
631.588578522
631.535989139
631.483958688
631.468697223
631.464743145
631.490072657
631.511149273
631.528339071
631.539760959
631.545458806
1039.02949212
1038.43398215
1037.26434454
1035.49888131
1033.15205401
1030.23953738
1026.7800993
1022.794977
1018.30735015
1013.34186793
1007.92427425
1002.08111543
995.839486058
989.226756561
982.270235166
974.996737294
967.432065568
959.600433839
951.523899288
943.221890109
934.710930822
926.004660476
917.1142039
908.04887942
898.817115684
889.427331709
879.888483568
870.210077028
860.401740919
850.472692174
840.431402709
830.285608885
820.042683537
809.71022218
799.296721237
788.812299444
778.269499311
767.684212802
757.076744222
746.472990567
735.9057018
725.415735811
715.053084169
704.877160964
694.955408941
685.358497003
676.151380718
667.374411168
659.047358913
651.173749429
643.707252115
636.209920041
635.34361159
635.548094203
635.728180953
635.802160007
635.809985919
635.797484575
635.770863383
635.731974658
635.683559005
635.626139261
635.558612068
635.479000414
635.38594081
635.278318677
635.155738914
635.020476245
634.874631473
634.716555439
634.546054486
634.364666162
634.174022635
633.975790697
633.771412461
633.562210326
633.349994465
633.137573622
632.928252064
632.724845402
632.529810249
632.346051187
632.176304605
632.022541732
631.886787092
631.770298691
631.674582251
631.597866259
631.534179794
631.497065974
631.485601476
631.481584518
631.504965888
631.526029811
631.539194951
631.545490306
1047.15500791
1046.52206782
1045.28382342
1043.41581149
1040.93479537
1037.85897639
1034.21001672
1030.0122261
1025.29186702
1020.07657763
1014.39497774
1008.27642569
1001.75084083
994.848492311
987.599670472
980.034194096
972.180750214
964.066110594
955.714312381
947.145932487
938.377614983
929.422020552
920.288329114
910.983320359
901.512862894
891.883398397
882.102842733
872.18044251
862.125777023
851.947622898
841.65324852
831.248371586
820.737719224
810.125876575
799.41815376
788.621401235
777.744907086
766.801497061
755.808876915
744.791209903
733.780951803
722.820983456
711.966950058
701.289319116
690.87390271
680.817125676
671.215038353
662.113724538
653.524674663
645.401162553
637.28300681
636.374798963
636.638873714
636.812399816
636.794217926
636.744271021
636.688508264
636.632556418
636.57572033
636.517270199
636.455393312
636.387300211
636.309725933
636.219593105
636.114520141
635.992624131
635.85357934
635.701063829
635.53536313
635.354739057
635.160623048
634.954448074
634.737773227
634.51214406
634.27903567
634.039985386
633.796940671
633.552494205
633.309654911
633.071438995
632.840881691
632.621236182
632.415668945
632.226994765
632.057795092
631.910073907
631.785279947
631.682885537
631.601134695
631.544010441
631.510915571
631.493564789
631.498034039
631.529713431
631.545284863
631.551949621
1055.92108882
1055.24521016
1053.9287853
1051.94413569
1049.3108707
1046.05032683
1042.18775948
1037.7512333
1032.77065699
1027.27705559
1021.30218342
1014.87840726
1008.03869956
1000.81656694
993.245776867
985.359804298
977.190988674
968.769455055
960.121917122
951.270542246
942.232122046
933.017833717
923.633865142
914.083043558
904.367294578
894.490256216
884.458916481
874.283142781
863.97350014
853.538985385
842.985709515
832.31686755
821.533737033
810.637038611
799.628060968
788.509467757
777.286183848
765.966625047
754.564317055
743.099851093
731.603282265
720.117282347
708.701360672
697.437151714
686.434091661
675.828607784
665.785403411
656.344250059
647.44987785
638.610579198
637.619268064
637.933613137
638.124793287
638.04326478
637.884076522
637.744345595
637.627498169
637.529906544
637.445270226
637.367731388
637.291124853
637.209674058
637.118288704
637.012904943
636.890511942
636.749147407
636.589248329
636.415097499
636.226287728
636.021655719
635.803355722
635.572887874
635.331648904
635.080897517
634.82185399
634.55586985
634.284672906
634.010519186
633.736119341
633.464474485
633.198846331
632.942764389
632.69984498
632.473604546
632.267351974
632.083926212
631.925478336
631.792926666
631.686564546
631.608003493
631.555985063
631.524977675
631.513630088
631.547474969
631.561537421
631.565845091
1065.36834769
1064.64296604
1063.23701431
1061.11916584
1058.3125191
1054.84232337
1050.73838767
1046.03346601
1040.76181973
1034.95825868
1028.65781778
1021.89591339
1014.70867058
1007.13312447
999.207076935
990.968493847
982.454424435
973.69951071
964.734232107
955.583123745
946.263314912
936.783853045
927.146342472
917.347324377
907.382365487
897.250841727
886.959219066
876.519906183
865.946532634
855.249564514
844.434021422
833.499695131
822.443151036
811.260137785
799.947055552
788.501448122
776.922634071
765.213002423
753.3799207
741.437956331
729.411563054
717.339009729
705.278624912
693.31869476
681.593868208
670.297767606
659.763178279
649.935543409
640.248910749
639.100227739
639.423928932
639.626770021
639.496433061
639.238369926
638.983417261
638.774340862
638.608632846
638.476974671
638.367578506
638.270029755
638.175042269
638.074869391
637.963331487
637.835829546
637.689133975
637.521802353
637.33601688
637.135309527
636.919293212
636.688793129
636.44609784
636.192657054
635.929495471
635.657344446
635.376860906
635.088855828
634.794520244
634.495567896
634.194247871
633.893291826
633.595885966
633.305635477
633.026446375
632.762376254
632.517468378
632.29550106
632.099714463
631.932505544
631.795612977
631.690419262
631.616143717
631.569714282
631.547251897
631.539774487
631.586620221
631.584565278
1075.54323802
1074.76053267
1073.25136381
1070.98069231
1067.97570378
1064.26651576
1059.88889057
1054.88163838
1049.28430001
1043.13581903
1036.47441209
1029.33827648
1021.76653475
1013.79991981
1005.48087842
996.85293735
987.959319944
978.840894885
969.533623513
960.065782992
950.45542125
940.708746424
930.820419323
920.776800848
910.562705965
900.17041778
889.60689163
878.891185513
868.044041848
857.079588636
846.001650152
834.804854945
823.478867144
812.013008472
800.398130728
788.625930029
776.688820916
764.581293082
752.302298291
739.857550607
727.261768072
714.542319816
701.746145821
688.953181736
676.309118007
664.051688471
652.946788568
642.250429243
640.831012686
641.088182211
641.285628595
641.111004045
640.7668287
640.400144704
640.078681942
639.82193357
639.620946599
639.460718503
639.325953081
639.203825761
639.083668281
638.956999893
638.817325826
638.659934676
638.481683296
638.281901685
638.064541671
637.83206807
637.58509005
637.326998253
637.060081336
636.785586077
636.503944152
636.215097124
635.918840376
635.615134008
635.30435371
634.987449907
634.666006791
634.342240828
634.018985042
633.699657378