/*--------------------------------*- C++ -*----------------------------------*\
| =========                 |                                                 |
| \\      /  F ield         | OpenFOAM: The Open Source CFD Toolbox           |
|  \\    /   O peration     | Version:  v1906                                 |
|   \\  /    A nd           | Web:      www.OpenFOAM.com                      |
|    \\/     M anipulation  |                                                 |
\*---------------------------------------------------------------------------*/
FoamFile
{
    version     2.0;
    format      ascii;
    class       volVectorField;
    location    "808";
    object      U;
}
// * * * * * * * * * * * * * * * * * * * * * * * * * * * * * * * * * * * * * //

dimensions      [0 1 -1 0 0 0 0];


internalField   nonuniform List<vector> 
9216
(
(0.00156796242101 -0.00156928782673 0)
(0.00160802129497 -0.00489046310367 6.54045045312e-28)
(0.00159669708061 -0.00821981369917 1.08867503497e-31)
(0.00157356118756 -0.0115291699941 0)
(0.00154244554803 -0.0147798666852 0)
(0.00150416696392 -0.0179579124423 0)
(0.00145956465887 -0.0210492734044 0)
(0.00140944742726 -0.0240416183697 0)
(0.00135459164244 -0.0269242656289 0)
(0.00129580449636 -0.0296881775074 0)
(0.00123383191613 -0.0323259517291 0)
(0.00116942134978 -0.0348317390827 0)
(0.00110322083323 -0.0372011585192 0)
(0.00103585836552 -0.0394311545107 0)
(0.000967840649824 -0.0415198630524 0)
(0.000899648349193 -0.043466443727 0)
(0.000831635302718 -0.0452709303937 0)
(0.000764135338543 -0.046934068217 0)
(0.000697361339934 -0.0484571732448 0)
(0.00063151858626 -0.0498419930131 0)
(0.000566703267982 -0.0510905877323 0)
(0.000503017919874 -0.0522052223389 0)
(0.000440469956266 -0.0531882727396 0)
(0.00037908562305 -0.0540421498053 0)
(0.000318810058098 -0.054769229096 0)
(0.000259617090552 -0.0553718040069 0)
(0.000201413081735 -0.0558520357018 0)
(0.00014414048229 -0.0562119322661 0)
(8.76881568962e-05 -0.0564533166666 0)
(3.19872683254e-05 -0.056577829269 0)
(-2.30708313198e-05 -0.0565869176604 0)
(-7.75503298406e-05 -0.0564818571973 0)
(-0.000131536365371 -0.0562637496967 0)
(-0.000185061113285 -0.0559335902494 0)
(-0.000238162737068 -0.0554922842512 0)
(-0.000290824142068 -0.0549407258618 0)
(-0.000343016744613 -0.054279842424 0)
(-0.000394655272345 -0.0535106915716 0)
(-0.000445629943116 -0.0526345212218 0)
(-0.000495778564279 -0.051652875086 0)
(-0.000544909290382 -0.050567655803 0)
(-0.00059279019857 -0.0493812199927 0)
(-0.000639164847719 -0.0480964270248 0)
(-0.000683756323279 -0.0467167031861 0)
(-0.000726275664569 -0.045246061242 0)
(-0.000766432915444 -0.0436891249612 0)
(-0.000803934754933 -0.0420511224055 0)
(-0.00083849200473 -0.0403378915954 0)
(-0.000869800302689 -0.0385558808889 0)
(-0.000897537889289 -0.0367121909664 0)
(-0.000921328870556 -0.0348146351539 0)
(-0.000940742838173 -0.032871872964 0)
(-0.000955256618838 -0.0308935435808 0)
(-0.000964292933153 -0.0288904586756 0)
(-0.000967208827491 -0.0268746980142 0)
(-0.000963406230828 -0.0248596827099 0)
(-0.000952341626464 -0.0228600243704 0)
(-0.000933682385972 -0.0208912956957 0)
(-0.000907283105374 -0.0189695689336 0)
(-0.000873392633545 -0.0171108504323 0)
(-0.000832606659226 -0.0153302550531 0)
(-0.000785936452299 -0.013641192685 0)
(-0.000734502386348 -0.0120548371282 0)
(-0.000679695935467 -0.0105797212967 0)
(-0.000622875159029 -0.00922143697916 0)
(-0.000565186126047 -0.00798289512713 0)
(-0.000507521850646 -0.00686492856812 0)
(-0.000450856794659 -0.00586646521354 0)
(-0.000396226312631 -0.00498436324864 0)
(-0.000344697014233 -0.00421323375359 0)
(-0.000297129024691 -0.00354564886458 0)
(-0.000254122141445 -0.00297261116346 0)
(-0.000215911648706 -0.00248425817757 0)
(-0.000182423546129 -0.00207055878112 0)
(-0.000153285755852 -0.00172198946001 0)
(-0.000127979348142 -0.00143000569931 0)
(-0.0001059835852 -0.00118720845428 0)
(-8.69751107342e-05 -0.000987085565966 0)
(-7.07783221119e-05 -0.000823603226061 0)
(-5.72039754465e-05 -0.000691058725991 0)
(-4.59544532638e-05 -0.000584269412132 0)
(-3.66916997575e-05 -0.000498728592606 0)
(-2.90655369008e-05 -0.000430632249006 0)
(-2.25699100931e-05 -0.000377337011048 0)
(-1.63405282422e-05 -0.000331661566826 0)
(-1.34946861314e-05 -0.000304843811203 0)
(-1.22785655069e-05 -0.000277861579845 0)
(-1.03082350487e-05 -0.000255116445512 0)
(-1.02467497106e-05 -0.000236449647958 0)
(-1.12446559123e-05 -0.000214757303571 0)
(-1.153364948e-05 -0.00019265790237 0)
(-1.22169485235e-05 -0.00016819567029 0)
(-1.4586617379e-05 -0.000140215919788 0)
(-1.72926730142e-05 -0.000108171532455 0)
(-2.02585334576e-05 -6.78584763253e-05 0)
(-2.23376983356e-05 -2.20040001885e-05 0)
(0.00490278919569 -0.00162580290284 0)
(0.00516556793602 -0.0052048454994 0)
(0.00512633471205 -0.00875257367193 -6.72533018671e-28)
(0.0050503784562 -0.012281381761 0)
(0.00494933515313 -0.0157442731345 0)
(0.00482576824219 -0.0191281244707 0)
(0.00468204026978 -0.0224183186991 0)
(0.00452064332618 -0.0256018316821 0)
(0.00434408947053 -0.0286673411809 0)
(0.00415494602071 -0.0316052980824 0)
(0.00395565563517 -0.0344079186808 0)
(0.00374859078777 -0.0370691066722 0)
(0.00353587870835 -0.0395843455336 0)
(0.00331949713356 -0.0419505475188 0)
(0.00310111556445 -0.0441658946532 0)
(0.00288222931514 -0.0462296600954 0)
(0.00266401456668 -0.0481420374784 0)
(0.00244748956698 -0.0499039682591 0)
(0.002233377215 -0.0515169858235 0)
(0.00202228088457 -0.0529830683253 0)
(0.00181454924033 -0.0543045103911 0)
(0.00161045628957 -0.0554838087627 0)
(0.00141006616321 -0.0565235643289 0)
(0.00121341008323 -0.0574264001 0)
(0.00102035197448 -0.0581948909185 0)
(0.000830757847462 -0.0588315100122 0)
(0.000644365466462 -0.0593385822751 0)
(0.000460943544006 -0.059718255614 0)
(0.000280170010055 -0.0599724747147 0)
(0.000101779546514 -0.0601029757114 0)
(-7.45459170609e-05 -0.0601112766451 0)
(-0.000249044855848 -0.0599987010068 0)
(-0.00042196428514 -0.0597663978425 0)
(-0.000593442536809 -0.0594153726369 0)
(-0.000763583630439 -0.0589465323716 0)
(-0.000932358948018 -0.0583607537503 0)
(-0.00109966263577 -0.0576589467041 0)
(-0.00126523869287 -0.0568421458313 0)
(-0.00142872379649 -0.055911591577 0)
(-0.00158960521236 -0.0548688330057 0)
(-0.00174725768045 -0.0537158124314 0)
(-0.00190093511408 -0.0524549594962 0)
(-0.002049806192 -0.0510892573543 0)
(-0.00219297456236 -0.0496223040393 0)
(-0.00232950907193 -0.0480583397504 0)
(-0.00245847354224 -0.0464022621687 0)
(-0.00257893393543 -0.0446596147283 0)
(-0.00268996694973 -0.0428365752892 0)
(-0.00279061884215 -0.0409399454348 0)
(-0.00287987137423 -0.0389771771673 0)
(-0.00295654812933 -0.0369564381761 0)
(-0.00301926924616 -0.034886752756 0)
(-0.00306636553821 -0.0327781842302 0)
(-0.00309593657424 -0.0306420689075 0)
(-0.00310588786362 -0.0284911930209 0)
(-0.0030942014947 -0.0263398940116 0)
(-0.00305909183347 -0.0242039477516 0)
(-0.00299938154902 -0.0221002916429 0)
(-0.00291455593447 -0.0200465869721 0)
(-0.00280530967531 -0.0180605933485 0)
(-0.00267365602449 -0.0161591457536 0)
(-0.00252291428085 -0.0143570233136 0)
(-0.00235675770617 -0.0126664803957 0)
(-0.00217975621429 -0.0110968147852 0)
(-0.00199655419466 -0.00965369691294 0)
(-0.00181072508824 -0.00833971977014 0)
(-0.001624994435 -0.00715557720784 0)
(-0.00144237934697 -0.00610027589153 0)
(-0.00126632086475 -0.00517058001656 0)
(-0.00110035256069 -0.00436058982478 0)
(-0.000947372253066 -0.00366193422951 0)
(-0.000809326605302 -0.00306440793722 0)
(-0.000686986609128 -0.00255683588865 0)
(-0.000580035545038 -0.00212793508058 0)
(-0.00048718492388 -0.00176713617134 0)
(-0.000406587745459 -0.00146522481937 0)
(-0.00033645087144 -0.00121456577633 0)
(-0.000275741911568 -0.00100861885835 0)
(-0.000224057038264 -0.000841127293513 0)
(-0.000180856820283 -0.000705914736091 0)
(-0.000145166164387 -0.000597327740861 0)
(-0.000115880687783 -0.000510526106081 0)
(-9.19877620402e-05 -0.000441363670997 0)
(-7.24346828928e-05 -0.000386305643643 0)
(-5.57731925924e-05 -0.00034019535915 0)
(-4.44934609651e-05 -0.000298367364513 0)
(-3.70840097137e-05 -0.000271461181319 0)
(-3.09502651083e-05 -0.000249802807884 0)
(-2.99761692926e-05 -0.000228130865692 0)
(-3.23988189303e-05 -0.000211033549925 0)
(-3.43365084277e-05 -0.000192566541298 0)
(-3.78439930927e-05 -0.000166983144781 0)
(-4.37071799691e-05 -0.000138172344813 0)
(-5.62203812476e-05 -0.000110943808274 0)
(-7.11012068083e-05 -7.1797278162e-05 0)
(-6.59320484103e-05 -1.99336105701e-05 0)
(0.00829698312682 -0.00164706824595 0)
(0.00874613387813 -0.0052700053953 0)
(0.0086721868276 -0.00885444083031 -6.7158119363e-28)
(0.00854039123755 -0.0124224618335 0)
(0.00836721823912 -0.0159223929448 0)
(0.00815623648822 -0.0193404534594 0)
(0.00791123988261 -0.0226615759153 0)
(0.00763639147292 -0.0258725080157 0)
(0.00733601447836 -0.0289618300355 0)
(0.00701447366658 -0.0319200137571 0)
(0.00667599148295 -0.0347393936584 0)
(0.00632458210849 -0.0374140750133 0)
(0.0059639125844 -0.0399398019042 0)
(0.00559729673682 -0.0423137896478 0)
(0.0052276040515 -0.0445345436964 0)
(0.00485730627496 -0.0466016676665 0)
(0.00448842301715 -0.0485156772426 0)
(0.00412260406366 -0.0502778197195 0)
(0.0037610957535 -0.0518899099928 0)
(0.00340484107626 -0.0533541804057 0)
(0.00305445318982 -0.0546731502128 0)
(0.00271031967024 -0.0558495110357 0)
(0.00237257503563 -0.0568860303497 0)
(0.00204120124476 -0.0577854699429 0)
(0.00171599660097 -0.0585505189168 0)
(0.00139666944907 -0.0591837398152 0)
(0.00108280488985 -0.0596875257511 0)
(0.000773951761917 -0.06006406955 0)
(0.00046959080796 -0.060315341519 0)
(0.00016921625114 -0.0604430794814 0)
(-0.000127689629871 -0.0604487876841 0)
(-0.000421578791204 -0.060333747272 0)
(-0.000712854997441 -0.0600990361658 0)
(-0.00100180096843 -0.0597455679476 0)
(-0.00128858594608 -0.0592741365884 0)
(-0.00157320054963 -0.0586854809326 0)
(-0.00185546089106 -0.0579803575312 0)
(-0.00213495909316 -0.0571596310649 0)
(-0.00241107184038 -0.0562243690625 0)
(-0.00268293753136 -0.0551759479867 0)
(-0.00294948054533 -0.0540161541752 0)
(-0.00320942383724 -0.0527472835772 0)
(-0.00346133522685 -0.051372222029 0)
(-0.00370367243958 -0.0498945082054 0)
(-0.00393484082975 -0.0483183637635 0)
(-0.00415324419006 -0.0466486965124 0)
(-0.00435731643633 -0.0448910717177 0)
(-0.00454552597221 -0.0430516699193 0)
(-0.00471632701112 -0.041137244223 0)
(-0.00486807052621 -0.039155112503 0)
(-0.00499885813988 -0.0371132100285 0)
(-0.00510639828429 -0.0350202393265 0)
(-0.00518787512381 -0.0328859156685 0)
(-0.00523995653257 -0.0307212953203 0)
(-0.00525893056194 -0.0285390904813 0)
(-0.0052410985986 -0.0263538656342 0)
(-0.00518321227654 -0.0241819831545 0)
(-0.00508299440862 -0.0220412575337 0)
(-0.00493925407875 -0.0199506365513 0)
(-0.00475285496355 -0.0179296552154 0)
(-0.00452745803915 -0.01599699844 0)
(-0.00426921035942 -0.0141685734987 0)
(-0.00398427805631 -0.0124575024716 0)
(-0.00368097175339 -0.0108738219969 0)
(-0.00336825606892 -0.00942247088958 0)
(-0.00305179205989 -0.00810461371345 0)
(-0.00273538061047 -0.00692057265964 0)
(-0.00242380685124 -0.00586992373342 0)
(-0.00212331804278 -0.00494984712421 0)
(-0.00184044013663 -0.00415407498962 0)
(-0.00158051007744 -0.00347312719975 0)
(-0.00134696132365 -0.00289531478767 0)
(-0.00114108339615 -0.0024078928329 0)
(-0.000962135827597 -0.00199814218719 0)
(-0.000807547511845 -0.00165441459199 0)
(-0.000673548301245 -0.00136713123395 0)
(-0.000556519249743 -0.00112925300655 0)
(-0.000454774908142 -0.000935257435851 0)
(-0.000368314065098 -0.000779229556831 0)
(-0.000296520499528 -0.000654538237588 0)
(-0.000237557902618 -0.000555111381462 0)
(-0.000189365181598 -0.000476123691585 0)
(-0.000150384465627 -0.000413585045652 0)
(-0.000119183903222 -0.000364197688992 0)
(-9.49086163257e-05 -0.000322850617418 0)
(-7.66848058844e-05 -0.000286388591354 0)
(-6.42898662677e-05 -0.000267104116328 0)
(-5.34451134368e-05 -0.000238086638758 0)
(-4.76042545367e-05 -0.000213553739375 0)
(-4.95323499795e-05 -0.000199663401199 0)
(-5.85726568572e-05 -0.000188401135617 0)
(-6.32114376251e-05 -0.000154216535329 0)
(-7.5558785113e-05 -0.000129640949221 0)
(-9.23995716735e-05 -9.61064420034e-05 0)
(-0.000107511545218 -5.8387693331e-05 0)
(-0.00010694790641 -1.8187383168e-05 0)
(0.011756521373 -0.00167335559254 0)
(0.0123978669573 -0.00535230747108 0)
(0.0122911628734 -0.00898919722497 6.71491881587e-28)
(0.0121014710751 -0.0126084576106 0)
(0.011852541817 -0.0161561839568 0)
(0.0115496817331 -0.0196178059336 0)
(0.0111984382361 -0.022977661833 0)
(0.0108048696592 -0.0262221622151 0)
(0.0103752808548 -0.0293397626556 0)
(0.00991599690247 -0.0323209979017 0)
(0.009433139226 -0.0351584210593 0)
(0.00893247527595 -0.0378464804499 0)
(0.00841927454436 -0.0403813519162 0)
(0.00789824497075 -0.0427607398145 0)
(0.00737346745014 -0.0449836650401 0)
(0.00684840563672 -0.0470502493577 0)
(0.00632589815205 -0.0489615087197 0)
(0.00580821580513 -0.0507191595402 0)
(0.00529708504361 -0.0523254447388 0)
(0.00479376681459 -0.0537829791783 0)
(0.00429908949745 -0.0550946169896 0)
(0.00381353111002 -0.0562633380014 0)
(0.00333724877718 -0.0572921533576 0)
(0.00287015487236 -0.0581840269552 0)
(0.00241193835141 -0.0589418118462 0)
(0.00196213257762 -0.0595681988704 0)
(0.00152012969526 -0.0600656765882 0)
(0.00108524231197 -0.0604365011058 0)
(0.000656715244591 -0.0606826752265 0)
(0.000233785144546 -0.0608059367135 0)
(-0.000184304888081 -0.0608077581803 0)
(-0.000598244447996 -0.0606893533314 0)
(-0.00100863476911 -0.0604516965473 0)
(-0.00141592529377 -0.0600955605737 0)
(-0.00182038727941 -0.0596215619684 0)
(-0.00222205101743 -0.0590302259585 0)
(-0.00262068101481 -0.058322065689 0)
(-0.00301572535369 -0.0574976782875 0)
(-0.00340630581077 -0.0565578527784 0)
(-0.00379119623553 -0.0555036887889 0)
(-0.00416884555817 -0.0543367167151 0)
(-0.0045374017153 -0.0530590140343 0)
(-0.00489477931216 -0.0516733039876 0)
(-0.00523873040648 -0.0501830285486 0)
(-0.00556694334902 -0.0485923814611 0)
(-0.00587712523092 -0.0469062976213 0)
(-0.00616707343796 -0.0451303948258 0)
(-0.00643468736254 -0.0432708821581 0)
(-0.00667791578307 -0.0413344558005 0)
(-0.00689460670915 -0.0393282284434 0)
(-0.00708227387618 -0.0372597398107 0)
(-0.00723781402636 -0.0351371129296 0)
(-0.00735725111257 -0.0329693885651 0)
(-0.00743564911611 -0.0307670271501 0)
(-0.00746731805665 -0.0285424710336 0)
(-0.00744642015497 -0.0263105464021 0)
(-0.00736778198785 -0.0240884779236 0)
(-0.007227736133 -0.0218952896633 0)
(-0.00702361926868 -0.019751813813 0)
(-0.00675580953195 -0.0176806918207 0)
(-0.00643007146233 -0.0157040703067 0)
(-0.00605699162462 -0.0138392587164 0)
(-0.00564423255188 -0.0121006957984 0)
(-0.00520517079553 -0.0105004939681 0)
(-0.00475610709673 -0.00904168448065 0)
(-0.00430366875099 -0.00772170165438 0)
(-0.00385055191258 -0.00654036464716 0)
(-0.00340283009878 -0.00549912440422 0)
(-0.00297058029824 -0.00459648006002 0)
(-0.0025646055609 -0.00382561147803 0)
(-0.00219344295769 -0.00317504117113 0)
(-0.00186225429086 -0.00263049956776 0)
(-0.00157279560492 -0.00217661920042 0)
(-0.00132362763884 -0.00179823766799 0)
(-0.00111025607022 -0.00148173819111 0)
(-0.000925719770622 -0.00121684275107 0)
(-0.000763146587222 -0.000997987159757 0)
(-0.000620344193481 -0.000822236892979 0)
(-0.000499482722424 -0.000684393053714 0)
(-0.000400504490544 -0.000576433389796 0)
(-0.000320001928201 -0.000491249797648 0)
(-0.000254317499913 -0.000424271971432 0)
(-0.000201485486925 -0.000371973804163 0)
(-0.000159485351064 -0.000331452255635 0)
(-0.000127054762523 -0.000295997702954 0)
(-0.000104595483024 -0.000270462839894 0)
(-8.79695286997e-05 -0.000249321203606 0)
(-7.50562358991e-05 -0.000223284414741 0)
(-6.97294940824e-05 -0.0002068341877 0)
(-6.7886895227e-05 -0.000182850638642 0)
(-7.59419796013e-05 -0.000161878896036 0)
(-9.42918744732e-05 -0.000146957743262 0)
(-0.000104691114918 -0.000110088206316 0)
(-0.000123810644441 -7.87032209293e-05 0)
(-0.000142493376728 -4.8379744178e-05 0)
(-0.000144756795215 -1.59245801758e-05 0)
(0.0152779788433 -0.00170854267351 0)
(0.0161113174619 -0.00546349345238 0)
(0.015969620728 -0.00917320725599 0)
(0.0157184687282 -0.012862398904 0)
(0.0153891641491 -0.016475044128 0)
(0.0149890084893 -0.0199955803171 0)
(0.0145255834728 -0.0234075862216 0)
(0.0140071120385 -0.0266970333072 0)
(0.0134421154348 -0.0298522339472 0)
(0.0128390888018 -0.0328638428295 0)
(0.0122062138194 -0.0357247516479 0)
(0.0115511405467 -0.0384299172913 0)
(0.010880818466 -0.04097614312 0)
(0.0102014000379 -0.0433618328951 0)
(0.00951818398697 -0.0455867362677 0)
(0.00883561771392 -0.0476516991027 0)
(0.00815731934625 -0.0495584299518 0)
(0.00748614018251 -0.051309288348 0)
(0.00682422650582 -0.052907099142 0)
(0.00617310607856 -0.0543549928639 0)
(0.00553375943138 -0.0556562718307 0)
(0.00490670647107 -0.0568142990628 0)
(0.00429207023004 -0.0578324078284 0)
(0.0036896525394 -0.0587138282336 0)
(0.00309898476031 -0.0594616285359 0)
(0.00251939112375 -0.0600786682299 0)
(0.00195002861863 -0.0605675613157 0)
(0.0013899423157 -0.0609306480671 0)
(0.000838100594025 -0.0611699748542 0)
(0.000293449189327 -0.0612872811882 0)
(-0.000245050857084 -0.0612839985473 0)
(-0.000778364751838 -0.0611612524474 0)
(-0.00130733753447 -0.06091987991 0)
(-0.00183262802387 -0.0605604646676 0)
(-0.00235465554531 -0.0600833815932 0)
(-0.00287352974365 -0.0594888628315 0)
(-0.00338899868766 -0.0587770827754 0)
(-0.00390038948638 -0.0579482634351 0)
(-0.00440657691436 -0.0570027981754 0)
(-0.00490595921586 -0.0559413906995 0)
(-0.00539647470446 -0.0547652015361 0)
(-0.00587564031626 -0.0534759924416 0)
(-0.006340638733 -0.0520762535294 0)
(-0.0067884300219 -0.0505692974109 0)
(-0.0072158987075 -0.0489593009951 0)
(-0.00761999688752 -0.0472512813838 0)
(-0.00799787111049 -0.0454509964296 0)
(-0.00834691373797 -0.0435647783921 0)
(-0.00866471319254 -0.0415993293506 0)
(-0.00894884175647 -0.0395615325395 0)
(-0.0091964959307 -0.0374583723995 0)
(-0.00940398900753 -0.0352970621744 0)
(-0.00956625257458 -0.0330854849255 0)
(-0.00967653013651 -0.0308329836113 0)
(-0.00972658038352 -0.028551369357 0)
(-0.00970766103755 -0.0262557239872 0)
(-0.00961198610873 -0.0239645810505 0)
(-0.00943448820598 -0.021698266152 0)
(-0.00916936997018 -0.0194797734224 0)
(-0.00881456037391 -0.0173370665516 0)
(-0.00837894712028 -0.0152990397145 0)
(-0.00788232792923 -0.0133834990681 0)
(-0.00732888286599 -0.0116063569521 0)
(-0.0067395702087 -0.00998628914078 0)
(-0.00614717529947 -0.00852148549252 0)
(-0.00555501587397 -0.00719950588253 0)
(-0.00495894009533 -0.00602011874822 0)
(-0.0043655049882 -0.00499028095586 0)
(-0.00379127514092 -0.0041119020437 0)
(-0.00325398954136 -0.0033771738993 0)
(-0.00276655287834 -0.00277097472371 0)
(-0.00233601633214 -0.00227483404143 0)
(-0.00196442292513 -0.00186940533088 0)
(-0.00164940441142 -0.00153571851797 0)
(-0.00138375173833 -0.00125660294633 0)
(-0.00115492787835 -0.00102010151995 0)
(-0.000949244971596 -0.000823943582312 0)
(-0.000764224851967 -0.000671648576512 0)
(-0.000609161969634 -0.000559435745072 0)
(-0.000485943130319 -0.000475095923994 0)
(-0.000387297309362 -0.000408956900864 0)
(-0.000306333110871 -0.000357634816422 0)
(-0.000241645342674 -0.000318770863211 0)
(-0.000190516194391 -0.000289592768585 0)
(-0.000150183226273 -0.000261540669557 0)
(-0.000128026636786 -0.000249493720345 0)
(-0.000111531405451 -0.000232602026945 0)
(-9.80448831338e-05 -0.000211384335222 0)
(-8.77941538515e-05 -0.000184130067352 0)
(-8.90856731302e-05 -0.000167748949683 0)
(-9.51161354177e-05 -0.000142618323886 0)
(-0.000116821656209 -0.000126620594789 0)
(-0.000142054969807 -0.000102892545385 0)
(-0.000154018257078 -6.79794558796e-05 0)
(-0.000167836957487 -4.0429666195e-05 0)
(-0.000170473719591 -1.34386215484e-05 0)
(0.0188826523295 -0.00175359438722 0)
(0.019910463884 -0.00560654159278 0)
(0.0197303765564 -0.00941052252652 0)
(0.0194126474165 -0.013189790635 0)
(0.0189965019458 -0.0168856956348 0)
(0.0184915598559 -0.0204814185161 0)
(0.0179077976339 -0.0239595947257 0)
(0.0172559611845 -0.0273056717763 0)
(0.0165471133089 -0.0305078323216 0)
(0.015792201029 -0.0335569506449 0)
(0.0150016877465 -0.0364464249217 0)
(0.0141852711499 -0.0391719356634 0)
(0.0133516828364 -0.0417311563028 0)
(0.0125085733316 -0.0441234419494 0)
(0.0116624637344 -0.0463495185535 0)
(0.0108187597345 -0.0484111884751 0)
(0.00998180379952 -0.0503110637674 0)
(0.00915496161765 -0.0520523326905 0)
(0.00834071992889 -0.0536385617013 0)
(0.00754079670062 -0.0550735314188 0)
(0.00675624486153 -0.0563611038324 0)
(0.0059875562436 -0.057505116274 0)
(0.00523475080613 -0.0585092979671 0)
(0.00449746225735 -0.059377204485 0)
(0.00377500766996 -0.0601121664841 0)
(0.0030664550185 -0.0607172491813 0)
(0.00237067749329 -0.0611952203011 0)
(0.00168641000688 -0.0615485245637 0)
(0.00101229719105 -0.0617792641054 0)
(0.000346948757655 -0.0618891838481 0)
(-0.000311008512892 -0.0618796679304 0)
(-0.000962867737264 -0.061751735702 0)
(-0.0016097774325 -0.0615060551578 0)
(-0.00225266528193 -0.0611429733799 0)
(-0.00289216152538 -0.060662557756 0)
(-0.00352851266015 -0.0600646622584 0)
(-0.00416150216905 -0.0593490174978 0)
(-0.00479037240721 -0.0585153473097 0)
(-0.00541376804046 -0.0575635118556 0)
(-0.00602969975993 -0.0564936743041 0)
(-0.00663555063911 -0.055306483745 0)
(-0.0072281252716 -0.0540032620261 0)
(-0.0078037595646 -0.0525861755207 0)
(-0.00835848329778 -0.0510583680466 0)
(-0.00888823498655 -0.0494240253778 0)
(-0.00938909749758 -0.0476883444352 0)
(-0.00985751750383 -0.0458573832792 0)
(-0.0102904441754 -0.0439377928696 0)
(-0.0106853082293 -0.0419364493141 0)
(-0.0110397735905 -0.0398600733904 0)
(-0.0113511835943 -0.0377149458492 0)
(-0.0116157446996 -0.0355069248296 0)
(-0.0118275393593 -0.0332419813401 0)
(-0.0119777514292 -0.0309274029545 0)
(-0.0120546637567 -0.028573646258 0)
(-0.012045268093 -0.026195992819 0)
(-0.0119380094406 -0.0238153421313 0)
(-0.0117281483121 -0.0214527073651 0)
(-0.0114031926377 -0.0191319167828 0)
(-0.0109526570723 -0.0168902967025 0)
(-0.010390733107 -0.0147718626465 0)
(-0.00976215308742 -0.0127892165883 0)
(-0.00904782537943 -0.0109579568557 0)
(-0.00828080656624 -0.00931880261124 0)
(-0.00753961304171 -0.00785714283935 0)
(-0.0068087532167 -0.00653347551722 0)
(-0.00606276951524 -0.00535085983662 0)
(-0.00530831668923 -0.00433146328845 0)
(-0.00457551548272 -0.00348496665961 0)
(-0.00389441757495 -0.00280088968912 0)
(-0.00328366192223 -0.00225706733216 0)
(-0.00275169890376 -0.00182836846684 0)
(-0.00230040231643 -0.00149000605405 0)
(-0.0019266659525 -0.00121756542844 0)
(-0.001620317649 -0.000987260948766 0)
(-0.00135907859112 -0.000782335873165 0)
(-0.00111314256624 -0.000607284978395 0)
(-0.000879411302741 -0.000482155269937 0)
(-0.000688349558175 -0.000406112655076 0)
(-0.000546702128078 -0.00035456983444 0)
(-0.00043611737074 -0.000311640711453 0)
(-0.000342201454367 -0.000278620405071 0)
(-0.000268288190418 -0.000256144608284 0)
(-0.000210611420967 -0.000239607652492 0)
(-0.000165552315468 -0.000222355391287 0)
(-0.00014215503059 -0.000216838634363 0)
(-0.000123306351599 -0.000201539660065 0)
(-0.000114852421753 -0.000191078277398 0)
(-0.000111689401873 -0.000177052634291 0)
(-0.000115663732167 -0.000160931891553 0)
(-0.000116840606318 -0.000129578771853 0)
(-0.000133795635796 -0.00010685783119 0)
(-0.000166383379119 -9.10951235145e-05 0)
(-0.000184051735297 -6.41544184119e-05 0)
(-0.000193242727981 -3.72625733884e-05 0)
(-0.000196809671445 -1.24399623839e-05 0)
(0.0225922648264 -0.00180967818887 0)
(0.023818164603 -0.00578475682437 0)
(0.0235950780983 -0.00970619990093 6.66724366875e-28)
(0.0232039151696 -0.0135973325525 0)
(0.0226923520063 -0.0173961643459 0)
(0.0220727683488 -0.0210842865129 0)
(0.0213580145047 -0.0246431859421 0)
(0.0205618325348 -0.0280577187428 0)
(0.0196982565091 -0.0313159953048 0)
(0.0187810494651 -0.0344092696942 0)
(0.0178232390851 -0.0373316829391 0)
(0.0168367704881 -0.0400799237332 0)
(0.0158322756142 -0.0426528425972 0)
(0.0148189523775 -0.0450510537881 0)
(0.0138045345361 -0.047276551789 0)
(0.0127953348308 -0.0493323610936 0)
(0.0117963377165 -0.0512222302519 0)
(0.0108113254999 -0.0529503745227 0)
(0.00984301854237 -0.0545212664756 0)
(0.00889322026613 -0.0559394704512 0)
(0.0079629546857 -0.057209514901 0)
(0.00705259445632 -0.0583357958146 0)
(0.00616197300682 -0.0593225045836 0)
(0.00529048386415 -0.0601735742011 0)
(0.00443716422664 -0.060892638658 0)
(0.00360076873887 -0.0614830013319 0)
(0.00277983218502 -0.061947609285 0)
(0.00197272843237 -0.06228903135 0)
(0.00117772496812 -0.0625094390909 0)
(0.000393040797543 -0.0626105896405 0)
(-0.000383092977586 -0.0625938180532 0)
(-0.00115236336584 -0.0624600243922 0)
(-0.00191629662572 -0.0622096804895 0)
(-0.00267616775166 -0.0618428518018 0)
(-0.00343290091851 -0.0613592320172 0)
(-0.00418695994676 -0.0607582065237 0)
(-0.00493823785293 -0.0600389455728 0)
(-0.00568594921154 -0.0592005323583 0)
(-0.00642854049755 -0.0582421285817 0)
(-0.00716362873485 -0.0571631763541 0)
(-0.00788798916162 -0.0559636301065 0)
(-0.00859760606952 -0.0546442044276 0)
(-0.00928780617208 -0.0532066146135 0)
(-0.00995348035325 -0.0516537758783 0)
(-0.0105893928274 -0.0499899182095 0)
(-0.0111905493764 -0.0482205668561 0)
(-0.0117525743015 -0.0463523459614 0)
(-0.0122720027952 -0.0443925718174 0)
(-0.0127463762311 -0.0423486612456 0)
(-0.0131739814215 -0.0402274100942 0)
(-0.0135531183381 -0.0380343453371 0)
(-0.0138807857533 -0.0357734193493 0)
(-0.014150896686 -0.0334474926168 0)
(-0.0143524511844 -0.0310601085277 0)
(-0.0144687255923 -0.0286188860674 0)
(-0.0144797764513 -0.0261390693281 0)
(-0.014367506124 -0.0236474600675 0)
(-0.01413611485 -0.0211634484111 0)
(-0.0137590004257 -0.0187042815547 0)
(-0.0131982129084 -0.0163246059066 0)
(-0.0124770338594 -0.014108534058 0)
(-0.0117197964488 -0.0120405863735 0)
(-0.0108128229664 -0.0101249995193 0)
(-0.00980805279797 -0.00847805585609 0)
(-0.0089272982587 -0.00704935164607 0)
(-0.00807629669786 -0.00572252216456 0)
(-0.00717364808326 -0.0045195014958 0)
(-0.00623089999052 -0.0035028196102 0)
(-0.0053110952868 -0.00269777531943 0)
(-0.00446719901781 -0.00208507775433 0)
(-0.0037238133689 -0.00162801343858 0)
(-0.00308802888497 -0.00129134879597 0)
(-0.00256021621935 -0.00104417457413 0)
(-0.00213816340286 -0.000855468802211 0)
(-0.00181162523188 -0.000688886836892 0)
(-0.00154272525833 -0.000512841017051 0)
(-0.00126034275994 -0.0003442411455 0)
(-0.000955982218922 -0.000246845607874 0)
(-0.000721843474786 -0.000226722153913 0)
(-0.000575721760495 -0.000222861094692 0)
(-0.000465781148621 -0.000204455313532 0)
(-0.000358931172352 -0.000189803373727 0)
(-0.000278905811519 -0.00018711326393 0)
(-0.00021827638112 -0.000184676433272 0)
(-0.00017330462037 -0.000182107621151 0)
(-0.000149577525106 -0.000182952016567 0)
(-0.000133176987908 -0.00017868234689 0)
(-0.000124221602594 -0.00017012059418 0)
(-0.000126356439796 -0.000162228371222 0)
(-0.000131637719681 -0.00014361575485 0)
(-0.000146846059225 -0.00012806215812 0)
(-0.000156264761826 -9.92723909232e-05 0)
(-0.000179949921255 -7.9568682813e-05 0)
(-0.000208123526092 -6.13442319165e-05 0)
(-0.000217061359725 -3.58675337994e-05 0)
(-0.000221525454841 -1.20357708172e-05 0)
(0.026431128233 -0.0018781504279 0)
(0.0278595955347 -0.00600229382348 0)
(0.0275875077873 -0.0100668553139 -6.66621536576e-28)
(0.0271139839713 -0.0140937830356 0)
(0.026495886861 -0.0180168806366 0)
(0.0257489701204 -0.0218157571692 0)
(0.024889602769 -0.0254705304856 0)
(0.0239351478455 -0.0289654295947 0)
(0.0229031687982 -0.0322886151393 0)
(0.0218107056815 -0.0354319677659 0)
(0.02067369754 -0.0383907035694 0)
(0.0195065688079 -0.0411628988022 0)
(0.0183219759929 -0.0437489740985 0)
(0.0171306978677 -0.0461511827451 0)
(0.0159416420145 -0.0483731358605 0)
(0.0147619386712 -0.0504193851038 0)
(0.013597091668 -0.0522950729587 0)
(0.0124511616411 -0.054005651776 0)
(0.0113269597762 -0.0555566668952 0)
(0.0102262379784 -0.0569535952808 0)
(0.00914986439739 -0.0582017296888 0)
(0.00809797996411 -0.0593060980361 0)
(0.00707013267875 -0.0602714086746 0)
(0.00606539134908 -0.0611020134082 0)
(0.00508243962722 -0.0618018817758 0)
(0.00411965489841 -0.0623745814088 0)
(0.00317517458419 -0.0628232608093 0)
(0.00224695564237 -0.0631506319945 0)
(0.00133283052357 -0.0633589519548 0)
(0.000430565820523 -0.0634500017112 0)
(-0.000462073051931 -0.0634250723932 0)
(-0.00134724583356 -0.0632849396176 0)
(-0.00222694682756 -0.0630298598317 0)
(-0.00310289797991 -0.0626595779851 0)
(-0.00397642526798 -0.0621733502914 0)
(-0.00484831945835 -0.061569999565 0)
(-0.00571868793734 -0.0608480071718 0)
(-0.00658680512266 -0.060005650407 0)
(-0.00745097684643 -0.0590411918828 0)
(-0.00830843614054 -0.0579531235325 0)
(-0.00915529613403 -0.0567404617147 0)
(-0.00998658653506 -0.055403079752 0)
(-0.0107964037401 -0.0539420506073 0)
(-0.0115781964215 -0.0523599555928 0)
(-0.0123251960411 -0.0506610953695 0)
(-0.0130309728303 -0.0488515269298 0)
(-0.0136900559393 -0.046938837727 0)
(-0.0142985038819 -0.044931595772 0)
(-0.0148542426664 -0.0428384287749 0)
(-0.0153569393734 -0.040666816094 0)
(-0.0158071257909 -0.0384217504332 0)
(-0.0162042918668 -0.0361047029922 0)
(-0.0165437947852 -0.0337136460994 0)
(-0.0168129108639 -0.0312452307533 0)
(-0.016987426698 -0.0287009698917 0)
(-0.0170347331277 -0.0260947716029 0)
(-0.0169202010234 -0.023471676298 0)
(-0.0166900230874 -0.0208441978613 0)
(-0.0162891680025 -0.0181940096065 0)
(-0.0155912431839 -0.0156083161016 0)
(-0.0146316705296 -0.0132934074812 0)
(-0.0138088363182 -0.0111248354221 0)
(-0.0126570702821 -0.00904592258376 0)
(-0.0112470910427 -0.00743262900063 0)
(-0.0102794109697 -0.00612267351166 0)
(-0.00936443620254 -0.00477514008868 0)
(-0.00829608483647 -0.00349945586731 0)
(-0.00711425090502 -0.00246201462184 0)
(-0.00596500567966 -0.0017136543835 0)