/*--------------------------------*- C++ -*----------------------------------*\
| =========                 |                                                 |
| \\      /  F ield         | OpenFOAM: The Open Source CFD Toolbox           |
|  \\    /   O peration     | Version:  v1906                                 |
|   \\  /    A nd           | Web:      www.OpenFOAM.com                      |
|    \\/     M anipulation  |                                                 |
\*---------------------------------------------------------------------------*/
FoamFile
{
    version     2.0;
    format      ascii;
    class       surfaceScalarField;
    location    "170";
    object      phi;
}
// * * * * * * * * * * * * * * * * * * * * * * * * * * * * * * * * * * * * * //

dimensions      [0 3 -1 0 0 0 0];
oriented        oriented;


internalField   nonuniform List<scalar> 
18240
(
-0.0002152377753
0.00021535352292
-0.000421356229155
0.000206231798944
-0.000630736413538
0.000209487735206
-0.000838119400008
0.000207502700882
-0.00104143608956
0.000203425160771
-0.00123930456511
0.000197996874017
-0.00143071983914
0.000191525530266
-0.00161479621383
0.000184215654242
-0.00179088435417
0.000176200120236
-0.00195836179015
0.000167629113244
-0.0021168508943
0.000158601917953
-0.00226594243775
0.000149256357506
-0.00240549523541
0.000139665138814
-0.00253527031986
0.000129953033348
-0.00265532197534
0.000120161710541
-0.00276553283088
0.000110401308094
-0.00286610765192
0.000100680768073
-0.00295700295362
9.10971348304e-05
-0.00303853159595
8.16284240844e-05
-0.00311068239917
7.23625418981e-05
-0.00317384075258
6.32502127045e-05
-0.00322799566557
5.43748118649e-05
-0.00327357782122
4.56642278015e-05
-0.00331055357845
3.72018852714e-05
-0.00333937969484
2.88969971416e-05
-0.00335998608106
2.0836628438e-05
-0.00337284320031
1.29153188423e-05
-0.00337783793789
5.2268415315e-06
-0.00337544790163
-2.34546619483e-06
-0.00336551694161
-9.69943041084e-06
-0.00334852764859
-1.6959383799e-05
-0.00332428704908
-2.40122046602e-05
-0.00329328605647
-3.09861621305e-05
-0.00325530722568
-3.77562807592e-05
-0.00321085702369
-4.44509087674e-05
-0.00315971104529
-5.09320189834e-05
-0.00310240292215
-5.73241302643e-05
-0.00303872461717
-6.34756926367e-05
-0.00296925205569
-6.9503594699e-05
-0.0028938203051
-7.52430676528e-05
-0.00281306478894
-8.08005557528e-05
-0.00272689240762
-8.59999551191e-05
-0.00263601471156
-9.0935637995e-05
-0.0025404367448
-9.54236596731e-05
-0.00244095890583
-9.95468998231e-05
-0.00233770440718
-0.000103119602846
-0.00223156630495
-0.000106216458136
-0.00212279268713
-0.000108658662133
-0.00201235819704
-0.000110519819253
-0.00190062263809
-0.000111640228576
-0.00178860973063
-0.000112102949757
-0.0016767516492
-0.000111781111043
-0.00156606520587
-0.000110778600596
-0.00145699224015
-0.000109012181722
-0.0013504715059
-0.000106612601163
-0.00124688233122
-0.000103541704472
-0.00114701855591
-9.99530098387e-05
-0.00105113788836
-9.58433301591e-05
-0.000959847194143
-9.13755620645e-05
-0.000873252375019
-8.656454354e-05
-0.000791764185402
-8.15674142304e-05
-0.000715336654353
-7.64017837449e-05
-0.000644201345568
-7.12084312545e-05
-0.000578180396608
-6.59979945134e-05
-0.000517357537702
-6.08899476227e-05
-0.000461453189094
-5.58832625345e-05
-0.000410439971499
-5.10748988736e-05
-0.000363969859154
-4.64505585864e-05
-0.000321941214154
-4.20856284623e-05
-0.000283970209346
-3.79529784795e-05
-0.00024991445709
-3.4108816136e-05
-0.000219382623027
-3.05154427548e-05
-0.000192218509091
-2.72138034251e-05
-0.000168044625013
-2.41592603004e-05
-0.000146709651701
-2.1381784541e-05
-0.000127863503531
-1.88334263742e-05
-0.000111370879404
-1.65368711979e-05
-9.69165373387e-05
-1.44435143507e-05
-8.43881665281e-05
-1.25703608203e-05
-7.35132057897e-05
-1.08660853202e-05
-6.42218468926e-05
-9.33116238136e-06
-5.6344871191e-05
-7.8690537141e-06
-5.00878597072e-05
-6.29509006348e-06
-4.47198502477e-05
-5.36333774005e-06
-3.95754871495e-05
-5.18091237747e-06
-3.48666316823e-05
-4.70767283131e-06
-3.09282941109e-05
-3.97211987466e-06
-2.76504709485e-05
-3.28231575718e-06
-2.45643064187e-05
-3.12038407732e-06
-2.12971971772e-05
-3.28017550813e-06
-1.8089448396e-05
-3.24672092198e-06
-1.49658557618e-05
-3.15014924238e-06
-1.1609756729e-05
-3.39155718924e-06
-7.81588265627e-06
-3.84006881968e-06
-3.71108301345e-06
-4.17046279318e-06
-3.74157527042e-06
-0.000208514178831
0.000423976374077
-0.000442825017727
0.000440659445137
-0.000670175012616
0.000436952525249
-0.000892547172658
0.000429995111141
-0.00110961277392
0.000420609680126
-0.00132050009227
0.00040901068916
-0.00152430937552
0.000395459136828
-0.00172019078274
0.000380231523224
-0.00190744756077
0.000363587150421
-0.00208546982299
0.000345794568582
-0.00225382272439
0.000327090886099
-0.00241213434151
0.000307719872948
-0.00256020707562
0.000287878908912
-0.00269786667807
0.000267772538489
-0.00282510711101
0.000247546898808
-0.0029419004106
0.000227361315063
-0.00304838130027
0.000207308457075
-0.0031446170802
0.000187504879702
-0.00323083623969
0.000167994689141
-0.00330715744521
0.000148859231418
-0.00337386437391
0.000130102644091
-0.00343109305039
0.000111780635842
-0.00347915345731
9.3866759804e-05
-0.00351817498294
7.64003305424e-05
-0.003548474173
5.93330920801e-05
-0.00357015872793
4.26959463156e-05
-0.00358353966675
2.64262967088e-05
-0.00358869532314
1.05531775307e-05
-0.00358592543265
-4.99387482427e-06
-0.00357527808087
-2.0182145505e-05
-0.00355704202473
-3.50839961092e-05
-0.00353123960063
-4.965797507e-05
-0.00349815334099
-6.39724986238e-05
-0.00345779033202
-7.79725484457e-05
-0.00341043738609
-9.17166751382e-05
-0.00335610261686
-0.00010513178869
-0.0032950926936
-0.000118260734087
-0.00322743834151
-0.000131008475837
-0.00315348593677
-0.000143397285591
-0.00307331438639
-0.000155307897428
-0.00298733234714
-0.000166738963553
-0.00289569422434
-0.000177547295113
-0.00279889340245
-0.000187707920501
-0.00269718515966
-0.000197057704196
-0.00259116605435
-0.000205552195923
-0.00248121111677
-0.000213017071846
-0.00236802934041
-0.000219398285459
-0.00225212127429
-0.000224525537698
-0.0021343012654
-0.00022835244361
-0.00201518001897
-0.000230735478105
-0.00189564567461
-0.000231660650127
-0.00177637512758
-0.000231039043686
-0.00165827025184
-0.000228915272243
-0.0015420029469
-0.000225277781696
-0.0014284088473
-0.000220244244015
-0.00131807287217
-0.000213883993603
-0.00121168775592
-0.000206378690424
-0.00110968544882
-0.000197857015719
-0.00101256781957
-0.000188534274958
-0.000920583390386
-0.000178562746966
-0.000834033507735
-0.000168156962344
-0.000752987567903
-0.000157461861029
-0.000677565381919
-0.000146667658337
-0.000607682946369
-0.000135893746125
-0.000543312291452
-0.000125294626222
-0.000484251300355
-0.00011495636015
-0.0004303629598
-0.00010499441455
-0.00038136471101
-9.54598323533e-05
-0.000337049261148
-8.64298835941e-05
-0.000297090078998
-7.792244776e-05
-0.000261245066427
-6.99807623497e-05
-0.000229175226114
-6.25951798371e-05
-0.000200631988387
-5.57825314957e-05
-0.000175287146706
-4.95138921394e-05
-0.000152904868385
-4.37884399163e-05
-0.000133182108702
-3.85661257478e-05
-0.000115906412906
-3.3836098637e-05
-0.000100806284777
-2.95538966473e-05
-8.76950885953e-05
-2.57045600815e-05
-7.63285017127e-05
-2.22437334368e-05
-6.65268644974e-05
-1.91554171899e-05
-5.80085750774e-05
-1.63987870225e-05
-5.03556504006e-05
-1.39696620766e-05
-4.37988550883e-05
-1.19332248003e-05
-3.83755270662e-05
-1.06252367458e-05
-3.35918773303e-05
-9.50566292425e-06
-2.96097782692e-05
-7.97575920126e-06
-2.63760504951e-05
-6.53248904089e-06
-2.35160820435e-05
-6.00291100437e-06
-2.07029596211e-05
-6.11689918255e-06
-1.76797669296e-05
-6.29967806096e-06
-1.46282684967e-05
-6.23118863264e-06
-1.15159951614e-05
-6.5431912356e-06
-8.03516398534e-06
-7.36748174331e-06
-3.89659774333e-06
-8.3647388352e-06
-7.67015433041e-06
-0.000216580335001
0.00064066649584
-0.000449021465517
0.000673214577418
-0.000678422074152
0.000666470488049
-0.000903444447821
0.000655136937907
-0.00112305505434
0.000640342035885
-0.00133624551281
0.000622326900797
-0.00154207736163
0.000601419024804
-0.00173970877169
0.000577996160534
-0.00192843553103
0.000552449150942
-0.00210767357864
0.000525173778514
-0.00227698546519
0.00049654518816
-0.00243603919935
0.000466922396878
-0.00258463568413
0.000436624279029
-0.00272265161179
0.00040594393953
-0.00285007522289
0.000375124563204
-0.00296693647081
0.000344383327384
-0.00307335567598
0.000313885314049
-0.00316946238316
0.000283775973162
-0.00325545933659
0.000254151066161
-0.00333153051868
0.000225096625937
-0.00339792159577
0.000196653120179
-0.00345483689557
0.000168862121702
-0.0035025363547
0.000141723700819
-0.00354122101535
0.000115249312747
-0.00357114606172
8.9411954052e-05
-0.00359249464992
6.42051521287e-05
-0.00360550603535
3.95860065876e-05
-0.00361033794918
1.55402037701e-05
-0.00360720895207
-7.98170550799e-06
-0.0035962499515
-3.09933559863e-05
-0.00357765947888
-5.35422162546e-05
-0.00355154562248
-7.56331249472e-05
-0.00351809295337
-9.73033899278e-05
-0.00347739641254
-0.00011854120413
-0.00342963812072
-0.000139365260368
-0.00337491521955
-0.000159739222159
-0.00331342452312
-0.000179655087273
-0.00324528640192
-0.000199044984603
-0.00317073444224
-0.000217867438548
-0.00308993752675
-0.000236018174783
-0.00300319147632
-0.00025341846683
-0.0029107412701
-0.00026992664504
-0.0028129708689
-0.000285427511833
-0.00271022746778
-0.000299746399504
-0.00260300580642
-0.000312738723935
-0.00249177578609
-0.0003242084754
-0.00237715698327
-0.000333997205219
-0.00225975025559
-0.000341909120048
-0.00214029790114
-0.000347799119424
-0.00201951849146
-0.000351506002546
-0.00189824800775
-0.000352938068194
-0.00177727721322
-0.000352013251996
-0.00165747200028
-0.000348737653876
-0.00153961588892
-0.00034314699406
-0.00142451392535
-0.000335370826721
-0.00131284799469
-0.000325569744319
-0.00120527352851
-0.000313982245796
-0.00110229606527
-0.000300858041582
-0.00100436832687
-0.000286492822728
-0.000911789893155
-0.000271165811211
-0.000824804458179
-0.000255172626203
-0.000743516698503
-0.000238773385522
-0.000667985777608
-0.000222226823486
-0.000598153668809
-0.000205747769066
-0.0005339326839
-0.000189541355196
-0.000475141688308
-0.000173767266578
-0.000421586925451
-0.000158572634547
-0.000373004269596
-0.000144060711122
-0.000329133945786
-0.000130321846848
-0.000289667479054
-0.000117405910164
-0.000254316124135
-0.000105352446394
-0.00022276045386
-9.41670112001e-05
-0.000194711887701
-8.38504770669e-05
-0.000169863766837
-7.437764695e-05
-0.00014794641892
-6.57245201427e-05
-0.000128679819616
-5.78480939373e-05
-0.00011182294228
-5.07113345915e-05
-9.71280229321e-05
-4.42642154892e-05
-8.438383422e-05
-3.84670406583e-05
-7.33698211772e-05
-3.32738743041e-05
-6.38875701674e-05
-2.86561839239e-05
-5.56972116752e-05
-2.46053815156e-05
-4.8519063079e-05
-2.11665726477e-05
-4.21564589014e-05
-1.83123970312e-05
-3.68499993619e-05
-1.59511542392e-05
-3.23492048279e-05
-1.40245251138e-05
-2.81001894301e-05
-1.22462507814e-05
-2.42342325819e-05
-1.04186466448e-05
-2.121684488e-05
-9.04309765833e-06
-1.89178303962e-05
-8.44178928058e-06
-1.61231038793e-05
-9.12653548668e-06
-1.28646710062e-05
-9.5222994872e-06
-9.70985581587e-06
-9.73043172076e-06
-6.43004864677e-06
-1.06936313394e-05
-3.28190137445e-06
-1.15681916206e-05
-1.0977868655e-05
-0.000221887380714
0.000862664188967
-0.00045707695356
0.000908522018706
-0.000689823225231
0.000899334256463
-0.000918248524496
0.000883683049803
-0.0011410670363
0.000863283613015
-0.0013571507201
0.000838537416227
-0.00156550449368
0.000809902943843
-0.00176526968085
0.000777895759578
-0.00195573740015
0.000743054791838
-0.00213634181374
0.000705920589495
-0.00230666298115
0.000667011954697
-0.00246640635817
0.000626815691532
-0.00261540065378
0.000585770984459
-0.00275356927941
0.000544268887234
-0.00288092928843
0.000502642455744
-0.00299755909089
0.000461174327961
-0.00310360225783
0.000420090144477
-0.00319923376327
0.000379571802818
-0.00328467063147
0.000339751606138
-0.003360137434
0.00030072905641
-0.00342588419946
0.000262563704369
-0.0034821509511
0.000225293977102
-0.00352919260293
0.000188927545394
-0.00356724199107
0.000153461491817
-0.00359654102504
0.000118869752493
-0.00361730165514
8.51244958564e-05
-0.00362974271814
5.21807036413e-05
-0.00363404855351
1.99989397076e-05
-0.00363041088638
-1.14726305301e-05
-0.00361898507958
-4.22738209849e-05
-0.00359993687847
-7.2452247752e-05
-0.00357339662385
-0.000102037312971
-0.00353951036601
-0.000131061764151
-0.00349839267999
-0.000159533783016
-0.0034501818618
-0.00018746005352
-0.00339499202636
-0.000214816472085
-0.00333297180494
-0.000241572615402
-0.00326425625127
-0.000267661848674
-0.00318902817379
-0.000293007321936
-0.0031074702273
-0.000317492420324
-0.00301982737003
-0.000340988549752
-0.00292635929671
-0.000363326800972
-0.00282740247712
-0.000384327514322
-0.00272332283484
-0.000403774334382
-0.0026145753436
-0.000421445549437
-0.00250165670878
-0.000437091630008
-0.00238516023378
-0.000450468876308
-0.00226572742357
-0.000461322193443
-0.00214409461336
-0.000469422171791
-0.00202104045642
-0.000474555010412
-0.00189741932955
-0.000476562853038
-0.00177410101557
-0.000475338910764
-0.00165198826848
-0.000470864987233
-0.00153194992314
-0.000463202404044
-0.00141482819107
-0.000452515060237
-0.00130137554098
-0.000439046095548
-0.00119226439291
-0.000423120680319
-0.00108804069275
-0.00040510892482
-0.000989146460592
-0.000385416087293
-0.000895893368733
-0.000364446659318
-0.000808494719335
-0.000342599580648
-0.000727049963077
-0.000320244396248
-0.000651578658158
-0.000297724239704
-0.000582009528684
-0.000275340726368
-0.000518213107156
-0.000253361342237
-0.000459992437319
-0.000232009404105
-0.000407113177525
-0.000211473269179
-0.000359295394577
-0.000191898121679
-0.000316241920653
-0.000173395098865
-0.0002776312894
-0.000156034894099
-0.000243143536541
-0.000139858866031
-0.000212451898252
-0.000124876131999
-0.000185244212977
-0.000111076068449
-0.000161212462488
-9.84262969587e-05
-0.000140070310511
-8.68840784438e-05
-0.000121541364825
-7.63936301853e-05
-0.000105373872022
-6.68960184105e-05
-9.13284055721e-05
-5.83262650976e-05
-7.91901042422e-05
-5.06227449883e-05
-6.8755660666e-05
-4.3725348326e-05
-5.98437719474e-05
-3.75859328089e-05
-5.2280422073e-05
-3.21860856683e-05
-4.58934465127e-05
-2.75709645081e-05
-3.99576774084e-05
-2.42671903436e-05
-3.46783935355e-05
-2.12492595378e-05
-2.99250619844e-05
-1.87993112657e-05
-2.56718724279e-05
-1.65227482242e-05
-2.20572850153e-05
-1.40571063516e-05
-1.86553934651e-05
-1.24711836875e-05
-1.53682842369e-05
-1.17577465881e-05
-1.3219230924e-05
-1.13052203087e-05
-1.03765193241e-05
-1.23975418094e-05
-7.18271115451e-06
-1.29637188732e-05
-4.6994610279e-06
-1.3215124974e-05
-2.46112915236e-06
-1.38520120005e-05
-1.34682873244e-05
-0.000227593164737
0.00109036944356
-0.000467820669925
0.001148864888
-0.000705477026048
0.00113711068762
-0.000938583166304
0.00111691075616
-0.00116572851073
0.00109055412253
-0.00138568940527
0.00105862684929
-0.00159741115103
0.00102175717616
-0.00180001007778
0.00098063126389
-0.00199277496589
0.000935960369214
-0.00217516036125
0.00088845079301
-0.00234677799762
0.00083877825416
-0.00250737960807
0.000787569670285
-0.00265684203146
0.000735389041697
-0.00279514533511
0.00068273082994
-0.00292235748604
0.000630015682862
-0.00303861255617
0.000577592651881
-0.00314409879078
0.00052574114847
-0.00323903938981
0.000474678469131
-0.00332368555417
0.000424564382451
-0.00339830027657
0.000375510837226
-0.0034631564391
0.000327586531578
-0.00351852309223
0.000280826905269
-0.00356466781242
0.000235237214937
-0.00360184449555
0.000190801943969
-0.00363029918856
0.000147486003727
-0.00365025863061
0.000105243516263
-0.00366193875883
6.40173067473e-05
-0.00366553346964
2.37473594035e-05
-0.00366122538516
-1.56309818388e-05
-0.00364917473115
-5.41783384289e-05
-0.00362953220382
-9.19535037473e-05
-0.00360242813974
-0.000129004517942
-0.00356798748755
-0.000165371269633
-0.00352631972349
-0.000201075644094
-0.00347753609845
-0.000236124303386
-0.00342174066874
-0.000270498523143
-0.00335904981349
-0.000304157307148
-0.00328958462561
-0.000337027556965
-0.00321349217004
-0.000369008090772
-0.00313093922798
-0.000399960910567
-0.00304213463292
-0.000429716914432
-0.00294732367263
-0.000458069213022
-0.00284681025604
-0.000484780910662
-0.00274095143085
-0.00050958108037
-0.0026301784065
-0.000532175142174
-0.00251499045652
-0.000552244186566
-0.0023959735213
-0.000569458987712
-0.00227379187134
-0.000583484859178
-0.00214920107121
-0.000594002110717
-0.00202303269773
-0.000600719666081
-0.00189619481583
-0.000603404132637
-0.00176964215988
-0.000601900802589
-0.00164435825917
-0.000596163769855
-0.00152131047108
-0.00058626929218
-0.00140142099254
-0.00057242772997
-0.00128552093496
-0.00055497186308
-0.00117432902764
-0.000534340737752
-0.00106842484819
-0.000511042008079
-0.000968252185046
-0.000485618482102
-0.000874116628309
-0.000458611102368
-0.000786204319582
-0.000430540357604
-0.000704587583944
-0.000401887806164
-0.000629246083211
-0.000373091428285
-0.000560073499148
-0.000344537085611
-0.00049689739172
-0.000316560234283
-0.000439484881345
-0.00028944316121
-0.000387559528863
-0.000263419184912
-0.000340806679318
-0.000238670464579
-0.000298889925021
-0.000215330939799
-0.000261457849803
-0.000193485293593
-0.000228159156151
-0.000173175682544
-0.000198646507841
-0.000154406326801
-0.000172586692208
-0.000137153342381
-0.000149660435188
-0.000121369580085
-0.00012956901354
-0.000106992539295
-0.00011203213962
-9.39472743455e-05
-9.67927203482e-05
-8.21523402941e-05
-8.36141191528e-05
-7.15217193215e-05
-7.2283612315e-05
-6.19702990391e-05
-6.26091081e-05
-5.34169882579e-05
-5.44189789482e-05
-4.57937249922e-05
-4.75045246737e-05
-3.91174294771e-05
-4.15191776419e-05
-3.35748790206e-05
-3.64412575854e-05
-2.93636593193e-05
-3.17311487385e-05
-2.59805718687e-05
-2.73480579349e-05
-2.32055147715e-05
-2.33179475021e-05
-2.05782439612e-05
-1.90140036276e-05
-1.83886587845e-05
-1.52487967792e-05
-1.62651063944e-05
-1.19536522948e-05
-1.50831616563e-05
-9.59302189932e-06
-1.36980342363e-05
-7.86259431495e-06
-1.41606602214e-05
-5.35310844678e-06
-1.55033346069e-05
-3.1729000353e-06
-1.54366189944e-05
-1.62825544812e-06
-1.54447641776e-05
-1.51178030603e-05
-0.000234458107875
0.0013249405727
-0.000481498572301
0.00139602660513
-0.000725655253131
0.00138138780496
-0.000964840375369
0.0013562201383
-0.0011975368286
0.00132337757383
-0.00142242855357
0.0012836496914
-0.00163840148739
0.0012378652572
-0.00184454612161
0.00118691546964
-0.0020401552518
0.00113171330903
-0.002224712794
0.00107315646777
-0.00239787827504
0.00101209573417
-0.00255946517486
0.000949312376193
-0.00270941911147
0.000885501915784
-0.00284779307773
0.00082126676756
-0.00297472628981
0.000757113097555
-0.00309042182883
0.000693454525838
-0.00319513012336
0.000630617051164
-0.00328913145927
0.000568848637305
-0.00337272520363
0.000508327311691
-0.00344621726173
0.000449172420477
-0.0035099143624
0.000391452626494
-0.00356411533029
0.000335196382891
-0.00360910918102
0.000280398218709
-0.00364516889036
0.000227027521758
-0.00367255204669
0.000175032853539
-0.00369149606011
0.000124349166266
-0.00370222051837
7.49004211488e-05
-0.00370492312844
2.66057750197e-05
-0.00369978329349
-2.06188447534e-05
-0.0036869586724
-6.68546418019e-05
-0.00366659005257
-0.000112178500573
-0.00363879857348
-0.000156656848801
-0.00360369223208
-0.000200344038184
-0.0035613642441
-0.000243275322386
-0.00351190159028
-0.00028546505265
-0.00345538503283
-0.00032689916965
-0.00339189998963
-0.000367533608175
-0.00332153842705
-0.000407287003353
-0.00324441200832
-0.000446040223135
-0.00316065545909
-0.000483630373028
-0.00307044122743
-0.000519852468491
-0.00297398368721
-0.000554455765425
-0.00287155413897
-0.000587148321521
-0.00276348512405
-0.000617596034924
-0.00265018512343
-0.000645430242681
-0.00253214258516
-0.000670250145761
-0.00240993972942
-0.000691634489144
-0.0022842556097
-0.000709149926867
-0.00215587603235
-0.000722371373825
-0.00202568973612
-0.000730903216975
-0.00189468398666
-0.000734414593133
-0.0017639202647
-0.000732675318651
-0.00163450307734
-0.000725597488232
-0.00150753069429
-0.000713262701349
-0.00138404601966
-0.000695937377304
-0.00126498366592
-0.000674062031442
-0.00115113057871
-0.000648223529452
-0.00104310175075
-0.000619101663474
-0.000941341202986
-0.000587409706369
-0.000846135396793
-0.000553846983098
-0.000757633110688
-0.000519071173535
-0.000675863441643
-0.00048368440839
-0.000600754732797
-0.000448225161074
-0.000532150224944
-0.000413164950303
-0.000469824597067
-0.000378907674076
-0.000413495684011
-0.000345792756784
-0.000362836199949
-0.000314098395722
-0.000317483353556
-0.000284042337036
-0.000277052305276
-0.000255780429488
-0.000241149319416
-0.00022940629418
-0.000209385473282
-0.000204957144569
-0.000181384977569
-0.000182424153251
-0.000156791353839
-0.00016176402581
-0.000135269595365
-0.000142908204201
-0.000116508586427
-0.000125770277324
-0.00010022130761
-0.000110251227564
-8.6146310961e-05
-9.62440193207e-05
-7.40479261116e-05
-8.36368933185e-05
-6.37181088744e-05
-7.23168366622e-05
-5.49796162743e-05
-6.21725565291e-05
-4.7691818033e-05
-5.30985892566e-05
-4.1756829785e-05
-4.50702264003e-05
-3.60142578576e-05
-3.93356398292e-05
-3.09925856588e-05
-3.44052419155e-05
-2.6558165036e-05
-3.04366141713e-05
-2.24423409371e-05
-2.7344578593e-05
-1.89264344546e-05
-2.4120893515e-05
-1.58304645147e-05
-2.15134950695e-05
-1.23729952146e-05
-1.97553143365e-05
-9.2546627037e-06
-1.82352163711e-05
-6.30520857437e-06
-1.66771376101e-05
-4.72222319781e-06
-1.57744393935e-05
-3.65338332519e-06
-1.6611526006e-05
-2.08076809342e-06
-1.70446256949e-05
-1.04432841203e-06
-1.65189404794e-05
-1.61875809284e-05
-0.000242846321316
0.00156790266951
-0.000498466609598
0.00165176534188
-0.000750783142665
0.00163382857837
-0.000997547925642
0.00160311077857
-0.0012371075067
0.00156306734851
-0.00146804336625
0.00151471958368
-0.00168917715922
0.0014591376887
-0.0018995768478
0.00139745826152
-0.0020985492824
0.00133083346324
-0.00228562381752
0.00126038294989
-0.0024605280435
0.00118715606268
-0.00262315976627
0.00111210371155
-0.00277355658301
0.00103606171279
-0.00291186680322
0.000959742534643
-0.00303832153985
0.000883735803187
-0.00315321100751
0.000808513544814
-0.00325686350333
0.000734440564242
-0.00334962910634
0.000661785906992
-0.00343186601462
0.00059073644404
-0.00350393082817
0.000521409263791
-0.0035661707884
0.000453864344577
-0.00361891867419
0.000388115056168
-0.00366248893448
0.000324138214032
-0.00369717536295
0.000261881982079
-0.00372324950177
0.000201273225265
-0.00374095966841
0.000142223124363
-0.00375053049965
8.46324864141e-05
-0.00375216264218
2.83959409024e-05
-0.00374603288076
-2.65939300613e-05
-0.00373229439759
-8.04424873016e-05
-0.00371107770287
-0.000133248724902
-0.00368249155904
-0.000185101405644
-0.00364662511364
-0.000236073875553
-0.00360355036125
-0.000286219190921
-0.00355332618941
-0.000335564097455
-0.00349600308893
-0.000384103653846
-0.00343162960852
-0.000431794932303
-0.00336025980001
-0.000478551924417
-0.00328196212187
-0.000524240149363
-0.00319682917955
-0.000568673570121
-0.00310498822214
-0.000611611462701
-0.00300661231504
-0.000652758407823
-0.0029019313095
-0.000691764436461
-0.00279124326032
-0.000728228496794
-0.00267492526749
-0.00076170151277
-0.00255344567859
-0.000791692817892
-0.00242737590104
-0.000817676478503
-0.00229740428146
-0.000839103480288
-0.0021643477179
-0.000855418541859
-0.0020291603492
-0.000866089812121
-0.001892930163
-0.000870651173432
-0.0017568589852
-0.000868759734448
-0.00162221815285
-0.000860256919832
-0.0014902868303
-0.000845217724831
-0.00136227857092
-0.000823973022666
-0.00123927032977
-0.000797100411266
-0.00112214059287
-0.000765385336715
-0.00101153944069
-0.00072973524886
-0.000907900526307
-0.00069108090461
-0.000811471200598
-0.000650306894468
-0.000722346298685
-0.000608225036113
-0.000640492146827
-0.000565564916652
-0.000565770571069
-0.000522971196815
-0.000497957444468
-0.000481000268948
-0.0004367628727
-0.000440123198606
-0.000381842874647
-0.000400732405528
-0.000332809685956
-0.000363150583565
-0.000289239122055
-0.000327631163462
-0.000250685281404
-0.000294352167214
-0.000216698710216
-0.000263410257
-0.00018684457589
-0.000234828457919
-0.000160712212688
-0.000208573332806
-0.000137919513386
-0.00018457340128
-0.000118113275178
-0.000162730882262
-0.000100969612077
-0.000142930344208
-8.61932696203e-05
-0.000125043906619
-7.35180858971e-05
-0.000108935642926
-6.27070064016e-05
-9.44644737462e-05
-5.35532612681e-05
-8.14871788963e-05
-4.58820806196e-05
-6.98602534867e-05
-3.95489705925e-05
-5.94490674113e-05
-3.44118179882e-05
-5.02250971302e-05
-2.95517592654e-05
-4.42147230291e-05
-2.50707741905e-05
-3.89069870256e-05
-2.09884836566e-05
-3.45406172465e-05
-1.76284055543e-05
-3.07295157644e-05
-1.42148423978e-05
-2.75614827867e-05
-1.11521042392e-05
-2.46068923339e-05
-8.30517050981e-06
-2.26353517423e-05
-6.1447725781e-06
-2.04295852717e-05
-3.90761201331e-06
-1.89501129608e-05
-2.11042312243e-06
-1.76048489088e-05
-1.73720589733e-06
-1.7011993072e-05
-1.00651866171e-06
-1.78148804139e-05
-4.97926439569e-07
-1.70706192267e-05
-1.67035597199e-05
-0.000253039595034
0.00182105964068
-0.000519153379168
0.00191800564811
-0.000781440398644
0.00189624087646
-0.00103741511266
0.00185921540536
-0.00128525247349
0.00181103785054
-0.00152340888837
0.00175301397638
-0.00175063694976
0.00168650831375
-0.00196598781748
0.00161295664696
-0.00216879910142
0.00153379682691
-0.00235866848473
0.00145040896933
-0.00253541998349
0.0013640680777
-0.00269906469225
0.0012759126726
-0.00284976211929
0.00118692628524
-0.00298778225174
0.00109793253861
-0.00311347304162
0.00100959831085
-0.00322723148613
0.000922445414056
-0.00332948145298
0.00083686482523
-0.00342065518484
0.000753134715739
-0.00350118082331
0.000671437175679
-0.00357147229259
0.000591875794791
-0.00363192371049
0.000514490088893
-0.00368290461687
0.000439269535239
-0.00372475838853
0.000366164137687
-0.00375780030278
0.000295094612717
-0.00378231782409
0.00022595936227
-0.00379856969253
0.000158641493823
-0.00380678686188
9.30133471062e-05
-0.00380717177087
2.89417022831e-05
-0.00379989934175
-3.3709106377e-05
-0.00378511644189
-9.50717440029e-05
-0.00376294322876
-0.000155272724165
-0.0037334729139
-0.000214426902376
-0.0036967743196
-0.000272632929459
-0.00365289306198
-0.000329966069255
-0.003601856389
-0.000386472495789
-0.00354367671509
-0.000442160949433
-0.00347835982709
-0.00049699637815
-0.00340591144537
-0.000550891516897
-0.00332634877368
-0.000603701845235
-0.00323970988457
-0.000655218978094
-0.0031460678247
-0.000705168758239
-0.00304554134571
-0.000753208482114
-0.00293830959915
-0.00079892935829
-0.00282462281145
-0.000841857645908
-0.00270481702916
-0.000881460075886
-0.00257932604304
-0.000917146384044
-0.00244869955621
-0.000948276215019
-0.00231362154803
-0.000974164558905
-0.00217493473592
-0.000994098197793
-0.00203366111376
-0.00100736469717
-0.00189101241843
-0.00101330906654
-0.00174837217227
-0.00101141555044
-0.00160724109954
-0.00100140980321
-0.00146914848672
-0.000983336828646
-0.0013355496859
-0.000957602173823
-0.00120772185143
-0.000924961318786
-0.00108666264833
-0.000886478543006
-0.000973049676006
-0.000843382859396
-0.000867277059029
-0.000796886506194
-0.00076952419277
-0.000748091157334
-0.000679805118472
-0.000697972484247
-0.000598001941295
-0.000647393893813
-0.000523888466076
-0.000597107644919
-0.000457155619446
-0.000547754254978
-0.000397434340127
-0.000499864006659
-0.000344309725105
-0.000453875794565
-0.00029732386225
-0.000410154455825
-0.000255978182958
-0.000368994434958
-0.000219747734953
-0.00033059971094
-0.000188110945977
-0.000295063904302
-0.000160576368562
-0.000262379510542
-0.000136694282425
-0.00023247177988
-0.000116055595413
-0.000205228151384
-9.82889723863e-05
-0.000180513513099
-8.30578292523e-05
-0.000158177389542
-7.00586648495e-05
-0.000138059043014
-5.9020113703e-05
-0.00011999025683
-4.97028356315e-05
-0.000103798014951
-4.18993524179e-05
-8.93068265552e-05
-3.54342744767e-05
-7.63418171285e-05
-3.01445093636e-05
-6.47561353024e-05
-2.55655250679e-05
-5.48221980317e-05
-2.14350953233e-05
-4.83648963828e-05
-1.77628719156e-05
-4.25999920448e-05
-1.45542203294e-05
-3.77724310086e-05
-1.18635919442e-05
-3.34456063256e-05
-9.27700181699e-06
-3.01764668327e-05
-6.59048675319e-06
-2.73250439387e-05
-4.49117743065e-06
-2.476922939e-05
-2.43206733893e-06
-2.2524427152e-05
-1.34425042199e-06
-2.00717823266e-05
-2.79444641118e-07
-1.87031071695e-05
1.68084820868e-07
-1.74984427133e-05
7.33227210349e-09
-1.76862097959e-05
3.81602914727e-08
-1.71347438553e-05
-1.66886061154e-05
-0.000265325722078
0.00208650686425
-0.000544101369416
0.00219690507403
-0.000818377138736
0.00217064740012
-0.00108536578585
0.00212633674014
-0.00134301766762
0.00206882758585
-0.00158964137224
0.00199977999272
-0.00182391450748
0.00192092900996
-0.00204488414431
0.00183407872037
-0.00225194306579
0.00174101313598
-0.00244479127223
0.0016434188267
-0.00262338656062
0.00154282915835
-0.00278789270594
0.00144058781361
-0.00293862726237
0.00133783290626
-0.00307601562938
0.00123549502158
-0.00320055001692
0.00113430878773
-0.00331275782979
0.00103483032451
-0.00341317565508
0.000937460745406
-0.00350233195487
0.000842469250306
-0.0035807336654
0.000750017295933
-0.00364885916327
0.000660179131635
-0.00370715295298
0.000572961199738
-0.00375602437973
0.00048831709736
-0.0037958464787
0.000406161228385
-0.00382695711768
0.000326378470903
-0.00384965925969
0.000248832965217
-0.00386422256065
0.000173373860537
-0.00387088357855
9.98410189677e-05
-0.00386984693811