/*--------------------------------*- C++ -*----------------------------------*\
| =========                 |                                                 |
| \\      /  F ield         | OpenFOAM: The Open Source CFD Toolbox           |
|  \\    /   O peration     | Version:  v1906                                 |
|   \\  /    A nd           | Web:      www.OpenFOAM.com                      |
|    \\/     M anipulation  |                                                 |
\*---------------------------------------------------------------------------*/
FoamFile
{
    version     2.0;
    format      ascii;
    class       volScalarField;
    location    "278";
    object      p;
}
// * * * * * * * * * * * * * * * * * * * * * * * * * * * * * * * * * * * * * //

dimensions      [0 2 -2 0 0 0 0];


internalField   nonuniform List<scalar> 
9216
(
273.571703626
273.651677
273.817163154
274.069572674
274.407491037
274.829332779
275.333139765
275.916604654
276.577128734
277.311840605
278.117657553
278.99129849
279.929348491
280.928263247
281.984434433
283.094183308
284.253825818
285.45965427
286.708002275
287.995214531
289.317712553
290.671953211
292.0544965
293.46195375
294.891058719
296.338606328
297.801528086
299.276822079
300.761633474
302.253176275
303.748819349
305.246000099
306.74231586
308.235430762
309.723173089
311.203433837
312.674269608
314.133794682
315.580289082
317.012084122
318.427675494
319.825602785
321.204567214
322.563305782
323.900713291
325.215711801
326.507376422
327.77480092
329.017226762
330.233905704
331.424231406
332.587599985
333.723543491
334.831589372
335.911394928
336.962606742
337.984995232
338.978315016
339.942438516
340.877218328
341.782618832
342.658581529
343.505153517
344.322356801
345.110312565
345.869115324
346.598951916
347.299981375
347.972447708
348.616566215
349.232629183
349.820899374
350.381707958
350.915355711
351.422202649
351.902577429
352.35685835
352.785391281
353.188561831
353.56672208
353.920253863
354.249504474
354.554841105
354.836595668
355.095110557
355.330692754
355.543651305
355.734261237
355.902794101
356.049494079
356.174607996
356.278387124
356.361165008
356.423891574
356.464340639
356.479059317
273.491797989
273.572132913
273.73795958
273.991368109
274.330717481
274.754349255
275.260258229
275.846102452
276.509244164
277.246780025
278.055588604
278.932359531
279.873641365
280.875865413
281.935390845
283.048520776
284.211543306
285.420739055
286.672418152
287.962919533
289.288644741
290.646049888
292.031677487
293.442142169
294.874161741
296.324537656
297.79018627
299.268114837
300.755453646
302.249428045
303.747391833
305.246795771
306.745222724
308.240352242
309.729997054
311.212065064
312.684597339
314.145726735
315.59371748
317.026920941
318.443816688
319.842965638
321.223052539
322.582836811
323.921196382
325.23707658
326.529535227
327.797689983
329.040764586
330.258035055
331.448876915
332.6127107
333.749049952
334.85744645
335.937538727
336.98899744
338.011574084
339.005046917
339.969269478
340.904117443
341.809536538
342.685490665
343.532008737
344.349134407
345.136971362
345.895634928
346.62529537
347.326131641
347.998372277
348.642251526
349.258047478
349.846040807
350.406549855
350.939892183
351.44641642
351.926466803
352.380411682
352.808611208
353.211442455
353.589270396
353.942469672
354.271398975
354.576419536
354.857873025
355.116096889
355.351405885
355.564104459
355.754472071
355.922772857
356.069244468
356.194103764
356.297533475
356.379662712
356.440523606
356.479089655
356.493786881
273.325604718
273.4070872
273.574442343
273.830149587
274.172535236
274.599896883
275.110167042
275.700937065
276.369496395
277.112870445
277.927864098
278.811099158
279.759056344
280.768108081
281.834555628
282.954654885
284.124647358
285.340778416
286.599322264
287.896593263
289.228965919
290.592880441
291.984859066
293.401507128
294.839526978
296.295715649
297.766977349
299.250318536
300.742859643
302.241828064
303.744569477
305.248539049
306.751312664
308.250576334
309.744137237
311.229911733
312.705936298
314.170353994
315.62142536
317.057513532
318.477095127
319.878744148
321.261142924
322.623064989
323.963386165
325.281066617
326.575162143
327.844805644
329.08921871
330.307692712
331.499600719
332.664378463
333.801536603
334.910641755
335.991329075
337.043283543
338.066252813
339.060028872
340.024461037
340.959438112
341.864901382
342.740827318
343.58724038
344.404196317
345.191794575
345.95016221
346.679465675
347.379895375
348.051676655
348.695055003
349.310306075
349.897721581
350.457618261
350.990324485
351.496188106
351.975563861
352.428820097
352.856327035
353.258462397
353.635600641
353.988117552
354.316380527
354.620752219
354.901581962
355.159208558
355.393952901
355.606119933
355.795992389
355.96383155
356.109871023
356.234313576
356.33731799
356.418975067
356.479258554
356.517717458
356.534192504
273.070092674
273.152859426
273.322605741
273.581907795
273.929030506
274.362196003
274.879242595
275.477657061
276.154617125
276.9070351
277.731602879
278.624834371
279.583107372
280.602700522
281.679828648
282.810672061
283.991404282
285.218213465
286.487323035
287.795006244
289.137601069
290.511519415
291.913257834
293.339402866
294.786638959
296.251751152
297.731631221
299.223278515
300.723804967
302.230434558
303.740507533
305.251478648
306.760920784
308.266522222
309.766089583
311.257543993
312.738923425
314.208377925
315.664171397
317.104675914
318.528373031
319.933847299
321.319787207
322.684978055
324.028302649
325.3487337
326.645334414
327.917250597
329.163711268
330.384020654
331.577558949
332.743774351
333.882184065
334.992366524
336.073962694
337.126668576
338.150236835
339.144469639
340.109220586
341.044387898
341.949916563
342.82579187
343.672041647
344.488730084
345.275959933
346.033866547
346.762619904
347.462418784
348.133492499
348.776095148
349.39050695
349.977028555
350.535981918
351.067704664
351.572550487
352.050883605
352.5030787
352.929515534
353.330578473
353.706651342
354.058116626
354.38535064
354.688722486
354.968589622
355.225296645
355.459171276
355.670522951
355.859639061
356.026782956
356.172189542
356.296060964
356.398559134
356.479794747
356.539815493
356.578510799
356.596678915
272.724184756
272.808596433
272.981623747
273.245866645
273.599496488
274.040624681
274.566957322
275.175834669
275.86427935
276.629046107
277.466671143
278.373519127
279.345827517
280.37974634
281.471374073
282.61678826
283.812072253
285.05333699
286.336739682
287.658498324
289.014904194
290.402331055
291.817243378
293.256202006
294.715869668
296.193014423
297.684513539
299.187355542
300.698643059
302.215593881
303.735543027
305.255942837
306.7743644
308.288497047
309.796148892
311.295245285
312.783828642
314.260056126
315.722198733
317.16863819
318.597865402
320.008476657
321.399171556
322.768748688
324.116103177
325.440221999
326.74018131
328.015141574
329.264344846
330.487109874
331.682829477
332.850965787
333.991047847
335.102667102
336.185475312
337.239180387
338.263544647
339.258381037
340.223551738
341.158964737
342.064572741
342.940370048
343.786391653
344.602710331
345.389435817
346.146711988
346.874715979
347.573655357
348.24376707
348.885314511
349.498586211
350.083892748
350.641565139
351.171951571
351.675415492
352.152332194
352.603086636
353.02806993
353.427676976
353.802302921
354.152340701
354.478177564
354.780192592
355.058753385
355.314213621
355.546909919
355.757159434
355.945256809
356.111471537
356.256044687
356.379185608
356.481067946
356.561827461
356.621563422
356.660270198
356.678861168
272.286102788
272.372600965
272.549853501
272.82046699
273.182483737
273.633864169
274.172137687
274.794450133
275.497619842
276.27819494
277.132508946
278.056733203
279.046924895
280.099069705
281.209118877
282.373020541
283.586745782
284.846309727
286.147788519
287.487332532
288.861176801
290.265648913
291.697175261
293.152285725
294.627617541
296.119918215
297.626048132
299.142982503
300.667813249
302.197750288
303.730122847
305.262379914
306.79209105
308.316946495
309.834756941
311.343452565
312.841082143
314.325811295
315.795920796
317.249804028
318.685964583
320.103013027
321.499663927
322.874732083
324.227129146
325.555859495
326.860016627
328.138778866
329.391405701
330.617233505
331.815671996
332.986200123
334.128362781
335.241767001
336.326079025
337.381020879
338.406367867
339.401945557
340.367627694
341.303333573
342.209026316
343.084710557
343.930430967
344.746270138
345.532347225
346.288815885
347.015862892
347.713705998
348.382592394
349.022796391
349.634617622
350.218378491
350.774422064
351.303109263
351.804816453
352.27993241
352.728855644
353.151991208
353.549747839
353.922534688
354.270758386
354.594819798
354.895111096
355.17201264
355.425890137
355.657091687
355.865945068
356.052754937
356.217800219
356.361331434
356.483568317
356.584698541
356.664877423
356.724230648
356.762783464
356.781442337
271.753575235
271.842658135
272.025162306
272.30369441
272.676127666
273.140225174
273.693287404
274.332210122
275.053550813
275.853595597
276.728423071
277.67396328
278.686050502
279.760468911
280.892991097
282.079409548
283.315561841
284.597350164
285.920756223
287.281852221
288.676808942
290.101901463
291.553513352
293.028139619
294.522389061
296.032986032
297.556772069
299.090707233
300.63187143
302.177465488
303.724812159
305.271356514
306.814666621
308.352433862
309.882472338
311.40271807
312.911227848
314.406177568
315.885860214
317.348683359
318.793166381
320.217937245
321.621729091
323.00337648
324.361811527
325.696059814
327.005236265
328.28854092
329.545254768
330.774735566
331.976413808
333.149788771
334.294424777
335.409947605
336.496041159
337.552444343
338.5789482
339.575393278
340.541667247
341.477702718
342.38347527
343.259001635
344.104338006
344.919578442
345.7048533
346.4603277
347.186199907
347.882699693
348.55008653
349.188647721
349.798696297
350.380568837
350.934623032
351.461235161
351.960797338
352.433714671
352.880402249
353.301282061
353.696779811
354.067321702
354.413331194
354.735225765
355.033413731
355.308291084
355.56023847
355.789618199
355.996771445
356.182015508
356.345641294
356.487911087
356.609056777
356.709278582
356.788746187
356.847600069
356.885871397
356.90444404
271.123786363
271.216010596
271.404900197
271.693054075
272.078129119
272.557635554
273.128582514
273.787549808
274.530767982
275.354197649
276.253603641
277.224622043
278.262818454
279.363736952
280.522939757
281.73603837
282.998717064
284.306750037
285.656013335
287.04249281
288.462289088
289.911620514
291.386824736
292.884359581
294.400803549
295.932856281
297.477339082
299.031195616
300.591492695
302.155421131
303.720296544
305.283559695
306.842777159
308.395641822
309.939972006
311.473710744
312.994924529
314.50180155
315.992649513
317.465892969
318.920070301
320.353830281
321.765928387
323.15522278
324.520670159
325.861321377
327.176317058
328.46488307
329.726326128
330.960029336
332.165447979
333.342105327
334.489588788
335.607546135
336.695682151
337.75375538
338.781575345
339.778999858
340.745932807
341.682321989
342.588157384
343.463469399
344.308327481
345.1228386
345.907146006
346.661427754
347.385895405
348.080792401
348.746392538
349.382998045
349.990937699
350.570564531
351.122253525
351.646398936
352.143411578
352.613715798
353.057746426
353.475945485
353.86875892
354.236633168
354.580011783
354.899332013
355.195021458
355.467494774
355.717150488
355.944367944
356.149504386
356.332892259
356.494836742
356.635613586
356.755467398
356.85461121
356.933225884
356.991459347
357.029346051
357.047750487
270.393313754
270.48930651
270.685852245
270.985530372
271.385722846
271.883618843
272.475860012
273.158630868
273.927756739
274.778798896
275.707141622
276.708068751
277.776828191
278.908683984
280.09895664
281.34305282
282.63648612
283.974890502
285.354028213
286.769793549
288.218213936
289.695449236
291.19779029
292.721657155
294.263597603
295.820286006
297.388522813
298.965234507
300.547474022
302.132421393
303.717384488
305.299799391
306.877231233
308.447374779
310.008053394
311.557218412
313.092947783
314.613444209
316.117032759
317.602158019
319.067380777
320.511374343
321.932920496
323.330905197
324.704314041
326.052227603
327.373816643
328.668337337
329.935126476
331.173596824
332.383232526
333.563584811
334.714267814
335.834954787
336.925374497
337.985308066
339.014586029
340.013085849
340.980729632
341.917482276
342.823349743
343.698377707
344.542650203
345.356288564
346.13945022
346.892327674
347.61514721
348.308167686
348.971678938
349.606000211
350.211478133
350.788484667
351.337414606
351.858683033
352.352722356
352.819979316
353.260911662
353.675984811
354.065668287
354.430432185
354.770743526
355.087062683
355.379839812
355.649511395
355.896496897
356.121195556
356.323983403
356.505210465
356.665198255
356.80423769
356.922587426
357.020472337
357.098083681
357.155577417
357.192989358
357.211169035
269.558052709
269.658529351
269.864176814
270.177535508
270.595638769
271.115268971
271.732605824
272.443341604
273.242802464
274.126063735
275.088052766
276.123636637
277.227693214
278.395165912
279.621103376
280.900686321
282.229243771
283.602261272
285.015383153
286.464410921
287.945299251
289.454150938
290.98721164
292.540865172
294.111629643
295.696154755
297.291220151
298.893734811
300.500737182
302.109395866
303.717010165
305.321011196
306.918962738
308.508561639
310.087637188
311.654150377
313.206192503
314.741983155
316.259867647
317.758313887
319.235908784
320.691354189
322.123462515
323.531152012
324.913441873
326.26944712
327.598373477
328.899512145
330.172234712
331.41598808
332.630289661
333.814722692
334.968931942
336.092619615
337.185541751
338.247504861
339.278363119
340.278015783
341.246405195
342.183514926
343.089368463
343.964027923
344.807593206
345.620201023
346.402024224
347.153270856
347.874183364
348.565037397
349.226140642
349.857831162
350.4604757
351.03446745
351.58022375
352.098183287
352.588803211
353.052555834
353.489925275
353.901403791
354.287488097
354.648675513
354.985460136
355.298328986
355.587758234
355.854209517
356.098126398
356.319931013
356.520020913
356.69876619
356.856506897
356.99355077
357.110171311
357.206606976
357.283059407
357.339690763
357.37654278
357.394452503
268.613120827
268.718909536
268.935327217
269.264846037
269.704055545
270.24922188
270.895943829
271.639301415
272.474007781
273.39454994
274.395310807
275.470669416
276.615078525
277.823120642
279.089545223
280.409290161
281.777491282
283.18948295
284.640792913
286.127133574
287.644391781
289.188618339
290.756018426
292.342943399
293.945884492
295.561468381
297.18645463
298.817734636
300.452331804
302.08740247
303.720236627
305.348259781
306.969034166
308.58025904
310.179770439
311.765540442
313.335675696
314.888415277
316.422127852
317.935308274
319.426573589
320.89465861
322.33841105
323.756786394
325.14884247
326.513733937
327.850706617
329.159091902
330.438301147
331.687820289
332.907204572
334.096073643
335.254106867
336.381039136
337.47665698
338.540795259
339.573334202
340.574197061
341.543348074
342.480791027
343.38656801
344.26075868
345.103479554
345.914883649
346.695159961
347.444533128
348.163262728
348.85164262
349.509999762
350.138692985
350.738111143
351.308671184
351.850815584
352.365009699
352.851738542
353.311503497
353.744818576
354.152206655
354.534195398
354.891313219
355.224085092
355.533028467
355.818649185
356.081437556
356.321864593
356.540378428
356.737401026
356.913325112
357.068511455
357.203286551
357.317940674
357.412725799
357.487855122
357.54350036
357.579708203
357.597304228
267.552736671
267.664810211
267.89395296
268.242524068
268.706545188
269.281624227
269.96262727
270.74387198
271.619319398
272.582746783
273.627892375
274.748569262
275.938748335
277.19261331
278.504592062
279.869369527
281.281886981
282.737332343
284.231125012
285.758898306
287.316481454
288.899882818
290.50527517
292.128983782
293.767477441
295.417362496
297.075379544
298.738402389
300.403438583
302.067631045
303.728259304
305.382742275
307.028640245
308.663655032
310.285630209
311.892550411
313.482539817
315.053859794
316.604905807
318.134203607
319.640404834
321.122282076
322.578723523
324.008727245
325.411395281
326.785927504
328.131615497
329.447836352
330.734046655
331.989776537
333.214624075
334.408249888
335.570372245
336.700762475
337.79924104
338.865673971
339.899970059
340.902078419
341.871986828
342.809720345
343.715340632
344.588945398
345.43066838
346.240679213
347.019183639
347.76642336
348.482676016
349.168254609
349.823506876
350.448813996
351.044589135
351.611275301
352.149342997
352.659287238
353.141624382
353.596888434
354.02562721
354.428398131
354.805763941
355.158288238
355.486531006
355.791044146
356.072367091
356.331022582
356.567512605
356.78231461
356.975877962
357.148620748
357.300926901
357.433143645
357.54557924
357.638501855
357.712137176
357.766665261
357.802142481
357.819382792
266.370063498
266.489582573
266.733774812
267.104820387
267.598007853
268.2081004
268.929035509
269.754178991
270.676568969
271.689128656
272.784837622
273.956859245
275.198626571
276.503891938
277.866747713
279.281625516
280.743281063
282.246770278
283.787421421
285.36080634
286.962713326
288.589122841
290.236187218
291.900214601
293.577657436
295.265105139
296.959280592
298.657039586
300.355372433
302.051406747
303.742409801
305.425792422
307.099112189
308.760073372
310.406527788
312.036474179
313.648056594
315.239561812
316.809415873
318.356179842
319.878544861
321.375326661
322.84545957
324.287990203
325.702070859
327.086952819
328.441979525
329.766579863
331.060261486
332.322604414
333.553254829
334.75191933
335.918359525
337.052387263
338.153860326
339.222678904
340.258782598
341.262148272
342.23278841
343.170750278
344.076115447
344.948999979
345.789554719
346.597966017
347.37445625
348.119284518
348.83274683
349.515176258
350.166942342
350.788450345
351.38013963
351.942481858
352.475978306
352.981157021
353.458569202
353.90878546
354.332391471
354.729983572
355.102163961
355.44953592
355.772698866
356.072243522
356.348747131
356.60276887
356.834845505
357.045487275
357.23517418
357.40435252
357.553431856
357.682782402
357.792732799
357.883567659
357.955526869
358.008802707
358.043459505
358.060299023
265.057007381
265.185378449
265.447426893
265.845055161
266.37259622
267.023720188
267.791180502
268.667150226
269.643534
270.712230132
271.865331378
273.095264311
274.394872783
275.757455418
277.176768222
278.647003477
280.162754145
281.718971429
283.310920633
284.934139096
286.584398188
288.257670809
289.950104838
291.658002973
293.377808724
295.106098341
296.839577718
298.575083307
300.30958559
302.040193816
303.764160147
305.478885241
307.181922579
308.870978474
310.543913603
312.19874244
313.833631489
315.446896389
317.036998007
318.602537626
320.142251401
321.655004146
323.139782662
324.59568865
326.021931413
327.417820376
328.78275762
330.116230407
331.417803927
332.687114181
333.923861293
335.127803118
336.298749487
337.436556924
338.541124204
339.612388508
340.650322576
341.654932492
342.626256501
343.564364362
344.469357628
345.341370211
346.180569633
346.9871582
347.761374548
348.503494713
349.21383326
349.892743617
350.540618223
351.157887714
351.745019791
352.302517125
352.830914906
353.330777547
353.802695063
354.247278785
354.665156819
355.056969046
355.423361994
355.764983465
356.082477178
356.37647741
356.647603778
356.896456251
357.123610397
357.329613027
357.514978127
357.680183275
357.825666408
357.951822987
358.05900348
358.147512066
358.217603948
358.269482205
358.303223785
358.31961708
263.603952692
263.742908547
264.026255518
264.455471722
265.02362947
265.722971181
266.544730025
267.479578255
268.518027449
269.650750075
270.868811382
272.163815356
273.527976735
274.954135296
276.435729833
277.966747169
279.541658917
281.15535485
282.803079052
284.480372033
286.183020758
287.907017023
289.648524576
291.40385472
293.169450411
294.941878031
296.717825963
298.494108127
300.26767075
302.035599548
303.795127517
305.54364235
307.278691018
308.997981175
310.699382903
312.380928166
314.040808809
315.677373237
317.289121919
318.874701917
320.432900554
321.962638422
323.462961822
324.933034864
326.372131267
327.779626112
329.154987506
330.497768407
331.807598544
333.08417668
334.327263133
335.536672877
336.712269094
337.853957565
338.961681725
340.035418776
341.075176618
342.080991962
343.052929256
343.991080747
344.895567179
345.76653938
346.604180123
347.40870648
348.180371983
348.919468859
349.626329569
350.301328128
350.944880349
351.557443721
352.139516062
352.691633792
353.214369039
353.708326421
354.174138843
354.612463044
355.023974393
355.409361545
355.769320608
356.104549306
356.415740952
356.703578577
356.968729156
357.211838129
357.433524276
357.634374927
357.814941723
357.975736696
358.117228915
358.239841597
358.343949709
358.429877279
358.497896684
358.548225823
358.580952073
358.596849254
261.999412654
262.151124658
262.460061928
262.927057349
263.543498313
264.299743056
265.185058287
266.188220136
267.298027877
268.503695344
269.79511149
271.16298213
272.598874703
274.095192867
275.645106367
277.242457969
278.881663198
280.557613679
282.265589728
284.001185035
285.76024371
287.538809515
289.333086473
291.139410707
292.954233034
294.774111893
296.595714992
298.415827516
300.231363907
302.039378819
303.837080129
305.621838333
307.391190803
309.142845495
310.874682394
312.584752935
314.271277616
315.932642069
317.567391833
319.174226035
320.751990167
322.299668097
323.81637355
325.301341164
326.753917373
328.17355116
329.559784889
330.912245201
332.230634174
333.51472068
334.764332231
335.979347208
337.159687877
338.305314048
339.416217849
340.492419395
341.533963827
342.54091937
343.513376847
344.45145011
345.355277786
346.225025563
347.060889417
347.863098807
348.631920282
349.367660422
350.070668673
350.741339025
351.380111211
351.987470521
352.563947009
353.110113362
353.626582192
354.114002208
354.573053902
355.004444372
355.40890177
355.787169162
356.139998176
356.468142356
356.772350519
357.053360159
357.311891056
357.548639267
357.764271455
357.959419816
358.134677408
358.290594144
358.427673225
358.54636809
358.647079734
358.730155381
358.795885667
358.844501677
358.876105892
358.891455892
260.229559874
260.396799545
260.736770473
261.249324932
261.923565196
262.747335703
263.707340586
264.789951858
265.981866931
267.270577632
268.644650029
270.093841035
271.609090703
273.182431897
274.80685506
276.47615679
278.184792104
279.927741274
281.700396267
283.498466966
285.317905736
287.15484776
289.005565768
290.866438237
292.733931392
294.604594549
296.475067293
298.342094923
300.202548029
302.053439757
303.891944095
305.71540827
307.521356835
309.307496587
311.071717984
312.812094273
314.526878503
316.214498727
317.873551842
319.502796251
321.10114355
322.667649406
324.201503839
325.70202116
327.168629693
328.600861531
329.998342322
331.360781289
332.687961389
333.979729843
335.235988972
336.456687661
337.641813412
338.791385431
339.905448673
340.984069309
342.027331457
343.035335579
344.008198233
344.946053436
345.849055177
346.717381149
347.551237076
348.350861619
349.116531088
349.848564031
350.547324844
351.213226736
351.846733143
352.448358365
353.018666434
353.558269352
354.067823719
354.548026896
354.999611896
355.42334188
355.820003744
356.190401409
356.535348537
356.855661169
357.152150152
357.425613792
357.676830701
357.90655311
358.115500724
358.30435512
358.473754905
358.624291353
358.756504786
358.870881502
358.967851338
359.047784903
359.110992969
359.157723834
359.188092674
359.202839217
258.27758699
258.463962097
258.841998272
259.41004909
260.154069041
261.058511329
262.106717347
263.282003721
264.568497019
265.951681506
267.418675106
268.958284512
270.560904453
272.218326106
273.9235077
275.670345213
277.453465251
279.268050461
281.109698597
282.974311936
284.858011101
286.757068384
288.66785702
290.58681614
292.510432393
294.435239689
296.357834916
298.274905047
300.183258184
302.079850557
303.961811174
305.82645677
307.671295033
309.49403014
311.292563839
313.064994147
314.809611371
316.524892132
318.209491976
319.862236872
321.482113612
323.068259319
324.619950373
326.136590961
327.617701575
329.062907558
330.471927887
331.844564113
333.180689607
334.480238981
335.743197975
336.969593754
338.159486071
339.312959297
340.430115874
341.511071111
342.555949884
343.564884973
344.538017522
345.475499066
346.377495493
347.244192037
348.075799593
348.872561127
349.634758508
350.362718375
351.056817548
351.717486637
352.345212653
352.940539521
353.504067511
354.036450821
354.538394274
355.010648622
355.454005151
355.869289246
356.257353406
356.6190695
356.955320679
357.266992899
357.55496642
357.820107439
358.063260042
358.2852388
358.486821929
358.668745362
358.831697431
358.976314497
359.103177155
359.212807114
359.305664533
359.382146797
359.442585766
359.487245156
359.516257478
359.530342512
256.122818225
256.333128566
256.758493446
257.394953062
258.224053453
259.225623675
260.378566644
261.662314203
263.057870921
264.548426275
266.119580798
267.759277551
269.457546148
271.206157248
272.998261576
274.828059433
276.690523634
278.58118095
280.495947062
282.431003961
284.382708231
286.347520144
288.321948556
290.302511456
292.285716819
294.268068433
296.246095056
298.216395622
300.175687283
302.120848314
304.048949849
305.957269333
307.84329379
309.704723542
311.539472989
313.345668757
315.121644313
316.865932152
318.577254989
320.254515918
321.896787358
323.503298937
325.073424767
326.60667042
328.102659947
329.561123209
330.981883506
332.364845545
333.709983578
335.017329792
336.28696289
337.518997223
338.713572566
339.870845109
340.99097977
342.074144456
343.120506248
344.130230019
345.103479275
346.040419428
346.941223074
347.806077092
348.635190907
349.428805446
350.187201974
350.910710345
351.599715787
352.254664242
352.876065279
353.464493512
354.020587379
354.545046953
355.03862962
355.502145151
355.936449302
356.342436799
356.72103331
357.073186813
357.399858281
357.702012105
357.980606249
358.236582775
358.470858672
358.684317555
358.877802193
359.052107994
359.207977564
359.346096025
359.46708732
359.571511172
359.659860817
359.732560423
359.789964695
359.832356631
359.859883576
359.873243345
253.739450278
253.980238911
254.465399802
255.187349646
256.121354665
257.240878793
258.518944393
259.930056703
261.451475786
263.063850221
264.751308411
266.501164779
268.303413328
270.15015545
272.03506
273.952907928
275.899238102
277.870089257
279.861820277
281.87098707
283.894254272
285.928325587
287.969884141
290.015545365
292.061833132
294.105193718
296.142044998
298.168850864
300.182196111
302.17885295
304.15581938
306.110326401
308.039837721
309.942049143
311.814889672
313.656519792
315.465323653
317.239898465
318.979043945
320.681751365
322.347190798
323.974697041
325.563754905
327.113984264
328.625125424
330.097025104
331.529623028
332.922938869
334.277059428
335.592125759
336.868320434
338.105855029
339.304958397
340.465866017
341.588811117
342.67401781
343.721696905
344.732044385
345.705243031
346.641466797
347.540888136
348.403687298
349.230063593
350.020247041
350.774510428
351.493179853
352.176644106
352.825361071
353.439862083
354.020752955
354.568713104
355.08449218
355.568905475
356.022827825
356.44718665
356.842953866
357.211137008
357.552769324
357.868899251
358.160579258
358.428854566
358.674752108
358.899270075
359.103368583
359.287961348
359.453908838
359.602012408
359.73300979
359.847571356
359.946297254
360.029715057
360.098278884
360.152366986
360.192279709
360.218183638
360.230752054
251.094721947
251.375161344
251.937295936
252.767757819
253.832716791
255.096815566
256.525281918
258.086416161
259.75307837
261.503250528
263.319845822
265.190025075
267.104297978
269.055625421
271.038646605
273.049078779
275.083289379
277.138013907
279.210182761
281.296817731
283.394963331
285.501625946
287.613708266
289.72794454
291.840861241
293.948800247
296.047998719
298.134711103
300.20533051
302.256485937
304.285087865
306.288320349
308.263624053
310.208689856
312.121463701
314.000147169
315.843185262
317.649250438
319.417230643
321.146217992
322.835494182
324.484513794
326.092887181
327.66036311
329.186812146
330.672211354
332.116629937
333.52021545
334.883180043
336.205786398
337.488333299
338.731141267
339.934538671
341.09884917
342.224380939
343.311418577
344.360217944
345.371004681
346.343976333
347.279308379
348.177163729
349.037705204
349.861110217
350.647586412
351.397387318
352.110826552
352.788289611
353.430242633
354.037237012
354.609911202
355.148988336
355.655272602
356.129642956
356.573046411
356.98648999
357.371031726
357.727770789
358.057836266
358.36237505
358.642538978
358.899471442
359.134294614
359.348097242
359.541924092
359.716766835
359.873556625
360.013158316
360.13636583
360.243898829
360.336400149
360.414434094
360.478484404
360.528954312
360.566164955
360.590299654
360.60200464
248.146177787
248.479555718
249.142954929
250.113558168
251.344156635
252.787147208
254.397474062
256.135723908
257.969754716
259.875016099
261.833830873
263.834059481
265.867598511
267.929031348
270.014568394
272.121297766
274.246706328
276.388408879
278.544018811
280.711098715
282.887136554
285.069506052
287.255389278
289.441672484
291.624862246
293.801119974
295.966387989
298.116593421
300.247848566
302.356596247
304.439654764
306.494175301
308.517581663
310.507557642
312.462067006
314.379363328
316.257966968
318.096638156
319.894364962
321.650354869
323.36401756
325.034944443
326.662888591
328.247744179
329.789527397
331.288360095
332.744454879
334.158100989
335.529650029
336.859500616
338.148082068
339.395837497
340.603207305
341.770613839
342.898448334
343.98706078
345.036753672
346.047780032
347.020346304
347.954620038
348.850742354
349.708844179
350.529065664
351.311576689
352.056597671
352.764417958
353.435411563
354.070047615
354.668896599
355.232630848
355.762021664
356.257933213
356.721315216
357.153194741
357.554667308
357.926887073
358.2710559
358.588410772
358.880209966
359.147717733
359.392188567