/*--------------------------------*- C++ -*----------------------------------*\
| =========                 |                                                 |
| \\      /  F ield         | OpenFOAM: The Open Source CFD Toolbox           |
|  \\    /   O peration     | Version:  v1906                                 |
|   \\  /    A nd           | Web:      www.OpenFOAM.com                      |
|    \\/     M anipulation  |                                                 |
\*---------------------------------------------------------------------------*/
FoamFile
{
    version     2.0;
    format      ascii;
    class       volVectorField;
    location    "632";
    object      U;
}
// * * * * * * * * * * * * * * * * * * * * * * * * * * * * * * * * * * * * * //

dimensions      [0 1 -1 0 0 0 0];


internalField   nonuniform List<vector> 
9216
(
(0.00155835456388 -0.00155982312879 0)
(0.00159808085151 -0.00486098213188 6.5424578737e-28)
(0.0015866842552 -0.00817001699875 1.08229437392e-31)
(0.00156344116817 -0.0114587883932 0)
(0.0015322258521 -0.0146886700426 0)
(0.00149378133372 -0.0178456406234 0)
(0.00144903099663 -0.0209155738587 0)
(0.00139868857323 -0.0238861161211 0)
(0.00134363790571 -0.0267464962466 0)
(0.00128457029533 -0.0294876571054 0)
(0.00122236088206 -0.0321021129797 0)
(0.00115762075441 -0.0345840008694 0)
(0.00109114850311 -0.0369288651352 0)
(0.00102341629783 -0.0391336442408 0)
(0.000955102050979 -0.0411964112073 0)
(0.000886511909524 -0.0431163310388 0)
(0.000818191262866 -0.044893390743 0)
(0.00075028212539 -0.0465283563667 0)
(0.00068320854509 -0.0480225183707 0)
(0.000616967846368 -0.0493776671147 0)
(0.00055188669464 -0.0505958662739 0)
(0.000487845366537 -0.0516794530943 0)
(0.000425100266429 -0.0526308451853 0)
(0.000363442652173 -0.0534525661169 0)
(0.000303084732807 -0.054147084032 0)
(0.000243754826659 -0.0547168577915 0)
(0.000185643254007 -0.0551642062209 0)
(0.000128438130317 -0.0554913712031 0)
(7.23279693095e-05 -0.0557004152778 0)
(1.69828003428e-05 -0.0557932953906 0)
(-3.73944474763e-05 -0.0557717984634 0)
(-9.11356438254e-05 -0.0556376078513 0)
(-0.000144003507352 -0.0553922727709 0)
(-0.000196305125503 -0.0550373027468 0)
(-0.000247754643689 -0.0545741530207 0)
(-0.000298619207421 -0.0540043226177 0)
(-0.000348551938753 -0.0533293724508 0)
(-0.000397765318623 -0.0525510177558 0)
(-0.000445847515108 -0.0516711724474 0)
(-0.000492952248245 -0.0506920239818 0)
(-0.000538611064136 -0.0496160926107 0)
(-0.000582927355273 -0.048446270684 0)
(-0.000625398497413 -0.0471858864118 0)
(-0.000666097047063 -0.045838694461 0)
(-0.000704514756203 -0.0444089374597 0)
(-0.000740711310388 -0.042901287287 0)
(-0.000774191135788 -0.0413209153671 0)
(-0.000804998607515 -0.0396734103564 0)
(-0.000832637145922 -0.0379648847694 0)
(-0.000857097477566 -0.036201913805 0)
(-0.00087783301118 -0.0343917095643 0)
(-0.000894722807845 -0.0325421146263 0)
(-0.000907124680753 -0.0306618311699 0)
(-0.000914792246451 -0.0287604325647 0)
(-0.00091702647532 -0.0268485509843 0)
(-0.000913559760941 -0.0249377824179 0)
(-0.000903796911945 -0.0230406990823 0)
(-0.000887638819626 -0.021170544487 0)
(-0.000864779933077 -0.0193410604286 0)
(-0.000835450502119 -0.0175660040054 0)
(-0.000799777035602 -0.0158588440823 0)
(-0.000758431890564 -0.0142321557201 0)
(-0.000712057479875 -0.012697238509 0)
(-0.000661879848703 -0.0112633862754 0)
(-0.000609165824879 -0.00993733003046 0)
(-0.000555536460738 -0.00872266498894 0)
(-0.000502306121557 -0.00761990246913 0)
(-0.000450701287966 -0.00662680761188 0)
(-0.000401394354603 -0.00573918996049 0)
(-0.000354932961495 -0.00495157920113 0)
(-0.000311533618718 -0.00425777681341 0)
(-0.000271525004693 -0.00365100219182 0)
(-0.000235061991942 -0.00312400347789 0)
(-0.000202364165293 -0.00266908274782 0)
(-0.000173376730533 -0.00227840816133 0)
(-0.000147991577739 -0.00194428570607 0)
(-0.000125858702096 -0.001659568855 0)
(-0.000106663133252 -0.00141778940932 0)
(-9.00214666532e-05 -0.00121326282358 0)
(-7.56632653391e-05 -0.00104094496946 0)
(-6.32855684304e-05 -0.00089641570027 0)
(-5.26431162286e-05 -0.000775780642914 0)
(-4.34115104574e-05 -0.00067571663235 0)
(-3.50065090879e-05 -0.000594279617746 0)
(-2.6397076874e-05 -0.000520379209354 0)
(-2.29773636797e-05 -0.000478245820094 0)
(-2.13216198562e-05 -0.000429949151779 0)
(-1.82528590951e-05 -0.000389917741239 0)
(-1.79281374091e-05 -0.000356284482448 0)
(-1.90242834189e-05 -0.00031852855848 0)
(-1.8864607474e-05 -0.00028099916226 0)
(-1.90673160017e-05 -0.000241238489215 0)
(-2.16182283086e-05 -0.000198063087661 0)
(-2.4559317089e-05 -0.000150668372359 0)
(-2.78305377568e-05 -9.31867582955e-05 0)
(-3.01742896956e-05 -2.98221890141e-05 0)
(0.00487284638589 -0.00161608343239 0)
(0.00513380992753 -0.00517375366735 0)
(0.00509433886859 -0.00870003519471 -6.72739863267e-28)
(0.00501807199074 -0.012207081772 0)
(0.00491668047326 -0.0156479937416 0)
(0.00479261821655 -0.0190095801339 0)
(0.00464837238109 -0.0222771468175 0)
(0.00448629815234 -0.0254376212762 0)
(0.00430906573808 -0.0284796083674 0)
(0.00411907620107 -0.0313935153175 0)
(0.00391896258944 -0.0341714915067 0)
(0.00371090256799 -0.0368074034175 0)
(0.0034972455986 -0.0392966759326 0)
(0.00327974763671 -0.041636193077 0)
(0.00306033176041 -0.0438240897382 0)
(0.00284024623831 -0.0458596233248 0)
(0.00262095206825 -0.0477429559352 0)
(0.00240319762026 -0.0494750304568 0)
(0.00218802161267 -0.0510573700188 0)
(0.00197573730815 -0.0524919778305 0)
(0.00176704043806 -0.0537811670894 0)
(0.00156189810442 -0.0549274917194 0)
(0.00136075279202 -0.0559336100069 0)
(0.00116331556399 -0.0568022454692 0)
(0.000969860289804 -0.057536081928 0)
(0.000779923672314 -0.0581377503485 0)
(0.000593684429646 -0.0586097517632 0)
(0.000410576198408 -0.058954465586 0)
(0.00023074729053 -0.0591740972994 0)
(5.3593994595e-05 -0.0592707060397 0)
(-0.000120707417112 -0.0592461704224 0)
(-0.000292738236415 -0.0591022485103 0)
(-0.000462234219278 -0.0588405644787 0)
(-0.000629687001427 -0.0584626675092 0)
(-0.000794690414552 -0.057970057283 0)
(-0.000957591621649 -0.0573642581839 0)
(-0.00111779794727 -0.0566468661955 0)
(-0.00127547019113 -0.0558196306931 0)
(-0.00142981018799 -0.0548845175736 0)
(-0.00158078329422 -0.0538437857701 0)
(-0.00172740713735 -0.0527000531517 0)
(-0.00186948596576 -0.0514563499318 0)
(-0.00200591982613 -0.0501161715159 0)
(-0.00213642374672 -0.0486834928031 0)
(-0.00225986958793 -0.0471627979849 0)
(-0.00237595346955 -0.0455590538004 0)
(-0.00248357569173 -0.0438777265874 0)
(-0.0025824155178 -0.0421247403281 0)
(-0.0026713537995 -0.0403065182245 0)
(-0.00274993125828 -0.0384299778485 0)
(-0.00281683800403 -0.0365026464133 0)
(-0.00287127578123 -0.0345327368422 0)
(-0.00291157628188 -0.0325293418831 0)
(-0.00293653895063 -0.0305025514066 0)
(-0.00294425321334 -0.0284636159881 0)
(-0.00293345642341 -0.0264249415343 0)
(-0.00290253665205 -0.0244000375606 0)
(-0.00285081215341 -0.0224032540111 0)
(-0.00277757538913 -0.0204495109463 0)
(-0.00268324317512 -0.0185538533433 0)
(-0.00256847167685 -0.0167310322237 0)
(-0.00243513336996 -0.0149949316338 0)
(-0.00228548117135 -0.013358125439 0)
(-0.00212325529974 -0.0118311350058 0)
(-0.00195287409077 -0.0104215214809 0)
(-0.00177955026079 -0.00913315083089 0)
(-0.00160785942279 -0.00796614825294 0)
(-0.0014416454774 -0.00691746210568 0)
(-0.00128317242997 -0.00598192568246 0)
(-0.00113392216895 -0.00515324931561 0)
(-0.000994631780613 -0.00442462143651 0)
(-0.000866188729958 -0.00378877963715 0)
(-0.000749260369234 -0.00323791272261 0)
(-0.000644487150174 -0.00276363086082 0)
(-0.000551821977699 -0.00235728001412 0)
(-0.000470782305584 -0.00201038821655 0)
(-0.000400262855785 -0.00171516038105 0)
(-0.000339105863662 -0.00146470453303 0)
(-0.000286122896826 -0.00125304315192 0)
(-0.000240399454042 -0.00107491473548 0)
(-0.000201045022188 -0.000925660895369 0)
(-0.000167301934643 -0.000801122392367 0)
(-0.000138351274518 -0.000697539129472 0)
(-0.000113288187197 -0.0006116974038 0)
(-9.0532720826e-05 -0.00053546888383 0)
(-7.56293542497e-05 -0.000468800793419 0)
(-6.4750234935e-05 -0.000419697751231 0)
(-5.51346472165e-05 -0.000380615044693 0)
(-5.28267520546e-05 -0.000341912721255 0)
(-5.52757540621e-05 -0.000310947125656 0)
(-5.64149042287e-05 -0.000278606548583 0)
(-5.91363058856e-05 -0.000237205188683 0)
(-6.49071335137e-05 -0.000193090617263 0)
(-8.00069769716e-05 -0.000152801634582 0)
(-9.81374576276e-05 -9.75291140121e-05 0)
(-8.93331342958e-05 -2.66715566885e-05 0)
(0.00824660246153 -0.0016373845793 0)
(0.00869269033791 -0.00523902406109 0)
(0.00861835509844 -0.00880212786205 -6.7179410741e-28)
(0.0084860755674 -0.0123484765941 0)
(0.00831228336124 -0.0158265175257 0)
(0.00810050520891 -0.0192223944624 0)
(0.00785458810588 -0.022520971383 0)
(0.0075786440168 -0.0257089376472 0)
(0.0072770635692 -0.0287748087631 0)
(0.00695415046268 -0.0317090026056 0)
(0.00661420908773 -0.0345037944608 0)
(0.00626118352192 -0.0371532421298 0)
(0.00589883772071 -0.0396530382859 0)
(0.00553040764225 -0.0420003595717 0)
(0.0051588753477 -0.0441936706218 0)
(0.00478662863847 -0.0462325486622 0)
(0.00441581646992 -0.0481174831927 0)
(0.00404800084183 -0.0498497118358 0)
(0.00368457573206 -0.0514310432292 0)
(0.00332639533128 -0.0528637231601 0)
(0.00297424082841 -0.0541502919622 0)
(0.00262841350591 -0.0552934860548 0)
(0.00228923882705 -0.056296130987 0)
(0.00195661899428 -0.0571610760105 0)
(0.00163056897354 -0.0578911181387 0)
(0.00131072809807 -0.0584889640977 0)
(0.000996926111559 -0.0589571805623 0)
(0.000688656916182 -0.0592981787885 0)
(0.000385674362514 -0.0595141870788 0)
(8.74324674201e-05 -0.0596072549707 0)
(-0.000206288217364 -0.0595792490164 0)
(-0.000495969258833 -0.0594318732632 0)
(-0.000781703065954 -0.0591666879748 0)
(-0.00106380529496 -0.0587851538734 0)
(-0.00134214167068 -0.0582886715246 0)
(-0.00161676475173 -0.0576786456445 0)
(-0.00188723031373 -0.0569565468251 0)
(-0.00215325886515 -0.0561239904705 0)
(-0.00241405468254 -0.0551828128427 0)
(-0.00266899315439 -0.0541351523607 0)
(-0.00291695581451 -0.0529835235881 0)
(-0.00315703943652 -0.0517308806043 0)
(-0.00338791390541 -0.0503806681046 0)
(-0.00360853621774 -0.0489368458537 0)
(-0.00381752364892 -0.0474039001434 0)
(-0.00401383847917 -0.0457868218103 0)
(-0.00419615307852 -0.0440910855028 0)
(-0.00436346055629 -0.0423226077225 0)
(-0.00451440755476 -0.0404877403698 0)
(-0.00464780596472 -0.038593275862 0)
(-0.00476194917445 -0.0366465327712 0)
(-0.00485507220567 -0.0346554814016 0)
(-0.00492475428773 -0.0326289594869 0)
(-0.00496847202905 -0.0305768922677 0)
(-0.00498324559645 -0.0285105087629 0)
(-0.00496639121897 -0.0264424250138 0)
(-0.0049153827556 -0.024386575223 0)
(-0.00482859169309 -0.0223579322187 0)
(-0.00470501146593 -0.0203721907879 0)
(-0.00454494282653 -0.0184453293088 0)
(-0.0043497033483 -0.0165931112642 0)
(-0.00412212907586 -0.0148304952578 0)
(-0.00386602413453 -0.0131713571625 0)
(-0.0035875718619 -0.0116277435975 0)
(-0.00329500908456 -0.0102082834573 0)
(-0.00299772747051 -0.00891695656474 0)
(-0.00270433690041 -0.00775293439467 0)
(-0.00242142542787 -0.00671152528456 0)
(-0.00215273970918 -0.00578590756803 0)
(-0.00190009735959 -0.00496873705335 0)
(-0.00166447899478 -0.0042528299986 0)
(-0.00144714288684 -0.00363091078759 0)
(-0.00124954240718 -0.00309502510336 0)
(-0.00107289587721 -0.00263627738094 0)
(-0.000917333981289 -0.00224522103856 0)
(-0.000781814669873 -0.00191262307164 0)
(-0.000664280756138 -0.00163021709424 0)
(-0.000562431384777 -0.00139105218924 0)
(-0.000474225714784 -0.00118933682341 0)
(-0.000398107007894 -0.00102001436791 0)
(-0.000332690379097 -0.000878548423905 0)
(-0.000276753913582 -0.000760874351977 0)
(-0.000229187713213 -0.00066331161455 0)
(-0.000189054673669 -0.000582906717082 0)
(-0.000156084668221 -0.00051147120559 0)
(-0.000131564646777 -0.000450957389382 0)
(-0.000113480374743 -0.000412257141609 0)
(-9.56935378053e-05 -0.00036019960033 0)
(-8.4793739872e-05 -0.00031626262228 0)
(-8.58089063765e-05 -0.00028937687828 0)
(-9.63261691455e-05 -0.000267484995079 0)
(-9.82998702531e-05 -0.000214202463297 0)
(-0.000111578150071 -0.000176590430539 0)
(-0.000130477114046 -0.000128643027614 0)
(-0.000147336270834 -7.71618849572e-05 0)
(-0.000144024552236 -2.37675400692e-05 0)
(0.0116857192195 -0.00166375506407 0)
(0.0123227332327 -0.00532159820724 0)
(0.0122154727059 -0.0089373551311 6.71705290729e-28)
(0.012025106965 -0.0125351333072 0)
(0.0117752900444 -0.0160611580269 0)
(0.0114713157668 -0.0195007786361 0)
(0.0111187527317 -0.0228382678423 0)
(0.0107236478813 -0.0260599734372 0)
(0.0102923336938 -0.0291542880148 0)
(0.00983112297309 -0.0321116879714 0)
(0.0093461719186 -0.0349246684927 0)
(0.00884323580172 -0.0375876255687 0)
(0.0083276270844 -0.0400966841937 0)
(0.00780404302354 -0.0424495046965 0)
(0.00727661705194 -0.0446450669196 0)
(0.00674880551557 -0.0466834599899 0)
(0.00622351118912 -0.0485656722057 0)
(0.00570300356537 -0.0502934030304 0)
(0.00518908751818 -0.0518688862198 0)
(0.0046830320488 -0.0532947412556 0)
(0.00418576185317 -0.0545738384659 0)
(0.00369777672835 -0.0557091919636 0)
(0.00321935233421 -0.0567038639515 0)
(0.00275044162915 -0.0575608932145 0)
(0.00229087933295 -0.0582832313265 0)
(0.00184026363001 -0.0588736990903 0)
(0.00139816420641 -0.0593349475307 0)
(0.000963987075557 -0.0596694361397 0)
(0.000537188928427 -0.0598794143281 0)
(0.000117129338433 -0.0599669181303 0)
(-0.000296705197601 -0.0599337747246 0)
(-0.000704858015975 -0.0597816124624 0)
(-0.00110766878925 -0.0595118887417 0)
(-0.0015054373432 -0.0591259288029 0)
(-0.00189818368506 -0.058624971922 0)
(-0.00228582264766 -0.0580102353384 0)
(-0.00266792674583 -0.0572829858562 0)
(-0.00304392003385 -0.0564446245755 0)
(-0.00341285731887 -0.0554967757849 0)
(-0.00377364741474 -0.0544413797995 0)
(-0.00412486204804 -0.0532807805036 0)
(-0.00446499361816 -0.0520178019249 0)
(-0.00479229701223 -0.0506558058213 0)
(-0.0051050692118 -0.049198721578 0)
(-0.00540150400645 -0.0476510464989 0)
(-0.00567995290447 -0.0460178112436 0)
(-0.00593874428403 -0.0443045225327 0)
(-0.00617636182471 -0.0425170891662 0)
(-0.00639117108718 -0.0406617644259 0)
(-0.00658147119638 -0.0387451250163 0)
(-0.00674512884955 -0.0367741346245 0)
(-0.00687956678519 -0.0347563067702 0)
(-0.00698145953275 -0.0326999919232 0)
(-0.00704690901215 -0.0306147388975 0)
(-0.00707149937413 -0.0285116576595 0)
(-0.00705090733562 -0.0264036296131 0)
(-0.00698130776971 -0.0243052429361 0)
(-0.00686002794101 -0.0222323920039 0)
(-0.0066854287753 -0.0202019516646 0)
(-0.0064576391718 -0.0182313167778 0)
(-0.00617847926726 -0.016337798688 0)
(-0.00585185013492 -0.0145377916577 0)
(-0.00548228803036 -0.0128472380428 0)
(-0.00507855924592 -0.0112811096958 0)
(-0.00465375273458 -0.00985018896246 0)
(-0.00422308808587 -0.00855872186995 0)
(-0.00380053938072 -0.00740403097436 0)
(-0.0033960585119 -0.00637819718963 0)
(-0.00301423152709 -0.00547127531796 0)
(-0.00265613253879 -0.00467419922715 0)
(-0.00232211355662 -0.00397958614204 0)
(-0.00201371505621 -0.00338063348701 0)
(-0.00173365037569 -0.00286947624981 0)
(-0.00148435579756 -0.00243638728094 0)
(-0.00126634533968 -0.00207043734199 0)
(-0.00107777313162 -0.00176095217746 0)
(-0.000915024951456 -0.00149886458595 0)
(-0.000774117923183 -0.00127728699546 0)
(-0.000651974808248 -0.00109097551614 0)
(-0.000546564764359 -0.000935315296658 0)
(-0.000456076429347 -0.000805974570272 0)
(-0.000378827973483 -0.000699061663692 0)
(-0.000313362301696 -0.000611090057141 0)
(-0.00025851204163 -0.000539520404613 0)
(-0.000213419939013 -0.000473258312902 0)
(-0.000182987520364 -0.000426627850637 0)
(-0.000157954871727 -0.000382610894228 0)
(-0.000136206998694 -0.000333454991778 0)
(-0.000125593796937 -0.000300352310893 0)
(-0.00011847409391 -0.000257602179948 0)
(-0.000124858499584 -0.000221693763483 0)
(-0.000145550003924 -0.000196399602559 0)
(-0.000152746865816 -0.000143187060961 0)
(-0.000172750944035 -0.000100041255788 0)
(-0.000193062180874 -6.0659032569e-05 0)
(-0.000192790201065 -1.98048260568e-05 0)
(0.0151869707864 -0.00169905955881 0)
(0.0160147340227 -0.00543315954694 0)
(0.0158723126618 -0.00912200036927 0)
(0.0156202890148 -0.0127899696628 0)
(0.0152898287716 -0.0163811675923 0)
(0.0148882304896 -0.0198799511964 0)
(0.0144230870054 -0.023269832627 0)
(0.0139026242279 -0.0265367186465 0)
(0.0133353789871 -0.0296688577623 0)
(0.0127298519245 -0.0326568435819 0)
(0.012094245589 -0.0354935085274 0)
(0.0114362192646 -0.038173753798 0)
(0.0107627499198 -0.0406943298669 0)
(0.0100800045849 -0.0430535922319 0)
(0.00939331798456 -0.0452512463717 0)
(0.00870715974033 -0.0472881001256 0)
(0.00802519513376 -0.0491658298895 0)
(0.00735030846873 -0.0508867712324 0)
(0.00668470793678 -0.0524537333984 0)
(0.00602996933085 -0.0538698424555 0)
(0.0053871546027 -0.0551384080958 0)
(0.00475685215985 -0.0562628159073 0)
(0.0041392919602 -0.057246438447 0)
(0.00353437146759 -0.0580925660485 0)
(0.00294176144873 -0.0588043506659 0)
(0.00236091617355 -0.0593847641966 0)
(0.00179117151754 -0.0598365656397 0)
(0.00123174346516 -0.0601622793714 0)
(0.000681823626633 -0.0603641802585 0)
(0.000140572064201 -0.0604442878452 0)
(-0.000392783960024 -0.0604043738962 0)
(-0.00091895803511 -0.0602459668718 0)
(-0.00143850029932 -0.0599703835642 0)
(-0.00195180482271 -0.0595787651233 0)
(-0.00245900236933 -0.0590721271983 0)
(-0.00295997312598 -0.0584514271018 0)
(-0.00345424715858 -0.0577176447254 0)
(-0.00394103609515 -0.0568718778695 0)
(-0.00441915902218 -0.0559154476495 0)
(-0.0048871116046 -0.0548500095375 0)
(-0.00534303658849 -0.053677661806 0)
(-0.00578484405075 -0.0524010418711 0)
(-0.0062102328543 -0.0510233991749 0)
(-0.00661685272253 -0.0495486326115 0)
(-0.00700234960066 -0.0479812832125 0)
(-0.00736451740928 -0.0463264766841 0)
(-0.00770129237608 -0.0445898201097 0)
(-0.0080107979834 -0.0427772675091 0)
(-0.00829118560046 -0.0408949865453 0)
(-0.00854048346404 -0.0389492711676 0)
(-0.00875624451291 -0.0369465639438 0)
(-0.00893525951477 -0.0348936434822 0)
(-0.00907322126753 -0.0327980271681 0)
(-0.00916469281143 -0.030668550437 0)
(-0.00920334714368 -0.0285160176877 0)
(-0.00918273759132 -0.0263536363815 0)
(-0.00909725073229 -0.024196991971 0)
(-0.00894305620995 -0.0220632441548 0)
(-0.00871736952755 -0.019970890058 0)
(-0.00842002012218 -0.0179393680261 0)
(-0.00805321703823 -0.0159882143569 0)
(-0.00762255423135 -0.0141351045217 0)
(-0.00713081985913 -0.0123987801171 0)
(-0.00658916605269 -0.0107998411563 0)
(-0.00601756376612 -0.00935337031063 0)
(-0.00544009775308 -0.00806423276375 0)
(-0.00487875919704 -0.00692633227689 0)
(-0.00434794742701 -0.00592558900714 0)
(-0.00385154828436 -0.00504630327443 0)
(-0.00338739607726 -0.00427689657102 0)
(-0.00295351773355 -0.00361065117293 0)
(-0.00255163923481 -0.00304265238975 0)
(-0.00218696477002 -0.0025658412362 0)
(-0.0018645990092 -0.00216912233698 0)
(-0.00158590822208 -0.00183876649793 0)
(-0.0013476970287 -0.00156141206005 0)
(-0.00114356448125 -0.00132665525623 0)
(-0.000966702084293 -0.00112808181631 0)
(-0.000812804295623 -0.000961851930358 0)
(-0.000679952807919 -0.000824174559121 0)
(-0.000566081622249 -0.000710862054199 0)
(-0.000468987348591 -0.000618203415848 0)
(-0.000386839928696 -0.000543020327288 0)
(-0.000318146176288 -0.000482608156834 0)
(-0.000261397941431 -0.000424789136068 0)
(-0.000231095719928 -0.000393124588817 0)
(-0.000205788987235 -0.000353163128222 0)
(-0.000181113418443 -0.000309146071385 0)
(-0.000159235951393 -0.000258681352203 0)
(-0.000155748196783 -0.000225895100902 0)
(-0.000156428629432 -0.000184066010411 0)
(-0.000178569553136 -0.000158295713422 0)
(-0.000204284691638 -0.000124902390947 0)
(-0.000211455989486 -7.98635783984e-05 0)
(-0.000223514469688 -4.65538728776e-05 0)
(-0.000223149406424 -1.53877777367e-05 0)
(0.0187717114139 -0.00174425837313 0)
(0.0197927216191 -0.00557668458554 0)
(0.0196117412865 -0.00936012028442 0)
(0.0192929371216 -0.0131184910776 0)
(0.0188753644923 -0.0167932701739 0)
(0.0183686426988 -0.0203675547527 0)
(0.0177827571858 -0.0238239130983 0)
(0.017128461985 -0.0271477256095 0)
(0.0164168331094 -0.0303271094335 0)
(0.0156588297388 -0.0333528752095 0)
(0.0148649336805 -0.0362183594747 0)
(0.0140448600993 -0.0389191837859 0)
(0.0132073657903 -0.0414529653897 0)
(0.0123601259843 -0.0438190068489 0)
(0.0115096960197 -0.0460179854177 0)
(0.0106615162 -0.0480516596598 0)
(0.00981997545231 -0.0499226031978 0)
(0.00898848773097 -0.0516339725824 0)
(0.00816960279395 -0.0531893100896 0)
(0.00736510559761 -0.0545923814405 0)
(0.00657613451512 -0.0558470443592 0)
(0.00580327381147 -0.0569571449539 0)
(0.00504665885321 -0.0579264363817 0)
(0.00430604962981 -0.0587585166208 0)
(0.00358091773133 -0.0594567804492 0)
(0.00287050095238 -0.0600243835633 0)
(0.00217387588958 -0.0604642152823 0)
(0.00149000021648 -0.0607788793656 0)
(0.000817778987229 -0.0609706811405 0)
(0.000156103293344 -0.0610416205999 0)
(-0.000496081127479 -0.0609934003265 0)
(-0.00113973138974 -0.0608274242449 0)
(-0.00177563191156 -0.0605448307281 0)
(-0.0024043456747 -0.0601465256483 0)
(-0.00302613345717 -0.0596332343985 0)
(-0.00364090639543 -0.0590055735226 0)
(-0.00424815305583 -0.0582641412649 0)
(-0.00484691186512 -0.0574096277498 0)
(-0.00543573052113 -0.0564429413009 0)
(-0.00601268635581 -0.0553653458972 0)
(-0.00657540757936 -0.0541785998323 0)
(-0.00712116733624 -0.0528850832558 0)
(-0.00764698291836 -0.0514878975686 0)
(-0.00814978106371 -0.0499909192443 0)
(-0.00862654617381 -0.0483987897799 0)
(-0.0090744919606 -0.0467168301256 0)
(-0.009491154726 -0.0449508765611 0)
(-0.00987442700513 -0.0431070530394 0)
(-0.0102224264154 -0.0411915175976 0)
(-0.0105332188833 -0.0392102485278 0)
(-0.0108043460586 -0.0371689720559 0)
(-0.0110322429439 -0.0350733415866 0)
(-0.0112116533674 -0.0329294798793 0)
(-0.0113353321433 -0.0307449159777 0)
(-0.011394318681 -0.0285297501556 0)
(-0.0113791620992 -0.0262975774494 0)
(-0.011281697172 -0.0240656023882 0)
(-0.0110971936823 -0.0218525484761 0)
(-0.0108206674944 -0.0196789502481 0)
(-0.0104514248993 -0.0175671961098 0)
(-0.00999201629462 -0.0155403617147 0)
(-0.00945300583408 -0.0136154205814 0)
(-0.00882779098383 -0.0118138728486 0)
(-0.00812901194591 -0.0101678736353 0)
(-0.00738758465999 -0.00870113813181 0)
(-0.0066422676639 -0.00741993254432 0)
(-0.00592818154119 -0.00631189385985 0)
(-0.00526655506586 -0.00535099753945 0)
(-0.00465673882974 -0.00451073346746 0)
(-0.00408788364222 -0.00377617670459 0)
(-0.00355249536751 -0.00314383618985 0)
(-0.00305251389696 -0.00261408659107 0)
(-0.00259864863527 -0.00218244143542 0)
(-0.00220191749965 -0.00183533551168 0)
(-0.00186547592049 -0.00155353950241 0)
(-0.00158354579625 -0.00131861196451 0)
(-0.00134440982474 -0.0011178726172 0)
(-0.00113596943447 -0.000946529327777 0)
(-0.000952601221012 -0.000804228392105 0)
(-0.000794382177035 -0.000688594460895 0)
(-0.000659261617527 -0.000595010611808 0)
(-0.000544176057399 -0.000519819005753 0)
(-0.000447049311735 -0.000460177200788 0)
(-0.000365951787201 -0.000411799855212 0)
(-0.000302897841258 -0.000367343378747 0)
(-0.000268284010859 -0.000338886162221 0)
(-0.0002362647062 -0.000298465514672 0)
(-0.000217875947034 -0.000268502958434 0)
(-0.000205871457179 -0.000235472435742 0)
(-0.000202251228 -0.000202221402097 0)
(-0.000190232783049 -0.000153758467953 0)
(-0.000201970789266 -0.00012042972803 0)
(-0.000234929273275 -9.94804061997e-05 0)
(-0.000247462913883 -6.81159009423e-05 0)
(-0.000251752236564 -3.84893154895e-05 0)
(-0.000252000736793 -1.27495600943e-05 0)
(0.0224617299941 -0.00180052395303 0)
(0.0236796236482 -0.0057554783606 0)
(0.0234554735813 -0.00965677051188 6.66967134799e-28)
(0.0230630275747 -0.0135274023853 0)
(0.0225497601069 -0.0173054973357 0)
(0.021928051338 -0.0209725633632 0)
(0.0212107604514 -0.0245100174959 0)
(0.0204116399736 -0.0279026470401 0)
(0.0195447374965 -0.0311384944937 0)
(0.0186238312782 -0.0342087476464 0)
(0.0176619681017 -0.0371074829376 0)
(0.0166711145203 -0.0398313265779 0)
(0.0156619289147 -0.0423790689748 0)
(0.0146436389803 -0.0447512670795 0)
(0.0136240148158 -0.046949861298 0)
(0.0126094103373 -0.0489778258779 0)
(0.0116048598366 -0.0508388635653 0)
(0.0106142024375 -0.0525371490963 0)
(0.00964022685247 -0.0540771207149 0)
(0.008684814858 -0.0554633158733 0)
(0.00774908420024 -0.0567002449575 0)
(0.00683351537889 -0.0577922965622 0)
(0.00593807006177 -0.0587436675225 0)
(0.00506228944407 -0.0595583119491 0)
(0.00420538494133 -0.0602399039935 0)
(0.00336631116194 -0.060791810547 0)
(0.00254383623512 -0.0612170707322 0)
(0.00173659957207 -0.0615183804678 0)
(0.000943173637095 -0.0616980811879 0)
(0.000162118985789 -0.061758151277 0)
(-0.000607950204249 -0.0617002127682 0)
(-0.00136830256421 -0.0615255219948 0)
(-0.0021200128031 -0.0612350023486 0)
(-0.0028638851184 -0.0608292713312 0)
(-0.0036003649307 -0.0603086927449 0)
(-0.00432945778691 -0.0596734516897 0)
(-0.00505064539193 -0.0589236553456 0)
(-0.00576282355752 -0.0580594606439 0)
(-0.00646425558647 -0.0570812276026 0)
(-0.00715256957163 -0.0559896922047 0)
(-0.00782479401332 -0.0547861485309 0)
(-0.0084774583044 -0.0534726230763 0)
(-0.0091067447358 -0.05205201887 0)
(-0.00970870498613 -0.0505282019109 0)
(-0.0102795054883 -0.0489060001959 0)
(-0.0108156873205 -0.0471910913255 0)
(-0.0113143684812 -0.0453897611975 0)
(-0.0117733428818 -0.0435085451423 0)
(-0.0121909715887 -0.0415537842089 0)
(-0.012565823692 -0.0395311963786 0)
(-0.0128959774331 -0.0374455932971 0)
(-0.0131780535683 -0.0353009557621 0)
(-0.0134060898338 -0.0331011209789 0)
(-0.0135706997486 -0.0308512199782 0)
(-0.0136591468894 -0.0285598514477 0)
(-0.0136572974364 -0.0262410182572 0)
(-0.0135530225894 -0.0239150264632 0)
(-0.0133426769931 -0.0216022174373 0)
(-0.0130162704755 -0.0193251244196 0)
(-0.0125720963272 -0.0171107203655 0)
(-0.0120123433797 -0.0149897988555 0)
(-0.0113668066607 -0.0129708828582 0)
(-0.0105952758765 -0.0110747886978 0)
(-0.00971011858903 -0.00935963634925 0)
(-0.00876210893875 -0.00786662719126 0)
(-0.00781554089071 -0.00660483071166 0)
(-0.00692854512417 -0.00555062034832 0)
(-0.00613518476545 -0.00465414571999 0)
(-0.00542051080976 -0.00386763024302 0)
(-0.00475328583281 -0.00317265113753 0)
(-0.00411472923805 -0.00257527975817 0)
(-0.00350743066011 -0.00208880483226 0)
(-0.00295452608732 -0.00171524477027 0)
(-0.00248036090063 -0.00143594990061 0)
(-0.00209139658266 -0.00122039513841 0)
(-0.00177648638253 -0.00104034624624 0)
(-0.00151347055944 -0.00087907908024 0)
(-0.0012793486919 -0.000736273363863 0)
(-0.00106754302864 -0.00062026484438 0)
(-0.000885864858988 -0.000530835092145 0)
(-0.000732283083173 -0.000460655807417 0)
(-0.000601440744307 -0.000405983619925 0)
(-0.000491653527945 -0.00036454881636 0)
(-0.000400273510217 -0.000330379508931 0)
(-0.000337295766914 -0.000302986367664 0)
(-0.000299472230501 -0.000279445410274 0)
(-0.000269157870785 -0.000252113104735 0)
(-0.000245465655313 -0.000221862243519 0)
(-0.000237661470938 -0.000196484738616 0)
(-0.000229702015723 -0.000162410286587 0)
(-0.000235553029447 -0.000135638580549 0)
(-0.000231314340552 -9.75705695526e-05 0)
(-0.000248309463694 -7.45638833197e-05 0)
(-0.000272767555557 -5.64619823804e-05 0)
(-0.000275106361971 -3.21403031566e-05 0)
(-0.00027581529989 -1.06858959046e-05 0)
(0.0262814049516 -0.00186920732326 0)
(0.0277006844975 -0.00597369799432 0)
(0.0274273610606 -0.0100185756855 -6.66864742363e-28)
(0.0269523409026 -0.0140254671396 0)
(0.0263322557796 -0.0179282876108 0)
(0.0255828595567 -0.0217065589052 0)
(0.0247205307954 -0.0253403278667 0)
(0.0237626442657 -0.0288137519288 0)
(0.0227267778615 -0.0321149214775 0)
(0.021629988605 -0.0352356479355 0)
(0.0204882359256 -0.0381710795464 0)
(0.0193159679895 -0.0409192262681 0)
(0.018125869555 -0.0434804442032 0)
(0.016928752217 -0.0458569241928 0)
(0.0157335624561 -0.0480522172676 0)
(0.0145474757336 -0.0500708177953 0)
(0.0133760493663 -0.0519178141896 0)
(0.0122234062991 -0.0535986085791 0)
(0.0110924313441 -0.0551187005878 0)
(0.00998496238507 -0.0564835269033 0)
(0.00890196912549 -0.0576983465279 0)
(0.00784371129574 -0.0587681616491 0)
(0.00680987703181 -0.0596976647304 0)
(0.0057996990514 -0.0604912040035 0)
(0.00481205371008 -0.061152760835 0)
(0.00384554304362 -0.0616859342089 0)
(0.00289856679639 -0.0620939286433 0)
(0.00196938535541 -0.0623795435629 0)
(0.00105618133669 -0.0625451631315 0)
(0.000157120621538 -0.0625927450536 0)
(-0.000729579492532 -0.062523823581 0)
(-0.00160557470994 -0.0623394886949 0)
(-0.00247230750841 -0.0620404153024 0)
(-0.00333090916226 -0.0616268799742 0)
(-0.00418209153751 -0.0610988094512 0)
(-0.00502603507442 -0.0604558565607 0)
(-0.00586227660356 -0.0596975098108 0)
(-0.00668961179421 -0.0588232409228 0)
(-0.00750602200981 -0.0578326904996 0)
(-0.00830864678514 -0.0567258877162 0)
(-0.009093815713 -0.0555034921629 0)
(-0.00985716132419 -0.0541670377762 0)
(-0.0105938200399 -0.0527191482361 0)
(-0.0112987269205 -0.0511636841507 0)
(-0.0119669842086 -0.0495057764067 0)
(-0.0125942672206 -0.0477516975095 0)
(-0.013177197102 -0.0459085365603 0)
(-0.0137135818122 -0.0439836605714 0)
(-0.0142024062994 -0.0419840027493 0)
(-0.0146434145895 -0.0399152585586 0)
(-0.015036175728 -0.0377812058918 0)
(-0.0153785250079 -0.0355834576597 0)
(-0.0156645249031 -0.0333221294056 0)
(-0.0158824228931 -0.0309979760318 0)
(-0.0160138137912 -0.0286163504091 0)
(-0.0160365588294 -0.0261914552822 0)
(-0.0159309295013 -0.0237509830838 0)
(-0.0157029253589 -0.0213157979909 0)
(-0.0153293188528 -0.0189083717022 0)
(-0.0148054430299 -0.0165632721174 0)
(-0.0141267906696 -0.0143350747507 0)
(-0.0133986922554 -0.0121983537915 0)
(-0.0124691076137 -0.0101571806343 0)
(-0.0113509244942 -0.00833469947062 0)
(-0.0101357746489 -0.00680655208723 0)
(-0.00893320501695 -0.00558635864506 0)
(-0.00784285110176 -0.00463151898313 0)
(-0.00692918511818 -0.00384292135754 0)
(-0.00613599421409 -0.00312877849705 0)