/*--------------------------------*- C++ -*----------------------------------*\
| =========                 |                                                 |
| \\      /  F ield         | OpenFOAM: The Open Source CFD Toolbox           |
|  \\    /   O peration     | Version:  v1906                                 |
|   \\  /    A nd           | Web:      www.OpenFOAM.com                      |
|    \\/     M anipulation  |                                                 |
\*---------------------------------------------------------------------------*/
FoamFile
{
    version     2.0;
    format      ascii;
    class       surfaceScalarField;
    location    "269";
    object      phia;
}
// * * * * * * * * * * * * * * * * * * * * * * * * * * * * * * * * * * * * * //

dimensions      [0 3 -1 0 0 0 0];
oriented        oriented;


internalField   nonuniform List<scalar> 
18240
(
0.0013591453999
-0.00135830499591
0.00284731141858
-0.00148719331242
0.00433460004382
-0.00148642163273
0.00580349436931
-0.00146789720682
0.00724580179517
-0.00144146915147
0.00865510680987
-0.00140828911913
0.010025085961
-0.00136917204445
0.011350679078
-0.00132456122664
0.0126266329343
-0.00127518062867
0.0138491226411
-0.00122144567169
0.0150139929064
-0.00116413469163
0.0161186871085
-0.00110364270574
0.0171601563039
-0.0010407744496
0.018137078379
-0.000975868598083
0.0190474472847
-0.000909718742256
0.0198910730101
-0.000842576275344
0.0206668723055
-0.000775196356423
0.021375636927
-0.000707725585217
0.0220170547645
-0.000640865056882
0.0225927283847
-0.000574651326977
0.0231029567888
-0.000509727152209
0.0235499808554
-0.000446024603369
0.0239345599543
-0.000384130828667
0.0242594158792
-0.000323884733064
0.024525636506
-0.00026582502415
0.0247362865157
-0.000209711819
0.0248926721725
-0.000156042513763
0.0249980854608
-0.000104511850646
0.0250539606802
-5.55826471513e-05
0.0250637196667
-8.8971697411e-06
0.0250288533243
3.51099066554e-05
0.0249528339477
7.68396935666e-05
0.0248371377869
0.000115893687997
0.024685206209
0.000152709227948
0.0244984599815
0.000186900076669
0.0242802689421
0.000218925639604
0.0240319593336
0.000248423250055
0.0237567799242
0.000275871059807
0.0234559315232
0.000300924448418
0.02313250782
0.000324072972242
0.0227875628246
0.000344986913317
0.0224240096383
0.000364160841661
0.0220427420603
0.000381277839122
0.0216464767114
0.00039683237069
0.0212359406933
0.000410517795355
0.0208136447232
0.000422823339479
0.0203801493469
0.000433450841332
0.0199377579652
0.000442880143036
0.0194868705459
0.00045081938519
0.0190295868137
0.000457734838418
0.018566157555
0.00046333961184
0.0180984887199
0.000468083247904
0.0176266975651
0.000471682408324
0.0171525092069
0.000474566934178
0.0166759263258
0.000476456732421
0.0161985097566
0.000477760177746
0.0157201681665
0.000478200350059
0.0152423148016
0.000478162797226
0.0147647851473
0.000477374928092
0.0142888619082
0.000476199324233
0.0138143267112
0.000474369162473
0.0133423459585
0.000472224275056
0.0128726641362
0.000469506039654
0.0124063432714
0.000466532665998
0.011943103648
0.000463056148969
0.0114839103311
0.000459374220045
0.0110284682949
0.000455252377817
0.010577649788
0.000450969407642
0.010131149143
0.000446306716528
0.00968974568344
0.000441525272287
0.00925312422963
0.000436424709116
0.00882196877185
0.000431249219122
0.00839595287996
0.000425818144559
0.00797566045226
0.000420359285995
0.00756075046937
0.000414712749331
0.00715170179282
0.000409090010088
0.00674815488349
0.000403352084117
0.00635047875226
0.000397693545177
0.00595829213233
0.000391995986024
0.00557185133638
0.000386436165424
0.00519075185351
0.000380915137538
0.00481513681665
0.000375590317676
0.00444458010822
0.000370380465319
0.00407911574896
0.000365421193048
0.00371830350394
0.000360645313031
0.0033620818912
0.000356160758442
0.00301002082872
0.000351903520856
0.00266201064005
0.000347931970726
0.00231772571053
0.000344136257676
0.00197722273586
0.000340410366445
0.00164077495842
0.000336311455596
0.00130983506291
0.000330839438158
0.000988866919839
0.000320854596214
0.000692344869867
0.000296416853108
0.000394216338956
0.000297982904324
0.000394131339683
0.00150250812667
-0.00285989962262
0.00317992485038
-0.00316361350812
0.00484843851036
-0.0031539687191
0.00649345270657
-0.00311190993033
0.00810752634162
-0.00305458659203
0.00968390117086
-0.00298366255044
0.0112159154786
-0.0029002434719
0.012697705691
-0.00280535269481
0.0141236973788
-0.00270024629551
0.0154893096509
-0.00258606567254
0.0167902527435
-0.00246417249723
0.0180233205494
-0.00233572922922
0.0191855310568
-0.0022021049613
0.0202750188726
-0.00206439118105
0.0212900322914
-0.00192388187726
0.022229928507
-0.00178152861943
0.023094041892
-0.00163849386989
0.0238827821316
-0.00149554870441
0.0245963899307
-0.00135369547599
0.0252361351923
-0.00121351129915
0.0258029768122
-0.00107583374325
0.0262988547291
-0.000941053660746
0.02672526984
-0.000809856070549
0.0270846600279
-0.000682466302321
0.027378914701
-0.000559437258569
0.0276108222581
-0.000440853983403
0.027782532472
-0.00032715878594
0.027897061163
-0.00021832038034
0.0279567124379
-0.00011468897108
0.0279646261744
-1.61371243413e-05
0.0279231700152
7.70626078331e-05
0.0278355193081
0.000165117537652
0.027704043285
0.000247818774044
0.0275318971582
0.000325436198408
0.0273213845827
0.000397815980806
0.0270755658385
0.000465279933967
0.0267966315721
0.000527716956693
0.0264875068051
0.000585487437267
0.0261502345154
0.000638514611881
0.0257875703447
0.000687186462085
0.0254013834996
0.000731452225417
0.0249942355417
0.000771717562873
0.0245678047297
0.000807950109025
0.0241244428841
0.000840564229183
0.0236656281711
0.000869539052396
0.0231934950108
0.000895289493741
0.0227093199218
0.00091779977024
0.0222150198537
0.000937477879039
0.0217116748956
0.00095430735841
0.0212009910074
0.000968682634206
0.0206838632458
0.000980581523429
0.0201617989438
0.000990379205254
0.0196355244754
0.000998043833144
0.0191063652448
0.00100392696367
0.0185748990358
0.00100798446592
0.0180422890875
0.0010105414328
0.0175089866039
0.00101154046821
0.0169760134235
0.00101127908453
0.0164437164435
0.00100968729821
0.0159129963424
0.00100703562604
0.0153841163362
0.00100324380034
0.0148578737162
0.000998557444346
0.0143344656284
0.000992889582744
0.0138146002749
0.000986464189386
0.0132984221264
0.000979192036542
0.0127865600461
0.000971279340393
0.0122791146056
0.000962639370918
0.0117766406041
0.000953464592173
0.0112791988202
0.000943675307048
0.0107872708765
0.000933453817355
0.0103008778907
0.000922731259635
0.00982042592077
0.000911682548737
0.00934589350035
0.000900252384587
0.00887760638111
0.000888609951829
0.00841549588319
0.000876714947917
0.00795980194767
0.000864731280616
0.00751040362092
0.000852633753472
0.00706744986015
0.000840580235308
0.00663076329841
0.000828559491534
0.00620039849932
0.000816721517866
0.0057761195527
0.000805066746614
0.00535788579807
0.000793734350934
0.00494540378273
0.000782732842654
0.00453854070967
0.000772186006958
0.00413695108638
0.000762104279864
0.00374041869513
0.000752587103208
0.00334855822788
0.000743632477518
0.00296108559525
0.000735290967394
0.00257758659614
0.000727502538401
0.00219769200431
0.000720184456141
0.00182081654958
0.000713059982528
0.00144591539137
0.000705622711158
0.00106973588725
0.00069691070235
0.000680635201089
0.000685402385253
0.000297019045365
0.000681481681201
0.000691086818156
0.00152878749988
-0.0043877606587
0.00322736854186
-0.00486120433484
0.00491956824429
-0.00484518042715
0.00658814443181
-0.00477949198742
0.00822498116408
-0.00469044163876
0.00982292181281
-0.00458061339337
0.0113752189616
-0.00445156784738
0.012875789421
-0.0043049406862
0.0143190785094
-0.0041425745813
0.0157003263617
-0.00396634226906
0.0170153422031
-0.00377824373418
0.0182607753748
-0.00358020687657
0.0194338147518
-0.00337422043953
0.0205324752353
-0.00316211688622
0.0215552342622
-0.00294574281421
0.0225013411807
-0.00272672668285
0.0233704016837
-0.00250668693514
0.0241627161849
-0.00228698544832
0.0248788235254
-0.0020689709637
0.0255198725203
-0.00185371838518
0.0260871345352
-0.00164230356669
0.0265824099601
-0.00143552723214
0.0270075180706
-0.00123421534975
0.0273647369304
-0.00103892668841
0.0276562757326
-0.000850273049751
0.0278847441207
-0.000668609763536
0.0280526111594
-0.000494370525189
0.0281626983559
-0.000327742288777
0.0282176277492
-0.00016901137521
0.0282203331079
-1.82251558192e-05
0.0281735008612
0.000124453400897
0.0280800944556
0.000259093555276
0.0279427912666
0.000385632990779
0.0277645161693
0.000504233979781
0.0275478771472
0.000614919675408
0.0272957039755
0.000717930313989
0.027010486082
0.000813355121971
0.0266949138309
0.000901493125571
0.0263513213446
0.00098248480643
0.0259822268297
0.00105667262576
0.0255897821674
0.00112423433711
0.0251763098334
0.00118554173224
0.0247437616644
0.00124079743543
0.0242942499955
0.00129038996082
0.0238295169269
0.00133453522922
0.0233514578625
0.00137362673594
0.0228616032302
0.00140788327229
0.0223616325542
0.0014376927094
0.0218528695753
0.00146326697786
0.0213367853669
0.00148497864591
0.0208145083908
0.0015030244953
0.0202873149543
0.00151775373541
0.0197561547809
0.00152934113444
0.0192221273501
0.001538106259
0.0186860241362
0.00154419735219
0.0181487891076
0.00154790058132
0.0176110779536
0.00154933546227
0.0170737012694
0.00154875351529
0.0165372017099
0.0015462461947
0.0160022782039
0.00154203191568
0.0154693813216
0.00153617706433
0.014939117206
0.0015288707134
0.0144118621084
0.00152015941382
0.0138881446697
0.00151020853717
0.0133682800749
0.00149905122545
0.0128527297435
0.00148683566067
0.0123417561951
0.00147358868027
0.0118357592274
0.00145944800762
0.0113349521478
0.00144444079947
0.0108396739496
0.00142870026482
0.0103500880699
0.00141225954631
0.00986647009842
0.00139525200465
0.0093889297682
0.00137772066317
0.00891767409049
0.00135980183368
0.00845275359821
0.00134155046462
0.00799430077273
0.00132310670833
0.00754230107113
0.00130453737416
0.00709680676969
0.00128598538046
0.00665773344481
0.00126752756134
0.00622504926103
0.00124930686957
0.00579859711168
0.00123140663574
0.00537825951474
0.00121396556407
0.00496380663739
0.00119706845244
0.00455503673807
0.00118084375437
0.00415164967754
0.0011653703931
0.00375336229413
0.00115075731041
0.00335980519529
0.00113706522916
0.00297060707947
0.00112436666731
0.00258530047873
0.0011126814323
0.0022033403181
0.00110201888864
0.00182393075477
0.00109234095253
0.00144578139974
0.00108364990793
0.00106640664575
0.00107616885654
0.000680943994054
0.00107073943459
0.000293894997842
0.00106840786301
0.000984925408156
0.00155190135466
-0.00593872894277
0.00327324064138
-0.00658154574341
0.00498834804491
-0.00655929150661
0.0066791692033
-0.00646931551897
0.00833714447012
-0.00634742479352
0.00995477144352
-0.00619724866924
0.0115251124907
-0.00602092408956
0.0130418953374
-0.00582074019953
0.014499501568
-0.00559920678669
0.0158930747186
-0.00535894422112
0.0172184569158
-0.00510266687954
0.0184722740672
-0.00483306954148
0.0196518258126
-0.00455283307235
0.0207551571902
-0.00426451559448
0.021780912151
-0.0039705837324
0.0227284012922
-0.00367331028235
0.0235974294563
-0.00337483149336
0.0243883683011
-0.00307705113379
0.0251019676785
-0.00278172209266
0.0257394401183
-0.00249035487615
0.0263022643033
-0.00220431941086
0.0267922860868
-0.00192475446499
0.0272115195731
-0.0016526839824
0.0275622657889
-0.00138892304728
0.0278469138739
-0.00113420260281
0.0280680755219
-0.000889068605922
0.0282283863127
-0.00065401077279
0.02833065234
-0.000429353897001
0.0283776512272
-0.00021538858719
0.0283722877408
-1.22560892522e-05
0.0283173947813
0.000179919321377
0.0282158951082
0.000361150377386
0.0280706034086
0.000531449612587
0.0278843929579
0.000690954148554
0.0276599999119
0.00083979109091
0.0274001940983
0.000978200044246
0.0271075851805
0.00110639760303
0.0267847963691
0.00122470196612
0.0264342740915
0.00133339797653
0.0260584630287
0.00143286194045
0.0256596197567
0.00152342790521
0.0252399881044
0.0016055119827
0.0248016172025
0.00167948025032
0.0243465362429
0.00174577197139
0.0238765774275
0.00180476956351
0.0233935494846
0.00185692015883
0.0228990659195
0.00190260796934
0.0223947166004
0.00194227381451
0.021881901685
0.00197629038264
0.0213620007125
0.00200507942973
0.0208362124279
0.00202899037043
0.0203057206407
0.00204841498727
0.0197715400702
0.00206366991602
0.0192346782543
0.00207510869998
0.0186959873819
0.00208300860366
0.0181563213454
0.00208767986463
0.017616393451
0.00208935729207
0.0170769277709
0.00208830645643
0.0165385225746
0.00208472033189
0.0160017950569
0.00207882209823
0.01546725037
0.00207076704247
0.0149354189876
0.00206074152126
0.014406731309
0.00204887015052
0.0138816469757
0.00203531042901
0.0133605351442
0.00202016522526
0.0128437953409
0.00200357250948
0.0123317436641
0.00198562304285
0.0118247248817
0.00196644469892
0.011323004943
0.001946125304
0.0108268742835
0.00192479107656
0.0103365471618
0.00190253455347
0.009852256221
0.00187948678567
0.00937415918985
0.00185575037218
0.00890242492058
0.00183146516255
0.00843714802909
0.00180674645601
0.00797842662581
0.00178174409068
0.00752628536926
0.00175658594146
0.00708074515831
0.00173143038336
0.00664175501205
0.00170641524378
0.00620925389504
0.00168170370019
0.00578311162075
0.00165743884147
0.00536318290573
0.00163378308416
0.00494925729768
0.00161087844575
0.00454110525686
0.00158887950454
0.00413843647543
0.00156791938526
0.00374093690819
0.00154813627329
0.00334823306449
0.00152964528912
0.0029599152027
0.00151255957107
0.00257549809626
0.00149697056777
0.00219441498193
0.0014829730384
0.00181595521273
0.00147067579024
0.00143920883794
0.00146027336396
0.00106306811246
0.00145218159735
0.000686729190106
0.00144695650963
0.000315551491227
0.00143946442987
0.00130041372162
0.00158153184831
-0.0075193199311
0.00333436369286
-0.00833337725854
0.00508039578745
-0.00830431791011
0.00680094496755
-0.00818886101628
0.00848702531116
-0.00803250421939
0.0101307610089
-0.00783998594178
0.0117249409675
-0.00761411026848
0.0132630748493
-0.00735788385084
0.0147394206183
-0.0070745689941
0.0161490384264
-0.00676758393109
0.0174877745829
-0.00644043405319
0.0187522816177
-0.00609661542312
0.0199399638738
-0.0057395659315
0.0210489729435
-0.00537258581181
0.0220781262516
-0.00499881275787
0.0230268886305
-0.00462116169422
0.0238952750315
-0.00424232421524
0.0246838284202
-0.00386472690048
0.0253935169364
-0.00349055285864
0.0260257169105
-0.00312171556403
0.0265821126143
-0.00275989788543
0.0270646905581
-0.0024065357033
0.0274756467848
-0.00206286737111
0.0278173945548
-0.00172991999208
0.0280924796965
-0.00140856203909
0.0283035999326
-0.00109948616602
0.0284535260601
-0.000803260151184
0.0285451293921
-0.000520303916315
0.028581305907
-0.000250937985684
0.0285650091332
4.64435982167e-06
0.0284991761862
0.000246329843328
0.0283867641647
0.000474117006636
0.0282306795182
0.000688063231494
0.0280338177648
0.000888322633792
0.0277989943948
0.00107509631062
0.0275289897782
0.00124866531936
0.0272264817341
0.00140934241345
0.0268940937798
0.0015575065832
0.0265343303119
0.00169355524593
0.0261496273739
0.00181793976348
0.0257422902336
0.00193111819383
0.0253145460618
0.00203359147532
0.0248684840866
0.00212585686525
0.0244061096761
0.00220844428178
0.023929287088
0.00228187043671
0.0234397946403
0.00234667508725
0.0229392703581
0.00240337607187
0.0224292678942
0.00245250520212
0.0219112050792
0.00249456440377
0.0213864202956
0.00253006128535
0.0208561240699
0.00255946678868
0.0203214554435
0.00258325042337
0.019783436358
0.00260183977041
0.0192430275173
0.00261565556716
0.0187010853876
0.00262507348125
0.0181584168678
0.00263045904846
0.0176157383927
0.00263213193617
0.0170737287394
0.00263040077913
0.016532989887
0.00262553009424
0.0159940972375
0.00261777478206
0.0154575617158
0.00260734960789
0.0149238768478
0.0025944631317
0.0143934818853
0.00257928960204
0.0138668052751
0.00256200184745
0.0133442285699
0.00254274525581
0.0128261260854
0.00252166922231
0.0123128297145
0.00249890290767
0.0118046647097
0.0024745847313
0.0113019155351
0.00244883955621
0.0108048579571
0.00242180587924
0.0103137263642
0.00239361420838
0.00982874243025
0.00236441161082
0.00935008428261
0.0023343411007
0.00887791214609
0.00230356342572
0.00841233989059
0.0022722374389
0.00795345802758
0.00224053906066
0.00750130801588
0.00220864268287
0.0070559029954
0.0021767374351
0.00661720523193
0.00214500978043
0.00618514481578
0.00211365723204
0.00575960037552
0.00208287232562
0.00534041585371
0.00205285402362
0.00492738443428
0.00202379328083
0.00452026317668
0.00199588234747
0.004118759553
0.0019693021992
0.00372254315353
0.00194423021152
0.00333123342207
0.00192083025005
0.0029444057514
0.0018992603012
0.00256157862716
0.00187966921744
0.0021822124946
0.00186221063396
0.00180569966189
0.00184705813723
0.00143139816948
0.0018344506106
0.00105874607705
0.00182471659851
0.000687720155866
0.00181785203215
0.000321859501279
0.00180519424561
0.0016222144568
0.00161897561236
-0.00913734752864
0.00341251786274
-0.0101259067484
0.00519833178535
-0.0100891186411
0.00695697941689
-0.00994649588993
0.00867896402047
-0.00975347887524
0.0103559716266
-0.00951598635311
0.0119804457864
-0.00923758071918
0.0135456355985
-0.00892207432634
0.0150456375631
-0.00857357692769
0.016475426613
-0.00819638540099
0.0178308515306
-0.00779487916962
0.019108625137
-0.00737341818653
0.0203062814861
-0.006936262146
0.0214221375749
-0.00648749344505
0.0224552250051
-0.00603096553147
0.023405235889
-0.00557025242521
0.0242724412589
-0.00510862633818
0.0250576328381
-0.00464903241178
0.0257620394104
-0.00419409309439
0.0263872747095
-0.00374610412609
0.0269352611558
-0.00330705977789
0.0274081911041
-0.00287866266399
0.0278084631379
-0.00246236047803
0.0281386586641
-0.00205935966028
0.0284014904457
-0.00167066334951
0.0285997912849
-0.00129708054285
0.0287364704379
-0.000939258913963
0.028814509084
-0.000597686631416
0.028836920416
-0.000272719623873
0.0288067484174
3.5421609301e-05
0.0287270300859
0.000326627547696
0.02860079558
0.000600906827133
0.0284310357429
0.000858353152854
0.0282207038096
0.00109916133286
0.0279726843136
0.00132359839407
0.0276898004001
0.00153200946256
0.0273747851392
0.00172479489222
0.0270302916063
0.00190241607938
0.0266588671313
0.00206537393215
0.0262629655546
0.00221421540887
0.0258449240338
0.00234951323953
0.0254069770806
0.00247187292893
0.0249512356757
0.00258191340432
0.0244797028779
0.002680274223
0.0239942552192
0.00276759692504
0.0234966598465
0.00284453227918
0.022988558185
0.00291172222336
0.0224714845665
0.00296980717588
0.0219468521761
0.00301940868067
0.0214159730873
0.00306113694894
0.0208800463559
0.00309557443583
0.0203401792064
0.00312328391781
0.0197973770153
0.0031447933689
0.0192525652438
0.00316060488977
0.0187065808458
0.00317118119902
0.0181601943474
0.00317695567706
0.0176141021189
0.0031783207225
0.0170689479404
0.00317563899323
0.0165253155059
0.00316923366483
0.0159837487809
0.00315940076675
0.0154447441878
0.00314640121561
0.014908769183
0.00313047393447
0.0143762536897
0.00311182932895
0.013847606468
0.00309066273708
0.0133232055739
0.00306714892885
0.0128034123365
0.00304145534065
0.0122885608339
0.00301373710761
0.0117789694911
0.00298414954163
0.0112749297858
0.00295284325946
0.010776715704
0.00291997542605
0.0102845720548
0.00288570461465
0.00979872214798
0.00285020047002
0.00931935621003
0.00281363809377
0.00884663774637
0.00277620593812
0.00838069258631
0.00273809965528
0.0079216143796
0.00269952820254
0.00746945475377
0.00266070725967
0.00702422834455
0.00262186366929
0.00658590444623
0.00258322864505
0.00615441183093
0.0025450407769
0.00572963208341
0.00250753933225
0.00531140429868
0.00247096612263
0.00489952005243
0.00243555924621
0.00449372783604
0.00240155417464
0.00409372928325
0.0023691783896
0.00369918294155
0.00233865228299
0.00330970125816
0.00231018561985
0.00292485351844
0.00228397985508
0.00254416402297
0.00226022836412
0.00216711825184
0.00223912479988
0.00179317782936
0.00222087261186
0.00142181102881
0.00220569300633
0.00105258563004
0.00219381094053
0.000685450165817
0.00218486330284
0.000322740573498
0.00216777910611
0.00194488961226
0.00166505331662
-0.0108014430999
0.00350895603459
-0.011968791613
0.00534393202258
-0.011923070711
0.00714955948502
-0.0117511013877
0.0089157040066
-0.0115186032785
0.0106335182174
-0.0112327827995
0.012295024478
-0.0108980727163
0.0138931655515
-0.0105192046258
0.0154218472562
-0.0101012533426
0.0168759604281
-0.00964949896579
0.0182513687082
-0.00916929584415
0.0195448831254
-0.00866594954757
0.0207542098754
-0.00814461668456
0.0218778931109
-0.00761021629517
0.022915238705
-0.00706736460115
0.0238662394445
-0.00652032184128
0.0247314885929
-0.0059729609653
0.0255121003852
-0.00542874811098
0.0262096261271
-0.00489074225718
0.0268259821168
-0.00436160478218
0.0273633791796
-0.00384362329668
0.0278242670608
-0.0033387405338
0.0282112832024
-0.00284859017616
0.0285272158012
-0.00237453098069
0.0287749696839
-0.00191768071083
0.0289575427755
-0.00147894326764
0.0290780014611
-0.00105903263193
0.0291394627744
-0.000658489452791
0.029145072437
-0.000277696304534
0.0290979886186
8.31121298988e-05
0.02900136085
0.000423836820766
0.0288583139503
0.000744509623703
0.0286719323185
0.00104526612327
0.0284452454997
0.00132635490642
0.0281812127515
0.00158811430975
0.0278827159523
0.0018309661327
0.0275525458658
0.00205540240109
0.0271933986
0.00226197881074
0.0268078641643
0.00245130256163
0.0263984256682
0.00262402748197
0.025967449656
0.00278084274214
0.0255171875102
0.00292246918777
0.0250497674624
0.0030496485849
0.024567197964
0.00316314061963
0.0240713614376
0.00326371240798
0.0235640195656
0.00335213587275
0.02304680899
0.00342917750498
0.0225212485063
0.00349559602981
0.0219887368046
0.00355213259253
0.0214505615023
0.00359950890675
0.0209078989356
0.00363841826312
0.0203618247874
0.00366952449191
0.0198133156459
0.00369345426701
0.0192632607832
0.00371079732468
0.0187124650205
0.00372210053865
0.018161661005
0.0037278697196
0.0176115126813
0.00372856574655
0.0170626273185
0.00372460811433
0.016515558875
0.00371637318859
0.0159708190215
0.00370419938197
0.0154288796804
0.00368838730343
0.0148901824242
0.00366920623966
0.0143551396819
0.00364689576365
0.0138241420861
0.00362167297661
0.0132975580148
0.00359373496618
0.0127757387317
0.00356326619787
0.0122590162414
0.00353044117763
0.011747706314
0.00349543134874
0.0112421048358
0.00345840733722
0.0107424890505
0.00341954482805
0.0102491128318
0.00337902591408
0.00976220662415
0.00333704355519
0.00928197215106
0.00329380171885
0.00880858163557
0.00324951825353
0.00834217253171
0.00320442372568
0.00788284658628
0.0031587627257
0.00743066509719
0.00311279149524
0.0069856483083
0.00306677789174
0.00654777159526
0.00302099806796
0.0061169655166
0.00297573543713
0.00569311310942
0.00293127676528
0.0052760507439
0.00288791057241
0.00486556650202
0.00284592306561
0.00446140179458
0.00280559644907
0.00406325059635
0.00276720520858
0.00367076179525
0.00273101497349
0.00328353944127
0.00269727991152
0.0029011460122
0.00266624300952
0.00252310670564
0.00263813642864
0.00214891735423
0.00261318335578
0.0017780567358
0.00259159994776
0.00141002273406
0.00257360073989
0.00104437329375
0.00255934295421
0.0006808735994
0.00254822956057
0.000321291887254
0.00252722642995
0.00226612209223
0.00172055998899
-0.0125210372789
0.00362519049498
-0.0138723908597
0.00551938450365
-0.0138162318944
0.00738149093264
-0.0136121751551
0.00920057951406
-0.0133366608662
0.0109671557294
-0.0129983302575
0.012672740432
-0.01260263087
0.0143099211221
-0.0121553625736
0.0158723945543
-0.0116627081247
0.0173549738242
-0.011131065691
0.0187535666205
-0.0105668830081
0.0200651287907
-0.00997651508684
0.0212875991185
-0.0093661007165
0.0224198206887
-0.0087414637962
0.0234614506932
-0.00810803453302
0.0244128659283
-0.00747079253461
0.0252750624044
-0.00683423049617
0.0260495591763
-0.00620233657043
0.0267383021144
-0.00557859770835
0.0273435803721
-0.00496601689427
0.0278679480992
-0.00436714838647
0.0283141648637
-0.00378413814562
0.0286851428965
-0.00321877455294
0.0289839133476
-0.00267253279626
0.0292135953372
-0.00214662084007
0.0293773788163
-0.00164201079202
0.0294785035276
-0.00115946871165
0.0295202461209
-0.000699569607304
0.029505899515
-0.000262714501292
0.0294387584368
0.000150862418879
0.0293220984592
0.00054107939656
0.0291591594736
0.000908005842028
0.0289531297543
0.00125182743532
0.0287071315243
0.00157286036747
0.0284242065328
0.00187152224347
0.0281073080175
0.00214832444881
0.0277592895114
0.00240385786349
0.0273828997625
0.00263878367961
0.0269807744776
0.00285382157032
0.0265554331984
0.00304974192912
0.0261092731705
0.00322735589074
0.0256445677449
0.00338750839258
0.0251634620802
0.00353106921073
0.0246679730816
0.00365892633366
0.0241599869934
0.00377197746388
0.0236412610908
0.00387112348179
0.0231134233049
0.0039572601892
0.0225779758935
0.00403127194254
0.0220362972334
0.00409402375246
0.0214896475944
0.00414635542667
0.0209391730487
0.00418907440845
0.0203859132274
0.00422295099364
0.0198308070515
0.00424871248556
0.0192747020498
0.00426704010908
0.0187183613083
0.00427856503704
0.0181624736448
0.00428386750708
0.0176076609797
0.00428347509689
0.0170544885059
0.00427786426472
0.0165034715951
0.00426746093264
0.0159550850867
0.0042526443375
0.0154097689295
0.00423374966562
0.0148679358533
0.00421107377249
0.0143299751354
0.00418487932342
0.0137962581505
0.00415540170327
0.013267139943
0.00412285394661
0.0127429624581
0.00408743402631
0.0122240539045
0.0040493297862
0.0117107297708
0.00400872580045
0.0112032902629
0.00396580758862
0.0107020194811
0.00392076734888
0.0102071814454
0.00387380688624
0.00971901798948
0.00382514172849
0.00923774403912
0.00377500242978
0.0087635448743
0.00372363682889
0.00829657135883
0.00367130964598
0.00783693720554
0.0036183029046
0.00738471479546
0.00356491399578
0.00693993297178
0.00351145451342
0.00650257393094
0.00345824716434
0.00607257188528
0.00340562342898
0.00564981128606
0.00335391982585
0.0052341264964
0.00330347489562
0.00482530136879
0.0032546253792
0.00442306993051
0.00320770305508
0.00402711722287
0.00316303140156
0.00363708107437
0.00312092282902
0.00325255448482
0.00308167643493
0.0028730895072
0.00304557631551
0.00249820216381
0.00301289017509
0.00212738113775
0.00298386970004
0.00176010371554
0.00295874965244
0.00139584332932
0.00293773461415
0.00103409586285
0.00292095586398
0.000674506509914
0.00290769332829
0.000318552645154
0.00288305420838
0.00258460800251
0.00178642731932
-0.0143064885693
0.00376308728545
-0.0158480132943
0.00572742764058
-0.0157795285922
0.00765627855785
-0.0155399831319
0.00953773689247
-0.0152170772806
0.0113615317664
-0.014821084053
0.0131185955397
-0.014358655983
0.0148011175633
-0.0138368478429
0.0164025740557
-0.0132631323826
0.017917723278
-0.0126451870877
0.0193425597615
-0.0119906990835
0.0206742498604
-0.0113071926902
0.0219110414926
-0.0106018906692
0.023052166213
-0.00988159879759
0.0240977266329
-0.0091526196459
0.025048581914
-0.00842068860476
0.0259062281564
-0.00769093541147
0.0266726820588
-0.00696786908051
0.0273503702991
-0.00625538554308
0.0279420289539
-0.00555679832729
0.0284506193882
-0.00487488510987
0.0288792592263
-0.00421194996098
0.02923117489
-0.00356988756039
0.0295096668339
-0.00295024945986
0.0297180918065
-0.002354297042
0.0298598478484
-0.00178304632036
0.0299383667673
-0.00123729409248
0.0299571001755
-0.000717637832737
0.0299195076613
-0.000224483652748
0.0298290367454
0.000241943836265
0.0296891073856
0.000681593004404
0.0295030920337
0.00109457863482
0.029274296151
0.0014811554452
0.0290059468596
0.0018417164336
0.0287011795317
0.00217677230891
0.0283630273787
0.002486935631
0.0279944141282
0.0027729074949
0.0275981474593
0.0030354646538
0.0271769136206
0.00327544845057
0.026733273269
0.00349375477211
0.0262696572061
0.00369132449546
0.0257883639367
0.00386913500481
0.0252915565491
0.00402819117628
0.0247812619563
0.00416951747228
0.024259369298
0.00429414895179
0.0237276310745
0.00440312348525
0.0231876635225
0.00449747271173
0.0226409499014
0.00457821431644
0.0220888431991
0.00464634319354
0.0215325717303
0.00470282412216
0.0209732443123
0.0047485837401
0.0204118580594
0.00478450427153
0.0198493057789
0.00481141712313
0.0192863854674
0.00483009845587
0.0187238092867
0.00484126519128
0.0181622139268
0.00484557306669
0.0176021702086
0.00484361555093
0.0170441932914
0.00483592468751
0.0164887518543
0.00482297300884
0.0159362771249
0.00480517703861
0.0153871706567
0.00478290185255
0.0148418113371
0.0047564667285
0.0143005610231
0.0047261516492
0.0137637689855
0.00469220428984
0.013231774988
0.00465484752268
0.0127049109914
0.0046142867911
0.0121835016469
0.00457071760843
0.0116678634471
0.00452433236598
0.0111583029406
0.00447532689293
0.0106551138284
0.00442390589712
0.0101585734962
0.00437028786418
0.00966893876494
0.00431470856982
0.00918644149539
0.00425742387871
0.00871128380366
0.00419871108627
0.00824363354341
0.0041388695045
0.00778361976919
0.00407821970837
0.00733132880802
0.00401710210294
0.00688680062544
0.00395587444885
0.0064500260039
0.00389490885255
0.00602094424726
0.00383458814569
0.00559944171538
0.00377530188403
0.00518535107141
0.00371744224976
0.00477845116979
0.00366139968223
0.00437846788683
0.00360755894434
0.00398507523818
0.00355629495744
0.00359789793308
0.00350796959192
0.00321651401897
0.00346292813002
0.00284045926444
0.00342149691689
0.00246923361903
0.00338398118657
0.00210230794799
0.00335066175569
0.00173912998407
0.00332179096174
0.0013791437715
0.00329759196354
0.00102179148544
0.00327818976291
0.000666600440982
0.0032627483177
0.000314909100158
0.00323460878339
0.00289945742333
0.00186378303184
-0.0161692886158
0.00392495881801
-0.0179081405875
0.00597145399233
-0.017824971476
0.00797825571253
-0.0175457320172
0.00993228073306
-0.0171700491073
0.0118223368244
-0.0167100877674
0.0136386822845