/*--------------------------------*- C++ -*----------------------------------*\
| =========                 |                                                 |
| \\      /  F ield         | OpenFOAM: The Open Source CFD Toolbox           |
|  \\    /   O peration     | Version:  v1906                                 |
|   \\  /    A nd           | Web:      www.OpenFOAM.com                      |
|    \\/     M anipulation  |                                                 |
\*---------------------------------------------------------------------------*/
FoamFile
{
    version     2.0;
    format      ascii;
    class       volScalarField;
    location    "464";
    object      pa;
}
// * * * * * * * * * * * * * * * * * * * * * * * * * * * * * * * * * * * * * //

dimensions      [0 2 -2 0 0 0 0];


internalField   nonuniform List<scalar> 
9216
(
914.917509921
914.613134895
913.983460432
913.023005714
911.737158065
910.131937691
908.214856737
905.994765687
903.481753728
900.686978535
897.622578168
894.301483259
890.737339914
886.944309085
882.937010805
878.730317912
874.339329993
869.779166531
865.064975356
860.211727979
855.234263957
850.147089127
844.964454337
839.700156197
834.367646779
828.979836035
823.549227993
818.087724423
812.60678289
807.11722172
801.629395001
796.153001412
790.697272316
785.270780024
779.881636005
774.537306727
769.244815773
764.010564649
758.840536729
753.74012521
748.71433557
743.767621602
738.904083621
734.127313437
729.440586066
724.846714144
720.34823121
715.947255886
711.645665274
707.444968856
703.346470841
699.351153637
695.459828382
691.673027593
687.991143442
684.414329153
680.942624975
677.575867818
674.313805137
671.156012395
668.101995392
665.151115131
662.302679322
659.555874342
656.909846812
654.363642366
651.916278245
649.566688641
647.313789306
645.156429187
643.093447978
641.123633764
639.245774372
637.458620665
635.760932415
634.151446868
632.628919725
631.192098537
629.839759252
628.570683974
627.383693399
626.277628465
625.251378849
624.303868041
623.434077932
622.641036779
621.923839643
621.281638344
620.713656522
620.21917842
619.797551715
619.448159162
619.170366211
618.96330392
618.823313685
618.767981242
915.220932908
914.914838686
914.283526348
913.318738723
912.026717449
910.413770138
908.487572208
906.257122196
903.732643759
900.925444746
897.84780032
894.512795736
890.934209796
887.126353577
883.103966209
878.882058467
874.475828934
869.900518137
865.171349624
860.303397347
855.311552943
850.210406623
845.014239405
839.736916171
834.391900024
828.992155518
823.5501817
818.077923667
812.586820948
807.087726082
801.590965607
796.106263584
790.642812519
785.209204887
779.813509965
774.463209069
769.165278452
763.926130032
758.751697113
753.647379938
748.618132626
743.668413394
738.802271151
734.023300186
729.334725079
724.739359571
720.239688628
715.837831166
711.535618283
707.33455942
703.235915952
699.240670344
695.349594482
691.563221363
687.881907748
684.305807999
680.834930861
677.469115119
674.208080545
671.051405188
667.99857072
665.048941289
662.201803669
659.456347712
656.811701848
654.266915233
651.820989194
649.472861221
647.221432967
645.065556207
643.004057951
641.035728461
639.159343969
637.373656753
635.677415845
634.069359116
632.548232238
631.112782635
629.761776882
628.493996313
627.308252922
626.203386394
625.178278477
624.231851163
623.363079428
622.57099025
621.854673532
621.213281635
620.646038349
620.152239062
619.731259766
619.382566718
619.105752157
618.900661313
618.76783645
618.712600987
915.852139499
915.541338833
914.904296553
913.930853858
912.62734997
911.000230036
909.057361054
906.807962842
904.262493039
901.432510534
898.330541341
894.96992998
891.364702676
887.529419406
883.479046656
879.228819851
874.79413372
870.190421026
865.433064839
860.537296131
855.518128974
850.390276752
845.168108809
839.865583219
834.496222003
829.073057639
823.608623605
818.114912035
812.603376742
807.084899993
801.569805746
796.067833667
790.588161032
785.139383703
779.72954394
774.366116789
769.056043192
763.805721061
758.621041987
753.507386159
748.469661475
743.512301594
738.639306374
733.85424245
729.160284047
724.560215471
720.056471421
715.651140825
711.346005883
707.142546634
703.041978039
699.045254744
695.153105622
691.366038234
687.684370387
684.108233923
680.637603044
677.272297178
674.012005998
670.856291295
667.804608827
664.856309264
662.010657139
659.266831091
656.623940321
654.081024403
651.637067718
649.290999164
647.041705025
644.888028887
642.828783366
640.862750477
638.988692577
637.205353342
635.511468162
633.905765818
632.386978465
630.95384398
629.605115591
628.339564797
627.1559906
626.053222851
625.030130973
624.085627549
623.218676388
622.428296181
621.713567804
621.073638028
620.507726366
620.015129855
619.595232231
619.24751614
618.971588587
618.767243532
618.634747487
618.572705942
916.822513396
916.506295147
915.860299229
914.873334657
913.551934375
911.902774635
909.93401481
907.655211374
905.07718761
902.211889639
899.072238926
895.671979429
892.025528098
888.147825902
884.054198855
879.760223043
875.281604288
870.634063156
865.833237329
860.894588777
855.833329389
850.664349408
845.402164236
840.060861247
834.654064285
829.194895311
823.695953056
818.169286407
812.626384358
807.078158912
801.534944303
796.006487786
790.501956992
785.029936719
779.598442427
774.214923336
768.886280562
763.618874573
758.418547112
753.290632108
748.239980299
743.270972769
738.387547354
733.59321407
728.891082483
724.283878327
719.773971085
715.363391126
711.053856775
706.846791323
702.74334891
698.744430807
694.850709538
691.06264389
687.380500823
683.80436883
680.334177331
676.96970816
673.710612357
670.556419739
667.50655319
664.560336459
661.717006218
658.975718366
656.335558244
653.795545832
651.354644556
649.011765792
646.76577672
644.615504512
642.559743636
640.59726004
638.726798222
636.947085626
635.256839683
633.654772539
632.139598158
630.710037397
629.36482517
628.102715805
626.922490181
625.822961233
624.802980933
623.86144578
622.997303462
622.209558202
621.497277037
620.859595069
620.295721698
619.804946523
619.386647067
619.040298163
618.765483793
618.561915556
618.429686098
618.366225107
918.136065111
917.812878941
917.154644554
916.149161406
914.803260557
913.123954047
911.11980903
908.800846688
906.178396362
903.264937385
900.073937455
896.619688392
892.917144918
888.981767662
884.829375334
880.476005514
875.937788397
871.230831256
866.371117473
861.374416368
856.256207332
851.03161324
845.715346602
840.3216626
834.864322799
829.356563341
823.811072037
818.239968139
812.654789884
807.066483548
801.485399629
795.921289802
790.383311081
784.880027908
779.419422551
774.008904123
768.65532301
763.364984106
758.143664971
752.996632303
747.928662818
742.94406209
738.046687322
733.239967796
728.526928789
723.910212921
719.392104494
714.974551047
710.65918741
706.447356786
702.340133829
698.338344612
694.442588114
690.653254514
686.97054459
683.394485923
679.924949897
676.561665585
673.304234229
670.152140813
667.10476613
664.161396218
661.321232299
658.583398445
655.946949805
653.410878937
650.974122813
648.635568296
646.394058395
644.248397331
642.197356462
640.239679286
638.374087353
636.599285458
634.91396773
633.316823138
631.806541836
630.381820999
629.041371401
627.783923498
626.608234132
625.513092728
624.497327961
623.559813896
622.699476452
621.915299336
621.206330212
620.571686424
620.010560954
619.522228254
619.106050428
618.761482615
618.488078017
618.285491239
618.15373884
618.090042163
919.799406688
919.467405445
918.793494847
917.764253535
916.386920554
914.668960738
912.619479595
910.249107137
907.569832945
904.594829619
901.338273102
897.815163053
894.041147097
890.032352673
885.805228997
881.376401284
876.76253867
871.980236477
867.045913367
861.975722609
856.785477344
851.490587873
846.10601056
840.646205697
835.125104165
829.556080166
823.951930566
818.32485838
812.686461714
807.047725864
801.419020378
795.810098738
790.230103384
784.687569619
779.190437152
773.746061433
768.361228415
763.04217012
757.794582948
752.623646309
747.534043514
742.529982648
737.615219259
732.793078748
728.066480159
723.437959397
718.909693425
714.483523607
710.160979594
705.943302086
701.831465696
697.826200428
693.928012855
690.137205711
686.45389684
682.878036434
679.409423417
676.047720087
672.792465821
669.643089123
666.598918777
663.659193546
660.823071107
658.089635803
655.45790586
652.92683971
650.495342026
648.162269176
645.926434603
643.786613906
641.741550025
639.789958337
637.930531985
636.161947245
634.482869199
632.891957499
631.387872444
629.969281147
628.634863958
627.383320948
626.213378549
625.123796174
624.113372902
623.18095404
622.325437651
621.545780873
620.841006134
620.210207116
619.652554567
619.167301765
618.753789569
618.411450636
618.139810855
617.938489943
617.807475718
617.744013582
921.820932663
921.478068335
920.784805716
919.72622143
918.310080106
916.544428288
914.439058036
912.005370723
909.256188959
906.205555875
902.868533583
899.261003279
895.399472454
891.300891956
886.982486616
882.461600547
877.755559348
872.881548997
867.856512283
862.697061403
857.41940626
852.039296225
846.571973965
841.032138886
835.433918645
829.790846842
824.115845929
818.42121442
812.718618087
807.019084897
801.333003712
795.6701265
790.039574627
784.449844864
778.908822716
773.423795867
768.001470049
762.647986714
757.368942226
752.169408356
747.053953905
742.026667239
737.091179644
732.250689238
727.507985422
722.865473517
718.325199632
713.888875329
709.557902183
705.33339573
701.216208948
697.206954736
693.306027589
689.513623929
685.829761357
682.254296338
678.786940631
675.427276068
672.174768047
669.028777421
665.988571223
663.053331959
660.222165961
657.494110585
654.868140763
652.343174715
649.918079334
647.59167505
645.362740652
643.230017868
641.19221613
639.24801731
637.396080782
635.635048595
633.963551027
632.380212312
630.883656739
629.472514906
628.145430291
626.901065908
625.738111184
624.655288817
623.651361746
622.725139972
621.875487385
621.101328325
620.401654028
619.775528727
619.222095447
618.740581395
618.330302681
617.99066726
617.721177255
617.521431337
617.391401889
617.328416305
924.210976176
923.855001623
923.138405732
922.044448278
920.581550754
918.758489738
916.585913812
914.076182237
911.243146394
908.101919503
904.668647176
900.96028348
896.994376778
892.788869904
888.36191675
883.731717896
878.916375886
873.933771161
868.801457982
863.536579728
858.155801664
852.675259056
847.11051798
841.476545999
835.787690369
830.057661508
824.29952069
818.525670881
812.747850993
806.977133093
801.223923971
795.497968513
789.808358575
784.163541389
778.571334863
773.038943082
767.572974279
762.179460157
756.863876874
751.63116694
746.485762367
741.431608451
736.472188491
731.610548902
726.849324926
722.190766479
717.636764219
713.188875418
708.848349646
704.616153877
700.492996949
696.479353082
692.575484292
688.781461534
685.09718439
681.522399247
678.056715808
674.699622015
671.450497261
668.308624092
665.273198341
662.343337965
659.518090596
656.796440109
654.177312266
651.659579757
649.242066674
646.923552756
644.70277741
642.578443801
640.54922299
638.61375835
636.770670211
635.018560901
633.356020088
631.78163055
630.293974239
628.891638737
627.573223926
626.337348956
625.182659326
624.107834125
623.111593252
622.192704655
621.349991414
620.582338691
619.888700385
619.268105512
618.719664152
618.242572822
617.836119119
617.499685641
617.232751692
617.034896901
616.906082992
616.843735455
926.981988012
926.610422362
925.866133361
924.730212869
923.21189552
921.320861678
919.068816211
916.469292558
913.537396342
910.289537249
906.743166363
902.916522402
898.828393257
894.497895581
889.944276192
885.186736025
880.24427868
875.135582975
869.878899841
864.491971488
858.991971171
853.395459988
847.718357452
841.975921818
836.182736898
830.352702792
824.499028869
818.634228748
812.770117206
806.917809957
801.087727459
795.289600373
789.532480396
783.824752022
778.174149859
772.587776922
767.072124582
761.633094229
756.276019861
751.00569192
745.826381782
740.741867234
735.755458431
730.870024576
726.088020893
721.411515975
716.842219159
712.381507853
708.030454535
703.789853212
699.660245119
695.641943377
691.735056446
687.939510082
684.255067734
680.681349114
677.217847014
673.863942149
670.618916262
667.481963321
664.452199165
661.52866951
658.710356746
655.996185483
653.385027312
650.875704767
648.466994939
646.157632721
643.946314096
641.831699413
639.81241699
637.887066964
636.054225632
634.312450178
632.660283945
631.096262121
629.618917936
628.226789212
626.918425339
625.692394465
624.547290987
623.481743105
622.494420505
621.584041944
620.749382799
619.989282344
619.302650827
618.68847612
618.145829932
617.673873529
617.271862761
616.939151466
616.675195279
616.479556933
616.352182307
616.290603525
930.148745499
929.758824952
928.982011852
927.796844575
926.213557359
924.242944506
921.898004513
919.193700252
916.146653245
912.77482979
909.097237139
905.133635572
900.904270809
896.429631234
891.730231364
886.826423888
881.738240408
876.485261733
871.086516533
865.560407039
859.92465849
854.196288345
848.391590162
842.526126848
836.614728739
830.671492874
824.709782142
818.742223827
812.780709119
806.836394429
800.9197076
795.040355408
789.207336276
783.428956037
777.712848132
772.065994522
766.494748531
761.004858578
755.60149305
750.289265745
745.072262245
739.954066797
734.937789976
730.02609677
725.221235207
720.52506519
715.939087516
711.464472777
707.102089959
702.852534468
698.716155296
694.693081087
690.783244761
686.986406557
683.302175147
679.730026831
676.269322521
672.919322683
669.679200058
666.548050451
663.52490153
660.608720029
657.798417377
655.092854204
652.490843799
649.991154976
647.59251442
645.293608946
643.093087698
640.98956466
638.981621445
637.067810668
635.246659779
633.516675602
631.8763494
630.32416263
628.858593186
627.478122234
626.181241408
624.966460446
623.832315025
622.77737485
621.800251743
620.899607798
620.074163343
619.322704763
618.644091958
618.037265465
617.501253068
617.03517579
616.638253199
616.309808334
616.049270623
615.856181308
615.730469791
615.669783179
933.72860638
933.317215123
932.502466276
931.259910134
929.601012509
927.5379379
925.085266233
922.259693372
919.079664293
915.565001852
911.736555171
907.615871068
903.224894784
898.585701374
893.720260677
888.650235617
883.396815774
877.980585367
872.421426014
866.738451429
860.949970983
855.07347598
849.125642009
843.122339669
837.078647052
831.00885951
824.926494736
818.844294403
812.774224452
806.72747739
800.714479556
794.744901791
788.827672834
782.971001286
777.1823984
771.468702769
765.836105895
760.29017876
754.835898618
749.477676569
744.219385452
739.064388557
734.015568763
729.0753584
724.245769468
719.528424286
714.92458626
710.43519064
706.060874968
701.802008922
697.658723275
693.630937559
689.718386215
685.920642788
682.237142078
678.667199877
675.210030357
671.864760874
668.630444438
665.506069725
662.49056908
659.582824446
656.781671819
654.085904217
651.494273797
649.005493139
646.618236308
644.331139691
642.142803131
640.051791329
638.056635888
636.155837951
634.347871657
632.631188314
631.004221421
629.465392391
628.013117029
626.645812573
625.361905351
624.15983879
623.03808185
621.995137575
621.029551861
620.139922103
619.324905836
618.583229035
617.913694203
617.315187935
616.786688008
616.327269943
615.936112921
615.612504078
615.355843594
615.165651065
615.041832301
614.982158459
937.741822119
937.305408788
936.446589025
935.137441571
933.390951541
931.220974012
928.644021949
925.678890207
922.346209937
918.668009121
914.667303859
910.367725378
905.793184962
900.967578932
895.914532895
890.65718659
885.218019168
879.618716331
873.880078602
868.021969274
862.0632972
856.022027156
849.915207794
843.759006165
837.568739202
831.358895452
825.1431458
818.934345428
812.744532763
806.584930177
800.465951699
794.397216672
788.387564524
782.44508415
776.577140505
770.790403208
765.090875864
759.483925102
753.974309834
748.566210455
743.263258633
738.068567488
732.984762562
728.01401329
723.158065141
718.418272119
713.79562958
709.29080706
704.904180869
700.635866106
696.485747672
692.453509964
688.538664707
684.740576718
681.058487104
677.491533854
674.038769463
670.699175786
667.471675904
664.355143443
661.348409266
658.450266145
655.659471447
652.974748523
650.394786896
647.918241911
645.543733987
643.269848006
641.095132962
639.018102277
637.037234801
635.150976806
633.357744862
631.6559298
630.043901574
628.520015141
627.082617107
625.730053224
624.460676426
623.272855503
622.164984056
621.135489821
620.182844023
619.305570832
618.502256587
617.771558878
617.112215169
616.52305105
616.002987893
615.551049833
615.166370024
614.848196691
614.59589681
614.408962019
614.28727443
614.228738657
942.211926845
941.74639124
940.836466263
939.450208341
937.602492119
935.309266551
932.589414532
929.464273153
925.957090902
922.092505067
917.896069637
913.393832918
908.611966616
903.576442667
898.312757465
892.845701496
887.199176704
881.39606228
875.458131124
869.406015095
863.259214714
857.036142997
850.754189541
844.429788254
838.078473754
831.714917109
825.352939425
819.005509914
812.684737958
806.401869561
800.167293545
793.990557867
787.880388559
781.84472813
775.890766715
770.024976205
764.253143178
758.580401011
753.011260936
747.549643119
742.19890779
736.961887156
731.840917911
726.837874627
721.954203759
717.190958294
712.548832776
708.02819852
703.629138697
699.351482853
695.194840477
691.158632982
687.242123762
683.444445644
679.764625576
676.201605994
672.754262969
669.421420796
666.201863399
663.094342428
660.097582667
657.210284779
654.431126173
651.758760107
649.191813857
646.728886092
644.368544219
642.109321817
639.949716751
637.888190038
635.923165842
634.053032593
632.276145394
630.590829664
628.995386012
627.488096225
626.067230314
624.73105442
623.477839535
622.305870766
621.213457151
620.198941673
619.260711554
618.397208409
617.606938421
616.88848207
616.240503632
615.661760023
615.151109115
614.707517421
614.330067083
614.017961064
613.770529203
613.587234895
613.467929013
613.410659059
947.166223022
946.66677426
945.697575518
944.222044874
942.257423832
939.822274527
936.938395999
933.630209582
929.924092808
925.847761377
921.429726506
916.698824028
911.683807761
906.413001102
900.914000408
895.213429592
889.336747004
883.30810973
877.15029896
870.88470817
864.53138909
858.109142905
851.635636097
845.127515408
838.600498296
832.069423712
825.548263464
819.050106709
812.587136815
806.170618901
799.8109007
793.517432413
787.298798154
781.162760828
775.116302442
769.165664199
763.316383931
757.573330487
751.940736594
746.422230904
741.020870521
735.739174175
730.5791565
725.542363206
720.629907212
715.842505522
711.180516743
706.643979
702.232647873
697.946033958
693.783439366
689.743992665
685.826681421
682.030381961
678.353885594
674.795921191
671.355173634
668.030298355
664.819931786
661.722698273
658.737213499
655.862085215
653.09591149
650.437277371
647.88475026
645.436874845
643.09216789
640.849113586
638.706159668
636.66171479
634.714147229
632.861785193
631.102918646
629.43580276
627.858662779
626.369700341
624.967100913
623.649042398
622.413704512
621.259278989
620.183980193
619.186056205
618.263799961
617.415560514
616.639754014
615.934874489
615.299504067
614.732322723
614.232117308
613.797789768
613.428364508
613.122995583
612.880970969
612.701718577
612.585058582
612.529190449
952.636393525
952.097353221
951.059275114
949.48023816
947.380487732
944.781873747
941.709804092
938.192447694
934.259919109
929.943551191
925.275282849
920.287143196
915.010817252
909.47727568
903.716460104
897.757019701
891.626104672
885.349224536
878.950182346
872.451090437
865.872465573
859.233387271
852.551689436
845.844145009
839.126603937
832.414059799
825.720646849
819.059594387
812.443172609
805.882663177
799.388352965
792.969561987
786.63469367
780.391290465
774.246086412
768.205055082
762.273450892
756.455845445
750.756160654
745.177701303
739.723188108
734.394792226
729.194171067
724.122505475
719.180538008
714.368612254
709.686713083
705.134507565
700.711386313
696.416504531
692.248822243
688.207142632
684.290147902
680.496431583
676.824526939
673.272930686
669.840122084
666.524577033
663.324777635
660.239217232
657.266401721
654.404847395
651.653076344
649.009609759
646.472960245
644.041623491
641.714070283
639.488739143
637.36403032
635.338301302
633.409864208
631.576985149
629.837885548
628.190745423
626.633708428
625.164888552
623.782378229
622.484257671
621.268605251
620.13350862
619.077076531
618.097450914
617.192819313
616.361427113
615.601589797
614.911704598
614.290261871
613.735855599
613.247193258
612.823104876
612.462551241
612.164630048
611.928582855
611.75380193
611.640068488
611.585742639
958.659281278
958.073823201
956.955404242
955.255989277
952.999685717
950.212526678
946.924411799
943.168072732
938.9780764
934.389984643
929.439679899
924.162821375
918.594396048
912.768337515
906.71719462
900.471847265
894.061277141
887.512411634
880.850061026
874.096965715
867.273956292
860.400208218
853.493547207
846.570740149
839.647703359
832.739583054
825.860715122
819.024517025
812.243377416
805.528594543
798.890369129
792.337845484
785.879193258
779.521682391
773.271751818
767.135065896
761.116559264
755.220472631
749.450384544
743.809242662
738.299396991
732.922635312
727.680220786
722.572931167
717.601099401
712.764655512
708.063169757
703.495897018
699.061821956
694.75970444
690.588124113
686.54552321
682.630246244
678.840575788
675.174763223
671.631054174
668.207707984
664.90301154
661.715287302
658.642896329
655.684236565
652.837737468
650.101851509
647.475043724
644.955779956
642.542514892
640.23368048
638.027675593
635.922857366
633.917534723
632.009964254
630.198348643
628.480837524
626.855530738
625.320483677
623.873714623
622.513213632
621.236952948
620.042898407
618.929021914
617.893314408
616.933799437
616.048546746
615.235686023
614.493420226
613.820038645
613.213929186
612.673590049
612.197640455
611.784830349
611.434049042
611.14433362
610.914873816
610.745018058
610.63450954
610.581877027
965.27789712
964.637673754
963.425027585
961.584952284
959.146613208
956.141428696
952.604927111
948.575398579
944.092694333
939.197280931
933.929533527
928.329194315
922.434937171
916.283990331
909.911793196
903.351682198
896.634623336
889.789021902
882.840648727
875.812717142
868.726127282
861.599859858
854.451456447
847.297479765
840.153831444
833.035841013
825.958140946
818.934437644
811.977299927
805.098048517
798.30675509
791.61231955
785.022603762
778.54453791
772.184209385
765.946928346
759.837272892
753.859120606
748.01567488
742.309493121
736.742519218
731.316120202
726.031125868
720.887870364
715.886235201
711.0256937
706.305357279
701.724023533
697.280226049
692.97228491
688.798356927
684.756483769
680.844636792
677.060756817
673.402788132
669.868705621
666.456535007
663.164365854
659.990357993
656.932741581
653.989811965
651.15991992
648.441458701
645.832848625
643.332520692
640.938899918
638.65038971
636.465357808
634.382124693
632.398954791
630.514050755
628.725550995
627.031530147
625.430002543
623.918928072
622.496220389
621.159756904
619.907390392
618.736961866
617.646314384
616.633307712
615.695833254
614.831829441
614.039296753
613.316312779
612.661046395
612.071771561
611.546879916
611.084892564
610.684470741
610.344425424
610.063724503
609.841500702
609.677058544
609.570093981
609.519311877
972.542744593
971.837362597
970.513358469
968.507860972
965.856790443
962.598596679
958.775902174
954.433762422
949.618253094
944.375462281
938.750809036
932.788563905
926.531469998
920.020395713
913.293982186
906.388284709
899.336436472
892.168388488
884.910792954
877.587097185
870.217891914
862.82150641
855.414764232
848.013724376
840.634183304
833.291758189
826.001583021
818.777847507
811.63341164
804.579622602
797.626342162
790.782117469
784.054395215
777.449677702
770.973635119
764.63117693
758.426491753
752.363066289
746.443700208
740.670528185
735.045051697
729.568177668
724.240261128
719.06114969
714.03022892
709.14646924
704.408475122
699.814537362
695.362688093
691.050757848
686.876432626
682.837309164
678.930945924
675.1549083
671.506806246
667.984323832
664.585239905
661.30744034
658.148921918
655.107789016
652.182243736
649.370571069
646.671120057
644.082282629
641.60247125
639.230096849
636.963548112
634.801173198
632.741264667
630.78204811
628.921674813
627.158218378
625.489675144
623.913968038
622.428953362
621.032430181
619.722151687
618.495838419
617.351192677
616.285914221
615.297716526
614.384343764
613.543587757
612.773305054
612.071433403
611.436007781
610.865175354
610.357209551
609.910522852
609.523678238
609.195399246
608.924579704
608.710289199
608.551779108
608.448699405
608.399937659
980.513597123
979.729834898
978.272916744
976.071231112
973.169949851
969.616835228
965.463493167
960.763172402
955.569188309
949.933951606
943.908425402
937.541802456
930.881252365
923.971638192
916.855157586
909.570911033
902.154446273
894.637363814
887.047095762
879.406978858
871.736719715
864.053278936
856.37206839
848.708177774
841.077210723
833.49533348
825.97859585
818.542030952
811.198970739
803.960766964
796.836917209
789.835431907
782.963184069
776.226135379
769.629465625
763.177641661
756.874440415
750.722940712
744.725515812
738.883846451
733.198953701
727.671242269
722.300548233
717.086187226
712.027001919
707.121410443
702.367458221
697.762874299
693.305132815
688.991517958
684.819190265
680.785250755
676.886800273
673.120991141
669.485069704
665.976408336
662.592526852
659.331103199
656.189974395
653.16712846
650.260689
647.468893605
644.790068126
642.22259807
639.764899285
637.415389051
635.172459491
633.034454147
630.999648944
629.066238037
627.232324699
625.495917443
623.854930501
622.307188714
620.850435512
619.482344015
618.200530134
617.002567656
615.886004705
614.848381303
613.887247933
613.000184361
612.184819026
611.43884783
610.760052933
610.146320221
609.595656217
609.106203262
608.676253604
608.304261891
607.988856328
607.728846899
607.523234242
607.37121666
607.272387829
607.225824001
989.261935699
988.382580663
986.764981514
984.328114061
981.130184974
977.23147597
972.694974904
967.583743284
961.959333701
955.881062177
949.405791079
942.587913294
935.479321632
928.129236435
920.583836307
912.885706951
905.073182943
897.179711366
889.233412538
881.257044618
873.268571916
865.282451437
857.311544775
849.369213233
841.47081043
833.633638032
825.875473929
818.212840756
810.659808674
803.227636672
795.925148682
788.759491056
781.736735842
774.862168529
768.140406184
761.57544645
755.170656891
748.928711902
742.851545178
736.940352345
731.195632176
725.617240404
720.204446267
714.955985782
709.870109786
704.944632174
700.176982771
695.564267859
691.10333895
686.79086843
682.623427672
678.597563356
674.709867238
670.957036437
667.335921578
663.843562055
660.47720765
657.234327392
654.112606149
651.109930874
648.224367731
645.454132498
642.797555881
640.253046156
637.819050982
635.494020479
633.276373347
631.164467457
629.156576265
627.250871491
625.445412574
623.738142323
622.126888371
620.609369375
619.183205098
617.845929563
616.595006426
615.42784635
614.341825622
613.334306239
612.402656593
611.54427308
610.756601577
610.037159033
609.383554121
608.793507169
608.264868516
607.795635539
607.383967868
607.028200777
606.726856729
606.478656417
606.282524722
606.13759656
606.043410998
605.999237986
998.874374856
997.876429501
996.061432166
993.338805107
989.785789448
985.479707698
980.497872083
974.914830114
968.801163573
962.223374965
955.244293481
947.923577408
940.318035138
932.481617246
924.465023831
916.314959792
908.073147441
899.775277118
891.450152248
883.119364028
874.797873896
866.495821492
858.221588073
849.985488137
841.802653564
833.692784931
825.67695318
817.774299939
810.000003035
802.364910406
794.876527712
787.540571038
780.362004207
773.345299492
766.494457504
759.813014089
753.303978468
746.969661203
740.811555253
734.830334623
729.025924548
723.397576643
717.943940595
712.663123793
707.552736245
702.609933984
697.831470734
693.213761388
688.752960203
684.445050409
680.285939011
676.271549078
672.397903678
668.661196621
665.057847823
661.584541782
658.23824939
655.016233654
651.91604091
648.935479307
646.072586949
643.325591881
640.692866746
638.172880259
635.764148534
633.465188079
631.274473321
629.190400003
627.211256267
625.335202198
623.560257698
621.884298793
620.305060361
618.820145074
617.427035966
616.123112657
614.905669333
613.771934775
612.719093633
611.744308918
610.844745726
610.017595277
609.260099731
608.569576089
607.943440004
607.379227573
606.874616217
606.427442994
606.035721353
605.697655591
605.411653537
605.176335673
604.990544809
604.853352867
604.764232859
604.722652849
1009.45759211
1008.30952545
1006.24708486
1003.171298
999.18844638
994.399203836
988.898502027
982.773754595
976.104802425
968.965026411
961.422791978
953.54274942
945.386656292
937.013590981
928.479504492
919.836174231
911.129706443
902.3988181
893.673242033
884.972757949
876.307522332
867.68043801
859.09202196
850.547075649
842.060731842
833.657794181
825.365622079
817.20791557
809.201364344
801.355560084
793.675365371
786.164085093
778.825233194
771.662401463
764.678969128
757.878075485
751.262516638
744.83434506
738.594621174
732.543439274
726.680079352
721.003119331
715.510530093
710.19974339
705.06768288
700.110794329
695.325091193
690.706219579
686.249547972
681.950277376
677.80355923
673.80461023
669.948814361
666.231807203
662.649539333
659.198318511
655.874830605
652.676141102
649.599678741
646.643204381
643.804767398
641.08265312
638.475323924
635.98135739
633.599384401
631.328030149
629.165861012
627.111339346
625.1627886
623.318369173
621.576065791
619.933684776
618.388860088
616.939065628
615.581632026
614.313766349
613.132573462
612.035079022
611.018253384
610.079037212
609.214367866