/*--------------------------------*- C++ -*----------------------------------*\
| =========                 |                                                 |
| \\      /  F ield         | OpenFOAM: The Open Source CFD Toolbox           |
|  \\    /   O peration     | Version:  v1906                                 |
|   \\  /    A nd           | Web:      www.OpenFOAM.com                      |
|    \\/     M anipulation  |                                                 |
\*---------------------------------------------------------------------------*/
FoamFile
{
    version     2.0;
    format      ascii;
    class       volVectorField;
    location    "810";
    object      Ua;
}
// * * * * * * * * * * * * * * * * * * * * * * * * * * * * * * * * * * * * * //

dimensions      [0 1 -1 0 0 0 0];


internalField   nonuniform List<vector> 
9216
(
(-0.006670006855 0.00667242144021 0)
(-0.00685692939408 0.0208086630404 2.37737741369e-27)
(-0.0068427899185 0.0350247641522 -4.61571098592e-31)
(-0.00679458941877 0.0492319427634 0)
(-0.00672711185949 0.063293152837 0)
(-0.00664197987722 0.0771731189614 0)
(-0.00654052263669 0.0908324809743 0)
(-0.0064238768052 0.104234667883 0)
(-0.00629284583827 0.117345561841 0)
(-0.00614853589158 0.130133380417 0)
(-0.00599175190377 0.142568907747 0)
(-0.00582365922184 0.154625380351 0)
(-0.00564504252101 0.166278655853 0)
(-0.0054570603264 0.177507017143 0)
(-0.00526040101475 0.188291232817 0)
(-0.00505613507251 0.198614273537 0)
(-0.00484477976561 0.208461273224 0)
(-0.00462724709311 0.217819177441 0)
(-0.00440382755093 0.226676628169 0)
(-0.00417522882692 0.235023573646 0)
(-0.0039414871204 0.242851111536 0)
(-0.00370309114307 0.250151098513 0)
(-0.00345982950595 0.256915987899 0)
(-0.00321199156094 0.263138475355 0)
(-0.0029591568359 0.26881136712 0)
(-0.0027014641572 0.273927295301 0)
(-0.00243835007543 0.278478642807 0)
(-0.00216987611353 0.282457351781 0)
(-0.00189542296641 0.285854927812 0)
(-0.00161506871655 0.288662356269 0)
(-0.00132824268492 0.290870226558 0)
(-0.00103512815032 0.292468744932 0)
(-0.000735310629315 0.293447903647 0)
(-0.000429226723205 0.293797739545 0)
(-0.000116757081609 0.293508610667 0)
(0.000201315207061 0.292571524261 0)
(0.00052471346829 0.290978536927 0)
(0.00085221476416 0.288723186222 0)
(0.00118307302512 0.285800944893 0)
(0.00151558663768 0.282209706474 0)
(0.00184853040371 0.277950229285 0)
(0.00217975369384 0.273026608578 0)
(0.00250760693362 0.267446637704 0)
(0.00282957427886 0.261222217826 0)
(0.00314366651551 0.254369597128 0)
(0.00344708729366 0.246909740393 0)
(0.00373754763758 0.238868468184 0)
(0.00401198221797 0.230276904837 0)
(0.00426773288791 0.221171595499 0)
(0.0045013815198 0.211595192812 0)
(0.00470976087572 0.201596576546 0)
(0.00488904999483 0.191231803714 0)
(0.00503559005935 0.180564034459 0)
(0.00514544016939 0.169664415068 0)
(0.00521496299058 0.158611304104 0)
(0.0052409708545 0.147490405945 0)
(0.00522097234287 0.136392745422 0)
(0.00515387087485 0.125413414546 0)
(0.00503978327794 0.114648119834 0)
(0.00488113673496 0.104190228823 0)
(0.00468176194351 0.0941262497884 0)
(0.00444741136502 0.0845328168813 0)
(0.00418397548202 0.0754743302216 0)
(0.00389849865741 0.067001738565 0)
(0.00359683391214 0.0591526439394 0)
(0.00328517114523 0.0519525036421 0)
(0.00297031272066 0.0454139504719 0)
(0.00266055621767 0.0395337157301 0)
(0.00236313917341 0.0342923198903 0)
(0.0020839874555 0.0296562633527 0)
(0.00182645887012 0.0255826697149 0)
(0.001592290069 0.0220234409782 0)
(0.00138144408522 0.01892916134 0)
(0.00119321226158 0.0162513434087 0)
(0.00102622759059 0.0139440043587 0)
(0.000879244131617 0.011963906407 0)
(0.000750871384305 0.0102706676936 0)
(0.000639720137276 0.008826704498 0)
(0.000543957449282 0.00759790401133 0)
(0.00046172069536 0.00655405020808 0)
(0.000391096105015 0.00566893528217 0)
(0.000330290707949 0.00492014119214 0)
(0.000277209340567 0.00428902450919 0)
(0.000228250712271 0.00376560410153 0)
(0.000176225043632 0.003292352148 0)
(0.000154489102585 0.00299088267652 0)
(0.000145840797447 0.00267912683263 0)
(0.000126831833533 0.00240558662535 0)
(0.000123667049888 0.00217342930324 0)
(0.00012822416576 0.00192058036852 0)
(0.000125002798981 0.00167359496105 0)
(0.000123095159124 0.00141963144371 0)
(0.000134563176663 0.0011539022454 0)
(0.000149022452165 0.000871640528273 0)
(0.00016626271813 0.000537746785257 0)
(0.000177590366829 0.000172686590325 0)
(-0.0208410968313 0.00689622128956 0)
(-0.0220030464896 0.0221022621963 0)
(-0.0219294395906 0.0372205516155 -2.44369788822e-27)
(-0.0217434501534 0.0523422324214 0)
(-0.021490187927 0.0672966045365 0)
(-0.0211749576931 0.0820542000355 0)
(-0.0208012376806 0.0965748128423 0)
(-0.0203727371749 0.11082010073 0)
(-0.0198929192804 0.124753886878 0)
(-0.0193658415783 0.138342445803 0)
(-0.0187952196141 0.151554727322 0)
(-0.0181853305188 0.164362377046 0)
(-0.0175398860839 0.176739818273 0)
(-0.016863073769 0.188664149006 0)
(-0.0161582870299 0.200115103118 0)
(-0.0154293155978 0.211074842008 0)
(-0.0146789553141 0.221527812632 0)
(-0.0139103491402 0.231460456533 0)
(-0.0131254953964 0.240860992264 0)
(-0.0123267360053 0.249719075197 0)
(-0.0115151781303 0.258025541865 0)
(-0.0106923224671 0.265772061256 0)
(-0.0098584096922 0.272950882459 0)
(-0.00901417509101 0.279554518519 0)
(-0.00815912586241 0.285575535808 0)
(-0.00729340541656 0.291006304951 0)
(-0.00641600714328 0.295838861063 0)
(-0.00552673043486 0.300064746808 0)
(-0.00462433793079 0.303674963957 0)
(-0.00370858920753 0.306659928473 0)
(-0.00277835391912 0.309009515227 0)
(-0.00183368617668 0.310713174831 0)
(-0.000873912822193 0.311760129508 0)
(0.000100218246634 0.312139536873 0)
(0.00108851205361 0.311840836449 0)
(0.00208917880446 0.310854104793 0)
(0.00310082678888 0.309170487989 0)
(0.00412033931185 0.306782673182 0)
(0.00514491074203 0.303685392615 0)
(0.00616998114669 0.299875946351 0)
(0.00719131526961 0.295354705573 0)
(0.00820301216564 0.290125605518 0)
(0.00919960024154 0.284196564283 0)
(0.0101741111461 0.277579879523 0)
(0.0111201226164 0.270292516442 0)
(0.0120298607484 0.262356414922 0)
(0.0128960848598 0.253798688635 0)
(0.0137102074173 0.244651961168 0)
(0.0144639245293 0.234954611741 0)
(0.0151474631108 0.22475132298 0)
(0.0157509482199 0.21409348233 0)
(0.0162630968779 0.203039988607 0)
(0.0166724415945 0.191657653854 0)
(0.0169669325644 0.180021903968 0)
(0.0171351215829 0.168216571727 0)
(0.0171669197268 0.156333690234 0)
(0.0170545284377 0.144471917972 0)
(0.0167941311519 0.132734771463 0)
(0.0163863062075 0.121227375215 0)
(0.0158384896417 0.110052570752 0)
(0.015163830772 0.0993055138693 0)
(0.0143805408964 0.0890695718108 0)
(0.0135082124754 0.0794143243234 0)
(0.0125691527944 0.0703937019244 0)
(0.0115820282585 0.0620466569802 0)
(0.0105645635363 0.0544011692462 0)
(0.00953885760515 0.0474728586559 0)
(0.0085318595743 0.0412587499393 0)
(0.00756791469307 0.0357357166988 0)
(0.00666574506834 0.0308641527899 0)
(0.00583598924315 0.0265941718431 0)
(0.00508323305931 0.0228711880737 0)
(0.00440687647224 0.0196402301019 0)
(0.00380379365284 0.0168484963793 0)
(0.00326933036547 0.0144466821442 0)
(0.00279914436186 0.0123889311694 0)
(0.00238898259791 0.0106322832896 0)
(0.00203434302373 0.00913642847212 0)
(0.00172930378502 0.00786470511951 0)
(0.00146761548732 0.00678499572037 0)
(0.00124325765487 0.00586958984739 0)
(0.00105077756239 0.0050944855511 0)
(0.000884582722443 0.00443865228464 0)
(0.00073873690738 0.00388418900109 0)
(0.000603139228738 0.00339410845605 0)
(0.00050726389915 0.00293425797404 0)
(0.000443109912559 0.00261498117778 0)
(0.000384182123583 0.00234384819631 0)
(0.000366042095496 0.00207945380403 0)
(0.000374906898597 0.00186555700699 0)
(0.00037452342454 0.00164753674575 0)
(0.000380425697665 0.00138375979555 0)
(0.00040303781605 0.0011133534954 0)
(0.000481412228958 0.00087267731319 0)
(0.000577368499496 0.000554441391937 0)
(0.000519485997104 0.00015207072452 0)
(-0.0352190603646 0.00695154343419 0)
(-0.037204199974 0.0222850679481 0)
(-0.0370532662149 0.0374954354097 -2.44707249888e-27)
(-0.0367331921518 0.0527266064481 0)
(-0.0363062950933 0.0677883594673 0)
(-0.0357777906084 0.0826498554197 0)
(-0.0351523636453 0.0972698885508 0)
(-0.0344355080511 0.111609611981 0)
(-0.0336330962003 0.125632444344 0)
(-0.032751560509 0.139304380628 0)
(-0.0317973970483 0.152594172517 0)
(-0.0307774124389 0.165473400883 0)
(-0.0296981634714 0.177916515108 0)
(-0.0285662643949 0.189900770624 0)
(-0.0273877798583 0.201406141324 0)
(-0.0261686055558 0.212415141321 0)
(-0.0249138341376 0.222912630576 0)
(-0.0236282210042 0.232885545348 0)
(-0.0223155412189 0.242322626229 0)
(-0.0209791487194 0.251214092452 0)
(-0.0196213374473 0.2595513331 0)
(-0.0182439952312 0.267326569507 0)
(-0.0168479739566 0.274532554474 0)
(-0.015433829608 0.281162266828 0)
(-0.0140011974455 0.287208659976 0)
(-0.0125496030734 0.292664424624 0)
(-0.0110778355533 0.297521815673 0)
(-0.00958481434008 0.301772506722 0)
(-0.00806895684229 0.305407515446 0)
(-0.00652909036802 0.30841716478 0)
(-0.00496382672128 0.310791131456 0)
(-0.00337250050138 0.312518531186 0)
(-0.00175452879588 0.313588077608 0)
(-0.000110397138574 0.313988326552 0)
(0.00155899433002 0.313707990988 0)
(0.00325136356562 0.312736317313 0)
(0.00496373758252 0.31106353565 0)
(0.00669153336236 0.308681361326 0)
(0.0084293223171 0.3055835356 0)
(0.0101700040075 0.301766384165 0)
(0.0119056671662 0.297229364492 0)
(0.0136268725585 0.291975582982 0)
(0.0153235894766 0.286012243702 0)
(0.0169845469811 0.279351030548 0)
(0.0185981540059 0.272008390689 0)
(0.0201518143179 0.264005767494 0)
(0.0216326817164 0.255369767561 0)
(0.023026834674 0.246132379299 0)
(0.0243197620137 0.236331227491 0)
(0.0254954492823 0.226010035068 0)
(0.0265367068916 0.215219202706 0)
(0.027424555481 0.204016668003 0)
(0.0281388324085 0.19246874475 0)
(0.0286585418614 0.180651013035 0)
(0.028963213925 0.168648665101 0)
(0.0290345112527 0.156556383901 0)
(0.0288580828292 0.144477138246 0)
(0.0284258132206 0.132520322961 0)
(0.0277377742915 0.120798873355 0)
(0.0268059575526 0.109424559655 0)
(0.025655107502 0.0985000688449 0)
(0.0243173669982 0.0881132541243 0)
(0.0228277341758 0.0783366188147 0)
(0.0212267449834 0.0692233431213 0)
(0.0195454295485 0.0608087601207 0)
(0.0178076525812 0.0531233426228 0)
(0.016052332945 0.046189756812 0)
(0.0143298797857 0.0400067957783 0)
(0.0126862113964 0.0345455269283 0)
(0.0111540558936 0.0297566273301 0)
(0.00975092982935 0.0255803746137 0)
(0.00848251511127 0.0219544075958 0)
(0.00734613183139 0.0188185015198 0)
(0.0063345209548 0.0161170906841 0)
(0.0054387789529 0.013800114913 0)
(0.00465109518458 0.0118220530761 0)
(0.00396509264654 0.0101398517726 0)
(0.00337369838929 0.0087119177252 0)
(0.00286648335535 0.00750026593718 0)
(0.00243203504657 0.00647270582388 0)
(0.00206020502459 0.00560220043168 0)
(0.00174226930255 0.00486536416025 0)
(0.00147002660648 0.00424189445552 0)
(0.0012368751655 0.00371610355888 0)
(0.00104170562657 0.00325097405094 0)
(0.000885792413598 0.00282553675972 0)
(0.000779261892673 0.00256253966059 0)
(0.000666771495263 0.00220781693656 0)
(0.000592237268933 0.00190819164453 0)
(0.000590780003339 0.00171510303168 0)
(0.000640473450524 0.00155574815997 0)
(0.000630885342434 0.0012260647125 0)
(0.000690325844452 0.000993645795482 0)
(0.000779015303761 0.000714065747206 0)
(0.000857230697403 0.000424990847743 0)
(0.000827199100123 0.00013095462559 0)
(-0.0497946087611 0.00700885263448 0)
(-0.05262498508 0.0224886284747 0)
(-0.0524090901706 0.0378226631199 2.44674726689e-27)
(-0.051952106319 0.053182769275 0)
(-0.0513433657938 0.0683697974824 0)
(-0.0505906045037 0.0833517028721 0)
(-0.0497005019389 0.0980861059016 0)
(-0.0486807740278 0.112533353806 0)
(-0.0475399097688 0.126656265649 0)
(-0.0462870450296 0.140420432098 0)
(-0.0449316370226 0.153794372907 0)
(-0.0434833668612 0.166749621431 0)
(-0.0419518019944 0.179260746489 0)
(-0.0403463265344 0.191305295929 0)
(-0.038675805007 0.202863684578 0)
(-0.0369485571493 0.213919012537 0)
(-0.0351720439657 0.224456837997 0)
(-0.0333529070709 0.234464894634 0)
(-0.0314966986691 0.243932780409 0)
(-0.0296080025584 0.25285161239 0)
(-0.0276902233105 0.261213676128 0)
(-0.0257457961895 0.269012067097 0)
(-0.0237760376159 0.276240351915 0)
(-0.0217814357689 0.282892246425 0)
(-0.019761549933 0.288961333854 0)
(-0.0177153629691 0.294440817166 0)
(-0.0156412121466 0.299323323375 0)
(-0.0135371855628 0.303600751695 0)
(-0.0114010740959 0.307264180329 0)
(-0.00923080427049 0.310303818776 0)
(-0.00702442099907 0.312709046931 0)
(-0.00478053609477 0.314468489873 0)
(-0.00249832487234 0.315570162168 0)
(-0.000178027947125 0.316001724502 0)
(0.00217906372066 0.315750801439 0)
(0.00457013318361 0.31480537968 0)
(0.0069908928064 0.313154288767 0)
(0.00943518147001 0.310787747861 0)
(0.0118951279002 0.307697962444 0)
(0.014360885041 0.303879745568 0)
(0.0168209503872 0.29933113004 0)
(0.0192620649187 0.294053938908 0)
(0.0216696759344 0.288054272164 0)
(0.0240279382818 0.281342889137 0)
(0.026320192726 0.273935459424 0)
(0.0285288890578 0.265852707174 0)
(0.0306358517776 0.25712046883 0)
(0.0326219041844 0.247769761878 0)
(0.0344667423438 0.23783694108 0)
(0.0361482382067 0.227364091156 0)
(0.0376420942295 0.216399725915 0)
(0.0389213337964 0.20499987602 0)
(0.039956515567 0.193229454177 0)
(0.0407164863508 0.181163711336 0)
(0.0411701459949 0.168889284005 0)
(0.0412890163044 0.156504484261 0)
(0.0410500706108 0.144118362639 0)
(0.0404386372129 0.131849037235 0)
(0.0394514018526 0.119821919025 0)
(0.0381042959729 0.108164699931 0)
(0.0364384249976 0.0969928538588 0)
(0.0345033857925 0.0864001488974 0)
(0.0323504754034 0.0764646791209 0)
(0.030048625435 0.0672365078281 0)
(0.0276387177728 0.0587379860794 0)
(0.0251343822064 0.0510050223149 0)
(0.0225943605507 0.0440798003146 0)
(0.0201053337165 0.0379663400595 0)
(0.0177433972379 0.0326238011945 0)
(0.0155574004136 0.0279841156647 0)
(0.0135692837693 0.0239702702539 0)
(0.0117823699227 0.0205073911166 0)
(0.0101883820765 0.0175274710206 0)
(0.00877288442101 0.0149713920713 0)
(0.00752031474632 0.0127892100976 0)
(0.00641892366965 0.0109375136636 0)
(0.00546193345396 0.00937400465255 0)
(0.00464158796628 0.0080542514 0)
(0.00394138051502 0.0069371892951 0)
(0.0033426619333 0.00599092469506 0)
(0.00283079119858 0.00519038616743 0)
(0.00239418025818 0.00451347598775 0)
(0.00202101271395 0.00394122635028 0)
(0.00170212160256 0.00346201943587 0)
(0.00143606369281 0.00302174114225 0)
(0.00124547641554 0.00267627845753 0)
(0.00109406030731 0.00236946283927 0)
(0.000954491383258 0.0020251512364 0)
(0.000880792506835 0.00178333956075 0)
(0.000820121978837 0.00149297106888 0)
(0.000833399698058 0.00125328509493 0)
(0.000928308050729 0.00108277593981 0)
(0.000935883258228 0.000770806429227 0)
(0.0010190352437 0.000526526460068 0)
(0.00110717959151 0.000315196246899 0)
(0.00108987676482 0.000102897145967 0)
(-0.0645168384019 0.00708284518594 0)
(-0.0681887348948 0.0227575927515 0)
(-0.0679064275011 0.0382632652635 0)
(-0.0673092635591 0.0537974612951 0)
(-0.0665138357989 0.0691529189615 0)
(-0.0655306611299 0.0842963757963 0)
(-0.0643686943728 0.0991840628909 0)
(-0.0630381607062 0.113775243541 0)
(-0.0615503497022 0.128031911599 0)
(-0.0599173548952 0.141919090598 0)
(-0.0581517561494 0.155404983304 0)
(-0.0562663626088 0.168461056401 0)
(-0.0542738960572 0.18106205229 0)
(-0.0521867525738 0.193185925482 0)
(-0.0500167060075 0.20481371071 0)
(-0.0477747108287 0.215929322454 0)
(-0.0454706517544 0.226519296103 0)
(-0.0431132154991 0.236572474448 0)
(-0.0407097151922 0.246079654072 0)
(-0.0382660571648 0.255033200359 0)
(-0.0357866615279 0.263426649779 0)
(-0.0332745362023 0.271254310883 0)
(-0.0307312952204 0.278510882833 0)
(-0.0281573291117 0.285191100964 0)
(-0.0255519001706 0.29128942349 0)
(-0.0229133811531 0.296799762642 0)
(-0.0202393987007 0.301715267662 0)
(-0.0175271153351 0.306028158109 0)
(-0.0147734054651 0.309729612995 0)
(-0.0119751744273 0.312809705983 0)
(-0.00912958000737 0.315257432506 0)
(-0.00623437065969 0.317060765348 0)
(-0.00328814447526 0.318206785211 0)
(-0.00029075422229 0.318681938306 0)
(0.00275643761832 0.318472361238 0)
(0.00585017620213 0.317564303567 0)
(0.00898510363676 0.315944651138 0)
(0.0121534711389 0.313601535625 0)
(0.0153450735189 0.310525012396 0)
(0.0185471535728 0.306707776091 0)
(0.0217445663894 0.302145872475 0)
(0.0249199312438 0.296839358219 0)
(0.0280540273821 0.290792851881 0)
(0.0311261201482 0.284015931797 0)
(0.034114419314 0.276523341351 0)
(0.0369963112845 0.268335009446 0)
(0.0397485257742 0.259475918376 0)
(0.0423468850829 0.249975930862 0)
(0.0447658392965 0.239869723313 0)
(0.0469775659143 0.229197028252 0)
(0.0489510298691 0.218003400659 0)
(0.0506510614458 0.20634163686 0)
(0.0520381379865 0.194273875801 0)
(0.0530692072452 0.181874040222 0)
(0.0537001087169 0.169229998829 0)
(0.0538893639315 0.156444510745 0)
(0.0536023388515 0.14363435526 0)
(0.0528141910895 0.130928643648 0)
(0.0515115729722 0.118470916818 0)
(0.0497107816029 0.106417370803 0)
(0.0474818527149 0.0949043714766 0)
(0.0448969558936 0.0840299713307 0)
(0.0420187777256 0.0738860073242 0)
(0.0389758842514 0.064515262377 0)
(0.03581461746 0.0558977745978 0)
(0.0324866066549 0.0480818571418 0)
(0.0290817038384 0.0411632178571 0)
(0.0257537892297 0.0351580057967 0)
(0.022625644348 0.0299994643853 0)
(0.0197630983916 0.0255841204504 0)
(0.0171858234915 0.0218067244084 0)
(0.0148879707569 0.0185746939512 0)
(0.0128501921196 0.015810040753 0)
(0.0110458634233 0.0134499084159 0)
(0.00944843636292 0.0114469181927 0)
(0.00804136295539 0.00976432940771 0)
(0.00682231265614 0.00836308000938 0)
(0.00578855103591 0.00719184822731 0)
(0.00491328046971 0.00620175609957 0)
(0.00416520225394 0.00536247662876 0)
(0.00352542197597 0.0046540313439 0)
(0.00298163942182 0.00405585565869 0)
(0.00251670293613 0.00355000037015 0)
(0.00211841515937 0.00312897370006 0)
(0.00177623927046 0.00271638662341 0)
(0.00159797452107 0.0024665548224 0)
(0.00144313450986 0.00216768392736 0)
(0.00127820173197 0.00184567315315 0)
(0.00112048923961 0.00149677999176 0)
(0.00107831444311 0.0012575343272 0)
(0.00104657137229 0.000983612787823 0)
(0.00113350766053 0.000815417182278 0)
(0.00123339224444 0.000620910867871 0)
(0.00122704883609 0.000382837927668 0)
(0.0012593514253 0.000218042280966 0)
(0.00123752922248 7.20500006479e-05 0)
(-0.0794356956475 0.00717511804288 0)
(-0.0839559681511 0.023097376838 0)
(-0.0836039478469 0.0388226700301 0)
(-0.0828612196324 0.0545784916736 0)
(-0.0818719280256 0.0701478406936 0)
(-0.0806495389977 0.0854960718791 0)
(-0.0792055369588 0.100577752336 0)
(-0.0775529517934 0.115350792935 0)
(-0.0757061479541 0.129776140356 0)
(-0.0736804796314 0.143818092801 0)
(-0.0714919208849 0.157444451482 0)
(-0.0691567083829 0.170626604371 0)
(-0.0666909731906 0.183339529689 0)
(-0.0641104004313 0.195561719604 0)
(-0.0614298891764 0.207275027204 0)
(-0.0586632574969 0.218464438771 0)
(-0.0558229629752 0.229117777774 0)
(-0.0529198897392 0.239225347476 0)
(-0.0499631685999 0.248779524684 0)
(-0.0469600835526 0.257774318339 0)
(-0.0439160226208 0.266204911592 0)
(-0.0408345228479 0.274067205436 0)
(-0.037717354467 0.281357383521 0)
(-0.0345646884781 0.288071513196 0)
(-0.0313752818845 0.294205195336 0)
(-0.0281467249035 0.299753268494 0)
(-0.024875682579 0.304709569915 0)
(-0.0215581844941 0.309066751094 0)
(-0.0181899011246 0.312816147685 0)
(-0.0147664722442 0.315947691654 0)
(-0.0112838409798 0.318449921707 0)
(-0.00773861114348 0.320310007927 0)
(-0.00412844538808 0.321513862072 0)
(-0.000452514794455 0.322046386989 0)
(0.00328809039181 0.321891805806 0)
(0.00708991890115 0.321034110306 0)
(0.0109467902592 0.319457636603 0)
(0.014849465141 0.317147757076 0)
(0.0187854616047 0.31409166927 0)
(0.022738983515 0.31027924696 0)
(0.0266910593703 0.305703899811 0)
(0.0306198344179 0.300363375378 0)
(0.034501070825 0.294260420058 0)
(0.0383087380141 0.287403224131 0)
(0.0420156664092 0.279805578837 0)
(0.0455940633739 0.271486729141 0)
(0.0490157873893 0.262470948565 0)
(0.0522521523857 0.252786976474 0)
(0.0552731920222 0.242467524433 0)
(0.0580463157633 0.231549193391 0)
(0.0605345377206 0.220073150511 0)
(0.0626946770213 0.208086938096 0)
(0.0644762080474 0.195647583761 0)
(0.0658218532734 0.182825696508 0)
(0.0666707593944 0.169709482061 0)
(0.066964508803 0.156406775862 0)
(0.0666536688037 0.14304326479 0)
(0.0656991875916 0.129758351938 0)
(0.0640620708679 0.116718578572 0)
(0.0617443170622 0.104135017372 0)
(0.058882037727 0.0921790384866 0)
(0.0555752783994 0.0809370663323 0)
(0.0518634022834 0.0705435627199 0)
(0.0480350854683 0.0610322935008 0)
(0.0441386904218 0.0522486993624 0)
(0.0399026438462 0.044272136508 0)
(0.0354941829699 0.0373470174373 0)
(0.0312106648024 0.0315102962767 0)
(0.0272499180984 0.0266331016504 0)
(0.0236881647912 0.0225442699421 0)
(0.0205253673544 0.01909511287 0)
(0.017734456777 0.0161717341682 0)
(0.0152779791861 0.0136853478742 0)
(0.0131097498809 0.0115696322542 0)
(0.0111838167959 0.00978471518285 0)
(0.0094761971105 0.00831139864825 0)
(0.00800103598679 0.00712119703856 0)
(0.00677743393054 0.00614521805913 0)
(0.00575618894392 0.00531383834888 0)
(0.0048785119196 0.00460306601863 0)
(0.00412465354053 0.00400682475403 0)
(0.00348958156974 0.0035047537335 0)
(0.00294589240731 0.00307783565655 0)
(0.00247921889598 0.00271655565524 0)
(0.00208771687695 0.00235610532954 0)
(0.00189329745404 0.00212141835114 0)
(0.00168953550701 0.0018024228952 0)
(0.00155889334158 0.00155376280474 0)
(0.00145941601808 0.00129534894044 0)
(0.00139824847058 0.00104800931283 0)
(0.00126432751888 0.000746720177144 0)
(0.0012729633735 0.000546024925855 0)
(0.00139704839852 0.000428597560159 0)
(0.00140525767017 0.000280863184806 0)
(0.00138583320156 0.000152228464641 0)
(0.0013634447535 5.00852718012e-05 0)
(-0.0945972517598 0.00728723736562 0)
(-0.0999767996967 0.0235121699081 0)
(-0.0995504715463 0.0395063408255 2.46469488439e-27)
(-0.098654976231 0.0555332014249 0)
(-0.0974624842844 0.0713637394115 0)
(-0.0959896026023 0.0869616107854 0)
(-0.0942506227122 0.102279362998 0)
(-0.0922617096607 0.117273254044 0)
(-0.0900406494257 0.131902948284 0)
(-0.0876064216731 0.146131856644 0)
(-0.0849787532306 0.159927295427 0)
(-0.0821776715555 0.173260569684 0)
(-0.0792230595092 0.186106968512 0)
(-0.076134226065 0.198445673698 0)
(-0.0729294929642 0.210259582713 0)
(-0.069625815435 0.221535047776 0)
(-0.0662384399329 0.232261535124 0)
(-0.062780621904 0.242431211872 0)
(-0.0592634076449 0.252038472897 0)
(-0.0556955028201 0.261079425051 0)
(-0.0520832247679 0.269551350858 0)
(-0.0484305515284 0.277452176073 0)
(-0.044739249984 0.284779965552 0)
(-0.0410090824888 0.291532467663 0)
(-0.0372380617144 0.297706721316 0)
(-0.0334227483249 0.303298730683 0)
(-0.0295585629228 0.308303205679 0)
(-0.0256401183571 0.312713360524 0)
(-0.021661558756 0.316520764379 0)
(-0.0176169277357 0.319715225006 0)
(-0.0135005759695 0.322284775418 0)
(-0.00930757324188 0.324215651581 0)
(-0.00503421628161 0.325492371021 0)
(-0.000678572830038 0.326097958697 0)
(0.00375896775182 0.326014271781 0)
(0.00827512748776 0.325222470233 0)
(0.0128632179818 0.323703652496 0)
(0.0175126944679 0.32143964943 0)
(0.0222088567687 0.318413960206 0)
(0.0269327369273 0.314612790447 0)
(0.0316612399055 0.310026127749 0)
(0.0363675539244 0.304648762828 0)
(0.0410218440568 0.298481138765 0)
(0.0455921625018 0.291529902584 0)
(0.0500454685199 0.283808036264 0)
(0.0543485513882 0.275334497823 0)
(0.0584686105554 0.266133377698 0)
(0.0623731855872 0.256232715909 0)
(0.0660292109968 0.245663286839 0)
(0.0694009926308 0.234457805734 0)
(0.0724473038091 0.222651238464 0)
(0.0751178639955 0.210282840792 0)
(0.0773504985535 0.197400651164 0)
(0.0790704714903 0.184068257764 0)
(0.0801947902173 0.170372381246 0)
(0.0806423307934 0.156427196276 0)
(0.080347533941 0.142368853937 0)
(0.0792586307638 0.128336906248 0)
(0.0772743525118 0.114515916129 0)
(0.0743252455849 0.101237164604 0)
(0.0707329022845 0.0887351398836 0)
(0.0666227878182 0.0770111642069 0)
(0.061855640967 0.0663455688486 0)
(0.0572085209326 0.0567903011252 0)
(0.0527549731472 0.0477653236371 0)
(0.0474734025897 0.0394375366321 0)
(0.0418024572325 0.0324715155188 0)
(0.0363728680898 0.0269140247982 0)
(0.0314966851339 0.0224772374295 0)
(0.027226686511 0.0188598423524 0)
(0.0235008556587 0.0158532859936 0)
(0.0202527341307 0.0133275591689 0)
(0.0174214663612 0.01118556228 0)
(0.014931602204 0.00935594807883 0)
(0.0126992407269 0.00781353819972 0)
(0.0106824424179 0.00658167493707 0)
(0.00893998448667 0.00566436738269 0)
(0.0075643878642 0.00494699817211 0)
(0.00644961076294 0.00430281993846 0)
(0.00546566896353 0.00373093015947 0)
(0.00460796671327 0.00326509177687 0)
(0.0039044676985 0.00287705989899 0)
(0.0032989759279 0.00253874625167 0)
(0.00277473686906 0.00224250900193 0)
(0.00238839981927 0.00196831843884 0)
(0.00217019526535 0.00173422170942 0)
(0.00197431021557 0.00147270730659 0)
(0.00179751842214 0.00120623103895 0)
(0.00170764251232 0.000981926401425 0)
(0.00158885687832 0.00074107764771 0)
(0.00154692413642 0.000557984533708 0)
(0.00143575711985 0.000350633239163 0)
(0.00144977487837 0.000240574150491 0)
(0.00151033009622 0.000173236159193 0)
(0.00147041650105 9.23127805659e-05 0)
(0.001445940075 3.01258000998e-05 0)
(-0.110050975552 0.00742044805999 0)
(-0.116303667321 0.024006500736 0)
(-0.115797372309 0.0403211108193 -2.46431495695e-27)
(-0.114740084826 0.0566708510712 0)
(-0.113332714985 0.0728121170292 0)
(-0.111595296746 0.0887064747005 0)
(-0.109545276753 0.104304025202 0)
(-0.107202354391 0.119559035424 0)
(-0.104588163887 0.134429630764 0)
(-0.101725753624 0.148878164379 0)
(-0.0986390481744 0.162871384253 0)
(-0.0953523086699 0.176380516143 0)
(-0.0918895981953 0.189381250375 0)
(-0.0882742605166 0.20185363413 0)
(-0.0845284182321 0.213781868743 0)
(-0.0806725030623 0.225154011086 0)
(-0.0767248313118 0.235961580609 0)
(-0.072701245148 0.246199077805 0)
(-0.0686148377544 0.255863427131 0)
(-0.0644757831976 0.264953365017 0)
(-0.0602912815022 0.273468801295 0)
(-0.0560656249878 0.281410186854 0)
(-0.0518003750903 0.288777920734 0)
(-0.0474946329362 0.29557182437 0)
(-0.0431453732623 0.301790700307 0)
(-0.0387478154049 0.30743197921 0)
(-0.0342958045573 0.31249144623 0)
(-0.0297821950567 0.316963029473 0)
(-0.025199235682 0.320838634234 0)
(-0.0205389762261 0.324107993813 0)
(-0.0157937301757 0.326758621977 0)
(-0.0109565460539 0.328775722488 0)
(-0.00602182155339 0.330142216088 0)
(-0.000985966862952 0.330838918998 0)
(0.00415188770671 0.330844844956 0)
(0.00938915204697 0.330137687459 0)
(0.0147190640059 0.328694516613 0)
(0.020130063629 0.326492693795 0)
(0.0256053343188 0.323510994088 0)
(0.0311225913826 0.319730897031 0)
(0.0366542056626 0.315137968962 0)
(0.0421677262637 0.309723217913 0)
(0.0476268334374 0.303484254566 0)
(0.0529926795986 0.296426063777 0)
(0.0582254761433 0.288561174556 0)
(0.063286069849 0.279909073325 0)
(0.0681371045107 0.270494786001 0)
(0.0727433323114 0.260346790073 0)
(0.0770705376612 0.249494567217 0)
(0.0810828090105 0.237966561115 0)
(0.0847378764358 0.22578935532 0)
(0.0879810119361 0.212989543902 0)
(0.0907385134112 0.199599693635 0)
(0.0929139880748 0.185669583901 0)
(0.094392807713 0.17128101732 0)
(0.0950607692612 0.156559251424 0)
(0.0948412891723 0.141659354464 0)
(0.0937028429428 0.126685046014 0)
(0.0913970713261 0.11178510322 0)
(0.0875707252484 0.09759335385 0)
(0.0831396638071 0.0844763779883 0)
(0.0782180197712 0.0720599476298 0)
(0.0718279149582 0.0611293441892 0)
(0.0663296302324 0.0519321905876 0)
(0.0619820977216 0.0425183800266 0)
(0.0553043103945 0.0333278182071 0)
(0.0478319305393 0.0262565536785 0)
(0.0409590498651 0.021215590401 0)
(0.0351201947148 0.0174988865535 0)
(0.0302140480922 0.0145612018156 0)
(0.0259992459255 0.0121339536371 0)
(0.022348901397 0.0101041834296 0)
(0.0192028433009 0.00837447836342 0)
(0.0164581738695 0.00685589118609 0)
(0.0139553751117 0.00554221913518 0)
(0.0115930392976 0.00455676987061 0)
(0.00953350980399 0.00400525083697 0)
(0.00808937917549 0.0036553872609 0)
(0.0069974226594 0.00321533427865 0)
(0.00592470041024 0.00276154375843 0)
(0.00494972468267 0.00244565802721 0)
(0.00421628006254 0.00219568469974 0)
(0.00357208120257 0.00194543627286 0)
(0.00299951134723 0.0017177991026 0)
(0.00264890432367 0.0015232471442 0)
(0.00240526613504 0.00130496022513 0)
(0.00223792240862 0.0011003598178 0)
(0.00206382411283 0.000871776576549 0)
(0.00191732618486 0.000660961905035 0)
(0.00176582218698 0.00046043007218 0)
(0.00166652961686 0.000306991690134 0)
(0.00161731837907 0.000193939380898 0)
(0.00151499535443 9.75120240539e-05 0)
(0.00157368126779 6.12532046405e-05 0)
(0.00151531477164 3.60627021809e-05 0)
(0.00148424367258 1.02176130613e-05 0)
(-0.12584955854 0.00757606246474 0)
(-0.132991894653 0.0245856865049 0)
(-0.13239876856 0.0412753641668 0)
(-0.131168655304 0.0580028615689 0)
(-0.129532123059 0.0745071469126 0)
(-0.127513020094 0.0907472358135 0)
(-0.125132388495 0.106670298104 0)
(-0.122413951775 0.122228229646 0)
(-0.11938371214 0.137377337278 0)
(-0.116069321489 0.15207873572 0)
(-0.112499439586 0.166298521142 0)
(-0.108703094074 0.180007851859 0)
(-0.104709048172 0.19318292601 0)
(-0.100545180395 0.205804858037 0)
(-0.0962378817195 0.217859450526 0)
(-0.0918114818667 0.229336856198 0)
(-0.0872877227545 0.240231126262 0)
(-0.0826853051163 0.250539647539 0)
(-0.0780195374973 0.260262480618 0)
(-0.0733021168693 0.269401623964 0)
(-0.0685410616613 0.277960240942 0)
(-0.0637408052224 0.28594189545 0)
(-0.0589024383884 0.293349843376 0)
(-0.0540240722797 0.300186419802 0)
(-0.0491012773699 0.306452545528 0)
(-0.0441275522569 0.312147354414 0)
(-0.0390947832411 0.317267921538 0)
(-0.0339936777039 0.321809057735 0)
(-0.0288141786172 0.325763137202 0)
(-0.0235458906396 0.329119912253 0)
(-0.0181785766675 0.331866417734 0)