/*--------------------------------*- C++ -*----------------------------------*\
| =========                 |                                                 |
| \\      /  F ield         | OpenFOAM: The Open Source CFD Toolbox           |
|  \\    /   O peration     | Version:  v1906                                 |
|   \\  /    A nd           | Web:      www.OpenFOAM.com                      |
|    \\/     M anipulation  |                                                 |
\*---------------------------------------------------------------------------*/
FoamFile
{
    version     2.0;
    format      ascii;
    class       volVectorField;
    location    "879";
    object      U;
}
// * * * * * * * * * * * * * * * * * * * * * * * * * * * * * * * * * * * * * //

dimensions      [0 1 -1 0 0 0 0];


internalField   nonuniform List<vector> 
9216
(
(0.00270953929105 -0.00271202100795 0)
(0.00285679824381 -0.0087520866677 1.1721566437e-27)
(0.00284863602846 -0.0148861981846 1.84086760871e-31)
(0.0028113523305 -0.0210206883665 0)
(0.00275959388538 -0.0270523710703 0)
(0.00269482007044 -0.0329569800373 0)
(0.0026187180816 -0.0387086740785 0)
(0.0025326297025 -0.0442844741936 0)
(0.00243785849875 -0.0496641877315 0)
(0.00233567329256 -0.0548304086603 0)
(0.00222734318497 -0.059768470183 0)
(0.00211406775664 -0.06446639526 0)
(0.00199701058605 -0.0689147595648 0)
(0.00187722136364 -0.0731065512349 0)
(0.00175569172109 -0.0770369578905 0)
(0.00163327484534 -0.0807031780085 0)
(0.00151076555778 -0.0841041791995 0)
(0.00138881410639 -0.0872405051328 0)
(0.00126802810974 -0.090114043308 0)
(0.00114887587219 -0.0927278571716 0)
(0.00103180742745 -0.0950859851296 0)
(0.00091714313928 -0.0971933110477 0)
(0.000805211498551 -0.0990554019792 0)
(0.000696220309918 -0.100678418076 0)
(0.000590410028744 -0.102068986249 0)
(0.000487906054643 -0.103234142781 0)
(0.000388886976002 -0.10418123561 0)
(0.000293417983227 -0.104917890628 0)
(0.000201634347766 -0.105451934241 0)
(0.000113557713461 -0.105791376187 0)
(2.92971541302e-05 -0.10594433284 0)
(-5.117426254e-05 -0.105919087296 0)
(-0.000127801176211 -0.105723872189 0)
(-0.000200633517843 -0.105366959965 0)
(-0.000269614961262 -0.104856635769 0)
(-0.000334825099455 -0.104201159994 0)
(-0.00039623574527 -0.103408724598 0)
(-0.000453955639312 -0.102487444771 0)
(-0.000507977163162 -0.101445315295 0)
(-0.000558433334923 -0.100290204576 0)
(-0.0006053338211 -0.0990298171764 0)
(-0.000648831864978 -0.097671688833 0)
(-0.000688951212573 -0.0962231559527 0)
(-0.000725861049056 -0.0946913521453 0)
(-0.000759595501155 -0.093083184908 0)
(-0.000790334974909 -0.0914053335808 0)
(-0.000818120314518 -0.0896642338103 0)
(-0.000843138561004 -0.0878660771187 0)
(-0.000865433610043 -0.0860168027001 0)
(-0.000885194691988 -0.0841220979867 0)
(-0.000902465678606 -0.0821873976592 0)
(-0.00091743424591 -0.080217884873 0)
(-0.000930141684938 -0.0782184963798 0)
(-0.000940771022481 -0.0761939233584 0)
(-0.000949359419337 -0.0741486219682 0)
(-0.000956083235831 -0.0720868131074 0)
(-0.000960974764048 -0.0700124969095 0)
(-0.000964202558181 -0.0679294502374 0)
(-0.000965794395387 -0.0658412442397 0)
(-0.000965910956509 -0.063751238957 0)
(-0.000964576548471 -0.0616626025369 0)
(-0.000961944571162 -0.0595783021026 0)
(-0.000958037620538 -0.0575011240519 0)
(-0.00095300301569 -0.0554336610953 0)
(-0.000946863551567 -0.0533783328103 0)
(-0.000939761737415 -0.0513373687385 0)
(-0.000931722521171 -0.0493128292578 0)
(-0.000922884814866 -0.047306585369 0)
(-0.000913277201685 -0.0453203397537 0)
(-0.000903035716883 -0.0433556038267 0)
(-0.000892193577335 -0.0414137195452 0)
(-0.000880884175691 -0.0394958347874 0)
(-0.000869145600602 -0.0376029261439 0)
(-0.000857108168301 -0.0357357734322 0)
(-0.000844814496782 -0.0338949840965 0)
(-0.000832390908844 -0.0320809678364 0)
(-0.000819883585916 -0.0302939627846 0)
(-0.000807413472237 -0.0285340108467 0)
(-0.000795028994491 -0.0268009860217 0)
(-0.00078284409486 -0.0250945710484 0)
(-0.000770907805865 -0.0234142878249 0)
(-0.000759325230977 -0.0217594756453 0)
(-0.000748144184105 -0.0201293238922 0)
(-0.000737458854349 -0.0185228523092 0)
(-0.000727313443173 -0.0169389462327 0)
(-0.000717788042371 -0.0153763400291 0)
(-0.000708918276017 -0.0138336571026 0)
(-0.000700760831384 -0.0123094019562 0)
(-0.000693322540442 -0.0108020174804 0)
(-0.000686587861993 -0.00930991844856 0)
(-0.000680408236255 -0.00783164306918 0)
(-0.000674363748432 -0.00636616708528 0)
(-0.000667245267758 -0.00491389312083 0)
(-0.000653780810184 -0.00348450255761 0)
(-0.000629429892991 -0.00200778222799 0)
(-0.000805876059009 -0.000805669085189 0)
(0.00877187212694 -0.00288703634473 0)
(0.00969928206217 -0.00976982560264 0)
(0.00967685964902 -0.0166398155713 -1.23090062155e-27)
(0.00954740458385 -0.0235151822172 0)
(0.0093682606285 -0.0302660316115 0)
(0.00914677973791 -0.0368706068839 0)
(0.00888736380986 -0.0433014768324 0)
(0.00859422192587 -0.0495333949961 0)
(0.00827166486775 -0.0555439471942 0)
(0.00792400788525 -0.0613137859326 0)
(0.00755554619167 -0.0668266538022 0)
(0.00717039336101 -0.0720693317036 0)
(0.00677248191022 -0.0770314938054 0)
(0.00636541524263 -0.0817055277061 0)
(0.00595252591994 -0.0860862981916 0)
(0.0055367475819 -0.0901709113195 0)
(0.00512072950911 -0.0939584498826 0)
(0.00470671739669 -0.0974497352603 0)
(0.00429671333515 -0.100647078767 0)
(0.00389235064141 -0.103554074781 0)
(0.00349508765013 -0.106175391656 0)
(0.00310606375381 -0.108516610301 0)
(0.00272631802851 -0.11058406129 0)
(0.00235661798244 -0.112384708795 0)
(0.00199769793842 -0.113926029345 0)
(0.00165005624532 -0.115215932908 0)
(0.00131421143009 -0.116262673539 0)
(0.000990467392076 -0.117074796505 0)
(0.000679187841078 -0.117661069804 0)
(0.000380531734415 -0.118030445352 0)
(9.47492468707e-05 -0.118192009814 0)
(-0.000178129995921 -0.118154898747 0)
(-0.000437978959095 -0.117928387312 0)
(-0.000684863536688 -0.117521783508 0)
(-0.000918723363698 -0.116944355985 0)
(-0.00113971912078 -0.11620533865 0)
(-0.00134787674344 -0.115313889565 0)
(-0.00154344509732 -0.114279071309 0)
(-0.00172652404406 -0.113109816346 0)
(-0.00189743917925 -0.111814908076 0)
(-0.00205635379277 -0.110402950657 0)
(-0.002203657832 -0.108882352835 0)
(-0.00233956618054 -0.107261303477 0)
(-0.00246451925364 -0.105547758908 0)
(-0.00257877025916 -0.103749424684 0)
(-0.00268279508846 -0.101873746742 0)
(-0.00277687165416 -0.09992789972 0)
(-0.00286149642982 -0.0979187819271 0)
(-0.00293695881113 -0.0958530099597 0)
(-0.00300376183406 -0.0937369170875 0)
(-0.00306219475149 -0.0915765537196 0)
(-0.00311275516848 -0.0893776885649 0)
(-0.00315572275781 -0.0871458139968 0)
(-0.00319158026302 -0.0848861490151 0)
(-0.0032205914011 -0.0826036484954 0)
(-0.003243217935 -0.0803030068769 0)
(-0.00325970444085 -0.0779886699447 0)
(-0.00327048888046 -0.0756648380312 0)
(-0.00327579691103 -0.0733354791488 0)
(-0.00327604318256 -0.0710043306551 0)
(-0.0032714374271 -0.0686749125056 0)
(-0.00326237397283 -0.0663505264896 0)
(-0.00324905178759 -0.0640342688374 0)
(-0.00323184960463 -0.0617290265774 0)
(-0.00321096168199 -0.059437488941 0)
(-0.0031867563074 -0.0571621407379 0)
(-0.00315942900035 -0.0549052725958 0)
(-0.00312934223058 -0.0526689717483 0)
(-0.00309669747046 -0.050455131349 0)
(-0.00306185443748 -0.0482654393169 0)
(-0.00302502340679 -0.0461013873855 0)
(-0.00298656246458 -0.0439642589158 0)
(-0.00294669123011 -0.0418551383048 0)
(-0.00290576508002 -0.0397748986374 0)
(-0.00286401140262 -0.0377242121968 0)
(-0.00282177991845 -0.035703538808 0)
(-0.00277930232787 -0.0337131379318 0)
(-0.00273691821361 -0.0317530583032 0)
(-0.00269485885058 -0.0298231520396 0)
(-0.00265344825436 -0.0279230660376 0)
(-0.00261291165078 -0.0260522582312 0)
(-0.00257355141724 -0.0242099909601 0)
(-0.00253558052358 -0.0223953494987 0)
(-0.00249927296507 -0.0206072375868 0)
(-0.0024648219429 -0.0188443982625 0)
(-0.00243246380066 -0.0171054117441 0)
(-0.00240235896082 -0.0153887186651 0)
(-0.00237468478993 -0.0136926199509 0)
(-0.00234952860372 -0.0120152990245 0)
(-0.00232692467805 -0.010354810447 0)
(-0.00230669763855 -0.00870905255106 0)
(-0.00228830004212 -0.00707558316043 0)
(-0.00227017879573 -0.0054508934993 0)
(-0.00224770559982 -0.00382761780673 0)
(-0.00219367011277 -0.00218881162126 0)
(-0.0020064109335 -0.000627348406694 0)
(0.0150167526415 -0.00293291291693 0)
(0.0166272811433 -0.0099306193266 0)
(0.0165665553626 -0.0168908666086 -1.22886159981e-27)
(0.016335556083 -0.0238668819769 0)
(0.0160238276239 -0.0307147157025 0)
(0.0156411405146 -0.0374111001482 0)
(0.0151940002905 -0.0439275667198 0)
(0.0146893411617 -0.050238316286 0)
(0.0141344899604 -0.0563206116302 0)
(0.0135369002082 -0.0621549676126 0)
(0.0129039691328 -0.0677251572028 0)
(0.0122428208059 -0.0730181301547 0)
(0.0115602013218 -0.0780238462751 0)
(0.0108623304493 -0.0827350592944 0)
(0.0101548827715 -0.0871470585843 0)
(0.00944290321157 -0.0912574000613 0)
(0.00873086123834 -0.095065627082 0)
(0.00802260941783 -0.0985730072728 0)
(0.0073214875516 -0.101782279128 0)
(0.00663029930229 -0.104697428746 0)
(0.00595144355449 -0.107323484533 0)
(0.00528688819777 -0.10966634598 0)
(0.00463831193738 -0.111732630384 0)
(0.00400706168247 -0.113529550931 0)
(0.00339429530907 -0.115064807973 0)
(0.00280091630776 -0.11634650579 0)
(0.00222771417217 -0.117383076398 0)
(0.00167527554448 -0.118183222375 0)
(0.00114412298499 -0.118755861014 0)
(0.000634604734834 -0.119110081925 0)
(0.00014703267149 -0.119255104599 0)
(-0.000318435462861 -0.119200241432 0)
(-0.000761653844427 -0.118954860985 0)
(-0.00118263777723 -0.118528358075 0)
(-0.00158140687281 -0.117930115303 0)
(-0.00195813090105 -0.117169475017 0)
(-0.00231297179529 -0.116255704874 0)
(-0.00264624069502 -0.115197971004 0)
(-0.00295823030308 -0.114005307843 0)
(-0.00324937755149 -0.112686593854 0)
(-0.00352008849375 -0.11125052525 0)
(-0.00377090593769 -0.109705595414 0)
(-0.00400232819342 -0.108060073639 0)
(-0.00421498084614 -0.106321989097 0)
(-0.00440943082151 -0.104499115104 0)
(-0.00458636160449 -0.102598957976 0)
(-0.00474638425134 -0.10062874716 0)
(-0.00489021528092 -0.0985954290365 0)
(-0.00501848623617 -0.0965056626009 0)
(-0.00513192350414 -0.0943658177679 0)
(-0.00523115805406 -0.0921819761742 0)
(-0.00531690630906 -0.0899599333334 0)
(-0.00538978156326 -0.0877052035453 0)
(-0.00545047503301 -0.0854230248387 0)
(-0.0054995703922 -0.0831183669831 0)
(-0.00553772396304 -0.0807959380753 0)
(-0.00556548358194 -0.0784601942294 0)
(-0.00558346684453 -0.0761153464645 0)
(-0.00559218534654 -0.0737653708883 0)
(-0.00559221969302 -0.0714140147268 0)
(-0.00558404986272 -0.069064805718 0)
(-0.00556822565078 -0.0667210562584 0)
(-0.00554520373365 -0.0643858712783 0)
(-0.00551551209789 -0.0620621499677 0)
(-0.0054795941703 -0.0597525915986 0)
(-0.00543796589781 -0.0574596946587 0)
(-0.0053910672817 -0.0551857607725 0)
(-0.00533941086047 -0.05293289161 0)
(-0.00528344095089 -0.0507029912557 0)
(-0.00522367257878 -0.0484977615265 0)
(-0.00516055884216 -0.0463187036136 0)
(-0.00509461955375 -0.044167112719 0)
(-0.00502631718267 -0.0420440797215 0)
(-0.00495617479231 -0.0399504859992 0)
(-0.00488466111465 -0.037887005999 0)
(-0.00481229753783 -0.0358541030646 0)
(-0.00473955283799 -0.033852033475 0)
(-0.00466693916554 -0.031880843843 0)
(-0.00459491694255 -0.02994037712 0)
(-0.0045239798296 -0.0280302719487 0)
(-0.00445457015883 -0.0261499707782 0)
(-0.00438715288738 -0.0242987212936 0)
(-0.00432214178145 -0.022475586692 0)
(-0.00425996217811 -0.0206794491323 0)
(-0.00420098772769 -0.0189090218797 0)
(-0.00414559130848 -0.0171628542531 0)
(-0.00409409115988 -0.0154393444968 0)
(-0.00404678780104 -0.0137367434503 0)
(-0.00400391617263 -0.0120531614475 0)
(-0.0039656648274 -0.0103865550329 0)
(-0.0039321349823 -0.0087346929672 0)
(-0.00390337376945 -0.00709504556832 0)
(-0.00387942617554 -0.00546449136481 0)
(-0.00386004438807 -0.00383763962428 0)
(-0.00382849652106 -0.00223019552556 0)
(-0.0034755453302 -0.000647979409594 0)
(0.0214094499476 -0.00297825786025 0)
(0.0237238095562 -0.0100810513205 0)
(0.0236340701848 -0.0171368478646 1.22829106405e-27)
(0.0232994739638 -0.0242091265858 0)
(0.0228488012936 -0.0311478735135 0)
(0.0222965038789 -0.0379283274957 0)
(0.0216520264513 -0.0445208425161 0)
(0.0209254587687 -0.0508989141952 0)
(0.0201274609544 -0.0570394530884 0)
(0.0192688871896 -0.0629229201064 0)
(0.0183604669029 -0.0685332869509 0)
(0.017412518591 -0.0738579045379 0)
(0.0164347525161 -0.0788872887729 0)
(0.0154361057035 -0.0836148531195 0)
(0.0144246682267 -0.0880366074166 0)
(0.0134076255189 -0.0921508468501 0)
(0.0123912824921 -0.0959578432457 0)
(0.0113810789513 -0.0994595548513 0)
(0.0103816739611 -0.102659358669 0)
(0.00939699653833 -0.105561814358 0)
(0.00843035551099 -0.10817245737 0)
(0.00748449509937 -0.110497625298 0)
(0.0065617055944 -0.112544311139 0)
(0.00566386486367 -0.114320044712 0)
(0.00479253651616 -0.11583279424 0)
(0.00394898897703 -0.117090888438 0)
(0.00313427708551 -0.118102950981 0)
(0.00234923831873 -0.118877848019 0)
(0.00159455990183 -0.119424641573 0)
(0.000870756140214 -0.119752550471 0)
(0.000178225440231 -0.119870911091 0)
(-0.000482781415945 -0.119789156795 0)
(-0.00111210649142 -0.119516751318 0)
(-0.00170973576994 -0.119063186662 0)
(-0.00227574097375 -0.118437941033 0)
(-0.00281032530707 -0.117650447316 0)
(-0.00331376747687 -0.11671006117 0)
(-0.00378647045666 -0.115626031593 0)
(-0.0042289015776 -0.114407471616 0)
(-0.00464164176926 -0.113063331875 0)
(-0.00502532208019 -0.111602375097 0)
(-0.0053806732995 -0.110033153836 0)
(-0.00570845962625 -0.108363989835 0)
(-0.00600952875708 -0.106602956791 0)
(-0.00628474362148 -0.104757865267 0)
(-0.00653503324339 -0.102836250946 0)
(-0.00676132359316 -0.100845365336 0)
(-0.00696458944711 -0.0987921694995 0)
(-0.00714578535034 -0.0966833303088 0)
(-0.00730589874362 -0.094525219271 0)
(-0.00744588201596 -0.0923239137734 0)
(-0.00756670699372 -0.0900852002131 0)
(-0.00766929892218 -0.0878145792868 0)
(-0.00775459239897 -0.0855172723805 0)
(-0.0078234680225 -0.0831982297206 0)
(-0.00787680959939 -0.0808621387111 0)
(-0.00791544394453 -0.0785134335442 0)
(-0.00794019906523 -0.0761563040918 0)
(-0.00795184736656 -0.0737947055875 0)
(-0.00795116416878 -0.0714323667167 0)
(-0.00793887423617 -0.0690727980957 0)
(-0.00791570982875 -0.0667192984841 0)
(-0.00788236025688 -0.06437496118 0)
(-0.00783952842231 -0.0620426776879 0)
(-0.00778788291402 -0.0597251415845 0)
(-0.00772811204441 -0.0574248495083 0)
(-0.00766087802728 -0.055144102624 0)
(-0.00758686755863 -0.0528850052933 0)
(-0.00750674771312 -0.0506494646729 0)
(-0.00742121243035 -0.048439187825 0)
(-0.00733094001391 -0.0462556803348 0)
(-0.00723663511666 -0.0441002428167 0)
(-0.00713898793909 -0.0419739694993 0)
(-0.00703871165463 -0.0398777451003 0)
(-0.00693650362577 -0.0378122442986 0)
(-0.00683307837025 -0.0357779298049 0)
(-0.00672913120436 -0.0337750534007 0)
(-0.00662536702154 -0.031803655795 0)
(-0.00652246681071 -0.0298635696953 0)
(-0.00642111249728 -0.0279544217804 0)
(-0.00632195670442 -0.0260756379636 0)
(-0.00622564388737 -0.0242264475409 0)
(-0.00613278358503 -0.0224058905839 0)
(-0.00604396790287 -0.0206128240506 0)
(-0.00595974827572 -0.0188459308638 0)
(-0.00588064917209 -0.0171037272049 0)
(-0.00580714820081 -0.0153845718945 0)
(-0.00573968603736 -0.0136866723271 0)
(-0.00567865090866 -0.0120080892103 0)
(-0.00562438948515 -0.0103467325254 0)
(-0.00557721030178 -0.00870035217669 0)
(-0.00553743316967 -0.00706650527927 0)
(-0.00550543122301 -0.00544251374706 0)
(-0.00548058072117 -0.00382403652381 0)
(-0.00543649816343 -0.00223332157899 0)
(-0.00488713187285 -0.000655735483212 0)
(0.0279089838432 -0.00303780266226 0)
(0.0309290588558 -0.0102788458738 0)
(0.0308076976878 -0.0174671916575 0)
(0.0303641678545 -0.0246688576917 0)
(0.0297672704292 -0.0317289754454 0)
(0.0290365864588 -0.0386210726904 0)
(0.0281849925518 -0.0453140711077 0)
(0.0272261661512 -0.0517805514164 0)
(0.0261744845035 -0.0579969813609 0)
(0.0250445265395 -0.0639437982574 0)
(0.0238506266043 -0.0696053050102 0)
(0.0226065020432 -0.0749694659962 0)
(0.0213249786236 -0.0800276191327 0)
(0.0200177953288 -0.0847741359533 0)
(0.0186955012729 -0.0892060560351 0)
(0.0173674125264 -0.0933227198361 0)
(0.0160416384396 -0.0971254165146 0)
(0.0147251384661 -0.100617060275 0)
(0.013423822513 -0.103801901727 0)
(0.012142654023 -0.106685278913 0)
(0.0108857759602 -0.10927340717 0)
(0.0096566191359 -0.111573206898 0)
(0.00845802117317 -0.113592164428 0)
(0.00729231572739 -0.115338222437 0)
(0.00616142784526 -0.116819693746 0)
(0.00506693437912 -0.118045194488 0)
(0.00401013181643 -0.119023590867 0)
(0.00299206863022 -0.119763956323 0)
(0.00201358972989 -0.120275534668 0)
(0.00107534727725 -0.120567707558 0)
(0.000177829516593 -0.120649959663 0)
(-0.000678642691509 -0.120531869935 0)
(-0.0014938880862 -0.120223028768 0)
(-0.00226788446539 -0.119733060795 0)
(-0.00300074383184 -0.119071568502 0)
(-0.00369272368786 -0.118248104428 0)
(-0.00434420687504 -0.117272139193 0)
(-0.00495571117884 -0.116153030729 0)
(-0.00552786660681 -0.114899994534 0)
(-0.00606142329842 -0.113522075867 0)
(-0.00655722603883 -0.112028123781 0)
(-0.00701622061475 -0.110426767756 0)
(-0.00743942618191 -0.108726396819 0)
(-0.00782794067482 -0.106935141661 0)
(-0.00818291196098 -0.10506085958 0)
(-0.00850554308721 -0.103111122541 0)
(-0.0087970632104 -0.101093208209 0)
(-0.00905873344031 -0.0990140939593 0)
(-0.00929181850149 -0.0968804537197 0)
(-0.00949759387479 -0.094698657473 0)
(-0.00967731904634 -0.0924747733117 0)
(-0.00983224653096 -0.0902145716344 0)
(-0.00996359745634 -0.0879235313878 0)
(-0.010072572933 -0.0856068477928 0)
(-0.01016033254 -0.0832694415166 0)
(-0.0102280082751 -0.0809159685298 0)
(-0.0102766862504 -0.0785508306597 0)
(-0.0103074231722 -0.0761781860013 0)
(-0.0103212311937 -0.0738019593226 0)
(-0.0103190964829 -0.0714258515333 0)
(-0.010301966797 -0.0690533485039 0)
(-0.0102707713532 -0.0666877283494 0)
(-0.0102264103543 -0.0643320676886 0)
(-0.0101697751015 -0.061989246017 0)
(-0.0101017385181 -0.0596619489243 0)
(-0.0100231743943 -0.0573526694086 0)
(-0.00993494797157 -0.0550637082479 0)
(-0.00983793332565 -0.052797172719 0)
(-0.00973300329107 -0.0505549747839 0)
(-0.00962104431236 -0.0483388280938 0)
(-0.00950294532851 -0.0461502450496 0)
(-0.00937960978967 -0.0439905332135 0)
(-0.00925194349008 -0.0418607923423 0)
(-0.00912086382752 -0.039761911295 0)
(-0.00898728687741 -0.0376945660797 0)
(-0.00885213421677 -0.0356592181677 0)
(-0.00871631971072 -0.0336561142898 0)
(-0.00858075436658 -0.0316852867611 0)
(-0.0084463333558 -0.0297465555018 0)
(-0.00831393935409 -0.0278395306781 0)
(-0.00818443026553 -0.025963617071 0)
(-0.00805864144107 -0.0241180190355 0)
(-0.00793737446386 -0.0223017470944 0)
(-0.00782139851557 -0.0205136249308 0)
(-0.00771144048204 -0.0187522977322 0)
(-0.0076081857519 -0.0170162405073 0)
(-0.00751227012947 -0.0153037671659 0)
(-0.00742428111269 -0.0136130385902 0)
(-0.0073447540993 -0.0119420705131 0)
(-0.00727417975679 -0.0102887394666 0)
(-0.00721301604363 -0.00865079201553 0)
(-0.00716171894376 -0.00702585440874 0)
(-0.00712069996348 -0.00541146608348 0)
(-0.00708859142418 -0.00380357759189 0)
(-0.00702979542543 -0.00222539962041 0)
(-0.00630714223777 -0.000655169338015 0)
(0.034553260083 -0.00311325192367 0)
(0.0382900128031 -0.0105320465098 0)
(0.0381324197444 -0.017892452502 0)
(0.0375719357168 -0.0252608595344 0)
(0.0368184417202 -0.032476700299 0)
(0.0358971448018 -0.0395114078915 0)
(0.0348249163671 -0.0463321646882 0)
(0.0336195782014 -0.0529104498228 0)
(0.0322997406552 -0.0592222426674 0)
(0.0308841541239 -0.0652480449876 0)
(0.0293911261409 -0.0709726896767 0)
(0.027838050259 -0.0763850359749 0)
(0.0262410612176 -0.0814775779814 0)
(0.0246148086611 -0.0862460056874 0)
(0.0229723432174 -0.0906887517895 0)
(0.0213250921914 -0.094806551213 0)
(0.0196829114566 -0.0986020324376 0)
(0.0180541868572 -0.10207935321 0)
(0.0164459737348 -0.105243886647 0)
(0.0148641507203 -0.108101959467 0)
(0.013313582804 -0.110660639902 0)
(0.0117982748217 -0.11292757104 0)
(0.0103215173631 -0.114910843215 0)
(0.00888601071811 -0.116618899 0)
(0.00749397470904 -0.11806046362 0)
(0.00614723306343 -0.119244494539 0)
(0.00484728447594 -0.120180144018 0)
(0.00359535051696 -0.120876729983 0)
(0.00239241524541 -0.12134371096 0)
(0.00123924665175 -0.121590662391 0)
(0.000136417325727 -0.121627248171 0)
(-0.000915695867619 -0.121463225279 0)
(-0.00191688668795 -0.121108338912 0)
(-0.00286713545284 -0.120572379782 0)
(-0.00376659322138 -0.119865105827 0)
(-0.00461558339448 -0.118996220945 0)
(-0.00541459221152 -0.11797534126 0)
(-0.00616426602641 -0.116811963118 0)
(-0.00686539870765 -0.115515432078 0)
(-0.00751892583472 -0.114094913731 0)
(-0.00812590886968 -0.112559366618 0)
(-0.00868752673497 -0.110917517833 0)
(-0.00920505760872 -0.109177841425 0)
(-0.00967986887097 -0.107348539963 0)
(-0.0101133976748 -0.105437529268 0)
(-0.0105071404151 -0.103452426467 0)
(-0.0108626332647 -0.101400541265 0)
(-0.0111814422397 -0.0992888704318 0)
(-0.0114651447842 -0.0971240953355 0)
(-0.011715321419 -0.094912582376 0)
(-0.0119335393514 -0.0926603860854 0)
(-0.0121213465468 -0.0903732546233 0)
(-0.0122802581953 -0.0880566373816 0)
(-0.0124117539172 -0.085715694308 0)
(-0.012517267735 -0.0833553066051 0)
(-0.0125981888403 -0.0809800883103 0)
(-0.0126558553809 -0.0785943984031 0)
(-0.0126915588557 -0.076202352887 0)
(-0.0127065415817 -0.0738078365272 0)
(-0.0127020042564 -0.0714145136943 0)
(-0.0126791064465 -0.0690258381152 0)
(-0.01263897639 -0.0666450610675 0)
(-0.0125827134112 -0.0642752379866 0)
(-0.0125113986534 -0.0619192331618 0)
(-0.0124260980711 -0.0595797227043 0)
(-0.0123278727035 -0.0572591956268 0)
(-0.0122177809381 -0.054959953418 0)
(-0.0120968870888 -0.0526841080801 0)
(-0.01196626192 -0.0504335791699 0)
(-0.0118269887248 -0.0482100898931 0)
(-0.0116801615792 -0.0460151628645 0)
(-0.0115268886076 -0.0438501155842 0)
(-0.0113682879354 -0.0417160562451 0)
(-0.0112054883227 -0.039613879868 0)
(-0.0110396231991 -0.0375442653198 0)
(-0.0108718291584 -0.0355076731143 0)
(-0.0107032386859 -0.0335043444647 0)
(-0.010534977172 -0.0315343013908 0)
(-0.0103681550077 -0.0295973482624 0)
(-0.0102038637495 -0.027693074487 0)
(-0.0100431681869 -0.0258208586398 0)
(-0.00988710220637 -0.023979873684 0)
(-0.00973666132105 -0.0221690935016 0)
(-0.0095927986644 -0.0203873003339 0)
(-0.00945641841337 -0.0186330932841 0)
(-0.00932837241017 -0.0169048974258 0)
(-0.0092094551895 -0.015200973657 0)
(-0.00910040240614 -0.0135194289354 0)
(-0.00900188953157 -0.0118582271255 0)
(-0.00891453571281 -0.0102152011267 0)
(-0.00883891125743 -0.00858807292735 0)
(-0.00877554572907 -0.00697447178303 0)
(-0.00872481624227 -0.00537196865463 0)
(-0.00868468950811 -0.00377650091578 0)
(-0.0086109856907 -0.00221105383016 0)
(-0.00772159398646 -0.000651554958556 0)
(0.0413793418109 -0.00320670890407 0)
(0.0458486609629 -0.0108463644585 0)
(0.0456483974449 -0.0184209482198 1.21872076574e-27)
(0.0449601012715 -0.0259962523767 0)
(0.0440362114861 -0.0334045646773 0)
(0.0429082317848 -0.040614687011 0)
(0.0415977450981 -0.0475916932106 0)
(0.0401274384612 -0.0543057872363 0)
(0.0385208261741 -0.0607324720465 0)
(0.0368014101568 -0.0668524857305 0)
(0.0349919396663 -0.0726514879233 0)
(0.0331138303575 -0.0781196157805 0)
(0.0311867539191 -0.0832509511169 0)
(0.0292283889391 -0.0880429495593 0)
(0.0272543153578 -0.0924958730103 0)
(0.0252780250657 -0.0966122566653 0)
(0.0233110222769 -0.100396431134 0)
(0.0213629842778 -0.103854111144 0)
(0.0194419599977 -0.106992054518 0)
(0.017554583582 -0.109817789646 0)
(0.0157062890562 -0.11233940567 0)
(0.0139015116618 -0.114565397394 0)
(0.012143870302 -0.116504555707 0)
(0.0104363235742 -0.118165894062 0)
(0.00878130012595 -0.119558601857 0)
(0.00718080055156 -0.120692016364 0)
(0.00563647576004 -0.121575605959 0)
(0.00414968174144 -0.12221895873 0)
(0.0027215178433 -0.122631772066 0)
(0.00135284907826 -0.122823838868 0)
(4.43256350969e-05 -0.122805031019 0)
(-0.00120362959216 -0.122585308031 0)
(-0.00239078902505 -0.12217460228 0)
(-0.00351713930546 -0.121582900749 0)
(-0.00458287349814 -0.120820149163 0)
(-0.00558838849289 -0.119896235258 0)
(-0.00653427872043 -0.118820952619 0)
(-0.00742132966157 -0.117603966818 0)
(-0.00825050689792 -0.116254782586 0)
(-0.00902294511463 -0.114782712787 0)
(-0.00973993295791 -0.113196849826 0)
(-0.0104028984682 -0.111506039908 0)
(-0.0110133910098 -0.109718860526 0)
(-0.011573064567 -0.107843601357 0)
(-0.0120836582657 -0.105888248718 0)
(-0.012546979031 -0.103860473606 0)
(-0.0129648821555 -0.101767623313 0)
(-0.0133392546834 -0.0996167164931 0)
(-0.0136719973201 -0.0974144415849 0)
(-0.0139650097419 -0.0951671583431 0)
(-0.0142201749852 -0.0928809023089 0)
(-0.014439347743 -0.0905613918721 0)
(-0.014624342245 -0.0882140376381 0)
(-0.0147769244499 -0.0858439536678 0)
(-0.0148988042128 -0.0834559702025 0)
(-0.0149916319937 -0.0810546473458 0)
(-0.0150569957295 -0.0786442892345 0)
(-0.0150964221947 -0.0762289581393 0)
(-0.0151113784132 -0.0738124880295 0)
(-0.0151032771588 -0.0713984970704 0)
(-0.0150734820693 -0.0689903986748 0)
(-0.0150233161194 -0.0665914107211 0)
(-0.0149540690012 -0.0642045627347 0)
(-0.0148670069173 -0.0618327008469 0)
(-0.0147633804674 -0.0594784905442 0)
(-0.0146444339684 -0.0571444172624 0)
(-0.0145114121313 -0.0548327850556 0)
(-0.0143655673505 -0.0525457135815 0)
(-0.0142081638679 -0.0502851337819 0)
(-0.0140404820253 -0.0480527826236 0)
(-0.0138638192472 -0.0458501973389 0)
(-0.0136794909254 -0.0436787095425 0)
(-0.0134888282264 -0.0415394396271 0)
(-0.0132931758985 -0.0394332917584 0)
(-0.0130938874342 -0.0373609497778 0)
(-0.0128923204982 -0.0353228742141 0)
(-0.0126898302631 -0.033319300594 0)
(-0.0124877633244 -0.0313502391396 0)
(-0.0122874500778 -0.0294154759362 0)
(-0.0120901979483 -0.0275145755489 0)
(-0.0118972835742 -0.0256468850875 0)
(-0.0117099460394 -0.0238115396303 0)
(-0.0115293794798 -0.0220074689456 0)
(-0.011356726868 -0.0202334053797 0)
(-0.011193073566 -0.0184878928267 0)
(-0.0110394422174 -0.016769296652 0)
(-0.0108967879137 -0.0150758145759 0)
(-0.010765995074 -0.0134054884176 0)
(-0.0106478754501 -0.0117562174275 0)
(-0.0105431684315 -0.0101257734506 0)
(-0.0104525425298 -0.00851182179343 0)
(-0.010376589373 -0.00691194073539 0)
(-0.0103156674023 -0.00532364467035 0)
(-0.0102672059828 -0.00374275871404 0)
(-0.0101788140421 -0.00219182571471 0)
(-0.00912581611186 -0.000646092547555 0)
(0.0484283521079 -0.00332028643247 0)
(0.0536502054002 -0.0112284330982 0)
(0.0533989134471 -0.0190631872638 -1.21807198028e-27)
(0.0525687248834 -0.026889076623 0)
(0.0514566268642 -0.0345294835748 0)
(0.0501013634742 -0.0419499296444 0)
(0.0485301870726 -0.0491129644139 0)
(0.0467715956191 -0.0559873721055 0)
(0.0448548733521 -0.062548273942 0)
(0.0428090099627 -0.0687769343179 0)
(0.0406617751841 -0.0746602722743 0)
(0.0384390188395 -0.0801902246133 0)
(0.0361642024779 -0.0853630224886 0)
(0.0338581449833 -0.0901784476181 0)
(0.0315389508953 -0.0946391193724 0)
(0.0292220826711 -0.0987498483782 0)
(0.0269205373006 -0.102517077698 0)
(0.0246450898965 -0.105948420346 0)
(0.0224045727432 -0.109052292569 0)
(0.0202061639146 -0.111837635976 0)
(0.0180556666522 -0.1143137177 0)
(0.0159577656606 -0.116489995949 0)
(0.0139162522486 -0.118376037698 0)
(0.0119342133601 -0.119981475778 0)
(0.0100141837805 -0.121315993418 0)
(0.00815826235863 -0.122389325821 0)
(0.00636819619047 -0.123211269858 0)
(0.00464543693992 -0.123791695016 0)
(0.00299117543337 -0.124140550802 0)
(0.00140635921264 -0.124267861964 0)
(-0.000108294201661 -0.124183742772 0)
(-0.00155231389777 -0.123898347968 0)
(-0.00292545561161 -0.123421856754 0)
(-0.00422771512015 -0.122764472334 0)
(-0.00545933028748 -0.121936363028 0)
(-0.00662077736491 -0.120947634109 0)
(-0.00771276598096 -0.119808290292 0)
(-0.00873623115687 -0.118528199075 0)
(-0.00969232164353 -0.117117055221 0)
(-0.0105823857917 -0.115584347386 0)
(-0.0114079544307 -0.113939327468 0)
(-0.0121707221839 -0.112190983278 0)
(-0.0128725267402 -0.110348014809 0)
(-0.0135153275691 -0.108418814393 0)
(-0.0141011835493 -0.106411450792 0)
(-0.0146322309767 -0.104333657299 0)
(-0.0151106613275 -0.102192823738 0)
(-0.0155387001906 -0.0999959922938 0)
(-0.0159185866706 -0.0977498569648 0)
(-0.0162525546459 -0.0954607664828 0)
(-0.0165428151362 -0.093134730396 0)
(-0.0167915411451 -0.0907774280579 0)
(-0.0170008542026 -0.0883942201257 0)
(-0.0171728139298 -0.0859901621732 0)
(-0.0173094097783 -0.0835700199035 0)
(-0.0174125561454 -0.0811382854365 0)
(-0.0174840898875 -0.0786991940656 0)
(-0.0175257712344 -0.0762567408822 0)
(-0.0175392869297 -0.0738146966501 0)
(-0.0175262563555 -0.0713766223546 0)
(-0.0174882392676 -0.0689458819231 0)
(-0.0174267456764 -0.0665256526879 0)
(-0.0173432463589 -0.0641189333125 0)
(-0.0172391843899 -0.0617285489944 0)
(-0.017115986169 -0.0593571539589 0)
(-0.0169750723077 -0.0570072313308 0)
(-0.0168178669759 -0.0546810906762 0)
(-0.0166458061657 -0.0523808635291 0)
(-0.0164603437092 -0.0501084973935 0)
(-0.0162629556754 -0.0478657486584 0)
(-0.0160551422636 -0.0456541749889 0)
(-0.0158384279814 -0.0434751276277 0)
(-0.0156143594939 -0.0413297441241 0)
(-0.0153845020363 -0.0392189418253 0)
(-0.0151504339676 -0.0371434125149 0)
(-0.0149137403733 -0.0351036183872 0)
(-0.0146760054049 -0.0330997895858 0)
(-0.0144388042023 -0.0311319233544 0)
(-0.0142036941268 -0.0291997848918 0)
(-0.0139722060377 -0.0273029098485 0)
(-0.0137458353612 -0.0254406084584 0)
(-0.0135260335543 -0.0236119711826 0)
(-0.0133141997343 -0.0218158757912 0)
(-0.0131116729614 -0.020050995752 0)
(-0.0129197249903 -0.0183158098387 0)
(-0.0127395539009 -0.0166086128545 0)
(-0.0125722784968 -0.0149275274729 0)
(-0.012418933815 -0.0132705173136 0)
(-0.0122804676355 -0.0116354012439 0)
(-0.0121577380634 -0.0100198694882 0)
(-0.0120515108224 -0.00842150611106 0)