/*--------------------------------*- C++ -*----------------------------------*\
| =========                 |                                                 |
| \\      /  F ield         | OpenFOAM: The Open Source CFD Toolbox           |
|  \\    /   O peration     | Version:  v1906                                 |
|   \\  /    A nd           | Web:      www.OpenFOAM.com                      |
|    \\/     M anipulation  |                                                 |
\*---------------------------------------------------------------------------*/
FoamFile
{
    version     2.0;
    format      ascii;
    class       surfaceScalarField;
    location    "6";
    object      phi;
}
// * * * * * * * * * * * * * * * * * * * * * * * * * * * * * * * * * * * * * //

dimensions      [0 3 -1 0 0 0 0];
oriented        oriented;


internalField   nonuniform List<scalar> 
18240
(
-0.00154561544755
0.00141143974227
-0.00556813953297
0.00382469036373
-0.00771528905196
0.00200173348654
-0.00831203287802
0.000389758110936
-0.00751679579891
-0.000932570369381
-0.00613062311722
-0.0015519690965
-0.00470564279164
-0.00155974400801
-0.00340676431193
-0.0014629954313
-0.00232301164174
-0.0012216589583
-0.00116820604541
-0.00130742233701
0.000273690746354
-0.00156016833182
0.00195410731207
-0.0018292767085
0.00392115514254
-0.00206605700881
0.00604548839602
-0.00227300184494
0.00840486467519
-0.00243926387024
0.0108408442136
-0.00258613067378
0.0134701234273
-0.0026905446324
0.0161017613856
-0.00278376089937
0.0188896578867
-0.00283074704617
0.0216100518169
-0.00287433850952
0.0244539963804
-0.00286935087824
0.0271690942355
-0.00287023954556
0.0299827582252
-0.0028223644302
0.0326167133902
-0.0027894908816
0.0353265692252
-0.00270331490252
0.0378130055804
-0.00264134251321
0.0403662229176
-0.00253254367554
0.0426728577904
-0.00245996869226
0.0450476510177
-0.00234170238035
0.0471522209811
-0.00225534181487
0.0493138024868
-0.00211721495332
0.0511851534581
-0.00201866233264
0.0531129474396
-0.00187379932829
0.054740200287
-0.00177017325634
0.0564196120406
-0.00161681470079
0.0577884685905
-0.00150657084968
0.0592138258737
-0.00135562024275
0.0603405764864
-0.00125876132502
0.0615352354194
-0.00111863820922
0.0624224207274
-0.00101341499851
0.0633474982158
-0.000844029369
0.0639258263119
-0.000698132904408
0.0645091858386
-0.000497738873841
0.0647375126456
-0.000340707789984
0.0649725296038
-0.000145702414534
0.0648680870343
6.51711407394e-07
0.0647810026711
0.000179611673175
0.0643774705644
0.000309342296834
0.0640042217051
0.000467928173839
0.0633418743658
0.000578650209574
0.0627228530678
0.000715258485223
0.06184373042
0.000806568712488
0.0610192254949
0.000921314937938
0.0599640237999
0.000994400716413
0.0589724830131
0.00108861078307
0.057778864867
0.00114514321968
0.0566556689846
0.00122032088671
0.0553580586263
0.00126176207338
0.05413641132
0.00131877007026
0.0527669204583
0.00134451163636
0.0514827340716
0.00138052732729
0.0500829897754
0.00138251745068
0.0487997134818
0.00138241156846
0.0475530589657
0.0012046821828
0.0481308199485
-0.000469411099114
0.0486758208079
-0.000596299201778
0.0479421575678
0.000865968930634
0.0467596108083
0.00114788208437
0.0456023735183
0.00129068670136
0.044227600011
0.00135748733983
0.0429182039717
0.00144206491914
0.0414259802884
0.00149105834977
0.0399914765876
0.00156458204555
0.0383954659978
0.00160951205568
0.0368469302621
0.00167509835774
0.0351585453708
0.00171535584234
0.033509408602
0.00177156139888
0.03174319758
0.00180546348982
0.0300102409848
0.00185097284116
0.0281833161296
0.00187703583047
0.02638589532
0.00191067732363
0.0245180851799
0.00192718343277
0.0226790236869
0.00194740071763
0.0207925575558
0.00195364814764
0.0189328995518
0.00196324564447
0.0170438560592
0.00196301460699
0.015180026505
0.00196383264066
0.0133039287707
0.00195604635139
0.0114533496719
0.00194862397977
0.00959861386395
0.00193919506904
0.00776441462969
0.00192700446232
0.00608187208865
0.00176808906436
0.00435640195332
0.00180119829343
0.0024344136243
0.00200340466324
0.00146190932851
0.00104396279214
0.00149311908633
-0.00305398458777
0.00427928899237
-0.0062593185897
0.00682950643384
-0.00576817782165
0.00134118840336
-0.00245441137502
-0.00311742404989
0.00191809053875
-0.00549129960252
0.006777050931
-0.00660775576951
0.0115986565615
-0.00655927854084
0.0170258029275
-0.00712337133481
0.0229653065947
-0.00732711662081
0.0296630566672
-0.00821350023973
0.0369034138736
-0.00893718775957
0.0443828199889
-0.00949787605635
0.0520927208201
-0.00988909084521
0.0598262150076
-0.0101800517664
0.0676362612098
-0.0103429915658
0.0753247289497
-0.0104348963577
0.0829714319916
-0.0104142868151
0.0903786761362
-0.0103396472695
0.0976497917023
-0.0101645631117
0.104589177667
-0.0099519689878
0.111322177483
-0.00965237067241
0.117655520925
-0.00933236077821
0.123733243812
-0.00893897578168
0.12936408258
-0.00854045429362
0.134717977224
-0.00808605236487
0.139611696049
-0.00764713584913
0.144222039523
-0.00716276871132
0.148364744574
-0.00670729201723
0.152227122435
-0.00621574700733
0.155633047282
-0.00575887975754
0.158782383381
-0.0052708088639
0.16149991122
-0.00482723627447
0.163992049235
-0.00436332848854
0.166089663587
-0.00395257938996
0.168001258794
-0.00351953125713
0.169543515155
-0.00312763632595
0.170917771736
-0.00271506379968
0.171947066206
-0.00236109906274
0.172838414842
-0.00198984897714
0.173411944403
-0.00165464777601
0.173852886138
-0.00125966459202
0.17396038327
-0.000867948334304
0.173922584893
-0.000429648524679
0.173548032767
-2.29204387212e-05
0.173025839822
0.000411932608214
0.172172186222
0.000803425120725
0.171178239056
0.00121413872913
0.169866292819
0.00157652486288
0.168426724931
0.00195324711435
0.166687442542
0.00227951366787
0.164836314989
0.00261716850066
0.162706830451
0.00290413361082
0.160482985932
0.00320093882258
0.158004033166
0.00344821910393
0.155448724579
0.0037046854681
0.152662221887
0.00391366085446
0.149817161092
0.00413145425491
0.146764833652
0.00430379317528
0.143670796396
0.00448389236314
0.14039215727
0.00461927943435
0.137089520855
0.0047590811779
0.133627121108
0.00484938530165
0.130158921512
0.00492898022901
0.126450237089
0.00491587523765
0.121306109261
0.00474477796481
0.11593248931
0.00478821139708
0.111807563139
0.00506779178017
0.107794711503
0.00517764444592
0.103891709282
0.00527404537193
0.0999255192297
0.00534813303103
0.0960058401795
0.0054462264888
0.0920036907251
0.00552618077318
0.088033070751
0.0056237419052
0.0839832557937
0.00570081696129
0.0799602306061
0.00579025385446
0.075866409899
0.00585897708186
0.0717967502013
0.00593643940464
0.0676659361736
0.0059941270988
0.0635570064528
0.00605765433111
0.059396776285
0.00610274451436
0.055256130071
0.00615092449323
0.051074007743
0.00618184619746
0.0469092912043
0.00621291201503
0.0427138472307
0.00622825852172
0.0385362658781
0.00624258416018
0.0343416830609
0.00624363029997
0.0301680812951
0.00624099744494
0.0259930931321
0.00622475264259
0.0218488940946
0.00620025724676
0.0177352246285
0.00615325934814
0.0136742190984
0.00609618079322
0.00923575733642
0.00629993165485
0.00617736650547
0.00494331015816
0.00353825099097
0.00473788064776
0.00106845473102
0.00359657599257
0.00259212233677
-0.00199612695874
0.00611096068354
-0.00477712619678
0.00942462688868
-0.00364459857463
-1.5407713902e-06
0.00040986904134
-0.00741529106529
0.00683338548438
-0.012131148949
0.0149768862117
-0.014960855468
0.0244575702608
-0.0162274369473
0.034172673959
-0.0170167104129
0.0446995912836
-0.0180122042401
0.0553779535862
-0.0190465803949
0.066193225488
-0.0198890853396
0.0770723386188
-0.0205129276328
0.0879857364705
-0.0209215616927
0.0988336700929
-0.0211482542927
0.109584448698
-0.021198027728
0.120140212723
-0.0210976827082
0.130479781331
-0.0208455396343
0.140512678701
-0.0204681543271
0.150230773461
-0.0199633750386
0.159553234773
-0.0193600872321
0.168485923428
-0.0186562115121
0.176958711138
-0.0178819815266
0.184991579364
-0.0170344240335
0.192526222903
-0.0161440572002
0.199592836028
-0.0152076022696
0.206138824003
-0.0142549072603
0.212206767063
-0.0132786127249
0.217751175301
-0.0123069206918
0.222823154035
-0.011329248452
0.227386098086
-0.0103709648745
0.23149988656
-0.00942016781477
0.235132263409
-0.00850315401782
0.238346542519
-0.00760775791702
0.241115177704
-0.00675954101781
0.243509453319
-0.00593880650584
0.245498565157
-0.00515015345017
0.247138240446
-0.00437490386772
0.248396891266
-0.00364837964508
0.249343513662
-0.00295197015446
0.249955935011
-0.00229130932728
0.250278385338
-0.00159310969906
0.250254133651
-0.000863480639982
0.249934528201
-0.000116655378402
0.249280310607
0.000615940707426
0.248344945946
0.00134510278887
0.247089826844
0.00204779565146
0.245567960844
0.00273841659434
0.243741945264
0.00339648364311
0.241664802371
0.00403739422884
0.239301001095
0.00464202569902
0.236703641175
0.00522620517208
0.233839153774
0.00577211230192
0.230760453023
0.00629595412693
0.227435858753
0.00678120235651
0.223917543999
0.00724413926674
0.220175354792
0.0076692837182
0.216260281518
0.00807261393328
0.212143462375
0.00843928888033
0.207874014916
0.0087843453853
0.203423813772
0.0090929501179
0.198840098514
0.00937851281742
0.194094386158
0.00962488614386
0.189222679093
0.00984207390144
0.18415628277
0.0100136332445
0.178782925976
0.0101606314394
0.173254484156
0.0103527551798
0.16778237332
0.0105854921028
0.162224591294
0.0107734523081
0.156600672385
0.0109457326571
0.150885329465
0.0111047637367
0.145116958187
0.0112661382536
0.139270756694
0.0114183834304
0.13338022696
0.0115703558926
0.127421773475
0.0117104559729
0.121425889725
0.0118469206638
0.115371323325
0.0119699121755
0.109285833457
0.0120872621598
0.103150723454
0.01219066118
0.0969908807573
0.0122871588126
0.0907901666509
0.0123696804884
0.0845704561967
0.0124442582552
0.0783181153492
0.0125048891453
0.0720516983714
0.0125565876768
0.0657603288934
0.012594702511
0.0594605009756
0.0126234212528
0.0531454564937
0.0126388131225
0.0468291531181
0.0126431778594
0.0405082775509
0.0126326207618
0.034194474116
0.0126060778944
0.0278897484359
0.0125523057167
0.0216042506195
0.0124770461967
0.0151905004033
0.0128033283043
0.00882608209644
0.0113855002375
0.00474259208576
0.00889491508399
0.00173595452508
0.00667269916604
0.00435950323756
-0.00280822865084
0.00876320211724
-0.00538682942609
0.0117711220546
-0.0039514302464
-0.00167819791024
0.00172092843946
-0.0133092030139
0.0104293955286
-0.021039757826
0.0205814665294
-0.0252989407373
0.0317020571896
-0.0275191317146
0.043403513935
-0.0288776635367
0.0552813053664
-0.0300384029902
0.0671646530477
-0.0310700427584
0.0790518414306
-0.0319070961045
0.0909285657004
-0.03251356348
0.102769496483
-0.0328781517137
0.114518928967
-0.0330074692049
0.126127866768
-0.0329094696399
0.137531762375
-0.032599082451
0.148683416497
-0.0320882090279
0.159524243348
-0.0313957680407
0.170016578658
-0.0305366994124
0.180112018805
-0.0295328829631
0.189784528731
-0.0284007958349
0.198996921887
-0.0271633365152
0.207734996595
-0.0258366502051
0.215972538986
-0.0244430210934
0.223705259636
-0.0229972582609
0.23091550829
-0.0215196981084
0.237608490416
-0.0200219630123
0.243774830544
-0.0185214794475
0.249427901434
-0.0170265871803
0.25456627608
-0.0155517036326
0.259210462126
-0.01410302246
0.263364172981
-0.0126938247135
0.267052173591
-0.0113292115775
0.27028276565
-0.0100220782667
0.273087631046
-0.00877226902963
0.275478148796
-0.00756785232908
0.277471197517
-0.00639177790125
0.279061728859
-0.00526138386624
0.280269963298
-0.00417958055579
0.281098855872
-0.00313822205369
0.281572390926
-0.00208144957442
0.281690401308
-0.000995115738214
0.281462167316
0.000100982738363
0.280886479395
0.00118223954099
0.279983119342
0.00224219712497
0.278753765664
0.00327213444405
0.277217767727
0.0042725484019
0.275376035787
0.00523764767756
0.273247052786
0.0061689840109
0.27083156247
0.00706142325985
0.268147836443
0.00791698445992
0.265197023109
0.00873130369933
0.26199746383
0.00950705869791
0.258550794571
0.0102407809061
0.254875262242
0.0109357701535
0.250972761408
0.0115893070373
0.246861120277
0.0122050062399
0.242542084253
0.0127804970595
0.238032372339
0.0133192772478
0.23333292244
0.0138189589602
0.228458533847
0.0142826311579
0.223407536074
0.0147077356387
0.218187263194
0.0150975496163
0.212783009272
0.0154535394523
0.207191794372
0.0157904785279
0.201455428376
0.0161284865698
0.195616973426
0.0164648866038
0.189652930122
0.0167783862588
0.183568524477
0.0170728662124
0.1773649834
0.0173515386822
0.171057132273
0.0176198020271
0.164645957344
0.0178764441478
0.158142850652
0.0181232818644
0.151546598509
0.018357829552
0.144866275108
0.01858134874
0.138099936076
0.0187917015958
0.131255358487
0.0189902045736
0.124330512346
0.0191751784595
0.117332204636
0.0193479077972
0.110258511185
0.0195070282901
0.103115338282
0.0196536554392
0.0959009186611
0.0197866435909
0.0886203333828
0.0199069231095
0.0812723566898
0.0200136200192
0.0738618647802
0.0201074371824
0.0663885668343
0.020187405706
0.0588567575648
0.0202534400241
0.0512664462156
0.0203038988786
0.0436208134942
0.020336204315
0.03592001115
0.0203394914538
0.0282034601813
0.0202813473048
0.0209997883138
0.0200962684031
0.0128516032745
0.0196207935948
0.00662823461898
0.0151883156569
0.00220422489267
0.0111668466041
0.00659533899633
-0.00310062271693
0.0117103897223
-0.00563322655587
0.0140758860355
-0.00357682493547
-0.00396351375984
0.00353825915108
-0.0206308157987
0.0129782613185
-0.0306672681747
0.0234958543093
-0.0359901404298
0.0346821642852
-0.0388669789003
0.04632100208
-0.0406677859678
0.058174399047
-0.0420342678477
0.0701197981392
-0.0431498688917
0.0821118791416
-0.0440261529913
0.0941178510206
-0.0446394422857
0.106098251692
-0.0449718161317
0.118001565364
-0.0450176897212
0.129772364809
-0.0447812760938
0.141352070241
-0.0442741463767
0.152686274494
-0.0435125849901
0.163722408054
-0.042517036425
0.174415221369
-0.0413100445349
0.184722722939
-0.0399164214991
0.194611123099
-0.0383611402667
0.204049941573
-0.0366700325366
0.213016823253
-0.0348677131397
0.221492087152
-0.0329787731278
0.229463397818
-0.03102570212
0.236920289033
-0.0290303074729
0.24385934216
-0.0270116333348
0.250278311001
-0.0249879083306
0.256181570622
-0.022974448249
0.261574212156
-0.0209859940674
0.266467113489
-0.0190349159851
0.270870642918
-0.0171336148536
0.274800519539
-0.0152929069762
0.278271257077
-0.0135240647077
0.281301388166
-0.0118313076597
0.283911846345
-0.0102047462526
0.286117384197
-0.00862144560335
0.287917082721
-0.00708270230996
0.289317179564
-0.00559918901048
0.290323566331
-0.00416165455174
0.290951287066
-0.00272391772656
0.291208234261
-0.0012645935223
0.291094531188
0.000204204730935
0.290617656792
0.00165087795153
0.289791515639
0.00306216814356
0.288628184367
0.00443161114011
0.287141968876
0.00575700842447
0.285343945234
0.00703624945698
0.283247063092
0.00826853108214
0.280861315965
0.00945218630887
0.278198753439
0.0105866446832
0.275268816488
0.0116706769064
0.2720830937
0.0127042941706
0.268650745967
0.013687013675
0.264982966585
0.0146195530455
0.261088524789
0.0155021288283
0.256978004083
0.0163360040331
0.2526594826
0.0171218409245
0.248142391166
0.0178611480688
0.24343355537
0.0185548326759
0.238540569068
0.0192046166601
0.233467941437
0.0198119446893
0.228219672157
0.0203796911097
0.222796657315
0.0209123529285
0.217206494211
0.0214183603705
0.211468115203
0.021906199873
0.205596931241
0.0223763261964
0.1995926423
0.0228240211973
0.193458035074
0.0232497710102
0.187197455172
0.0236558274136
0.180817747293
0.0240447074603
0.17432362063
0.024417575192
0.167720375803
0.0247753596389
0.161010832686
0.0251181960052
0.154198482607
0.0254464654937
0.147284773273
0.0257601675338
0.140272000714
0.026059659968
0.133160738151
0.0263450294573
0.125952410889
0.0266166596772
0.118646915461
0.0268746935884
0.111244933779
0.0271194955302
0.103745786437
0.0273512202075
0.0961495474377
0.0275701942542
0.0884551846114
0.0277765861246
0.0806624428213
0.0279706424666
0.072769958318
0.0281523744124
0.0647766646703
0.0283216808885
0.0566799010098
0.0284780852287
0.0484761043478
0.0286198596431
0.0401584457111
0.0287386397669
0.0317268963
0.028795868295
0.0232621652129
0.0286461440953
0.0148545616996
0.0281089454221
0.00678955087188
0.0233285572195
0.00222205496997
0.0158024074112
0.00884729030125
-0.00364260531508
0.0152027534732
-0.00541364203944
0.0156232705866
-0.00271576108746
-0.00687843634717
0.00466659003276
-0.0282082104657
0.0140937157174
-0.0402726175159
0.0244305290043
-0.0464926645387
0.0353301173163
-0.0499218645308
0.0466470245647
-0.0521309701927
0.0582518320622
-0.0537773839847
0.0700486944615
-0.055077698798
0.0819699921946
-0.0560715304928
0.0939580730916
-0.0567450580187
0.105954690614
-0.0570797157335
0.117898239692
-0.0570666009886
0.129725701309
-0.0567084775789
0.14137498509
-0.0560178417549
0.152787567968
-0.0550145484276
0.163909619977
-0.0537236939331
0.174693275209
-0.0521738138418
0.185096590786
-0.0503955362938
0.195084032824
-0.0484203337754
0.204625889261
-0.046279723386
0.213698423292
-0.0440044215179
0.222283040989
-0.04162396109
0.230366269828
-0.0391661438169
0.237938971674
-0.0366568858726
0.244996437149
-0.034119884349
0.25153760904
-0.0315767401914
0.257565213487
-0.0290468365541
0.263085021257
-0.0265476623002
0.268105779251
-0.0240948793499
0.272638417786
-0.0217027166023
0.276696648525
-0.0193851354503
0.28029497841
-0.01715380571
0.283447256995
-0.0150126603246
0.286169572341
-0.0129536074255
0.288481081993
-0.0109571040829
0.290388723358
-0.00901198974721
0.291891690734
-0.00712166310865
0.292993147484
-0.00527993750195
0.293702885358
-0.00344815434108
0.294025425371
-0.00159930291424
0.29396062372
0.000258865987529
0.293517763587
0.00208594984145
0.292710447787
0.00386376384541
0.291553817397
0.00558487442682
0.290063075727
0.00724646798816
0.28825291675
0.00884748734995
0.286137276711
0.0103873416879
0.283729403261
0.0118655762257
0.281041850444
0.0132817857268
0.278086677788
0.0146357768597
0.274875390728
0.0159275843059
0.271419131593
0.0171576225053
0.267728517688
0.0183266019694
0.263813817016
0.0194356209377
0.25968467673
0.0204859954065
0.255350312236
0.0214793484221
0.250819080683
0.0224174348398
0.246098840441
0.0233023156481
0.241196361381
0.0241362182269
0.236117777646
0.0249219033673
0.230868168448
0.0256626913835
0.225452802599
0.0263631513059
0.219879486523
0.0270288727689
0.214159518252
0.0276650735923
0.208302033603
0.0282738640144
0.202311842856
0.0288556173698
0.196192663586
0.0294114569566
0.189949040042
0.0299434538471
0.183585542536
0.0304536287625
0.177106555963
0.0309437560437
0.170515661086
0.0314151243383
0.163815808306
0.0318688345434
0.157009107815
0.0323057164662
0.150097135665
0.0327266176919
0.14308077677
0.0331322390925
0.135960498953
0.0335233722237
0.128736171056
0.0339006886697
0.121407296968
0.0342649569032
0.113972825371
0.0346168262565
0.106431370046
0.0349570401223
0.0987810574927
0.0352862384703
0.0910197101023
0.0356051645176
0.0831447283835
0.0359144675253
0.0751529667383
0.03621488335
0.0670405279435
0.0365070494935
0.0588022019085
0.0367915597844
0.0504313500977
0.0370678743217
0.041920733143
0.0373277721095
0.0332750647087
0.03752121417
0.0245839127656
0.0374179460162
0.0165346666018
0.0362431891263
0.00756521341508
0.0323803753391
0.00249088801673
0.0209429535811
0.0113686028052
-0.00407965076978
0.0191356468981
-0.00547826636134
0.0168001944387
-0.00244750934421
-0.0101157455418
0.00502408202018
-0.0358654788091
0.0142711056222
-0.0496903146099
0.0243312189466
-0.0567123171486
0.034938165849
-0.0606791094543
0.0459931128206
-0.0633280533094
0.0574111556767
-0.0653302066856
0.0691079704154
-0.066902383014
0.0810028480917
-0.0680878201748
0.0930182126028
-0.0688756107462
0.105077701016
-0.069248539457
0.117106290483
-0.0691988562258
0.129031228489
-0.0687317864396
0.140783949694
-0.0678638075246
0.152301241636
-0.0666203265157
0.163526473509
-0.0650327800655
0.17440979713
-0.0631366971088
0.184908513092
-0.0609696161132
0.194986636465
-0.0585699272249
0.204614814512
-0.0559755382513
0.213769621122
-0.0532232958311
0.222433299264
-0.0503481823886
0.230593009743
-0.0473831030297
0.238240590849
-0.0443584409698
0.245371900139
-0.0413020918552
0.251986618036
-0.038239299917
0.258087684043
-0.0351928656042
0.263681110863
-0.0321831881186
0.268775378852
-0.0292285480819
0.27338126917
-0.0263453357091
0.277512051745
-0.0235501244449
0.281181475273
-0.0208549086399
0.284400902393
-0.0182613225881
0.287182577732
-0.0157620576722
0.289546699911
-0.0133455225343
0.291504133904
-0.0109912448925
0.293050922952
-0.00868797608647
0.294188442013
-0.00643431606267
0.294922818318
-0.0041968170669
0.295253232439
-0.00194179552668
0.295182073908
0.000320200828654
0.294719484483
0.00254099067677
0.293879852033
0.00469806698582
0.292679660785
0.00678201028176
0.291135783043
0.00878949564513
0.289264943455
0.0107197437874
0.287083055517
0.0125728292856
0.284605373907
0.0143491147701
0.281846158927
0.0160490196321
0.278819044002
0.017673150252
0.275536752386
0.0192222824555
0.272011494673
0.0206975308014
0.268254639428
0.0221002636005
0.264277088101
0.023432216269
0.260088888061
0.0246953523134
0.255699617271
0.025891954011
0.251117896546
0.0270244741831
0.246351896586
0.0280956869661
0.241408818944
0.0291085631236
0.23629547912
0.0300665082299
0.231018087743
0.0309732906459
0.225583058547
0.0318332610035
0.219997715808
0.0326510649676
0.214270322841
0.0334309718095
0.208408077753
0.034176008833
0.202416629669
0.0348884022133
0.196300449992
0.0355702833964
0.190064019998
0.0362240350931
0.183711350049
0.0368519373029
0.177246269591
0.0374561497437
0.170671848278
0.0380385167564
0.163990702995
0.0386007331404
0.157204633002
0.0391442657499
0.150314979217
0.039670537029
0.143322342075
0.0401808364073
0.136226914752
0.0406764668807
0.129028209796
0.0411586406156
0.121725360407
0.0416286018943
0.114316849827
0.0420875281497
0.106800802182
0.0425366407291
0.0991747377052
0.0429771293155
0.091435813604
0.0434102614851
0.0835806185838
0.0438373363521
0.0756051030008
0.044259800184
0.0675042829576
0.0446792563333
0.0592717755188
0.0450975274829
0.0508991883105
0.0455156527415
0.042376310106
0.04592696157
0.0336963528867
0.0462788548115
0.0248815354538
0.0463108740597
0.0161271267206
0.04507740441
0.00788331758832
0.0407043581267
0.00262882655607
0.0262631663168
0.0140271659419
-0.00451512457563
0.0235062813634
-0.00584778106974
0.0179129677564
-0.00272395292454
-0.0134369820412
0.00475024383482
-0.043517173489
0.0137944314415
-0.0588985693336
0.0236005843538
-0.0666725523837
0.0339842531922
-0.0712085125405
0.0448808853913
-0.07436291983
0.056221433878
-0.076802046121
0.0679201936431
-0.0787259409538
0.079883031819
-0.080169244405
0.0920141240066
-0.0811194376861
0.104219753727
-0.0815612415428
0.116410405603
-0.0814912815241
0.128502559526
-0.0809205774457
0.140419789493
-0.0798728849896
0.152093768198
-0.0783815056418
0.163464512178
-0.0764863927314
0.174480547396
-0.0742313909316
0.185098496098
-0.0716622763437
0.195282712346
-0.0688250118037
0.205004586963
-0.0657646573312
0.214241976301
-0.0625243979948
0.222978482461
-0.0591450389921
0.231202855283
-0.0556645489066
0.238908389852
-0.0521179057683
0.246092401572
-0.0485369740015
0.252755767518
-0.0449505744703
0.258902458668
-0.0413845915136
0.264539176888
-0.0378621486063
0.269674871765
-0.034403796977
0.274320525614
-0.031027913627
0.278489354473
-0.0277533498404
0.282194458729
-0.0245919020613
0.285445926393
-0.0215422441703
0.288255474798
-0.018598594549
0.290639886092
-0.0157543870215
0.292609052747
-0.0129824325739
0.29416037411
-0.0102589844732
0.29529430377
-0.00758508240525
0.296013464473
-0.00493024097046
0.296313955681
-0.00225423758301
0.296200004052
0.000424474267657
0.295682782484
0.0030509089929
0.294777540034
0.00559824924386
0.293501919013
0.00805488004993
0.29187425796
0.0104166179613
0.289912969633
0.0126827650076
0.287635765275
0.0148539580943
0.285059630717
0.016931412638
0.282200479279
0.0189164987526
0.279073370021
0.0208108014958
0.275692300312
0.0226160435072
0.272070485292
0.024334241054
0.268220164697
0.0259676198456
0.26415288094
0.027518729989
0.25987924637
0.0289903173564
0.255409235999
0.0303854231325
0.250751904805
0.0317072478887
0.245915758311
0.0329592782053
0.24090848577
0.0341451589212
0.235737367132
0.0352688490085
0.230409218172
0.0363344969184
0.224930815333
0.0373465298988
0.219309075997
0.0383093780005
0.213551033898
0.0392272461596
0.207663043603
0.040103715841
0.201650714547
0.0409419635573
0.195518756059
0.0417448906431
0.189271580163
0.0425153917631
0.182913021635
0.0432561869249
0.176446605345
0.0439698912067
0.169875196868
0.0446588714711
0.163201212187
0.045325369424
0.156426369325
0.0459714234699
0.149551916171
0.0465990088898
0.142578434353
0.0472099613716
0.135506062614
0.0478061052078
0.128334304165
0.0483891667735
0.121062246077
0.0489608913607
0.113688353591
0.0495229573634
0.106210708743
0.0500770915077
0.0986268105367
0.0506250004016
0.0909337897309
0.0511684982237
0.0831282311006
0.0517094756633
0.0752061346421
0.0522500785752
0.0671626499754
0.0527927726841
0.0589915714111
0.0533405126782
0.0506846842813
0.0538960636036
0.0422313909746
0.0544550034327
0.0336203139796
0.0549649304846
0.0248598607959
0.0551471561883
0.0161011574018
0.0539145484422
0.00800678027805
0.0488752473765
0.00270192574313
0.0316320388428
0.0167591886407
-0.00500406526734
0.0283686222351
-0.00647208591024
0.0191609755443
-0.00341853186448
-0.0166794865098
0.00397318181403
-0.0510790895368
0.0128018647393
-0.0678852486773
0.0223928587582
-0.076412549568
0.0326310559558
-0.0815880627096
0.0434731416675
-0.0853393672588
0.0548496366186
-0.0883063549693
0.0666629672376
-0.0906608464783
0.078800980813
-0.0924229413111
0.0911481978232
-0.0935766653682
0.103592546332
-0.0941102741924
0.116029387906
-0.0940276617737
0.128363475196
-0.0933493974564
0.140510172727
-0.092109663766
0.152395635615
-0.0903527107823
0.163956826166
-0.0881291087658
0.175140843918
-0.0854929887098
0.185904356202
-0.0824995210989
0.196212590319
-0.0792033593264
0.206038575183
-0.0756572120221
0.215362108859
-0.0719111454521
0.224169031951
-0.0680118844485
0.232450330228
-0.0640026305268
0.240201537288
-0.059922812516
0.247422021259
-0.0558081960224
0.254114521704
-0.0516909078603
0.260284595279
-0.0475996934986
0.265940228645
-0.0435600695006
0.271091361784
-0.0395945671977
0.275749676397
-0.0357232859801
0.279928458289
-0.0319666798795
0.283640114113
-0.028335642131
0.286894084329
-0.0248258440621
0.289701192039
-0.0214328956615
0.292075074903
-0.0181529269566
0.294025330724
-0.0149549206363
0.295551364086
-0.0118048177425
0.296652660371
-0.0087033142047
0.29732792234
-0.00561969578454
0.297570886066
-0.0025091509949
0.297387659358
0.000598193031409
0.296790495631
0.00364092777818
0.295795779526
0.00658816988435
0.294422271778
0.00942587753134
0.292689757551
0.0121488961698
0.290618124353
0.0147563956136
0.288226730411
0.0172495745434
0.285534075625
0.0196304869844
0.282557588272
0.0219015930647
0.279313595867
0.0240655657322
0.275817291533
0.0261252790369
0.272082812977
0.0280837969526
0.268123253824
0.0299443998427
0.263950761166
0.0317105678893
0.259576536168
0.0333859869211
0.255010946938
0.0349745186678
0.250263500734
0.0364801980782
0.24534300548
0.0379072177717
0.240257567904
0.0392599252771
0.235014757652
0.040542807318
0.229621735456
0.0417604797386
0.224085341959
0.0429176038179
0.218412289144
0.0440188175211
0.212609007157
0.0450685270214
0.206681452338
0.0460708289946
0.200634997102
0.0470294975747
0.194474374725
0.0479480885
0.188203870103
0.0488299942358
0.181827243305
0.0496784525349
0.175347822898
0.0504965311666
0.168768393797
0.0512871274307
0.162091244536
0.0520529700052
0.15531810254
0.0527966477217
0.148450181352
0.0535206235026
0.141488152218
0.0542272691307
0.134432189221
0.0549188738703
0.127281943881
0.0555976751451
0.120036598729
0.0562658621501
0.112694827898
0.0569256070672
0.105254887384
0.0575790710301
0.0977145790065
0.0582284484746
0.090071341866
0.0588759926957
0.0823222568167
0.0595240988737
0.0744639384884
0.0601753922609
0.0664924657655
0.0608329291327
0.0584030620677
0.0615003938072
0.0501894586079
0.0621815663494
0.0418437500935
0.0628735276319
0.0333586177031
0.0635242068511
0.0247424982739
0.063836793328
0.0161304167933
0.0626008692214
0.00813613914712
0.0569460755889
0.00273479986038
0.0370964501509
0.0195232944558
-0.00557654171464
0.0338048953994
-0.00732772782196
0.0206926483942
-0.00444650452924
-0.0197421126566
0.0027708656262
-0.0584599833823
0.0113581005835
-0.0766248539354
0.020767137533
-0.0859657538046
0.0309361179177
-0.0918941369962
0.0418274354317
-0.0963612149697
0.0533569761719
-0.0999601529823
0.065404617249
-0.102826808773
0.0778336872971
-0.104964600998
0.0905051958419
-0.106355393626
0.103286813224
-0.10699391764
0.116057459871
-0.106895513884
0.128709786636
-0.1060942521
0.141150651517
-0.104638726725
0.153301122126
-0.102587157162
0.16509545314
-0.10000349814
0.176480204581
-0.0969539590774
0.187412774241
-0.0935047236087
0.197860301558
-0.0897199908534
0.207798230127
-0.0856609226591
0.217209296762
-0.0813847180909
0.226082321988
-0.0769443022477
0.234411388823
-0.0723880188027
0.242194913747
-0.067759715771
0.249435024368
-0.0630987856496
0.256136882599
-0.0584404437383
0.262308207713
-0.0538159481755
0.267958776418
-0.0492528999287
0.273100013069
-0.0447754717238
0.277744966616
-0.0404053752007
0.281907066501
-0.0361634548089
0.285597772085
-0.0320585757378
0.288826219291
-0.0280841131826
0.291602355631
-0.0242364101182
0.293936394925
-0.0205118060184
0.295839236793
-0.0168801848118
0.297313272653
-0.0132988639187
0.298355975154
-0.00976297281882
0.298960976825
-0.00623895922672
0.299120792856
-0.00268085082961
0.298843693811
0.000865846988569
0.298143472945
0.0043341936788
0.297037712202
0.00768932459529
0.295546467396
0.0109148706695
0.293690834413
0.0140045336718
0.291492136272