/*--------------------------------*- C++ -*----------------------------------*\
| =========                 |                                                 |
| \\      /  F ield         | OpenFOAM: The Open Source CFD Toolbox           |
|  \\    /   O peration     | Version:  v1906                                 |
|   \\  /    A nd           | Web:      www.OpenFOAM.com                      |
|    \\/     M anipulation  |                                                 |
\*---------------------------------------------------------------------------*/
FoamFile
{
    version     2.0;
    format      ascii;
    class       volScalarField;
    location    "923";
    object      pa;
}
// * * * * * * * * * * * * * * * * * * * * * * * * * * * * * * * * * * * * * //

dimensions      [0 2 -2 0 0 0 0];


internalField   nonuniform List<scalar> 
9216
(
915.039853006
914.734427957
914.102586899
913.13883872
911.84859808
910.237921847
908.314362639
906.086825082
903.565452033
900.761470686
897.687082565
894.355300685
890.779840715
886.97495597
882.955338365
878.735960021
874.331991072
869.758654117
865.031162947
860.164593129
855.17384286
850.073520344
844.877925709
839.600954026
834.256095887
828.856353987
823.414259414
817.941799613
812.450447607
806.951099361
801.454113204
795.96925692
790.505755716
785.072242057
779.6768119
774.326983117
769.029755645
763.791573829
758.618390642
753.515633992
748.488273529
743.540790134
738.67724416
733.901247476
729.216032142
724.624424403
720.12891286
715.73162389
711.434388477
707.23871854
703.145871644
699.156827812
695.27235147
691.492968357
687.819024174
684.250661361
680.787874093
677.430484801
674.178195325
671.030563229
667.987049116
665.0469929
662.209657427
659.474205015
656.839737643
654.305274127
651.869787202
649.532181732
647.291329056
645.14604659
643.095129749
641.137333279
639.271401019
637.496049184
635.809994131
634.21193775
632.700593324
631.274673049
629.932911989
628.674057685
627.496892126
626.400223334
625.382905194
624.443830852
623.581950199
622.796264829
622.085842858
621.449814976
620.887385799
620.397829389
619.980493436
619.634785761
619.360148421
619.155948757
619.020316621
618.960950976
915.344304104
915.037150921
914.403659993
913.435554045
912.139106073
910.520660145
908.587934584
906.349980668
903.817079149
901.000604892
897.91290138
894.567132304
890.97715258
887.157359932
883.122573796
878.887896469
874.468607504
869.880040576
865.137497644
860.256144463
855.250945758
850.136579635
844.927392695
839.637331729
834.279916346
828.868185463
823.41468459
817.931424582
812.429880966
806.920962844
801.415022352
795.921830693
790.450596013
785.009948749
779.607964532
774.252153769
768.949490763
763.706408292
758.52883045
753.422170832
748.391368176
743.440887324
738.5747567
733.796571281
729.109531038
724.516445218
720.019770935
715.62161811
711.323787485
707.127775614
703.034811614
699.045861679
695.161663992
691.382732316
687.7093886
684.141765334
680.679835553
677.323413787
674.072183321
670.925695746
667.883395522
664.944618268
662.108612819
659.374538543
656.741485186
654.208469573
651.774453602
649.438340728
647.19899248
645.055225095
643.005824899
641.049545408
639.185121852
637.411268963
635.726694822
634.130099481
632.620188205
631.19567097
629.855275097
628.597745574
627.421857002
626.326414619
625.310265414
624.37229969
623.511461148
622.726748778
622.017225689
621.382021099
620.820337725
620.331453912
619.914730555
619.569617655
619.295674505
619.092640512
618.96079936
618.901532845
915.977650515
915.665768577
915.026514442
914.049703248
912.741706234
911.109005376
909.159512239
906.902499744
904.348485061
901.509094189
898.39692467
895.025399068
891.408623716
887.561244128
883.498311875
879.23515188
874.787245373
870.170115191
865.399229055
860.489905533
855.457238679
850.316024422
845.080705169
839.765314475
834.383438843
828.948177719
823.472119425
817.96731365
812.445258878
806.916885097
801.392550714
795.882033284
790.394534664
784.938679117
779.522524148
774.153564306
768.838747312
763.584482456
758.39666061
753.280666096
748.24139959
743.283292553
738.410332116
733.626077274
728.933684949
724.335927189
719.835217653
715.433629134
711.132919759
706.93455018
702.83970885
698.849328293
694.964108891
691.184533751
687.510890551
683.943284651
680.481658717
677.125803876
673.875377002
670.72990991
667.688824368
664.751439474
661.916984614
659.184605313
656.553374473
654.022297073
651.59032007
649.256336363
647.019193767
644.877698616
642.830624171
640.876714193
639.014691066
637.243259577
635.561114934
633.966946885
632.459447726
631.037316784
629.699268396
628.44403671
627.270383541
626.177103369
625.163030917
624.227046181
623.368081554
622.585126696
621.87723505
621.243528464
620.683203163
620.195534586
619.779884189
619.435707628
619.162569382
618.960178818
618.828676481
618.765986282
916.951322593
916.633994398
915.985735293
914.995324308
913.669327807
912.014459826
910.038926183
907.752337975
905.165580489
902.290668729
899.14059867
895.729194102
892.070955441
888.180910794
884.074474838
879.76731438
875.275225415
870.614019266
865.799421917
860.846982979
855.771997871
850.589438751
845.313897478
839.959535601
834.54004467
829.068611695
823.557893295
818.019993448
812.4664487
806.908215872
801.355666361
795.818582088
790.30615785
784.827003374
779.389151803
774.000068275
768.666663008
763.395304248
758.191835226
753.061590471
748.009415615
743.039686145
738.156329197
733.36284394
728.662324576
724.057481612
719.550665332
715.14388726
710.838843399
706.636935215
702.539291987
698.546790697
694.660076921
690.879583089
687.205547464
683.638030397
680.176931093
676.822001652
673.572861516
670.429009288
667.389834942
664.454629588
661.622595693
658.892855114
656.264457698
653.736387991
651.307572653
648.976886286
646.743158092
644.605177248
642.561699188
640.611450859
638.753136942
636.98544523
635.307052965
633.716632479
632.212857731
630.794410226
629.459985735
628.208300423
627.038097643
625.948154149
624.937286796
624.004358656
623.148285456
622.368041415
621.662665275
621.0312658
620.473027471
619.987215977
619.573184335
619.230379507
618.95835017
618.756759805
618.625656307
618.562365224
918.269356177
917.945022762
917.284454676
916.275418814
914.924780751
913.239592227
911.228468945
908.90148927
906.270047406
903.346694628
900.144976499
896.679267989
892.964610903
889.01655632
884.851015267
880.484119101
875.932091678
871.211133628
866.337319797
861.326509148
856.194267339
850.955800491
845.625899837
840.218895394
834.748618233
829.228369565
823.67089646
818.088372725
812.492385132
806.893923775
801.303376976
795.730529718
790.184566603
784.674075356
779.207056138
773.790932182
768.432563053
763.138259552
757.913800731
752.764452028
747.694985025
742.709697917
737.812437187
733.006619615
728.295255124
723.680969612
719.166028242
714.75235839
710.441572679
706.234991349
702.133664364
698.138392547
694.24974815
690.468094199
686.793603036
683.226273458
679.765946914
676.412322231
673.164969349
670.023341631
666.986787244
664.054559253
661.225824937
658.49967403
655.875126393
653.351138861
650.926611762
648.60039486
646.371293202
644.238072618
642.199465313
640.254175298
638.400884041
636.63825609
634.964944978
633.379599161
631.880868256
630.467409308
629.137893311
627.891011732
626.725483189
625.640060068
624.633535189
623.704748316
622.852592615
622.076020866
621.374051546
620.745774639
620.190357296
619.707049325
619.295188562
618.954205614
618.683627928
618.483084805
618.352580623
618.289355857
919.938401364
919.605205068
918.928871085
917.895940806
916.513690156
914.789625785
912.732904713
910.354217314
907.665621813
904.680366648
901.412709983
897.877738912
894.091192764
890.069293772
885.828588037
881.385798658
876.757692659
871.96096234
867.012121493
861.927416
856.722748246
851.413614004
846.0150506
840.541594636
835.007248023
829.425450808
823.809059982
818.170333272
812.520917625
806.871841784
801.233512968
795.615717203
790.027623999
784.47779084
778.974174564
773.524143435
768.13449167
762.811455785
757.560732696
752.38749912
747.296432276
742.291731488
737.377140695
732.555971517
727.831126872
723.2051248
718.680122487
714.257940145
709.940084726
705.727773145
701.621954969
697.623334287
693.732390724
689.949399341
686.274449434
682.707462023
679.248206082
675.896313382
672.651292048
669.512538763
666.479349782
663.550930744
660.726405483
658.004823872
655.385168916
652.866363164
650.447274638
648.126722375
645.903481737
643.776289581
641.743849429
639.804836674
637.957903939
636.201686601
634.534808535
632.95588808
631.463544235
630.056403057
628.733104254
627.492307904
626.332701286
625.253005749
624.251983574
623.328444758
622.481253685
621.709335609
621.011682921
620.38736115
619.835514688
619.355372149
618.94625131
618.607563101
618.338814124
618.139610358
618.009935561
617.947072271
921.966901187
921.622783433
920.926986389
919.864545422
918.443263969
916.671233536
914.558301076
912.115932525
909.357023628
906.295698429
902.94710645
899.327221892
895.452649437
891.340440377
887.00792182
882.472541098
877.751726649
872.86276613
867.822701713
862.648242053
857.355689695
851.960882374
846.47914621
840.925258865
835.313420644
829.657232053
823.969676509
818.263107528
812.549239886
806.839144639
801.143247957
795.471333496
789.832548849
784.23541176
778.687823734
773.197083792
767.769904624
762.412430589
757.130257189
751.928451907
746.811576094
741.783707837
736.848465544
732.009032178
727.26817988
722.628294911
718.091402636
713.659192471
709.333042502
705.114043682
701.003023331
697.000567832
693.107044278
689.322620991
685.647286722
682.080868481
678.6230479
675.273376124
672.031287216
668.896110143
665.867079385
662.943344312
660.123977415
657.407981573
654.794296474
652.281804405
649.869335511
647.555672738
645.339556562
643.219689668
641.194741659
639.263353926
637.424144712
635.675714451
634.016651397
632.445537557
630.960954919
629.561491957
628.245750372
627.012352024
625.859945996
624.787215737
623.792886207
622.875730966
622.034579136
621.268322167
620.575920367
619.956409113
619.408904689
618.932609716
618.526817974
618.190918036
617.924396042
617.726840132
617.598219779
617.535895553
924.365248382
924.007949574
923.28868648
922.190670621
920.722365821
918.892596913
916.712071845
914.193219317
911.349969536
908.197522592
904.752118037
901.030809488
897.051249374
892.831487605
888.38978706
883.744457799
878.913711307
873.915535207
868.767588308
863.487114948
858.09087707
852.595101694
847.01544122
841.366943747
835.664030956
829.920481444
824.149418245
818.363299727
812.573913777
806.792375214
801.02912744
795.293946132
789.595948156
783.943600375
778.344735127
772.806566209
767.335707049
761.938190494
756.619490022
751.384542079
746.237769463
741.1831055
736.22401899
731.363539652
726.604284045
721.948481684
717.398001286
712.954376859
708.618833521
704.392312768
700.275497053
696.26883339
692.372555878
688.586706881
684.911156796
681.345622235
677.889682596
674.542794951
671.304307302
668.173470227
665.149447037
662.231322535
659.418110571
656.708760534
654.102162988
651.597154621
649.192522731
646.88700939
644.679315488
642.568104774
640.552008057
638.629627621
636.799541978
635.060310977
633.41048131
631.848592413
630.373182762
628.982796505
627.675990409
626.451341052
625.30745219
624.242962229
623.256551727
622.346950848
621.512946679
620.753390352
620.067203879
619.453386653
618.911021524
618.439280356
618.037428988
617.704831238
617.440951735
617.245361199
617.118015378
617.056366895
927.145965327
926.772992185
926.025878363
924.885661363
923.361621051
921.463490611
919.203039256
916.593875986
913.651191827
910.391490718
906.832325254
902.992041785
898.889540222
894.544052452
889.974942025
885.201526992
880.242926909
875.117934424
869.844910913
864.441704895
858.925590878
853.313225652
847.620618276
841.863110109
836.055361349
830.21134162
824.344322914
818.466874545
812.590860202
806.727437781
800.887063512
795.079497644
789.31381549
783.598419402
777.941056622
772.348837824
766.828257551
761.385216158
756.02504287
750.752519905
745.571907397
740.486969138
735.500998913
730.616847423
725.836949556
721.163351964
716.597740646
712.141468486
707.795582383
703.560849885
699.437784969
695.426672835
691.527593391
687.740443319
684.064956457
680.500722463
677.047203572
673.703749519
670.469610549
667.343948671
664.325847194
661.414318766
658.608312039
655.906717234
653.308370765
650.812059208
648.416522782
646.12045861
643.922523898
641.821339247
639.815492204
637.903541186
636.084019844
634.355441923
632.716306637
631.165104566
629.700324029
628.320457908
627.024010854
625.809506802
624.675496711
623.620566454
622.643344743
621.742511029
620.916803252
620.165025382
619.486054658
618.878848435
618.342450576
617.875997337
617.478722603
617.149962031
616.889156707
616.695859066
616.570007928
616.50915795
930.323913979
929.93248774
929.15266663
927.962924688
926.373546303
924.395383327
922.041504957
919.326956583
916.268453215
912.884063889
909.192906614
905.214858589
900.97028723
896.479805507
891.764054027
886.843511323
881.738333339
876.46822226
871.052324151
865.509153567
859.856542278
854.111607804
848.290736848
842.409578232
836.483040754
830.525292418
824.54975951
818.569125293
812.595329557
806.639570228
800.712309728
794.823283053
788.981510362
783.195313364
777.472335844
771.8195651
766.243355117
760.749450811
755.343013251
750.028645572
744.810419682
739.691903549
734.676189172
729.765920997
724.963324807
720.270236815
715.688132906
711.21815771
706.861153391
702.617687774
698.488081663
694.472434947
690.570651351
686.782461466
683.107443959
679.545044723
676.094593931
672.755320903
669.526366865
666.406795647
663.395602489
660.491721132
657.694029429
655.001353724
652.412472278
649.926117986
647.540980702
645.255709349
643.068914113
640.979168846
638.985013889
637.084959402
635.277489297
633.561065828
631.93413484
630.39513167
628.942487663
627.574637237
626.290025418
625.087115765
623.96439857
622.920399245
621.95368678
621.062882158
620.24666664
619.503789808
618.833077278
618.233437988
617.703871019
617.243471802
616.851437729
616.527072921
616.269791904
616.079125836
615.954994101
615.895063033
933.916550856
933.503540681
932.685570843
931.438118398
929.77270342
927.701554318
925.239328703
922.402813516
919.210556423
915.682493322
911.83959466
907.703535401
903.296393528
898.640379924
893.757601164
888.669856414
883.398469082
877.964153633
872.386916853
866.685991714
860.879799931
854.985937754
849.021177808
843.001479603
836.942001879
830.857112338
824.760392839
818.664641087
812.581871208
806.523316188
800.499435582
794.519926603
788.593737582
782.729090488
776.933504321
771.213820149
765.576227288
760.026290243
754.568976073
749.208682322
743.949265414
738.794069697
733.745956993
728.807336752
723.98019658
719.266133147
714.666383167
710.18185436
705.813156035
701.560629099
697.424375074
693.404283893
689.500060051
685.711246901
682.037248765
678.477350743
675.030736027
671.696500756
668.473666377
665.36118969
662.357970705
659.462858586
656.67465593
653.992121722
651.413973258
648.938887398
646.565501426
644.292413848
642.118185359
640.041340218
638.060368194
636.173727232
634.379846908
632.677132724
631.063971246
629.538736063
628.099794487
626.74551494
625.474274915
624.284469404
623.17451966
622.142882195
621.188057863
620.308600909
619.503127881
618.770326264
618.108962764
617.517891124
616.996059407
616.542516705
616.156419165
615.837034932
615.583748623
615.396067771
615.273888169
615.214997715
937.944241874
937.506077938
936.643793192
935.329379215
933.575882061
931.397227292
928.810014317
925.833138705
922.48734545
918.794787301
914.778614408
910.462598933
905.870798136
901.027256936
895.955750345
890.679566092
885.221328303
879.602862856
873.845104411
867.968043146
861.990706775
855.931170274
849.806583492
843.633205518
837.426436094
831.200837493
824.970145302
818.747270685
812.544299474
806.372493287
800.242297543
794.163355798
788.144524359
782.193902638
776.318860131
770.526065692
764.821517309
759.210571781
753.697974415
748.287888802
742.983927008
737.789180228
732.706250111
727.7372806
722.883990366
718.147705576
713.529392942
709.029692724
704.648951496
700.387254251
696.244455553
692.22020924
688.313996367
684.525150931
680.852883149
677.296299973
673.854422772
670.526202075
667.310529476
664.20624681
661.212152853
658.327007821
655.549536034
652.8784271
650.312336039
647.849882719
645.489651011
643.230187967
641.070003377
639.007569909
637.041324077
635.169668131
633.390973003
631.703582298
630.105817357
628.595983311
627.172376069
625.833290111
624.577026989
623.401904369
622.306265496
621.288488912
620.346998296
619.480272264
618.686854014
617.965360666
617.3144922
616.733039891
616.219894158
615.774051735
615.394622158
615.080833405
614.832036241
614.647710689
614.527726422
614.47000267
942.430652761
941.963216105
941.049545517
939.657597478
937.80231326
935.499720975
932.768799557
929.630998524
926.109692838
922.229658648
918.016598465
913.496716818
908.696346434
903.641623025
898.358206731
892.87104985
887.204211826
881.380723503
875.422501841
869.350314171
863.183786888
856.941448871
850.640795226
844.298355031
837.92974783
831.549719566
825.172156459
818.810083279
812.475655815
806.180157597
799.934006805
793.746772703
787.627195147
781.583223642
775.62204922
769.750139099
763.973270362
758.296562582
752.724509563
747.261010888
741.909403622
736.672494643
731.552593596
726.551546633
721.670770746
716.911288687
712.273764202
707.75853746
703.36566024
699.094930607
694.9459265
690.91803784
687.010496531
683.222404018
679.552755878
676.000463263
672.564370923
669.243271852
666.035918538
662.941031087
659.957302448
657.083401147
654.317971937
651.659634841
649.106983064
646.658580267
644.31295763
642.068611153
639.923999511
637.877542794
635.927622318
634.072581695
632.310729197
630.640341482
629.059668606
627.566940278
626.160373213
624.838179478
623.598575651
622.43979264
621.360085975
620.357746415
619.431110674
618.578572114
617.798591251
617.089705905
616.450540913
615.87981725
615.376360498
614.939108637
614.567119022
614.259574195
614.015787033
613.835207318
613.717674283
613.661248087
947.403236882
946.901713296
945.92844977
944.446745116
942.473916372
940.028613834
937.132744487
933.81085524
930.089465291
925.996445201
921.560472
916.810555132
911.775627314
906.484192949
900.964029042
895.241936919
889.343546982
883.293180758
877.113774748
870.826867217
864.452643395
858.010026198
851.516791981
844.989685687
838.444511565
831.896184396
825.358741126
818.845325823
812.368166736
805.938564677
799.566893832
793.262622347
787.034344545
780.889826245
774.836045938
768.879235712
763.024919309
757.2779473
751.642530533
746.122272852
740.720204129
735.438813973
730.280086437
725.245535574
720.336241914
715.552889589
710.895804105
706.364990394
701.960170928
697.680823313
693.526216922
689.495447787
685.587471241
681.801131586
678.135188385
674.588338924
671.159236705
667.846505845
664.648751559
661.564566891
658.592536142
655.731235382
652.97923065
650.335074353
647.79730052
645.364419427
643.034912202
640.807225846
638.679769141
636.650909728
634.718972653
632.882240487
631.138955132
629.487321276
627.925511464
626.45167263
625.063933984
623.760416037
622.539240607
621.398541568
620.336476165
619.351236664
618.441062143
617.604250228
616.839168598
616.144266089
615.518083265
614.959262337
614.466556359
614.038837567
613.675104899
613.374490573
613.136265024
612.959843428
612.845032041
612.790041046
952.893849273
952.352536326
951.310028329
949.724266573
947.615579724
945.005917553
941.920808939
938.388564271
934.43945696
930.104993837
925.417299302
920.408596746
915.11077044
909.554992398
903.771404065
897.788850256
891.634669572
885.334550616
878.912464106
872.390677427
865.789848839
859.129185597
852.426635674
845.699072915
838.962435597
832.231793625
825.521346145
818.844376229
812.213197216
805.639123637
799.132465726
792.702557589
786.357808295
780.105758344
773.953133228
767.905892127
761.969270164
756.147815453
750.445423032
744.865368046
739.410339446
734.082475024
728.883397694
723.814253094
718.875748174
714.068190829
709.391530311
704.845398379
700.429150671
696.141907909
691.982596075
687.949984856
684.042723394
680.259372667
676.598433758
673.058371633
669.637634072
666.334665815
663.147917944
660.075852941
657.116945795
654.26968182
651.532551785
648.904045128
646.382641927
643.966804383
641.654968432
639.445536118
637.336869169
635.327284213
633.41504986
631.598385841
629.875464221
628.244412681
626.70331972
625.250241655
623.88321118
622.60024729
621.39936631
620.278593808
619.235977121
618.26959826
617.377586954
616.558133611
615.809501983
615.130041354
614.518198107
613.97252653
613.49169876
613.074513866
612.719905933
612.426950795
612.194871856
612.023046667
611.911243877
611.857832343
958.939529182
958.351570578
957.228307803
955.521541052
953.255472797
950.456248232
947.153904038
943.38133118
939.173276001
934.56549607
929.594082707
924.294912984
918.703197186
912.853093457
906.777372959
900.507131882
894.071559215
887.497777746
880.810779258
874.033470167
867.186830908
860.290170519
853.361432539
846.4174869
839.474339134
832.547211846
825.650505015
818.797688437
812.001191554
805.272342409
798.621361226
792.05740164
785.588633609
779.22231948
772.96488363
766.821970006
760.798487868
754.898648554
749.125998014
743.483448867
737.973314269
732.597343923
727.356762195
722.252307724
717.284274397
712.452553467
707.756676963
703.195862157
698.76905688
694.474984911
690.312190635
686.279081748
682.373968998
678.595101819
674.940699125
671.40897458
667.998156113
664.706499572
661.532296786
658.473878404
655.52961217
652.697897326
649.97715603
647.3658226
644.862331563
642.465105284
640.172542053
637.983005267
635.894814344
633.906237758
632.015488546
630.220722367
628.520038197
626.91148151
625.39304981
623.96270026
622.61835916
621.357932985
620.179320709
619.080427102
618.059176722
617.113528315
616.241489334
615.441130323
614.710598932
614.048133345
613.452074962
612.920880194
612.453131282
612.047546037
611.702986509
611.418466571
611.193157457
611.026394247
610.917905311
610.866226121
965.583510562
964.94052729
963.72256495
961.874425712
959.425380445
956.406975243
952.854893155
948.807605066
944.305164971
939.388261029
934.097504015
928.472881897
922.553319396
916.376296588
909.977500878
903.39050905
896.646515767
889.774140309
882.799350172
875.745536507
868.633757658
861.483133272
854.311325637
847.135001626
839.970152138
832.832182396
825.735787807
818.694725151
811.721601374
804.827763486
798.023297815
791.317107964
784.717049883
778.230039397
771.862142403
765.618641572
759.504082706
753.522307252
747.676479583
741.969115986
736.402117842
730.976808914
725.693975459
720.553908301
715.556446129
710.701020279
705.98670112
701.412246344
696.976150729
692.676696751
688.51200467
684.48008072
680.57886174
676.80625499
673.160171961
669.638555536
666.23940005
662.960764336
659.800777967
656.757641348
653.829620369
651.015036632
648.312254209
645.719664108
643.235667475
640.858658632
638.587008892
636.419052022
634.353072003
632.387293641
630.519876299
628.748910907
627.072420178
625.4883619
623.994634984
622.589088013
621.269529894
620.03374232
618.879493655
617.804553925
616.806710558
615.883784555
615.03364674
614.254233809
613.543563897
612.899751418
612.321021005
611.805720395
611.352332154
610.959484241
610.625959307
610.350702399
610.132827441
609.97162373
609.866774315
609.816988663
972.876550629
972.168109938
970.838254634
968.823883503
966.161037816
962.888311626
959.048503644
954.686874298
949.849729824
944.583409501
938.933599666
932.944848667
926.660182921
920.120754
913.365481138
906.430687505
899.349759654
892.152883468
884.866924662
877.515520774
870.119428877
862.697121475
855.265544189
847.840859694
840.438952414
833.075513805
825.765739128
818.523866362
811.362790872
804.293881746
797.327009584
790.470718885
783.732442842
777.118661458
770.635015212
764.286377939
758.076897962
752.0100182
746.088492052
740.314406288
734.689213626
729.21377198
723.888387718
718.712860526
713.686529194
708.808318689
704.076789601
699.490190384
695.046512487
690.743547253
686.578943014
682.550260137
678.655022011
674.890760018
671.255051176
667.745547476
664.359996589
661.096253923
657.952286567
654.926169798
652.016077247
649.220265847
646.537056927
643.964814741
641.501923831
639.146766475
636.897701425
634.753044925
632.711054865
630.769918602
628.927744837
627.182559559
625.532306
623.97484824
622.507978131
621.129425063
619.836868164
618.627950505
617.500294912
616.451520975
615.479262885
614.581187686
613.755013567
612.998527846
612.309604315
611.686219696
611.126468974
610.628579482
610.190923638
609.812030239
609.490594368
609.225485978
609.015755978
608.860642571
608.759780638
608.712060188
980.878710567
980.091548894
978.628169542
976.416690932
973.502419827
969.933283684
965.761088365
961.039316415
955.8215455
950.160472582
944.107364478
937.711729527
931.021058036
924.080533051
916.93266502
909.616854437
902.168930712
894.620753096
886.999985823
879.330168827
871.631182451
863.920132975
856.212553094
848.523633112
840.869061478
833.265076369
825.727787221
818.272273504
810.911899253
803.658033586
796.520176614
789.506327752
782.623337598
775.87713605
769.272863601
762.814941986
756.507098713
750.35236015
744.353045163
738.510779065
732.826527239
727.300639154
721.932896601
716.722562416
711.668428218
706.768863165
702.021865782
697.425120457
692.976058703
688.671924148
684.509838532
680.486865816
676.600071211
672.846572806
669.223583847
665.728444749
662.358644313
659.111830464
655.985811046
652.978545825
650.08813092
647.312777261
644.650784601
642.100512835
639.660352203
637.328694009
635.10390324
632.98429437
630.968111283
629.053512023
627.238558674
625.521212413
623.89933343
622.370685274
620.932943037
619.583704794
618.320505755
617.140834632
616.042151759
615.021908527
614.077567698
613.20662412
612.406625417
611.675192212
611.010037537
610.408985084
609.869986119
609.391134855
608.970682209
608.607047983
608.298831385
608.044819647
607.84399504
607.695541118
607.59903917
607.553565684
989.661798122
988.778650574
987.15389925
984.706193387
981.493894871
977.577472829
973.020143673
967.885235388
962.234600455
956.127881553
949.622287728
942.772571104
935.630989145
928.247124798
920.66751015
912.935068195
905.088448166
897.161383253
889.182246671
881.174013239
873.154827024
865.139289998
857.140379143
849.171549096
841.248232367
833.387799517
825.60808692
817.925662626
810.354626324
802.906249495
795.589350488
788.411054769
781.377401049
774.493631711
767.764313217
761.193387105
754.784161083
748.53924732
742.460516094
736.549099267
730.805432383
725.229309082
719.819938328
714.575998046
709.495683631
704.576756254
699.816595947
695.212261942
690.760561443
686.458124926
682.301484147
678.287148077
674.411672571
670.671720303
667.064108874
663.585845801
660.234150198
657.006461434
653.900435876
650.913932994
648.044992653
645.291805386
642.652677756
640.125994752
637.710181332
635.403664936
633.204840813
631.112041593
629.123512358
627.237391934
625.451700811
623.764335506
622.173068943
620.675556062
619.269343854
617.951885016
616.720554557
615.572668779
614.505506163
613.516329672
612.602409989
611.761049152
610.989604045
610.285509246
609.646298777
609.069626425
608.553284351
608.09521987
607.693550316
607.346575936
607.052790971
606.810893079
606.619789752
606.478604249
606.386861315
606.343828969
999.312798021
998.310611111
996.487674145
993.753020671
990.184066853
985.858350322
980.853443278
975.244198302
969.101540386
962.492346448
955.479842178
948.124096382
940.482333059
932.608915356
924.55494429
916.367505893
908.088675744
899.754462115
891.393945004
883.028946244
874.674610878
866.341217853
858.037251345
849.773105033
841.563979549
833.429641203
825.391220508
817.467905965
809.674904377
802.023070391
794.519894291
787.1710588
779.981480859
772.955576012
766.097280925
759.41006263
752.896858614
746.559906324
740.400625294
734.419616696
728.616734238
722.991160104
717.541477154
712.265729186
707.161466054
702.225787396
697.455394154
692.846652074
688.395669484
684.098386741
679.950670521
675.948405917
672.087579899
668.364351926
664.775108971
661.316503942
657.985477334
654.779262984
651.695379271
648.731607738
645.885961268
643.156644272
640.542007281
638.040498499
635.650614703
633.370853885
631.199671722
629.135443807
627.176435036
625.320777157
623.56645477
621.911299525
620.35299162
618.889067509
617.516932548
616.233877557
615.037098441
613.923718293
612.890811516
611.935429496
611.054627295
610.245490732
609.505163179
608.830871459
608.219950308
607.669864985
607.178231784
606.742836266
606.361649187
606.032840241
605.754789601
605.526097168
605.345589772
605.212326779
605.125770758
605.085385687
1009.93880779
1008.78598273
1006.71471058
1003.62554424
999.624970774
994.813908492
989.287585559
983.133764331
976.432680301
969.258144385
961.678977257
953.760299187
945.56434297
937.150657719
928.575651178
919.891533496
911.144809989
902.374553434
893.610800851
884.87357761
876.17322462
867.512770636
858.892811657
850.318201951
841.804126491
833.37545317
825.05960743
816.880343718
808.854382407
800.991315807
793.29597886
785.77162616
778.421707655
771.249741943
764.259028719
757.452623716
750.833237935
744.402838637
738.16240202
732.111939599
726.250650952
720.577036521
715.088993471
709.783883987
704.658566856
699.709427625
694.932424282
690.323151786
685.876931552
681.588920952
677.454230885
673.46803997
669.625696314
665.922801322
662.355272979
658.919387713
655.611801393
652.429550683
649.370036936
646.430995069
643.610450344
640.906665924
638.318084307
635.843265523
633.480825144
631.229374847
629.087468262
627.053554351
625.125940242
623.302764651
621.581982293
619.961358654
618.438473765
617.010733134
615.675384094
614.429536063
613.270183818
612.194233199
611.198528942
610.279884272
609.435111666
608.66105403