/*--------------------------------*- C++ -*----------------------------------*\
| =========                 |                                                 |
| \\      /  F ield         | OpenFOAM: The Open Source CFD Toolbox           |
|  \\    /   O peration     | Version:  v1906                                 |
|   \\  /    A nd           | Web:      www.OpenFOAM.com                      |
|    \\/     M anipulation  |                                                 |
\*---------------------------------------------------------------------------*/
FoamFile
{
    version     2.0;
    format      ascii;
    class       volScalarField;
    location    "484";
    object      p;
}
// * * * * * * * * * * * * * * * * * * * * * * * * * * * * * * * * * * * * * //

dimensions      [0 2 -2 0 0 0 0];


internalField   nonuniform List<scalar> 
9216
(
268.218550883
268.303768569
268.476725927
268.737784557
269.085507625
269.518168479
270.03362004
270.629389745
271.302669557
272.050419356
272.869345142
273.756013562
274.706814098
275.71808087
276.786035498
277.90691367
279.076887225
280.292194763
281.549043262
282.84374314
284.172590727
285.532008833
286.918412044
288.328353799
289.758376563
291.205166286
292.665389616
294.135856145
295.613344732
297.09477375
298.577018645
300.057089999
301.531944907
302.998672454
304.454301166
305.895991542
307.32084225
308.726088901
310.108911527
311.466638297
312.796556386
314.096118817
315.36276041
316.594105169
317.787788495
318.941662405
320.053625399
321.121823131
322.144488077
323.120134423
324.047410615
324.925287383
325.752925269
326.529852305
327.255844247
327.931083038
328.556041855
329.131612685
329.658988358
330.139752536
330.575756601
330.969172821
331.322369099
331.637933774
331.918554371
332.167021647
332.386115165
332.578598583
332.747123999
332.894235698
333.022303383
333.13354186
333.229971059
333.313446171
333.385633429
333.448041222
333.502003792
333.548711673
333.589202914
333.624393299
333.655072793
333.68193446
333.705575302
333.726550459
333.745181577
333.761152673
333.774304372
333.78484769
333.792939863
333.798911727
333.803127638
333.806012244
333.807940109
333.809109768
333.809698814
333.809905008
268.133389957
268.219033732
268.392629013
268.654904588
269.004283602
269.438977417
269.956801959
270.555234347
271.231433768
271.982308076
272.804533911
273.694627174
274.648955001
275.663805192
276.73538633
277.859893644
279.033495868
280.252396989
281.512810146
282.811015992
284.143324979
285.506133676
286.895877175
288.309084806
289.74232445
291.192258901
292.655583744
294.129085327
295.60957373
297.093943091
298.579101212
300.062032842
301.539727214
303.009244936
304.467645316
305.912057194
307.339607559
308.747496738
310.132929777
311.493195918
312.825603762
314.12756436
315.396530555
316.630082312
317.825870088
318.98170071
320.095484699
321.16532149
322.189451616
323.166341418
324.094642313
324.973275885
325.801401927
326.578502342
327.304354789
327.97910713
328.603246368
329.177650893
329.703544734
330.18252086
330.616478609
331.007618852
331.358368062
331.6713552
331.949331969
332.195135707
332.411606737
332.60154775
332.767654641
332.91249197
333.038451028
333.147748537
333.242409828
333.324282556
333.395031645
333.456154986
333.508981588
333.554688656
333.594305444
333.628732732
333.658749474
333.685030795
333.70815274
333.72860312
333.746776459
333.762510619
333.775442618
333.785683438
333.793629772
333.799520864
333.803605431
333.80639206
333.808281701
333.80938545
333.809914168
333.810128438
267.959624221
268.046361546
268.221709503
268.48659171
268.839389473
269.278251492
269.800922267
270.404793999
271.086944825
271.844192982
272.673136623
273.570207803
274.531706467
275.553849145
276.632793336
277.764678471
278.945639448
280.171839649
281.439474226
282.744796255
284.08411132
285.453798495
286.850298048
288.270128948
289.70987139
291.166182303
292.635774185
294.115429756
295.601978351
297.0923107
298.583354055
300.072087961
301.555519209
303.030699552
304.494701819
305.944640463
307.377650074
308.79090968
310.181624795
311.547055962
312.88450496
314.191347452
315.465023186
316.703071707
317.903125599
319.062947719
320.180426477
321.253613572
322.280721574
323.26016314
324.190553487
325.070753948
325.899882427
326.677362043
327.402936797
328.076716503
328.699183685
329.271217634
329.794078846
330.269404853
330.699170997
331.085658895
331.431395833
331.739111716
332.011674866
332.252034732
332.463145189
332.647902711
332.809082331
332.949299497
333.0709785
333.176346016
333.267428183
333.346062728
333.4139048
333.472437007
333.5229723
333.566665495
333.604523175
333.63742021
333.666111563
333.691247164
333.713380619
333.732976915
333.750457955
333.765583397
333.777731735
333.787360983
333.79502325
333.800677454
333.804506462
333.807173517
333.808927911
333.809935086
333.810468311
333.810733598
267.695097799
267.78324336
267.961300332
268.230211909
268.588283246
269.033565634
269.563689552
270.175919845
270.867204
271.634226401
272.473457883
273.381207287
274.353664553
275.386944267
276.4771185
277.620250146
278.812414683
280.049723566
281.328336016
282.644474122
283.994426637
285.374557865
286.781305534
288.211185415
289.660785062
291.126765725
292.60585337
294.094839086
295.590568499
297.089941656
298.589901807
300.087435685
301.579562698
303.063336595
304.535836253
305.994169897
307.435468764
308.856895061
310.25563968
311.628934769
312.97405613
314.288340465
315.56919208
316.814103682
318.020665831
319.186589239
320.309715046
321.388037074
322.419712679
323.403086378
324.336704986
325.219348157
326.050054249
326.828162378
327.553348417
328.225668732
328.845586218
329.413988636
329.932184606
330.401888434
330.825188899
331.204501461
331.54250325
331.84208485
332.106293034
332.338260671
332.541119973
332.71792057
332.871558046
333.004727195
333.119895596
333.219300877
333.304961506
333.378697521
333.442146111
333.496769077
333.543853658
333.584520967
333.619740326
333.650347533
333.677060286
333.700493508
333.72117118
333.739538065
333.756009271
333.770034127
333.781167535
333.790099462
333.797085864
333.802275791
333.805940409
333.808419217
333.810015107
333.810972712
333.811510413
333.811775668
267.338493509
267.428508274
267.610274956
267.884708561
268.250001115
268.704065056
269.244369426
269.868002147
270.571727298
271.352045049
272.205248794
273.127479923
274.114776313
275.16311628
276.268454722
277.426754472
278.634009912
279.886266783
281.179635181
282.510300224
283.874527048
285.26866494
286.689146791
288.132488891
289.595286758
291.074212229
292.56600704
294.067478353
295.575491084
297.086962747
298.598855354
300.108170441
301.611941503
303.10723018
304.591120419
306.060717159
307.513143651
308.945544124
310.355085716
311.738966339
313.094422102
314.418740647
315.70927362
316.963454089
318.178811804
319.352991694
320.483768663
321.569064366
322.606960279
323.59571419
324.533776813
325.419817299
326.252755729
327.031809419
327.756546296
328.426941932
329.043423523
329.606889734
330.118713198
330.580716349
330.995148566
331.364619479
331.692006946
331.980420496
332.233156309
332.45361428
332.645185784
332.8111427
332.954548212
333.078202649
333.184621145
333.276042593
333.354459409
333.421658665
333.479251541
333.528676073
333.571185908
333.60785447
333.639596617
333.667193326
333.691310219
333.712515416
333.73129522
333.74809501
333.763123476
333.775664326
333.785606994
333.793611014
333.799971356
333.804673959
333.807953761
333.810199408
333.81168931
333.812597008
333.813122545
333.813385051
266.887866711
266.98027574
267.166825917
267.44838205
267.822981089
268.288348033
268.841735642
269.479997125
270.199654027
270.996965202
271.867992397
272.808660867
273.8148129
274.882254007
276.006790906
277.184262223
278.410561774
279.681655991
280.993595549
282.342522969
283.724676071
285.136389038
286.574090622
288.034301154
289.513627582
291.008758085
292.516455238
294.033549261
295.556930143
297.083540227
298.610365928
300.134430383
301.652785632
303.162506263
304.66068325
306.144420123
307.610830158
309.057036894
310.480176572
311.877404737
313.245905259
314.582903664
315.885682361
317.151599011
318.378104867
319.56276371
320.703268017
321.797453343
322.843308934
323.838988099
324.782819862
325.673329655
326.50927381
327.289695582
328.014000513
328.682041173
329.294188783
329.851350718
330.354985841
330.807052061
331.210024034
331.566785294
331.880458426
332.154422337
332.392305134
332.597881524
332.774909571
332.926969608
333.057347241
333.168970114
333.264394788
333.345833259
333.415214999
333.474266286
333.524566578
333.567537329
333.604394605
333.636144844
333.663625039
333.68754201
333.708491522
333.726977787
333.743428941
333.758244644
333.77143084
333.782284017
333.791067914
333.798187163
333.803719813
333.807688439
333.810623312
333.812655093
333.813991029
333.81491287
333.815442976
333.81571198
266.340726437
266.436115638
266.628627139
266.919054571
267.305231354
267.784637153
268.354243594
269.010601052
269.749920258
270.568153501
271.461070575
272.424327169
273.453523865
274.544255281
275.69214919
276.892896521
278.142272996
279.436153868
280.770522724
282.141475797
283.545222532
284.97808358
286.436486601
287.91696074
289.416129858
290.930705122
292.457476828
293.993305934
295.535115065
297.079879424
298.624617363
300.166381172
301.70224793
303.229311009
304.744672411
306.245436707
307.728706869
309.191582956
310.63116398
312.044553803
313.42887115
314.781264011
316.098927769
317.379126257
318.619213902
319.816657004
320.969051565
322.074135725
323.129795876
324.134067667
325.085137028
325.981349718
326.821243118
327.603612805
328.327621286
328.992932591
329.599836932
330.149244363
330.642733855
331.082409416
331.471066959
331.812000609
332.108583843
332.364486555
332.583768673
332.770733565
332.929659123
333.064549199
333.178973671
333.276003718
333.358211182
333.42772425
333.486337102
333.53566394
333.577256775
333.612556413
333.642747103
333.668735066
333.691242404
333.71088009
333.728154854
333.743490665
333.757244722
333.769756918
333.78085125
333.78996644
333.797452113
333.803459123
333.8080585
333.811490356
333.814087296
333.815920467
333.817108896
333.817992122
333.818511064
333.818770991
265.69397084
265.792998115
265.992784543
266.294027021
266.694295939
267.19075508
267.780016321
268.458245572
269.221262353
270.064636863
270.98377887
271.974015557
273.030656687
274.14904668
275.32460422
276.552850621
277.829428592
279.15011314
280.510816307
281.907587264
283.336609009
284.79419271
286.276770431
287.780886811
289.30319004
290.840422385
292.38941035
293.947054579
295.510319428
297.076222317
298.641822741
300.204211241
301.760498326
303.307803731
304.84324642
306.363936061
307.866966501
309.349412381
310.808329486
312.240760047
313.64374327
315.014331767
316.349613081
317.646735569
318.902935919
320.115565589
321.282111617
322.400208548
323.467637588
324.482314458
325.442269526
326.345635511
327.190662944
327.97579444
328.699822678
329.362112249
329.962859083
330.502949545
330.984172476
331.408695583
331.779811136
332.101525321
332.377334235
332.611136051
332.807557324
332.971675818
333.108525905
333.222689355
333.318090704
333.397944545
333.464785977
333.520553731
333.566768223
333.604830454
333.636295524
333.66273938
333.685341
333.704832677
333.721753659
333.73660128
333.749774172
333.761599611
333.772356466
333.782308471
333.79108651
333.798404343
333.804472126
333.809368891
333.813165248
333.816138624
333.818316262
333.819963231
333.8210934
333.821830523
333.822341744
333.82258298
264.94381402
265.047227619
265.255778479
265.57003165
265.987220076
266.50410336
267.116836596
267.821101817
268.612231212
269.485324535
270.435353948
271.457253045
272.545988537
273.696614825
274.904312806
276.164415111
277.472420191
278.823997806
280.214988111
281.64139634
283.099384548
284.585261611
286.095472238
287.626585561
289.175283542
290.738349385
292.312655908
293.895153853
295.482859974
297.072844827
298.662220102
300.248125599
301.827715914
303.398146982
304.956563182
306.500085552
308.025802137
309.530761531
311.011971016
312.466400484
313.890993448
315.282685692
316.638431671
317.955237175
319.230195657
320.460523314
321.643587181
322.776918288
323.858204496
324.885257857
325.855962465
326.768216452
327.619906256
328.408967834
329.13361109
329.792698679
330.386376618
330.915423603
331.382116392
331.788265113
332.138012684
332.436913535
332.687989667
332.895096957
333.063656444
333.199966506
333.310199861
333.399727026
333.47288505
333.533009486
333.582509442
333.622959735
333.655340953
333.680615237
333.70043645
333.716844429
333.731083591
333.743517465
333.754360765
333.76401501
333.772755212
333.780791695
333.788335471
333.795517254
333.801903157
333.8074134
333.812070285
333.81589921
333.81897961
333.821427006
333.823324635
333.824735333
333.825782652
333.826404343
333.826914863
333.827133781
264.085692708
264.194357182
264.413388118
264.743171452
265.180506752
265.721637219
266.362139261
267.0970883
267.921212942
268.829038246
269.815010015
270.873596495
271.999366529
273.18704526
274.431550122
275.72801048
277.071774646
278.458407655
279.883682834
281.343569506
282.834218653
284.351947734
285.893225488
287.454657086
289.032969874
290.62499962
292.227677185
293.838015335
295.453095459
297.070053886
298.686067525
300.29833875
301.904079516
303.500494779
305.084765891
306.654034756
308.205389759
309.735855162
311.242385524
312.721867387
314.17112985
315.586965887
316.966164623
318.305553988
319.602049996
320.852707166
322.05475987
323.205644132
324.302984967
325.344540932
326.328099638
327.25134122
328.111714917
328.906426984
329.632735203
330.288549078
330.874287882
331.390242298
331.840230994
332.224009712
332.547383826
332.820033421
333.042351986
333.21742061
333.351985242
333.454442119
333.532750791
333.593313894
333.640885442
333.678848601
333.709377051
333.733425762
333.750920582
333.761835732
333.768140574
333.773258922
333.77865987
333.783776503
333.788181681
333.792358392
333.796447529
333.800494083
333.804677226
333.808982253
333.813077822
333.816848829
333.820143989
333.822940422
333.825304086
333.827280565
333.82896265
333.830255541
333.83114557
333.831724872
333.832200222
333.832414992
263.114146562
263.229076315
263.460595296
263.808844294
264.27006462
264.839837838
265.513006527
266.283886172
267.146459913
268.094554503
269.121987826
270.222684437
271.390759065
272.620570994
273.906753835
275.244226059
276.628187475
278.054106404
279.517701287
281.014919663
282.541916459
284.095032868
285.670776441
287.265802691
288.876898101
290.500964407
292.135003733
293.776104221
295.421425626
297.068184402
298.713637818
300.355066716
301.989756836
303.614978578
305.227965967
306.825895479
308.405866213
309.964883203
311.499846394
313.007548007
314.484681517
315.927864866
317.333680045
318.698728708
320.019701147
321.293450381
322.517059525
323.68788286
324.803539622
325.861834541
326.860586715
327.797362245
328.669154023
329.472138158
330.201957817
330.854399251
331.431505883
331.931432977
332.363583785
332.719535048
333.008756477
333.253431543
333.443606945
333.58011072
333.672595892
333.733413584
333.773422121
333.800213454
333.818763639
333.83234668
333.842855688
333.850346136
333.852732136
333.847530757
333.837388798
333.829696619
333.826499478
333.824631011
333.822283279
333.820806214
333.820173561
333.820086973
333.820862527
333.822310876
333.824233831
333.82632794
333.828387667
333.830342077
333.832157245
333.833772964
333.835182596
333.836356566
333.837216187
333.837774654
333.838184343
333.838406361
262.022663497
262.145068344
262.391462019
262.761648947
263.25114615
263.85468327
264.566169076
265.378965706
266.286136576
267.280663255
268.355620188
269.504304162
270.72032059
271.997632101
273.330577001
274.713865473
276.142560977
277.612052941
279.118025594
280.656426153
282.223434509
283.815435429
285.428993724
287.060832243
288.707812433
290.366916918
292.03523357
293.709940393
295.388290515
297.067596452
298.745213108
300.418518532
302.084892269
303.741691108
305.386222609
307.015717355
308.62730133
310.217970922
311.784573452
313.323797482
314.832177216
316.306116181
317.741934007
319.135938873
320.48452319
321.784275166
323.032088958
324.225248605
325.361449276
326.438712965
327.455146926
328.408493961
329.295461545
330.11088302
330.847667637
331.495907386
332.064511539
332.542635519
332.960826609
333.280063839
333.51871177
333.739560704
333.895779535
333.984723169
334.02363806
334.032620113
334.027139748
334.015414574
334.001714666
333.989125555
333.979568796
333.972276134
333.961373756
333.937747798
333.905053646
333.882250666
333.87270542
333.865519222
333.855715673
333.848449524
333.843289826
333.838879702
333.83635583
333.835053553
333.834970553
333.835577967
333.836672046
333.838000725
333.839414467
333.840756038
333.841984868
333.843012312
333.843862367
333.844462746
333.844797885
333.845011601
260.803478781
260.934824499
261.198974849
261.59526869
262.118275601
262.761620406
263.518017566
264.379629956
265.33838633
266.386248971
267.515418998
268.718478153
269.988472507
271.318948126
272.703950396
274.137998699
275.616046513
277.133434965
278.685845463
280.269255045
281.879896266
283.514222353
285.168877414
286.840671207
288.526557654
290.223616342
291.92903614
293.640100079
295.354170479
297.068673154
298.781079892
300.488887618
302.189593871
303.8806681
305.559518921
307.223458128
308.869663098
310.495140197
312.096693119
313.670901348
315.214115537
316.722477456
318.191972589
319.618521167
320.998109772
322.326956081
323.601688722
324.819507938
325.978278662
327.076489098
328.112982828
329.086322255
329.993615599
330.828383521
331.579352852
332.219193844
332.783045834
333.221355632
333.647294508
333.914563016
334.072291919
334.333038552
334.467725789
334.490329941
334.447629132
334.379793216
334.308917582
334.246261055
334.194077184
334.152046072
334.122333213
334.105416386
334.087248812
334.038111372
333.965990113
333.923616014
333.915879646
333.907797425
333.887357248
333.874003159
333.865352212
333.85600097
333.850584216
333.84664548
333.844924379
333.844435095
333.844874019
333.84574733
333.846858869
333.848045085
333.849203096
333.850201386
333.851012337
333.851666936
333.851944639
333.852160052
259.447311657
259.589403858
259.874845998
260.302328026
260.865166772
261.555542193
262.364631689
263.283084173
264.301428343
265.410402107
266.601190497
267.865574615
269.196003379
270.585604762
272.028154692
273.518020122
275.05008996
276.619703694
278.222584243
279.854778419
281.512606358
283.192619611
284.891567
286.606366813
288.334084138
290.071912064
291.817155787
293.56721844
295.319587474
297.071819897
298.821525237
300.56634389
302.30392007
304.031868495
305.747734497
307.448948203
309.132774202
310.796259592
312.436184662
314.049023057
315.630920348
317.177703011
318.684930844
320.148006288
321.562348706
322.923632345
324.228068976
325.472695215
326.65560497
327.776048729
328.8342704
329.83086554
330.765223819
331.631171539
332.414114852
333.0274985
333.610306903
333.965261152
334.567060117
334.723561052
334.422577194
334.333754045
334.396604946
334.433916191
334.422135114
334.383908602
334.337302297
334.293965493
334.260999127
334.241382502
334.236398815
334.240680118
334.228958293
334.150848796
333.995429649
333.924802477
333.954853341
333.958294284
333.915129659
333.895363979
333.887065809
333.869959526
333.863030529
333.856385428
333.853773833
333.852557257
333.852767827
333.853367244
333.854365535
333.855569955
333.856764216
333.857802135
333.85865586
333.859309603
333.859603029
333.859821876
257.943016882
258.098117036
258.409258321
258.874216343
259.484632014
260.230777356
261.101837778
262.086543727
263.173696667
264.352571827
265.613187021
266.946447906
268.344191604
269.799156046
271.304902037
272.855711353
274.446478449
276.072607708
277.729922816
279.414591018
281.123062082
282.852020334
284.598347327
286.359092829
288.131452063
289.912747772
291.700415862
293.491993517
295.285108256
297.077465867
298.866835356
300.651027768
302.427867386
304.195153964
305.950615108
307.691849036
309.416258737
311.120980015
312.802807913
314.458129314
316.082873341
317.672496117
319.22202125
320.726159409
322.179528957
323.576985713
324.9140492
326.187375938
327.395218577
328.537793543
329.61748326
330.638680383
331.606844632
332.52328535
333.39337583
333.932004964
334.703852834
334.443435757
334.469713874
334.588198365
334.542376359
334.462873643
334.446814675
334.438486966
334.410200382
334.368234365
334.322328745
334.280823733
334.247963945
334.223038019
334.203891973
334.184600861
334.154150469
334.107916988
334.071633132
334.079935678
334.112977467
334.077959822
333.924016741
333.89802528
333.911174695
333.876874562
333.873843278
333.863106899
333.861129626
333.859545874
333.860202425
333.860683785
333.861857164
333.86332649
333.864682983
333.86582082
333.866712657
333.867377028
333.867774873
333.867967018
256.277117602
256.448108545
256.790535844
257.300872263
257.968486457
258.781104732
259.725311969
260.787398931
261.954039055
263.212774223
264.552305775
265.962615222
267.434953551
268.961742207
270.536425508
272.153306063
273.807385409
275.494222892
277.209818769
278.950522037
280.712960555
282.493989178
284.290651637
286.100152199
287.919834447
289.747165339
291.579723703
293.415192075
295.251350456
297.086069155
298.917298059
300.743047859
302.561360883
304.370269497
306.167740623
307.951605945
309.719477916
311.468653079
313.196006341
314.897884222
316.570010458
318.207426142
319.80449505
321.355014702
322.852475318
324.290497664
325.663447833
326.967161755
328.19970279
329.362124539
330.459320859
331.501234908
332.507097586
333.520445286
334.757929903
334.544517506
334.55560886
334.61410748
334.560065196
334.568223399
334.52628996
334.46548512
334.433054595
334.40823748
334.374402855
334.33299082
334.290972378
334.254087276
334.223740075
334.198952495
334.177415974
334.155213894
334.127867283
334.095600628
334.070112859
334.062378704
334.061049331
334.041823783
334.03625057
334.057620513
334.004653663
333.855209714
333.882104873
333.863829539
333.866966865
333.864916705
333.867459179
333.867589134
333.869304315
333.871303337
333.872960152
333.874254918
333.875207786
333.875898433
333.876359805
333.876529231
254.433170766
254.623795543
255.004715776
255.5705216
256.307456456
257.199812471
258.230754988
259.383463871
260.641999448
261.991874876
263.420347145
264.916476375
266.471019015
268.076221729
269.725572718
271.413552349
273.135409186
274.886974364
276.6645173
278.46463947
280.284199468
282.120261597
283.970060598
285.830976875
287.700518466
289.576308334
291.456076643
293.337658076
295.218992717
297.098127119
298.973211171
300.842484719
302.704250036
304.556827698
306.398493714
308.227396893
310.04145507
311.838229589
313.614779291
315.367500264
317.091964909
318.782786266
320.433550001
322.036876202
323.584690814
325.068776052
326.481634686
327.817521186
329.073516951
330.250520769
331.353856971
332.393979946
333.391888729
334.408182056
334.619949332
334.703415588
334.623479655
334.607281124
334.561602258
334.532392441
334.483437644
334.42720522
334.384338297
334.348114288
334.310150834
334.270080953
334.232664886
334.2011531
334.174899959
334.153153081
334.134162325
334.115421103
334.094889248
334.073207636
334.055658341
334.046747983
334.040662713
334.027879996
334.018608771
334.014427909
334.002542369
334.010284783
333.986566091
333.848770714
333.869119684
333.867121339
333.875846541
333.87356572
333.876452119
333.87950105
333.881665913
333.883129529
333.884143466
333.884807131
333.885274587
333.885428575
252.390890503
252.606106498
253.034988707
253.669363891
254.491110226
255.479835491
256.614178726
257.873348427
259.238217319
260.691969813
262.220347216
263.811582676
265.456133673
267.146312877
268.875896841
270.63976516
272.433598474
274.253644572
276.09654957
277.959243795
279.838869423
281.732736532
283.63829644
285.553123981
287.47490452
289.401424756
291.330569229
293.260324461
295.188790367
297.114194115
299.034899666
300.949403896
302.856313656
304.754300828
306.642033393
308.518081078
310.380792277
312.228137721
314.057517552
315.865533124
317.647732898
319.398358334
321.110140668
322.77424001
324.380463839
325.917918571
327.376233065
328.747036655
330.025477768
331.211438584
332.310766379
333.34090978
334.358451409
334.503917627
334.600918615
334.645214222
334.602186417
334.561223416
334.510263686
334.460231161
334.402508964
334.343399771
334.292766912
334.249497257
334.209749286
334.172707986
334.141078505
334.115875135
334.095437394
334.079140824
334.065750978
334.053650608
334.041828731
334.030845396
334.022981912
334.01948267
334.016972101
334.010642402
334.003139137
333.99698063
333.987312312
333.981229343
333.968746389
333.97604205
333.96248857
333.864178692
333.888689238
333.875903935
333.883013298
333.888376194
333.89112917
333.892587619
333.893491445
333.894068609
333.894475072
333.894601393
250.12491544
250.371431094
250.860963185
251.581207255
252.507845182
253.614026149
254.872365967
256.25701036
257.744988841
259.316895133
260.957000035
262.652958575
264.39528355
266.176735065
267.991733415
269.835857621
271.7054548
273.597360202
275.508713162
277.436847779
279.379235858
281.333461575
283.297211322
285.268267646
287.24450211
289.223868436
291.20440147
293.1842291
295.161598344
297.134909318
299.102744879
301.06388237
303.017278635
304.96202616
306.897279824
308.822154143
310.735584794
312.636144241
314.521799955
316.3896072
318.235334421
320.053037062
321.834628297
323.569562716
325.24486418
326.845785356
328.357651331
329.767997261
331.068561838
332.257795739
333.348664365
334.399062417
334.509597692
334.554715968
334.59079222
334.588563779
334.539578158
334.477716141
334.409560047
334.341633394
334.273848001
334.209893571
334.154743041
334.108804911
334.070333948
334.038742185
334.014719102
333.997126554
333.984401878
333.976002379
333.970942641
333.968035711
333.966542892
333.966563356
333.968773462
333.973074137
333.977440904
333.979541483
333.980037513
333.979563735
333.97533208
333.969752844
333.962604094
333.960944416
333.956291265
333.968055484
333.950242159
333.861569503
333.888726471
333.899328392
333.901998959
333.902774384
333.903240682
333.903632089
333.903897807
333.904005276
247.60303835
247.890151645
248.457697625
249.287065413
250.344996086
251.595647926
253.003596929
254.536568803
256.16705014
257.87290141
259.637184025
261.447473625
263.294928732
265.173332148
267.078244469
269.006334682
270.954899112
272.92154847
274.904028901
276.90013926
278.907709515
280.924610171
282.948769828
284.978185645
287.010921411
289.045097681
291.07888761
293.11053547
295.138403565
297.161037886
299.177230094
301.186053233
303.186858327
305.179231874
307.162919599
309.13772096
311.103345253
313.059209603
315.004155943
316.936063956
318.851337987
320.744253315
322.606178718
324.424785053
326.183577803
327.86224726
329.439743627
330.897168521
332.221186876
333.414826055
334.53526214
334.604940768
334.5887173
334.571425558
334.548741214
334.499937231
334.42466332
334.339831406
334.253699177
334.171623171
334.095684603
334.028338184
333.972122549
333.927474414
333.893451009
333.869856409
333.855145057
333.846457996
333.843130515
333.844632803
333.849986055
333.858125067
333.868270197
333.880061996
333.893332924
333.90748416
333.92113697
333.93292791
333.942732943
333.950443399
333.954970515
333.957191722
333.956911226
333.955673678
333.953904651
333.956597226
333.95689104
333.947691654
333.910838355
333.917199288
333.915186594
333.913568409
333.913299405
333.91339105
333.913515741
333.91361691
244.783602865
245.124555389
245.794431511
246.764761953
247.989180858
249.419238129
251.008784046
252.717494455
254.512660862
256.369533278
258.270600785
260.204250777
262.163219899
264.143147612
266.1414018
268.156226133
270.186185418
272.229851965
274.285668196
276.35192512
278.426805771
280.508452376
282.595026245
284.684740412
286.775858245
288.866668653
290.955463568
293.040558546
295.120369303
297.193529943
299.259007559
301.31617423
303.36481695
305.405092096
307.437443234
309.462502166
311.480957871
313.493359273
315.499813366
317.499538852
319.490224145
321.46711708
323.421771223
325.340430839
327.202499382
328.979404597
330.640438721
332.15750276
333.51768111
334.774313052
334.805309097
334.710299977
334.622548367
334.543198939
334.458435525
334.361547814
334.254794711
334.147397219
334.045684409
333.953576476
333.872991733
333.805318934
333.751611844
333.711933877
333.68570309
333.671617276
333.666631267
333.668125264
333.675610858
333.688418143
333.705503476
333.725798086
333.748409406
333.772657667
333.797936495
333.823436426
333.848043334
333.87071436
333.890973273
333.908475046
333.922708686
333.933935813
333.942093594
333.947725912
333.950776591
333.951831919
333.951378822
333.948228333
333.958505343
333.949225627
333.929186568
333.923474078
333.923202346
333.923184242
333.92326576
333.923390452
241.611567023
242.025821141
242.832949337
243.988655831
245.427094207
247.082074485
248.893226233
250.810336162
252.795086129
254.820753411
256.870519494
258.935075187
261.010149725
263.094403581
265.187868456
267.290927799
269.403740793
271.525990365
273.656846549
275.795057022
277.939096664
280.087323268
282.23809951
284.38985359
286.541068798
288.690218083
290.835689367
292.975795658
295.108895424
297.233603235
299.348993443
301.454725777
303.551065968
305.638819415
307.719229026
309.79389598
311.864693199
313.933610805
316.002476831
318.0725037
320.143585134
322.213189312
324.274579334
326.313963252
328.306924377
330.211442151
331.982923365
333.590837461
335.084709556
335.1038997
334.921701397
334.751387435
334.60060805
334.454400336
334.310293672
334.168803756
334.032479923
333.90620264
333.793611387
333.696676925
333.616087094
333.551993575
333.504293515
333.472582486
333.456333835
333.452689686
333.457768703
333.470049803
333.488967022
333.513604119
333.542830277
333.575540783
333.61074752
333.647581174
333.685214317
333.722740136
333.759147219
333.793496916
333.825140571
333.853579232
333.878368725
333.899451946
333.916775902
333.930548821
333.940675345