/*--------------------------------*- C++ -*----------------------------------*\
| =========                 |                                                 |
| \\      /  F ield         | OpenFOAM: The Open Source CFD Toolbox           |
|  \\    /   O peration     | Version:  v1906                                 |
|   \\  /    A nd           | Web:      www.OpenFOAM.com                      |
|    \\/     M anipulation  |                                                 |
\*---------------------------------------------------------------------------*/
FoamFile
{
    version     2.0;
    format      ascii;
    class       volScalarField;
    location    "484";
    object      pa;
}
// * * * * * * * * * * * * * * * * * * * * * * * * * * * * * * * * * * * * * //

dimensions      [0 2 -2 0 0 0 0];


internalField   nonuniform List<scalar> 
9216
(
978.691130283
978.329281645
977.594077919
976.482362833
974.997808402
973.144685094
970.928379265
968.355260603
965.432666573
962.168787482
958.572658234
954.65403014
950.423369329
945.891718653
941.070706945
935.972406763
930.609358996
924.994431703
919.140863526
913.062127642
906.771995877
900.284409922
893.613566057
886.773793823
879.779659347
872.645849764
865.387291457
858.01903713
850.556394167
843.014810099
835.410006145
827.757855788
820.074515901
812.376294934
804.679776253
797.001669086
789.358917714
781.768531204
774.247673546
766.813469441
759.483072263
752.273445571
745.201407659
738.283390876
731.535462435
724.973064982
718.611012438
712.463215956
706.542652299
700.861081479
695.428987261
690.255300955
685.347323576
680.710486046
676.34827888
672.262094144
668.451198263
664.912697851
661.641581584
658.630827943
655.871525931
653.353115962
651.063585987
648.989813092
647.117826975
645.433208701
643.921364982
642.567879001
641.358704419
640.280399129
639.320212375
638.466211049
637.707287627
637.033219819
636.4346318
635.903013863
635.430652335
635.010621503
634.63669538
634.303323924
634.005536976
633.738905162
633.499423026
633.283167347
633.088195247
632.919125786
632.778606696
632.665151015
632.577598002
632.512757183
632.466877187
632.43544685
632.414427737
632.401674299
632.395250596
632.39300276
979.052541983
978.689544293
977.953074328
976.838302379
975.349443337
973.49092022
971.26819857
968.687723674
965.756891321
962.48396814
958.878048977
954.948965571
950.707243114
946.164004279
941.330931024
936.220169973
930.844304617
925.216267152
919.349325093
913.257003293
906.953087308
900.451557415
893.766609042
886.91259853
879.904078887
872.755755125
865.482531941
858.099475034
850.621866173
843.065166014
835.445071046
827.777472215
820.078508963
812.364518458
804.652078806
796.957943445
789.299068472
781.692526751
774.155514497
766.705241864
759.358916098
752.133607834
745.046210455
738.11328366
731.350990024
724.774918321
718.399997675
712.24030256
706.308943416
700.617855625
695.177667308
689.997481401
685.084732496
680.444988145
676.081826574
671.996702575
668.188890512
664.655458587
661.391307027
658.389268464
655.640248308
653.133446555
650.85658855
648.796238914
646.938117536
645.267486069
643.769481396
642.429448145
641.233170979
640.167075947
639.218338319
638.374972875
637.625858894
636.960769058
636.370351123
635.84612108
635.380413459
634.966347267
634.597757953
634.269151763
633.975635186
633.712874023
633.477048205
633.264864904
633.073594566
632.906176898
632.767387366
632.656727948
632.570447326
632.506296992
632.461748971
632.43133414
632.41070435
632.398657591
632.392890558
632.390555332
979.789223852
979.423068414
978.682364705
977.561243267
976.063952378
974.194978125
971.959877804
969.365207187
966.418475843
963.128078217
959.503234229
955.55391104
951.290760123
946.725036622
941.868539538
936.733534952
931.332705009
925.67908028
919.786001993
913.667067345
907.336107663
900.807148422
894.094403803
887.212250921
880.17523905
872.998075498
865.695646009
858.283008323
850.775419164
843.18833063
835.537418729
827.838576524
820.107938402
812.36186523
804.616957103
796.89002378
789.198080308
781.558296954
773.987972592
766.504460371
759.125116268
751.867199578
744.747796973
737.783699716
730.991305423
724.386474663
717.984411726
711.79950123
705.845166046
700.133682081
694.676011244
689.481597526
684.558184777
679.911617718
675.545681818
671.461961904
667.659762323
664.136076959
660.88562419
657.900945114
655.172556673
652.689176094
650.437971684
648.404868304
646.574915323
644.9327139
643.462819677
642.150095766
640.979969484
639.938614194
639.013049818
638.19120126
637.461914584
636.814963993
636.241036546
635.731711355
635.27941307
634.877361406
634.519506068
634.200468029
633.915474611
633.660309947
633.431275188
633.22519703
633.038968193
632.876300717
632.744667184
632.639738079
632.555953816
632.49401767
632.45206854
632.422865882
632.403670515
632.392663657
632.386842251
632.383949144
980.908642077
980.538822297
979.791602331
978.660707085
977.150469099
975.26547831
973.011429163
970.39503958
967.423996399
964.10688629
960.453126859
956.472889522
952.177026344
947.576991497
942.684770794
937.512808331
932.073944893
926.381355474
920.448501487
914.289083285
907.917009199
901.34636493
894.591399955
887.666513085
880.58625426
873.365323302
866.018583268
858.561068002
851.008002187
843.374812579
835.677149929
827.930897317
820.152187604
812.357404599
804.563188441
796.786421759
789.044216822
781.353880118
773.732875486
766.198762702
758.769133763
751.461524684
744.293326062
737.281670998
730.443323771
723.794547823
717.350974929
711.127453166
705.137892675
699.395086606
693.910524579
688.694180746
683.754297572
679.097160955
674.72689743
670.645304135
666.851742168
663.343096552
660.113806615
657.155966499
654.459487175
652.012347832
649.800852254
647.80991675
646.023504093
644.425156626
642.998502857
641.72766456
640.597530703
639.593914903
638.703623406
637.914469745
637.215262365
636.59578968
636.04680199
635.559984491
635.127904017
634.743942746
634.402225263
634.097548692
633.825311844
633.581452394
633.362395772
633.165003834
632.986111844
632.832652633
632.710138915
632.611535601
632.53431605
632.476984842
632.436569434
632.409312908
632.391814834
632.381342324
632.375478146
632.372593414
982.413788859
982.039260922
981.283227907
980.139085698
978.611303391
976.70462247
974.424927043
971.779155691
968.775239055
965.422025944
961.729206528
957.707230873
953.36722778
948.720922459
943.78055835
938.558821039
933.068769808
927.323774078
921.33746026
915.123665375
908.696402677
902.06983456
895.258257515
888.276093368
881.137891187
873.858333272
866.452249556
858.934633378
851.320663147
843.625722483
835.86542443
828.055628977
820.212463152
812.352332085
804.491926628
796.648218923
788.838450554
781.080104807
773.390868382
765.788574926
758.29113699
750.916460151
743.68234733
736.606388234
729.705842439
722.997510745
716.497601586
710.221584479
704.184033285
698.398447861
692.877054128
687.630573144
682.667965817
677.996160168
673.61978871
669.540967224
665.759152091
662.271089778
659.070840383
656.149887008
653.497296579
651.100049481
648.943281456
647.010468776
645.28397351
643.745785321
642.378204861
641.164337368
640.088370941
639.135686223
638.292855858
637.547591329
636.888678872
636.305940272
635.790218493
635.333355351
634.928125203
634.568143943
634.247781126
633.962079401
633.706670734
633.477693558
633.271708691
633.085306126
632.917420138
632.776674216
632.664844193
632.574907198
632.503604231
632.451094568
632.414656789
632.389858644
632.373512711
632.363614095
632.357914379
632.355079531
984.309299869
983.928867222
983.161656049
982.000683705
980.450608311
978.516374838
976.204116017
973.521056631
970.475443528
967.076464343
963.33416225
959.259347047
954.863505555
950.158712275
945.157543346
939.872994531
934.318406231
928.507395883
922.453800447
916.171628657
909.675025085
902.978244726
896.095639252
889.041652623
881.830826477
874.477812288
866.997390503
859.404493458
851.714232444
843.941925712
836.103129
828.213661299
820.289632045
812.347461408
804.403894754
796.476006933
788.581195834
780.737161005
772.961867502
765.273491831
757.690351751
750.230818831
742.913217591
735.755712105
728.776184945
721.99210923
715.420416396
709.077356153
702.978344711
697.137790129
691.56888457
686.283349888
681.291133606
676.600062998
672.215491934
668.139995146
664.373176873
660.911619351
657.748897885
654.875711035
652.279989552
649.947470348
647.861875532
646.004710726
644.356033403
642.895622065
641.60396317
640.462860128
639.455682126
638.567365469
637.784296125
637.094141693
636.485706701
635.94886699
635.474584042
635.054919579
634.682941816
634.352587938
634.058554306
633.796212689
633.561513404
633.350894742
633.161207635
632.989199285
632.835897746
632.709726367
632.60800029
632.526115415
632.463019054
632.418157702
632.385338605
632.362877363
632.348291573
632.338326657
632.332656041
632.329796125
986.600982116
986.213351965
985.432486628
984.250944435
982.673623877
980.705728775
978.353705385
975.625137697
972.528668674
969.073909585
965.271344746
961.132232855
956.668507354
951.892677739
946.8177342
941.45705745
935.82433607
929.933492989
923.798623095
917.43394294
910.853753667
904.072416995
897.10434416
889.963996382
882.665895747
875.224644331
867.654950191
859.97165813
852.189784248
844.324552434
836.391433512
828.406180111
820.384863806
812.343906022
804.30010254
796.270638058
788.273088201
780.325405435
772.445886992
764.653122564
756.965921979
749.403223441
741.983985732
734.727068183
727.651104046
720.774371648
714.114666425
707.689172167
701.514323969
695.605648533
689.977558826
684.643080449
679.613486827
674.897848842
670.50253599
666.430770944
662.682364596
659.25371598
656.137795857
653.324353562
650.799732076
648.54824479
646.55221667
644.79046295
643.23966155
641.876435403
640.67884878
639.627141306
638.703836454
637.893532591
637.182581011
636.558742778
636.010910063
635.529011052
635.104126575
634.72861857
634.395977925
634.100573382
633.837516423
633.602602675
633.392190745
633.203107942
633.032585958
632.87762255
632.74120317
632.630025611
632.53997871
632.46879868
632.415219955
632.375986715
632.346892948
632.326776147
632.314037967
632.30470498
632.299313158
632.296637765
989.295914677
988.899706386
988.102573069
986.896521285
985.286745214
983.278768115
980.879422176
978.096732326
974.93982694
971.418835542
967.54478156
963.329471593
958.78538377
953.925557388
948.763486323
943.313018456
937.588263651
931.603512459
925.37316779
918.911691073
912.233564093
905.353266597
898.28526917
891.044039803
883.644062223
876.099863495
868.426048769
860.637341083
852.748624938
844.774992291
836.731792009
828.634675256
820.49964507
812.343100187
804.181872744
796.03325591
787.915017501
779.845395367
771.843071205
763.927120098
756.116935121
748.432128225
740.892411541
733.517465529
726.326802564
719.339634529
712.574751314
706.05041029
699.784230196
693.793064668
688.092826554
682.698206857
677.622250029
672.875749948
668.46651835
664.398679506
660.672290017
657.283551552
654.22468381
651.484435885
649.046581343
646.894017189
645.008580465
643.365237685
641.935431266
640.691188622
639.607408274
638.6626063
637.83863734
637.120056895
636.493508324
635.947108135
635.469931642
635.051883618
634.684068475
634.359269681
634.071623322
633.816072246
633.588219805
633.384394002
633.201457296
633.036710527
632.887850517
632.752308027
632.635141184
632.539780107
632.462990095
632.402909144
632.357770033
632.323603426
632.29946563
632.28182344
632.270169116
632.262831662
632.25780173
632.255475533
992.402527097
991.996263058
991.180080099
989.945332627
988.297572096
986.242709664
983.788045232
980.942137163
977.714699981
974.116488018
970.159173752
965.855222666
961.217767239
956.260482572
950.99746618
945.443124641
939.612069907
933.519028168
927.178763948
920.606021707
913.815486365
906.821763133
899.639375762
892.282781172
884.766397549
877.104642621
869.311979102
861.402964951
853.392307111
845.294917936
837.125976186
828.900984467
820.635833727
812.346862942
804.050913695
795.765374785
787.50821145
779.297973597
771.153777972
763.09526021
755.142495005
747.315885593
739.636027776
732.123558094
724.798999238
717.682618534
710.79431182
704.15352211
697.779181693
691.689660184
685.902654218
680.434953925
675.30196486
670.516909277
666.089696662
662.025708336
658.325152001
654.984054298
651.993640956
649.342221376
647.008227118
644.973562162
643.223393565
641.726369826
640.445109014
639.344796143
638.396332474
637.576693775
636.867624513
636.254240382
635.724064339
635.2660388
634.869554852
634.524199205
634.220740285
633.952598167
633.715030072
633.503729437
633.31478704
633.145204869
632.992452773
632.85436307
632.72910904
632.615366655
632.518696515
632.439747754
632.376721551
632.327853114
632.290778658
632.262991047
632.242680591
632.228490846
632.218502087
632.213062564
632.208495139
632.206631532
995.93068969
995.512777694
994.674561653
993.406633557
991.714973189
989.605958039
987.087449486
984.168644935
980.859959726
977.172893824
973.119893099
968.714207155
963.969746502
958.900941556
953.522606184
947.849808704
941.897753758
935.68167861
929.21676755
922.518087469
915.600546794
908.478878344
901.167644989
893.68126511
886.034053677
878.240274102
870.314196698
862.270160763
854.122639193
845.886305699
837.576108003
829.207338703
820.795717257
812.357469054
803.909401513
795.468970874
787.054332492
778.6843669
770.378674147
762.157530018
754.041800379
746.052813939
738.212199679
730.541701838
723.062993124
715.797510341
708.766340403
701.990171032
695.489316535
689.283779293
683.393301151
677.83725478
672.634207689
667.800886811
663.350407751
659.289935714
655.619266667
652.334414787
649.424938467
646.88206843
644.669987933
642.770944099
641.186328537
639.871560077
638.772986165
637.845559865
637.055605231
636.379622351
635.800535883
635.305013382
634.882413797
634.523367581
634.217791736
633.954154262
633.721786712
633.515233452
633.332058651
633.168859983
633.021897201
632.889107845
632.768710688
632.659076759
632.55907583
632.468707045
632.392264662
632.329884803
632.281161021
632.244088126
632.215947477
632.194695914
632.178123342
632.166545668
632.159486947
632.155472679
632.151958653
632.150464249
999.891819491
999.460530667
998.597055507
997.29110272
995.549162671
993.378170627
990.786657912
987.784582658
984.383192401
980.594870554
976.432977647
971.911689471
967.045834805
961.850735121
956.342048858
950.535623482
944.447359287
938.093089648
931.488482637
924.648968581
917.589696789
910.325522636
902.871023448
895.240538938
887.448229798
879.508147273
871.434307433
863.240766318
854.941695257
846.551458224
838.084696661
829.556414872
820.982082004
812.37773476
803.760080918
795.146595293
786.555598671
778.006309033
769.51885418
761.114235613
752.814236398
744.641270921
736.618182425
728.768005509
721.113721762
713.678050307
706.483314825
699.551434107
692.904046153
686.562771489
680.549527627
674.886759012
669.597239936
664.702917425
660.222182847
656.164951355
652.528471091
649.309591394
646.49350965
644.088784575
642.015566237
640.259560336
638.880930134
637.798776583
636.927105418
636.206400323
635.599028575
635.084305645
634.648879588
634.282225776
633.976946414
633.727056435
633.523575271
633.351869147
633.196609814
633.054606006
632.929128342
632.817494104
632.714774176
632.620566742
632.534109178
632.454028109
632.380420669
632.313922004
632.257686494
632.212826882
632.178553482
632.152403588
632.132417802
632.117498286
632.106282854
632.098036314
632.092981218
632.090570069
632.088701265
632.087575955
1004.29900696
1003.85244785
1002.96019765
1001.61094619
999.811791621
997.570334366
994.895902505
991.799356066
988.292926143
984.390037326
980.105125755
975.453454884
970.450931326
965.11392255
959.459078671
953.50316155
947.262885968
940.754778944
933.995064228
926.999578675
919.783725748
912.362468319
904.750358969
896.961601506
889.010133977
880.90972193
872.674052246
864.316822081
855.851823207
847.293026924
838.654677945
829.951394468
821.198292865
812.411118969
803.606386692
794.801512483
786.01493333
777.266193901
768.575987164
759.966132784
751.45948012
743.079728348
734.851167415
726.798358582
718.945795147
711.317601679
703.937349859
696.828060547
690.012457557
683.513484304
677.355078592
671.563039886
666.165606858
661.192683654
656.672237977
652.61935824
649.021558529
645.87967111
643.161953932
640.955367537
639.033500101
637.392368948
636.289382141
635.519429212
634.933021004
634.456624262
634.05238728
633.712097998
633.431218831
633.201594854
633.019941308
632.887514945
632.798604941
632.731452398
632.657518152
632.578027613
632.512411256
632.456463136
632.399204818
632.344329982
632.292924557
632.242436682
632.195495652
632.152682623
632.117107449
632.089820932
632.06893905
632.053010365
632.041107967
632.032930624
632.02714688
632.023516089
632.020919012
632.019813241
632.019942187
632.019501307
1009.16716712
1008.70324683
1007.7783586
1006.38002122
1004.5160558
1002.19485563
999.426694949
996.223500553
992.598662168
988.5668264
984.143688316
979.345782502
974.19027502
968.694756787
962.877039507
956.754957122
950.346178268
943.668037937
936.737398265
929.570548821
922.183154819
914.590257572
906.806325236
898.845344815
890.720940256
882.446498645
874.035288736
865.500563626
856.855649554
848.114032063
839.289453608
830.396026561
821.44838303
812.461841296
803.45258925
794.437869649
785.436151452
776.467268277
767.552502234
758.714589451
749.977624565
741.366847051
732.908305159
724.628415783
716.55346969
708.709170249
701.120320692
693.810793656
686.803879566
680.123114108
673.793664884
667.84431388
662.30982272
657.232159222
652.65875469
648.617147764
645.062982707
642.016496746
639.36673007
637.51005348
635.666156287
633.754605716
633.064693175
632.790959825
632.605118985
632.440487222
632.290744052
632.157612296
632.042044031
631.95093385
631.901601696
631.913459432
631.987412664
632.083043505
632.117340001
632.091252176
632.088029873
632.095059004
632.081811468
632.064887808
632.050138232
632.027537352
632.006972655
631.986975781
631.971688893
631.960187339
631.952257647
631.947025076
631.944237757
631.943247529
631.943047264
631.943684031
631.944628245
631.94520123
631.947357777
631.947646092
1014.51322069
1014.02960979
1013.06780585
1011.61398227
1009.67682203
1007.26566445
1004.39190754
1001.06873869
997.310909374
993.134495459
988.556659086
983.595413524
978.269390445
972.597607583
966.599235716
960.29336688
953.69879014
946.833785816
939.715952703
932.36208418
924.788107243
917.009092653
909.039334993
900.892489698
892.581743344
884.119987557
875.519970032
866.794409126
857.956077428
849.017876397
839.992927132
830.894692107
821.737152383
812.535017828
803.303968023
794.060904259
784.824193061
775.613877547
766.451827584
757.361794291
748.369331825
739.501552257
730.786693038
722.25350489
713.930516982
705.845298929
698.023899773
690.490673246
683.268640145
676.380541406
669.850863304
663.709311172
657.996535068
652.771303089
648.123571467
644.120202489
640.604665733
637.621470548
634.445821948
633.670106526
632.774364852
632.52378586
632.506268474
632.507037869
632.469316011
632.399870223
632.311624161
632.217491716
632.12892328
632.056719904
632.013697373
632.002904238
631.989328974
631.882381388
631.643468608
631.528541575
631.605417008
631.725837157
631.767285095
631.785199829
631.813113962
631.811896956
631.817588802
631.818123962
631.821469126
631.825224233
631.830336444
631.836464281
631.843159821
631.849624417
631.855510866
631.860796292
631.865124181
631.868327139
631.871993639
631.87314128
1020.35631031
1019.85039126
1018.84689634
1017.33045322
1015.3107754
1012.79833415
1009.80586453
1006.3480439
1002.44122183
998.103140293
993.352663159
988.209515093
982.694025681
976.826872052
970.628814663
964.120425929
957.321818519
950.252388062
942.930591454
935.373785517
927.598149257
919.618705344
911.449442189
903.103518817
894.593515344
885.931679419
877.13012222
868.200940085
859.156273484
850.008346035
840.76952907
831.452464271
822.070271448
812.636814481
803.167016378
793.677197916
784.185417289
774.711783371
765.278706107
755.911036
746.636035272
737.483119252
728.483315641
719.668421878
711.069910443
702.717741589
694.639353163
686.859186082
679.398881913
672.278277117
665.51762418
659.142153746
653.192874252
647.742827281
642.971395368
639.024434799
635.234037972
633.197222251
633.087039041
633.17738055
633.061424636
632.964769895
632.921114043
632.878676379
632.818463822
632.737584113
632.637574094
632.526679305
632.412974331
632.304155027
632.209898683
632.130851733
632.046587894
631.932249913
631.815985376
631.768088113
631.779805771
631.7066757
631.469999531
631.463804666
631.586175522
631.593895352
631.630956412
631.646402038
631.668214757
631.686731393
631.706044982
631.723197542
631.739020707
631.753016605
631.765532018
631.77596553
631.784312968
631.790391294
631.794904395
631.797231934
1026.71806051
1026.18686472
1025.13630529
1023.54922962
1021.4365898
1018.81021733
1015.68444337
1012.07570912
1008.00223797
1003.48370734
998.540944063
993.195640928
987.470083644
981.386872996
974.968629334
968.237674557
961.215698492
953.923429374
946.380339464
938.604424114
930.61209285
922.418201651
914.036234802
905.478613498
896.757073295
887.883026171
878.867823235
869.722872584
860.45963623
851.089588763
841.624222045
832.075156327
822.454385263
812.774616079
803.049680923
793.294985696
783.527973899
773.768578796
764.039621583
754.367092246
744.780228939
735.311293881
725.994937504
716.867069127
707.963243039
699.316759038
690.95688679
682.907919598
675.189019178
667.814632102
660.795560606
654.142044479
647.870504521
641.979958988
636.533311806
633.888401385
633.674264541
633.620106092
633.622945338
633.674602625
633.62754105
633.553031822
633.471879977
633.391491865
633.306650818
633.209546513
633.098042449
632.97546092
632.846043148
632.716869209
632.595105336
632.479842098
632.355550594
632.206699089
632.051728512
631.930586718
631.840883303
631.740758856
631.673557755
631.666475977
631.557345552
631.337009587
631.441808563
631.469763252
631.514708461
631.54602932
631.581430974
631.607661104
631.632473608
631.655208902
631.674979283
631.690873447
631.703374741
631.712330137
631.718130486
631.721544825
1033.62289005
1033.06301938
1031.95929794
1030.2925164
1028.07512454
1025.32059824
1022.04518385
1018.26741736
1014.0077189
1009.28800507
1004.13135044
998.56169146
992.603550136
986.281747488
979.621080728
972.645951479
965.379950746
957.845426923
950.063081719
942.051652874
933.827746974
925.405875978
916.798722222
908.017606897
899.073073889
889.975444778
880.735188733
871.363014715
861.869733515
852.266053807
842.562469744
832.769344254
822.897208084
812.957206296
802.961635897
792.924529365
782.862271478
772.794233646
762.743383265
752.736789385
742.805909804
732.986503307
723.317968709
713.841903807
704.599769133
695.629869692
686.964246993
678.627219697
670.634993522
662.995297043
655.706796321
648.752872193
642.053426157
635.070005055
634.515017974
634.407377584
634.377541331
634.391469267
634.375375883
634.34915052
634.283979167
634.201284821
634.107731432
634.010780263
633.907783373
633.793349044
633.667129701
633.529890252
633.383108532
633.232306285
633.082032957
632.931292993
632.770920204
632.593179883
632.40950766
632.243257737
632.094690075
631.946011475
631.814715318
631.71195812
631.618729434
631.578365252
631.50056184
631.27445388
631.352226054
631.402411066
631.460275711
631.490653509
631.526470707
631.559004512
631.586148629
631.607633281
631.623968716
631.636005792
631.643495631
631.647813548
1041.09839043
1040.50591585
1039.34205383
1037.58520708
1035.24964987
1032.35086059
1028.90740106
1024.94030867
1020.47258106
1015.52871228
1010.13432424
1004.31587872
998.100425644
991.515331834
984.587942575
977.345149785
969.812869699
962.015464333
953.975170756
945.711626829
937.24159567
928.578985411
919.735224426
910.719976189
901.542065465
892.210369384
882.734375027
873.124202529
863.390188551
853.542367327
843.590146152
833.542345561
823.407595602
813.19494954
802.914588868
792.578559445
782.2015612
771.801809219
761.401933251
751.029823935
740.719282926
730.51026301
720.448368586
710.583180448
700.964966738
691.639893789
682.644308658
674.003125805
665.730209786
657.829354331
650.290795802
643.048831455
635.596530933
634.688906842
635.009463186
635.202994103
635.246802867
635.209824325
635.162966625
635.109363579
635.034572268
634.944176561
634.841357432
634.729702283
634.607669412
634.472840162
634.327033406
634.169802363
634.000921506
633.824373123
633.642924015
633.456083211
633.259706631
633.05176386
632.83996886
632.636917563
632.444389774
632.256100835
632.078015049
631.916764639
631.767003176
631.643555568
631.533733626
631.481793899
631.415944742
631.251093373
631.349641474
631.370063126
631.422498194
631.466718797
631.501037699
631.527785391
631.548073277
631.562899831
631.572299938
631.577472437
1049.17578542
1048.54611816
1047.31405473
1045.45521297
1042.9861049
1039.92466815
1036.2922938
1032.1130326
1027.41291419
1022.21937955
1016.56089353
1010.46670545
1003.96667386
997.091055556
989.870176021
982.333934114
974.511138402
966.428719132
958.11090441
949.57849048
940.848367047
931.933467205
922.843274886
913.584914291
904.164652303
894.589397525
884.867616019
875.009199514
865.024478035
854.923101793
844.713349907
834.402129857
823.995577609
813.499960506
802.9226063
792.272782377
781.562649132
770.808382902
760.03145717
749.259975575
738.52990575
727.88597232
717.381730135
707.07800411
697.03849555
687.322244609
677.971767927
669.012586849
660.457320571
652.305442228
644.503201597
636.566198992
635.596006286
635.808896813
636.074883862
636.138713864
636.144884612
636.0976515
636.035842606
635.964155366
635.876722195
635.774342169
635.657576354
635.527302812
635.382604814
635.22364776
635.053255975
634.870461394
634.674922731
634.469595591
634.25635664
634.035263956
633.804970096
633.565961429
633.323478895
633.084541409
632.851710788
632.624730701
632.407442507
632.203395777
632.010755548
631.833864301
631.674130819
631.548457638
631.44875071
631.409072621
631.34196255
631.215373529
631.31779047
631.380491792
631.421605812
631.452668791
631.476837227
631.49425448
631.50573403
631.511622589
1057.89049319
1057.21822085
1055.90855126
1053.93385316
1051.31339297
1048.06815309
1044.22303351
1039.80576681
1034.8459681
1029.37441683
1023.4226752
1017.02297458
1010.20820988
1003.01186779
995.467751275
987.609422596
979.46935478
971.077846223
962.461816201
953.643663256
944.640430633
935.463566704
926.119554617
916.611552915
906.941872807
897.114614048
887.137321812
877.020527965
866.775575905
856.412369717
845.938073247
835.357133153
824.672333756
813.886241954
803.002434753
792.026432023
780.966733228
769.836213528
758.653886853
747.446886106
736.252544929
725.120438811
714.11383005
703.309234536
692.791261753
682.641540825
672.91017948
663.621929921
654.783905454
646.347800337
637.825284726
636.844993116
637.092553801
637.252570709
637.270050477
637.222868831
637.165901123
637.088324314
637.002648692
636.908268121
636.801078928
636.678990961
636.540361939
636.384352787
636.210828256
636.023202426
635.823014607
635.609141553
635.383314816
635.14744288
634.902824716
634.649724703
634.387945964
634.118585313
633.845146437
633.571965394
633.301807128
633.036682477
632.779990643
632.534704872
632.302074428
632.085047813
631.885862575
631.710136387
631.561799256
631.453701327
631.374614917
631.313535894
631.242153644
631.309449443
631.350560563
631.383214231
631.410696572
631.430976206
631.444444025
631.451095102
1067.2828122
1066.56150626
1065.16312411
1063.05632155
1060.26372432
1056.81010424
1052.7248072
1048.04016621
1042.79007861
1037.00905427
1030.73189577
1023.9938562
1016.83096687
1009.28023728
1001.37950906
993.166847737
984.679454862
975.952167533
967.015692174
957.894811276
948.606912655
939.161308545
929.559878268
919.799463066
909.875981961
899.789248613
889.546281097
879.160163169
868.645317242
858.013124135
847.269655577
836.415953573
825.450105896
814.369768053
803.173773777
791.862814048
780.440326721
768.914145553
757.29886865
745.618613925
733.910156376
722.226732126
710.6422218
699.254300882
688.180474939
677.546741648
667.410124104
657.783403741
648.616557182
639.406200883
638.386277444
638.714135632
638.854034324
638.725426213
638.56670511
638.42386183
638.297962367
638.175991579
638.0564982
637.932260082
637.796711814
637.64520334
637.474638432
637.283597658
637.073120939
636.848839031
636.612556815
636.363776783
636.10507765
635.837935771
635.563129
635.280660022
634.990382105
634.693028115
634.390733539
634.086331987
633.782417366
633.481621343
633.187179635
632.902216974
632.629515686
632.3724873
632.134517727
631.91981048
631.731687752
631.573817168
631.445696395
631.347493846
631.308343219
631.269535774
631.285529284
631.317883176
631.349842604
631.373715492
631.389211024
631.39685701
1077.39874972
1076.62079207
1075.12035021
1072.86225563
1069.87302974
1066.182146
1061.82476752
1056.83917911
1051.26447917
1045.13925331
1038.50144376
1031.38905655
1023.8411053
1015.89829489
1007.60312106
998.99923026
990.130026123
981.036605209
971.75518791
962.31432407
952.732330816
943.015670682
933.159243832
923.149654202
912.972003931
902.618963587
892.098025578
881.428935816
870.633239911
859.725963281
848.711930737
837.586938879
826.342078403
814.968493931
803.459424236
791.80974151
780.016169793
768.079178708
756.006197222
743.815161116
731.538563068
719.229449923
706.970193684
694.884345994
683.139772534
671.964045321
661.403204888
651.385364907
641.376343911
640.238717947
640.618817336
640.77045751
640.539319582
640.211996257
639.931357122
639.70325672
639.513896781
639.345254481
639.185963766
639.024104355
638.850574103
638.658940643
638.445259224
638.208275561
637.950760266
637.680687595
637.401062734
637.112452719
636.818129286
636.519322271
636.216103125
635.907673674
635.59310493
635.272114624
634.945467488
634.61475534
634.282035393
633.949859661
633.621346368
633.299865312
632.988967218
632.692646694
632.415170582