/*--------------------------------*- C++ -*----------------------------------*\
| =========                 |                                                 |
| \\      /  F ield         | OpenFOAM: The Open Source CFD Toolbox           |
|  \\    /   O peration     | Version:  v1906                                 |
|   \\  /    A nd           | Web:      www.OpenFOAM.com                      |
|    \\/     M anipulation  |                                                 |
\*---------------------------------------------------------------------------*/
FoamFile
{
    version     2.0;
    format      ascii;
    class       volScalarField;
    location    "246";
    object      pa;
}
// * * * * * * * * * * * * * * * * * * * * * * * * * * * * * * * * * * * * * //

dimensions      [0 2 -2 0 0 0 0];


internalField   nonuniform List<scalar> 
9216
(
1024.39149559
1024.01740119
1023.2344213
1022.05688647
1020.48481777
1018.52207094
1016.17320111
1013.44445096
1010.34231436
1006.87495027
1003.05047594
998.878722894
994.36920387
989.533204502
984.381417492
978.926374515
973.1797484
967.15513001
960.865005129
954.323874368
947.544913124
940.543427871
933.333213113
925.930327506
918.349163524
910.606520946
902.717411633
894.699397187
886.568154011
878.342036574
870.037436628
861.673521791
853.267423054
844.839099393
836.406397308
827.989976899
819.6082897
811.282504632
803.031456372
794.876505219
786.83650992
778.93256084
771.183035485
763.608147799
756.22514301
749.052618407
742.105914438
735.401174928
728.950988197
722.76817762
716.861747978
711.240419445
705.908932998
700.871360882
696.127818144
691.677579717
687.516219457
683.638543321
680.036142038
676.700121814
673.619024854
670.781325391
668.173651483
665.783009565
663.595232212
661.596911231
659.774012591
658.113528052
656.602221979
655.228035456
653.978944561
652.844157243
651.813067818
650.876284768
650.024670823
649.250234033
648.545246471
647.903024802
647.317121768
646.78201137
646.292331008
645.843444139
645.430207204
645.050323084
644.715270531
644.430929876
644.190641482
643.993280047
643.839004566
643.723594417
643.641255023
643.584327175
643.545721491
643.521997175
643.509937506
643.505718178
1024.76453905
1024.38933418
1023.61138487
1022.43245744
1020.85694749
1018.88928555
1016.53449566
1013.79874877
1010.68884938
1007.21276753
1003.37896037
999.19701222
994.676825206
989.829383123
984.665816258
979.198295767
973.438976906
967.401028412
961.097458984
954.542283478
947.749238124
940.733081736
933.508205038
926.090060674
918.493672304
910.73518286
902.830269409
894.795794716
886.648135006
878.404916346
870.08326348
861.701597963
853.277818917
844.831138305
836.380203035
827.944939784
819.544631815
811.199744002
802.929969578
794.756006939
786.697594118
778.775212222
771.008128506
763.416005446
756.016975656
748.829142524
741.86871283
735.151383918
728.690563918
722.498655083
716.585399783
710.959087721
705.625075134
700.586958579
695.845314361
691.398876406
687.24352047
683.373454698
679.780435784
676.454947597
673.385606574
670.560286327
667.965651617
665.588175867
663.413736608
661.428486372
659.618465678
657.970321566
656.470924092
655.107951175
653.869509181
652.744608283
651.722789979
650.794515179
649.950802563
649.183549256
648.48518528
647.848944268
647.268540647
646.738408115
646.253415039
645.809116451
645.40158477
645.02781382
644.694016765
644.410295566
644.173845646
643.980964425
643.828012839
643.712951782
643.632591088
643.577175074
643.538932991
643.516391444
643.505551165
643.50112114
1025.54741019
1025.16306269
1024.38120099
1023.1965826
1021.61344513
1019.63613259
1017.26983675
1014.52074707
1011.39586664
1007.90316336
1004.05131453
999.849882753
995.309011317
990.439637804
985.253148299
979.761635396
973.977516611
967.913842172
961.583882844
955.001490501
948.180659092
941.135939126
933.881974521
926.43396828
918.807195776
911.017516721
903.080864755
895.013797321
886.832960187
878.555665774
870.199332124
861.782075914
853.322123499
844.838408179
836.3499508
827.876444489
819.437603589
811.053721129
802.744986071
794.531999177
786.43506056
778.474633772
770.670609444
763.04271045
755.609740185
748.389927299
741.400171065
734.656329633
728.17248062
721.961169518
716.032716329
710.395459426
705.055156133
700.015276364
695.276553144
690.837373877
686.693513082
682.838631374
679.264175767
675.959952378
672.914149289
670.113933692
667.545534639
665.194795996
663.047243419
661.088538076
659.304488774
657.681396135
656.206011411
654.865789426
653.648808573
652.543953062
651.540804433
650.629769401
649.801952747
649.049245433
648.364189648
647.74004127
647.170638757
646.650457423
646.17450487
645.738413731
645.338429556
644.971110042
644.643463782
644.366588575
644.140826364
643.956463816
643.80594753
643.69315216
643.616507406
643.562456066
643.526334248
643.505448666
643.494265295
643.488630999
1026.72999462
1026.34071757
1025.55260051
1024.35890606
1022.76380084
1020.77160491
1018.38762343
1015.61813813
1012.47032426
1008.95226341
1005.07282931
1000.84170124
996.269229832
991.366459229
986.144980125
980.616967719
974.795028278
968.692258731
962.322091943
955.698382384
948.835254027
941.747214042
934.449004643
926.955743918
919.282780736
911.445858966
903.460972346
895.344546363
887.113289123
878.784383824
870.375331703
861.904144653
853.389173675
844.849295982
836.303721182
827.772159572
819.274599841
810.831447379
802.463267101
794.190882096
786.035078085
778.016656143
770.156098951
762.473575124
754.988571027
747.719847598
740.685044084
733.900592072
727.381302984
721.140254349
715.18838842
709.534409358
704.184448302
699.142039815
694.407926927
689.980184831
685.85421126
682.023010273
678.477346572
675.20614069
672.196733028
669.435339556
666.907357626
664.59779027
662.491494426
660.573499683
658.82915769
657.244351548
655.805564258
654.500009564
653.315646776
652.24125563
651.266411164
650.381515322
649.577743327
648.847045603
648.182078341
647.576188486
647.023340373
646.518097229
646.055559489
645.631374215
645.241525295
644.883304876
644.567356168
644.304335173
644.090318201
643.913913761
643.772879561
643.666491581
643.590420446
643.538666086
643.505004427
643.484591544
643.47307472
643.467373386
1028.31823459
1027.92400815
1027.12753567
1025.9214993
1024.31010789
1022.29773434
1019.88981097
1017.09276769
1013.91397234
1010.361696
1006.44503637
1002.17387797
997.55880506
992.611062022
987.342462566
981.765357182
975.892545412
969.737256952
963.313073298
956.633927609
949.714039976
942.567938798
935.210411158
927.656544957
919.921692496
912.021529831
903.972029496
895.789531458
887.490719573
879.092698066
870.612967176
862.069494952
853.480683771
844.865434068
836.243091968
827.633491294
819.056873491
810.533896997
802.085520273
793.732968983
785.497575804
777.400700187
769.463523213
761.706918759
754.15120488
746.815967601
739.719771196
732.879935808
726.312211034
720.030516724
714.046601332
708.369786443
703.006673297
697.96098205
693.233410335
688.821667433
684.720553359
680.922207815
677.416372585
674.190771676
671.231491789
668.523454004
666.05084165
663.797535028
661.747436815
659.884764451
658.194230571
656.661204138
655.271794152
654.01293343
652.872410042
651.838902055
650.901966458
650.052033986
649.280366395
648.579024928
647.940810791
647.359218956
646.828371812
646.342966738
645.898204491
645.489733634
645.112944128
644.768396544
644.469896935
644.223531925
644.023159157
643.858380541
643.72458519
643.624230875
643.553334306
643.504363962
643.471813428
643.451885724
643.440344332
643.434565759
1030.31679723
1029.91686924
1029.10996222
1027.88831377
1026.25626028
1024.21829555
1021.78002257
1018.94807291
1015.7300525
1012.13448578
1008.17074734
1003.84899887
999.180113162
994.175608496
988.847571545
983.20859659
977.271714909
971.050346473
964.558242949
957.809458359
950.818310891
943.599375957
936.167468243
928.537656583
920.725263766
912.745898957
904.615469951
896.350227185
887.966782414
879.482158316
870.913808797
862.279663958
853.598143513
844.888194806
836.169287784
827.461431306
818.785139072
810.161411665
801.611661564
793.157650138
784.821363659
776.624899435
768.590290506
760.739340457
753.093398408
745.673142923
738.498306279
731.58740262
724.957395957
718.623368982
712.598145292
706.891934152
701.51198216
696.462313707
691.743566203
687.352985376
683.284550865
679.529258597
676.075467257
672.909309085
670.01516619
667.37622841
664.975050226
662.794050183
660.815899998
659.023807286
657.401696055
655.934323983
654.60735111
653.407389057
652.322027722
651.339845894
650.450395194
649.644169591
648.912555459
648.247777745
647.642834002
647.0914285
646.587899562
646.127148275
645.704563432
645.315945654
644.95671222
644.631478166
644.354173876
644.125906251
643.936953012
643.78122036
643.658719639
643.569842542
643.503254047
643.456528263
643.425974343
643.404936006
643.392911535
643.386802514
1032.73121466
1032.32453588
1031.50501369
1030.26438528
1028.60716779
1026.5380312
1024.06279858
1021.18836065
1017.92261734
1014.27441339
1010.25346424
1005.87028276
1001.1360972
996.062774252
990.662736359
984.948889047
978.934546497
972.633372007
966.059320733
959.226601172
952.149641605
944.843076982
937.321740982
929.600677374
921.695154245
913.620694398
905.393105111
897.028520485
888.543439878
879.954776411
871.279899708
862.536680173
853.743527967
844.919431741
836.083980896
827.257381987
818.460451537
809.714594858
801.041754645
792.46433879
784.005114476
775.687078505
767.533294669
759.56670792
751.809928029
744.284989096
737.013076034
730.014216494
723.306929393
716.907824301
710.831158386
705.088362214
699.687584658
694.633309538
689.926122502
685.562679597
681.535870407
677.835205224
674.447248016
671.356061749
668.543773924
665.991298902
663.679067797
661.587653269
659.698208434
657.992748866
656.454287104
655.066898735
653.815744614
652.687088679
651.668312137
650.747909782
649.915458084
649.161562721
648.477789138
647.856590701
647.291227269
646.775684386
646.304587305
645.873114143
645.476907382
645.111843415
644.774015525
644.473039891
644.218549618
644.007299422
643.832057178
643.690030541
643.58059111
643.498421812
643.436068149
643.391738845
643.362971448
643.341929178
643.329715549
643.323622024
1035.56806164
1035.15343789
1034.31900163
1033.05588157
1031.368821
1029.26271213
1026.74365268
1023.81885186
1020.49656982
1016.78604243
1012.69740192
1008.2415905
1003.43027187
998.275739667
992.79082796
986.98882383
980.883387072
974.488477844
967.818296395
960.887236025
953.709851272
946.300841996
938.675052364
930.847484756
922.833324734
914.647977301
906.307108958
897.82669754
889.223083614
880.513028363
871.713770754
862.843083698
853.919330407
844.961518681
835.98934173
827.023211653
818.084269066
809.194376679
800.376078607
791.65253689
783.047427301
774.584810998
766.288965757
758.184197256
750.294613859
742.643883418
735.254948159
728.14970626
721.348625753
714.870288791
708.730844434
702.943395041
697.517357135
692.457900641
687.765590664
683.436327753
679.461558647
675.828877445
672.522601251
669.524145274
666.812679906
664.366129702
662.162196792
660.179160287
658.396378816
656.794522658
655.355627446
654.063055772
652.901452305
651.856721671
650.916040742
650.067850111
649.301804406
648.608687008
647.980316643
647.409454068
646.889703659
646.415416954
645.981595076
645.583789593
645.218014661
644.880383106
644.568933602
644.294454428
644.063573295
643.870694017
643.711523398
643.583828029
643.485054211
643.408170658
643.351910341
643.309800745
643.281045758
643.262638816
643.250074026
643.244217096
1038.83507851
1038.41121727
1037.55943441
1036.27013515
1034.54832729
1032.39917384
1029.82910221
1026.845707
1023.4576802
1019.67473007
1015.50748916
1010.96741933
1006.06670836
1000.81816805
995.235128713
989.331340852
983.120879798
976.618064159
969.837384571
962.793452134
955.500962648
947.974682868
940.229453481
932.280211146
924.142023169
915.830134633
907.360022406
898.747455796
890.008560714
881.159889115
872.218491493
863.201987128
854.12864128
845.017437705
835.888144249
826.761365763
817.658578586
808.60213913
799.615262301
790.721962666
781.946959171
773.315539145
764.853389733
756.586395726
748.540415501
740.741029708
733.213266776
725.981277833
719.067942035
712.494351697
706.279157774
700.437750403
694.981351668
689.91616656
685.242785674
680.956153499
677.045720117
673.496631825
670.290521005
667.405471443
664.816737421
662.498272517
660.424265051
658.57020169
656.913394942
655.433108308
654.11041813
652.928020493
651.870060541
650.922082235
650.071066703
649.305448197
648.6150423
647.990902001
647.425193998
646.911083573
646.442615822
646.014605164
645.622527097
645.26240279
644.930699938
644.623748751
644.341822537
644.096758066
643.890568585
643.71695001
643.574395135
643.460595273
643.371352318
643.302334179
643.249750484
643.211183892
643.183319319
643.167056812
643.154041949
643.148581174
1042.54125604
1042.10676854
1041.23506529
1039.91568861
1038.15396043
1035.9553606
1033.32670952
1030.27605753
1026.81261155
1022.94664043
1018.6893748
1014.05289549
1009.0500191
1003.69417699
997.999296738
991.979683713
985.649912741
979.024728808
972.118966698
964.947488682
957.525147672
949.866773044
941.987181895
933.901209982
925.62376063
917.169864846
908.554749797
899.793911937
890.903193894
881.898867276
872.797719536
863.617142529
854.375230974
845.090880957
835.783881796
826.474999391
817.186036271
807.939867532
798.760435273
789.672705513
780.702572029
771.876720538
763.22244446
754.767436344
746.539550634
738.5665652
730.875918362
723.494421313
716.447878341
709.760553489
703.454400154
697.547972301
692.05513087
686.98362357
682.334192088
678.100523754
674.269130055
670.821973139
667.737843717
664.990726489
662.550517257
660.385759996
658.466089153
656.763648955
655.25357204
653.913799507
652.724645102
651.66828249
650.728417178
649.890217726
649.140448753
648.467614516
647.861817457
647.314511395
646.818325026
646.366944946
645.954968824
645.57778366
645.231451658
644.912582461
644.618227538
644.34511306
644.095997593
643.881203876
643.698567065
643.544615711
643.419938917
643.321092844
643.242793225
643.181065245
643.131465554
643.094569174
643.069869442
643.054312212
643.041987597
643.036557684
1046.69691907
1046.25032135
1045.35595322
1044.00235901
1042.19521707
1039.94038071
1037.24512778
1034.11804631
1030.56894759
1026.60876417
1022.24943226
1017.50376883
1012.38533626
1006.90830656
1001.08731894
994.937344245
988.47355232
981.711196879
974.665516208
967.351662626
959.784658573
951.979386995
943.950609856
935.713015138
927.281281988
918.670159965
909.894553259
900.969608421
891.910803108
882.734041792
873.455756884
864.093016478
854.663648497
845.186368847
835.680908847
826.168134088
816.670142453
807.210330474
797.813416168
788.505407886
779.313515277
770.26599905
761.391971887
752.721161312
744.28366629
736.109719158
728.229472817
720.672787077
713.468936438
706.646148401
700.230722119
694.245698739
688.708801196
683.630290347
679.011042648
674.843417799
671.108816079
667.784971337
664.848797559
662.269323101
660.008692765
658.027743407
656.29015497
654.764227584
653.422995567
652.243512911
651.20576757
650.29174468
649.484797569
648.769600504
648.132617612
647.562501466
647.049894649
646.5868208
646.166498161
645.783278322
645.432432416
645.110035161
644.812864487
644.53825091
644.28399075
644.047618545
643.833103317
643.648116309
643.489466519
643.35760837
643.251426643
643.165773416
643.096415777
643.041149133
642.997175868
642.963070381
642.939255052
642.924387126
642.913894066
642.908343413
1051.31381322
1050.85350167
1049.93354467
1048.54130809
1046.68288979
1044.36456948
1041.59415987
1038.38087325
1034.73523024
1030.6689396
1026.19476979
1021.32640412
1016.07829025
1010.46547801
1004.50345711
998.207991336
991.594963316
984.680230372
977.479507161
970.008276904
962.281743883
954.31482474
946.122182386
937.718291639
929.117530702
920.334283056
911.383043116
902.278517426
893.035724485
883.67009954
874.197608295
864.63487412
854.999331178
845.309389375
835.584605099
825.845848366
816.11544746
806.417300983
796.776933159
787.221486924
777.779633545
768.481408226
759.357969911
750.441327039
741.764052321
733.359054987
725.259429899
717.498386972
710.109199127
703.124896505
696.577578136
690.49658766
684.905772644
679.819235616
675.238080064
671.153940927
667.537845927
664.361274904
661.604058606
659.229326301
657.18670718
655.425524907
653.901668126
652.579308397
651.430077031
650.431042315
649.562832302
648.80781257
648.149035158
647.570370299
647.057571562
646.599632241
646.188226253
645.816191247
645.477423744
645.167118905
644.881348548
644.616991005
644.371670817
644.143553404
643.931279843
643.733246253
643.553967544
643.399271843
643.266567647
643.157453525
643.067524938
642.993286212
642.932565076
642.884442259
642.845961169
642.816748811
642.794288375
642.779244775
642.771276716
642.766202581
1056.40520601
1055.92945641
1054.98076168
1053.54513766
1051.62914843
1049.23956902
1046.3848247
1043.07485453
1039.32100171
1035.13588358
1030.53324054
1025.52777655
1020.13498155
1014.37094887
1008.25217923
1001.79538705
995.017306678
987.934518306
980.563297465
972.919508142
965.018542829
956.875321527
948.504342164
939.919778975
931.135607404
922.165741647
913.024163669
903.725039982
894.282824841
884.712369433
875.02904051
865.248867737
855.388727893
845.466555854
835.501569913
825.514501319
815.527802454
805.565818453
795.654893085
785.823390483
776.101610214
766.521589964
757.116809204
747.921823582
738.971910001
730.302802479
721.950616222
713.952038658
706.344613191
699.167103453
692.459011975
686.25904435
680.600638007
675.504779942
670.971175143
666.996518485
663.526032234
660.520240725
657.979198296
655.857694877
654.0824618
652.58470303
651.310433472
650.220366091
649.286360926
648.487469869
647.806566232
647.227415213
646.732768136
646.304677593
645.927236468
645.589994044
645.28698171
645.012089289
644.759755473
644.526310671
644.308760682
644.104846929
643.913228893
643.73301286
643.563808295
643.405132027
643.262062742
643.137209887
643.030715543
642.941287935
642.866601337
642.804822969
642.754684326
642.714231598
642.681167267
642.655787577
642.636718259
642.621921034
642.616549678
642.61194082
1061.98599656
1061.49292427
1060.51211608
1059.02798671
1057.04764398
1054.57841803
1051.62944191
1048.21148966
1044.33686082
1040.01922604
1035.27346196
1030.11546481
1024.56195414
1018.63025669
1012.3380813
1005.70328041
998.743616075
991.476535913
983.918984856
976.087263414
967.996956674
959.662936433
951.099442902
942.320225737
933.33872538
924.16825696
914.822174686
905.313997365
895.657507716
885.866848143
875.956636701
865.942127214
855.839431966
845.665786369
835.439847061
825.182000758
814.914658464
804.662510123
794.452701357
784.314903548
774.28123635
764.386032799
754.665437665
745.156898955
735.898641263
726.929284188
718.287828327
710.014103416
702.14984509
694.739882002
687.833232426
681.482021705
675.736435937
670.62970856
666.153079594
662.333495216
659.04345205
656.219020367
653.938885581
652.138759524
650.697393239
649.51659102
648.531890529
647.702879997
647.005935011
646.424841141
645.947950428
645.561943785
645.249102439
644.987257084
644.756114541
644.54612687
644.357513422
644.185156714
644.023099266
643.869504094
643.722419153
643.580356127
643.443343176
643.311458563
643.185458324
643.066054097
642.958559171
642.862810589
642.780027486
642.709980889
642.651011803
642.603346261
642.564392655
642.531649657
642.504645496
642.483556428
642.467118831
642.454826473
642.450580895
642.4466304
1068.07284374
1067.56041019
1066.54382546
1065.00566368
1062.95362152
1060.3956645
1057.34172687
1053.80354722
1049.79452659
1045.3295589
1040.42483761
1035.09765244
1029.36616339
1023.24915953
1016.76579022
1009.93528169
1002.77664052
995.308370514
987.548221052
979.513002062
971.218485812
962.679420069
953.909647747
944.92232142
935.730164577
926.345734226
916.781627119
907.050613241
897.165703449
887.140210928
876.987837827
866.722846612
856.360320772
845.916503931
835.409186227
824.858121497
814.285432405
803.715982655
793.177656992
782.701510811
772.321721076
762.075300697
752.001555028
742.141317524
732.536101133
723.227427014
714.256662851
705.665883451
697.499754798
689.808646273
682.652294799
676.102353792
670.239635809
665.122316065
660.698111222
657.132650631
654.07450183
651.390842387
649.437475169
648.071229223
647.057901087
646.258943053
645.604059286
645.060832693
644.61661308
644.265173876
644.004148167
643.827160108
643.71493237
643.637004739
643.56256468
643.481117617
643.411541228
643.347227561
643.278032035
643.206101805
643.130866286
643.050798404
642.968257852
642.884005467
642.800108996
642.718368694
642.643854151
642.575959826
642.5165391
642.466597458
642.425006247
642.391735554
642.362635376
642.337092881
642.316987643
642.3009726
642.288572246
642.279122886
642.273985324
642.27160505
1074.68430244
1074.15025952
1073.09396448
1071.49577607
1069.36406479
1066.70749236
1063.53691089
1059.86516213
1055.70692163
1051.07849275
1045.9975946
1040.48313141
1034.55495036
1028.23356624
1021.53985502
1014.49470585
1007.1186521
999.431496744
991.451977275
983.197504514
974.684028129
965.926052052
956.936818734
947.72862803
938.313236759
928.702237836
918.907338347
908.940479313
898.813837065
888.53979279
878.130961718
867.600355208
856.961697778
846.22985524
835.421345483
824.554886681
813.651955102
802.737312591
791.839446528
780.990850121
770.228043792
759.591256635
749.123689389
738.870361594
728.876695543
719.187159021
709.844671849
700.891590729
692.372615512
684.340258441
676.863597809
670.040012051
664.012847077
658.906661226
654.462626595
651.41016433
648.609190588
645.536594485
643.901005127
643.190646785
642.791162337
642.487477837
642.230461476
642.016537847
641.856462735
641.76576551
641.763892583
641.859992615
642.033671387
642.230294311
642.367248235
642.409364282
642.461963651
642.512697966
642.536170475
642.545819143
642.543622635
642.523878845
642.494752557
642.456243803
642.412517714
642.366299387
642.321210462
642.280065829
642.244567951
642.214084303
642.19067138
642.169540172
642.149193453
642.132956796
642.120828785
642.110312964
642.101999866
642.095173151
642.090197813
642.089227378
1081.84097461
1081.28288879
1080.18261113
1078.51791038
1076.2978531
1073.53188037
1070.23187624
1066.41195735
1062.08826653
1057.27873406
1052.00283008
1046.2813227
1040.13601821
1033.58946854
1026.66461798
1019.38438738
1011.77120094
1003.84649194
995.630235074
987.140574932
978.393617359
969.403447421
960.182395278
950.741529939
941.091273503
931.241989879
921.204366383
910.989502803
900.608753827
890.07352608
879.395176956
868.585163058
857.655423581
846.618947651
835.490436393
824.287025568
813.029025774
801.740671394
790.450788589
779.193299861
768.007399137
756.937266197
746.0311172
735.339523593
724.913019163
714.799514602
705.042408616
695.681277458
686.75539391
678.311010443
670.416955532
663.192196794
656.906038267
651.823674641
646.29378703
644.788069972
643.468022671
642.783863061
642.568574128
642.525567309
642.487460134
642.408788816
642.290816512
642.155127418
642.028993554
641.931394279
641.87145305
641.828591629
641.736637329
641.516496575
641.230389114
641.20684046
641.42481806
641.666379466
641.806950153
641.898170126
641.972499254
642.007204034
642.030119436
642.033911292
642.027468939
642.01308428
641.99618023
641.980992464
641.967957002
641.957100403
641.949185839
641.93910569
641.930696412
641.924648493
641.919641033
641.914584255
641.909542956
641.905964517
641.902181686
641.902192907
1089.56566156
1088.98084881
1087.83204155
1086.09380775
1083.77596715
1080.88878453
1077.44532624
1073.46118166
1068.95419942
1063.94417691
1058.45258431
1052.50231333
1046.11742983
1039.32287462
1032.14407757
1024.60645615
1016.73481262
1008.55266367
1000.08158236
991.340642131
982.346085684
973.111314893
963.647277493
953.963219991
944.067676802
933.969411667
923.677999542
913.203818594
902.557585486
891.749797501
880.790412092
869.688953658
858.455029202
847.099091684
835.633317262
824.072516416
812.43510643
800.744136716
789.028300359
777.322792054
765.669807556
754.118427947
742.723570045
731.543631091
720.636696904
710.05572433
699.843710216
690.033761511
680.651760803
671.720914755
663.273825288
655.326210022
647.981311492
644.138411424
643.747654367
643.885787679
643.808346785
643.662918494
643.5545116
643.483081082
643.405813921
643.296938661
643.146271138
642.967183017
642.77634774
642.586754687
642.410588952
642.24080874
642.054520398
641.850348686
641.683921705
641.613253393
641.552844334
641.330866912
641.075529804
641.204753209
641.418591448
641.504996147
641.582646166
641.622702327
641.649977957
641.663734428
641.674715437
641.683576307
641.691748193
641.69923827
641.705345702
641.707846211
641.711619903
641.71395412
641.714939841
641.715120898
641.71427934
641.7134844
641.711669286
641.71258834
1097.88351313
1097.26911092
1096.0669146
1094.24762073
1091.82172476
1088.8003735
1085.19797894
1081.03187604
1076.32190875
1071.09002215
1065.35993793
1059.15693189
1052.50763349
1045.43976645
1037.98174407
1030.1620787
1022.0086049
1013.54756596
1004.80266468
995.794218646
986.538602375
977.048157919
967.331718738
957.395774891
947.246082003
936.889265398
926.333767555
915.589655214
904.667503754
893.577185928
882.327149292
870.924505249
859.37578359
847.688044208
835.870019642
823.933230112
811.893182677
799.770757126
787.593689986
775.398003532
763.229057074
751.141967561
739.200697352
727.475211459
716.035746348
704.944359705
694.243854328
683.958460157
674.094909258
664.637083453
655.476727319
645.874087931
645.063144188
644.885814464
644.896137276
645.057627331
645.118034734
645.103831964
645.032882055
644.939114685
644.828926507
644.691012698
644.517670388
644.312170789
644.080587932
643.833186629
643.576915398
643.30277102
642.991905907
642.64826824
642.319895912
642.052965261
641.830225232
641.638411192
641.520549523
641.420493957
641.152010865
640.968710556
641.139503756
641.224671968
641.28435714
641.324549341
641.361021506
641.390679057
641.41834611
641.442266116
641.460347177
641.475461379
641.488959998
641.499314511
641.507176529
641.513089309
641.517623519
641.519324939
641.52034504
641.521663862
1106.82215167
1106.17509291
1104.91452875
1103.00618395
1100.46110996
1097.29131291
1093.51280575
1089.14504982
1084.21028182
1078.73291058
1072.73914828
1066.25686934
1059.31554505
1051.94609455
1044.18050689
1036.05115714
1027.58980805
1018.82635132
1009.78743053
1000.4951314
990.966026732
981.21086896
971.235254231
961.041384656
950.63075315
940.006970349
929.177510304
918.153101871
906.945295373
895.563986886
884.016056048
872.305495439
860.434706606
848.406219962
836.224201443
823.895658416
811.431822264
798.849938781
786.175431347
773.444127588
760.704301047
748.018078896
735.46151835
723.121865618
711.089636347
699.445250152
688.232522637
677.467398163
667.142723671
657.169650066
646.832551575
645.551226102
646.039321782
646.327560432
646.491003588
646.624312755
646.712348015
646.748768014
646.724931256
646.65482828
646.544044831
646.388636808
646.188938244
645.946717114
645.666042827
645.356996418
645.025316846
644.666572731
644.27116648
643.844143897
643.415420841
643.011130571
642.623385297
642.250847087
641.928567128
641.671202642
641.483474391
641.349557166
641.119715212
640.827771419
640.912107551
640.995820197
641.05755272
641.103857507
641.148795521
641.184909923
641.21467116
641.241343129
641.263574537
641.281996395
641.297235929
641.309516283
641.319235592
641.324629676
641.328212696
641.329824697
1116.41169002
1115.7289687
1114.40505951
1112.39943126
1109.72318943
1106.3891418
1102.41529112
1097.8238547
1092.64003289
1086.89106459
1080.60582265
1073.81487573
1066.55071603
1058.84785226
1050.74253755
1042.2719998
1033.47316046
1024.38090239
1015.02606441
1005.43340431
995.619939248
985.594152617
975.356675462
964.902888255
954.227400467
943.329274962
932.215527523
920.899706994
909.396597206
897.717405328
885.867359273
873.846173548
861.6505001
849.276860902
836.723568536
823.991700166
811.086417852
798.019230055
784.811056648
771.495613894
758.122772038
744.761945377
731.504422095
718.462679214
705.76135666
693.519815331
681.779451097
670.542564896
659.735713952
648.692709678
647.301898109
647.621740135
647.990373897
648.116387033
648.26328016
648.41165468
648.533522459
648.604913264
648.611311926
648.553390666
648.432295051
648.248227677
648.007378482
647.714294826
647.37412766
646.997349495
646.590247159
646.153268599
645.684885528
645.191709497
644.691558523
644.198883856
643.712155448
643.23045006
642.767459511
642.332908581
641.94008118
641.614462294
641.373325867
641.200017854
640.965700634
640.680696421
640.749854374
640.822291631
640.887527517
640.929643426
640.971916558
641.009228064
641.038311012
641.0643078
641.086928143
641.105320906
641.119992956
641.130107686
641.135576375
641.137936325
1126.68461309
1125.96358946
1124.57188569
1122.46090696
1119.64074227
1116.12475577
1111.93371185
1107.09369438
1101.6337646
1095.58440396
1088.97713998
1081.84506628
1074.22365056
1066.15129415
1057.66928919
1048.82098855
1039.65016922
1030.19866659
1020.50347153
1010.59358295
1000.48714289
990.189612678
979.694080504
968.984841114
958.044842376
946.865581734
935.454880053
923.833708405
912.024534943
900.042167516
887.889871034
875.560888359
863.043440014
850.326110046
837.400189842
824.259392633
810.900569361
797.326493346
783.550282026
769.600160092
755.524520568
741.398111503
727.328955424
713.464427284
699.985463581
687.101810686
674.827247213
663.070819332
651.172014817
649.725190511
650.063579559
650.219619598
650.207071425
650.216553288
650.320635738
650.451598606
650.56462755
650.626288978
650.617755874
650.53283851
650.370553622
650.133771196
649.832280181
649.473813387
649.065718461
648.619435097
648.142222298
647.637327262
647.106839785
646.55667746
645.997181663
645.436820327
644.878096027
644.323550041
643.779476107
643.248864433
642.734353791
642.248261147
641.809625649
641.443583387
641.179724949