/*--------------------------------*- C++ -*----------------------------------*\
| =========                 |                                                 |
| \\      /  F ield         | OpenFOAM: The Open Source CFD Toolbox           |
|  \\    /   O peration     | Version:  v1906                                 |
|   \\  /    A nd           | Web:      www.OpenFOAM.com                      |
|    \\/     M anipulation  |                                                 |
\*---------------------------------------------------------------------------*/
FoamFile
{
    version     2.0;
    format      ascii;
    class       surfaceScalarField;
    location    "54";
    object      phia;
}
// * * * * * * * * * * * * * * * * * * * * * * * * * * * * * * * * * * * * * //

dimensions      [0 3 -1 0 0 0 0];
oriented        oriented;


internalField   nonuniform List<scalar> 
18240
(
0.00171800698375
-0.00168209704734
0.00360415614481
-0.00184202713254
0.00548306744334
-0.00184286550434
0.00734732136891
-0.00181853559882
0.00916740125186
-0.00178619318915
0.0109539097942
-0.001739490978
0.0126772982084
-0.00169180474928
0.0143598150177
-0.0016343963262
0.0159661722881
-0.00157725803028
0.0175246754176
-0.00150957587159
0.0189967129696
-0.00144566204387
0.0204149645546
-0.00136885383153
0.0217287234539
-0.00129025903264
0.0229737310687
-0.00119560636493
0.0241103855841
-0.00111628457194
0.0251923220671
-0.00103289722452
0.0261685328018
-0.000959175681677
0.0270869098065
-0.000870220755403
0.0278886064945
-0.000788098787034
0.0286328566766
-0.000697507886145
0.0292614865652
-0.000618436714974
0.0298383438995
-0.000532002686159
0.0303071150388
-0.000462063342458
0.0307320715276
-0.000382352460532
0.0310512890037
-0.000315943341948
0.0313333103581
-0.00024190225308
0.03150624425
-0.0001728869246
0.0316362105515
-9.25025057684e-05
0.031668747052
-3.55561133137e-05
0.0316760587258
2.72731861969e-05
0.0316132447631
5.68813799689e-05
0.0315211419956
0.00012373779885
0.0312972866243
0.000215238164353
0.0310287590444
0.000297098583716
0.030676558567
0.000341143117569
0.030308109271
0.000394022228646
0.0298551953132
0.000439703936101
0.0293777038709
0.000500077722479
0.0288109868371
0.000551571101482
0.0282214230889
0.000609216057566
0.0275620234755
0.000642491493921
0.0268866979156
0.000692028724104
0.0261311638726
0.000737023300458
0.025361508109
0.000783298999215
0.024524633615
0.000816941709584
0.0236844866159
0.000850547419722
0.0227940367454
0.000869036172837
0.0219044136428
0.000896492808685
0.0209755772632
0.000905978699685
0.0200576164227
0.000920891880296
0.0191079033338
0.000925602612268
0.0181769455302
0.000929515502803
0.0172311454375
0.000920781202901
0.016308944415
0.000916076410495
0.0153832263026
0.00090030880994
0.0144862033557
0.000886308852237
0.0135932148261
0.000867889852907
0.0127294987321
0.000848887905391
0.0118873869034
0.000818084038355
0.0110836454344
0.000785694319902
0.01030818843
0.00075334617981
0.00956744741473
0.0007206338766
0.00886169582342
0.000686351527035
0.00819196395472
0.000648784309417
0.00755847958374
0.000617398704979
0.00694780313194
0.000590047967947
0.00637750991565
0.000557820068353
0.00583902906598
0.000519285085916
0.00534931247837
0.000480928209687
0.00489026065691
0.000442179898008
0.00447245191792
0.000412584558492
0.00407628269932
0.000382317837551
0.00371973531791
0.000354518142839
0.00338235287707
0.00032677377335
0.00307637513345
0.000306509201427
0.00278534788763
0.000283457165324
0.00252407970837
0.000263622324118
0.0022780532077
0.000241198276757
0.00205984899824
0.000221640374842
0.00185362222812
0.00020358433899
0.00166894314102
0.000188533262943
0.00149534374931
0.000172274579317
0.00133895456336
0.00016011419199
0.00119254214102
0.00014565315599
0.00106180014436
0.000133877166157
0.000939154583331
0.000122101147185
0.00083767969243
0.000103862848488
0.000765928296727
7.11139264355e-05
0.000709029790533
5.8391320337e-05
0.000640258030879
6.8337412018e-05
0.000557835924004
8.34434056791e-05
0.000465079799142
9.25654938268e-05
0.000365313284484
0.000100180763364
0.000245745583874
0.000120377045337
0.000113104163947
0.000133705847757
0.00011353445393
0.00190275869693
-0.00354520811879
0.00403208974162
-0.00392727277003
0.00614640988018
-0.0039154999459
0.00823467251632
-0.00386255131399
0.0102799670519
-0.00379062774389
0.0122839873033
-0.00369931666284
0.0142274610209
-0.00359540787941
0.0161120638186
-0.00347501973256
0.0179183129631
-0.0033448923165
0.0196526494932
-0.00320047835836
0.0212959395627
-0.00305187737247
0.0228608326935
-0.00289117688637
0.0243312048275
-0.00272541776491
0.0257318344715
-0.0025548481347
0.0270300973135
-0.00238141669322
0.0282307416023
-0.00219370334446
0.0293092494623
-0.00200698360371
0.0303022029812
-0.00182537852995
0.031204738958
-0.00166266051325
0.0320342302747
-0.00149150951197
0.0327683629533
-0.00132756500679
0.0334239383896
-0.00115468607269
0.0339696323096
-0.000985884796488
0.0344339040128
-0.000816585062777
0.0347990009361
-0.000662370573585
0.0350912781733
-0.000507127214816
0.0353039519022
-0.000369973176962
0.0354715310636
-0.000236035034561
0.0355512472462
-0.000102831123858
0.0355742196947
2.52241033969e-05
0.0354971664227
0.000143303057633
0.0353590807346
0.000279618291228
0.0351546273042
0.000426096237545
0.0348846824506
0.000581795464
0.0345230079578
0.000706438246787
0.0341034875498
0.000825372209105
0.0336013321913
0.000942792651032
0.0330490665888
0.00106138993139
0.0324370693395
0.00116198828236
0.031785740776
0.00126695841747
0.0310543501585
0.00136998299898
0.0302697399987
0.00148054662079
0.0294245377416
0.00157607757276
0.0285509160932
0.0016583551267
0.0276375720603
0.00172191061928
0.0267030076812
0.00178383121378
0.025714495073
0.00184695050359
0.0247028454547
0.00190376076731
0.0236644476684
0.00193143918888
0.0226213028477
0.00195632378444
0.021555882043
0.00197561678678
0.0204954791003
0.00197873432643
0.019431896435
0.00196642779855
0.0183803649257
0.00195301164481
0.0173371712541
0.00192331469192
0.0163192997762
0.00188650453314
0.0153243406489
0.00184099557939
0.0143633874743
0.00178967844394
0.0134227440203
0.00173598955185
0.0125081738105
0.00167855880383
0.0116246482652
0.0016143241779
0.0107773862293
0.00154580402208
0.00996705834938
0.00147533714827
0.00918688459418
0.00140764503735
0.00845187057941
0.00133318635886
0.0077639115349
0.00125845233511
0.00712288325907
0.00118226423308
0.00652381127793
0.00110128602513
0.00596783040453
0.00102351607594
0.00545113796574
0.000944897437542
0.00497857255392
0.000875315306934
0.00453586628969
0.000814555923732
0.00413217302278
0.000751916340716
0.00375721203199
0.000694624442783
0.00340981307814
0.00065063404002
0.0030848503886
0.000604234389756
0.00278821669216
0.000559477762812
0.00251102238363
0.000516541294863
0.00226206925533
0.000471741367766
0.00203561585409
0.000429781958928
0.00182261244619
0.000403702466937
0.00162439653987
0.000371097845776
0.0014435747252
0.000343211229474
0.00127776938346
0.000312329418444
0.00113249741709
0.000281039298394
0.000999653930325
0.00025585873826
0.000882188603703
0.000222718742005
0.000782027549603
0.000171880954892
0.000710324941317
0.000130903304916
0.000645260685624
0.000133841118906
0.000565031486326
0.000164166527597
0.000473934034794
0.000183775623612
0.00038108054386
0.00019355329689
0.00027427271729
0.000227927811377
0.000133630268865
0.000275318655938
0.000247699558174
0.00193620449186
-0.00544107385203
0.00409221906722
-0.00603996930222
0.00624108253125
-0.0060213504403
0.008360949251
-0.00593898811074
0.0104381519416
-0.00582533531918
0.01246615605
-0.00568425635618
0.014435572961
-0.00552301131935
0.0163417858104
-0.0053387315535
0.0181732636748
-0.00513546960877
0.0199298999439
-0.00491548107805
0.0215987893529
-0.00468107716694
0.0231779162738
-0.00442985298547
0.0246617029063
-0.00417103301326
0.0260540361767
-0.00390825735257
0.02735447039
-0.00364552136468
0.0285697358914
-0.00337188826031
0.0296920616465
-0.00309517630071
0.030721479668
-0.00281992946964
0.0316402748162
-0.00254984410875
0.0324629681559
-0.00228192059956
0.0331848784124
-0.00202068579557
0.0338161993294
-0.00175660512363
0.0343540971454
-0.00149800021641
0.0348107078029
-0.00124679877527
0.035185599058
-0.00101456717717
0.0355112427512
-0.000809400845565
0.0357709450064
-0.000610046828334
0.0359501271013
-0.000394914090206
0.036051187385
-0.000187466871761
0.0360682656847
2.52269522446e-05
0.0359948740272
0.000229973413166
0.035853987071
0.000434479255463
0.0356389698389
0.000651321097499
0.0353757072783
0.000856065788894
0.0350361337506
0.00105327331714
0.0346124240612
0.00125718594427
0.034106577832
0.0014531677411
0.0335339392579
0.00163939700589
0.0328965799787
0.00180132580766
0.0322019044938
0.00196453765602
0.031449042782
0.00212249156494
0.0306466985351
0.00228338036716
0.0297918904903
0.00242832280133
0.0289196865815
0.00252857127785
0.028002728366
0.00263399663982
0.0270440693247
0.0027379712353
0.0260727033446
0.0028108187969
0.0250907082571
0.00287852829928
0.0240716639408
0.0029401295606
0.02303560649
0.00298214239581
0.0219957071305
0.00300217777644
0.0209378208024
0.00302315936213
0.0198549278876
0.00303300687393
0.0187691168603
0.00302214942252
0.0176949213243
0.00297844786856
0.0166432758711
0.00291868853838
0.0156126200073
0.00285038924053
0.0146064780452
0.00277420389473
0.0136289506489
0.00269086598031
0.0126873927046
0.00259740381625
0.0117814710298
0.00249734206747
0.0109150955441
0.00238957557254
0.0100913793707
0.00227704024757
0.00931418002698
0.00216343259464
0.00858783305414
0.00203942987425
0.00790965516654
0.00191718770729
0.00727872197202
0.00179554307753
0.00668653731529
0.00167676464438
0.00613429994719
0.00156113859298
0.00560619526797
0.00145977587045
0.00510911406245
0.00136143667127
0.00465100340879
0.00126325907303
0.00422135213074
0.00117431309663
0.00382337962177
0.001086687314
0.00346872057533
0.00100109558992
0.00314510745851
0.000924974337395
0.00284797315822
0.000854963060632
0.00257252569658
0.000791614914236
0.00230445633871
0.000740055475281
0.00205669005693
0.000678745350803
0.00183983107452
0.000621831993706
0.00164428265832
0.000568360866183
0.00147030615061
0.000518795062907
0.0013104506787
0.000473654299926
0.0011651487225
0.000427911937801
0.00102689585801
0.000395321605259
0.000901732280979
0.000349377416533
0.00078076532841
0.000293739620325
0.000661978791614
0.000250616373909
0.000585507575402
0.000211032505601
0.000526249599721
0.000224029593463
0.000437102175388
0.000273207582379
0.000324800117819
0.000306124873321
0.000223489006937
0.00033004607552
0.000118902018387
0.000380906916159
0.000366969346268
0.0019655767256
-0.00736608291843
0.00415239730271
-0.00818313292694
0.00633121063626
-0.00815677856883
0.00847837967721
-0.00804270789598
0.0105835722207
-0.00788751226684
0.0126391245575
-0.00769683160788
0.0146324492538
-0.007473877925
0.0165590065478
-0.00722294961426
0.0184113627477
-0.00694618441684
0.0201799734163
-0.00664268250758
0.0218590473927
-0.0063196382498
0.0234480444362
-0.00597868905685
0.024948365051
-0.00563229685472
0.0263621914843
-0.00528346663411
0.0276754677694
-0.00492150856451
0.0288864730012
-0.00454621727194
0.0299977764761
-0.00417137380304
0.0310106905639
-0.00379848714458
0.0319255315015
-0.00343211039708
0.0327439588458
-0.00306867004258
0.0334686709453
-0.00271566764043
0.0341121655962
-0.00237134672067
0.0346644814119
-0.00202357532513
0.0351386452456
-0.00169522813432
0.035548725839
-0.00140096256177
0.0358827027937
-0.00112071322286
0.0361286601829
-0.000835436962735
0.0362931416221
-0.000539937385314
0.0363759375057
-0.000252998997019
0.0363912241526
2.61437703964e-05
0.0363235082085
0.000311745672165
0.0361688672702
0.00060217723593
0.0359409841616
0.000890184723309
0.0356418421195
0.00116520230368
0.0352749780544
0.00142817171603
0.0348437709971
0.00169552649405
0.0343583341485
0.00194390376434
0.0338031721638
0.00219908632034
0.0331687240876
0.00243862592698
0.0324747679746
0.00266059566931
0.0317319027224
0.00286588798138
0.0309863984815
0.00302865430497
0.0302050917088
0.00320778678198
0.0293447512557
0.00338634149444
0.028430565994
0.0035438725299
0.0274727357128
0.0036906691454
0.0264482466184
0.00382845027506
0.0253843893451
0.0039344577525
0.0243029570523
0.00401182554625
0.023204278697
0.00406989668916
0.022095225593
0.00409842233348
0.0209924030122
0.00411190507647
0.0199113234964
0.00409813645859
0.0188309917501
0.00408522161477
0.0177416157817
0.00404887257843
0.0166744949451
0.00396573719679
0.0156293028752
0.00387415484376
0.0146079086581
0.00377332274271
0.0136147089271
0.00366105252816
0.0126600275331
0.00352882428825
0.0117417579983
0.00339234834826
0.0108652904779
0.00324308574772
0.0100331284332
0.00308699891774
0.00924226213815
0.00293287117275
0.0085146891636
0.0027467841984
0.00784983733933
0.00256264112232
0.00723422100971
0.00239335130571
0.00665184472219
0.00224239529221
0.00611237743514
0.00208610977376
0.00560405842146
0.00195489839145
0.00511238624965
0.00184257111184
0.00464178378862
0.00172470985012
0.00421449540876
0.0015947982847
0.00382664052178
0.00146879043228
0.00346908923729
0.00135499307844
0.00314074507316
0.00125061041537
0.0028428149079
0.00115196832888
0.00257599146865
0.00105829866782
0.00234028738019
0.000976677651652
0.00212424671439
0.000896084933435
0.00192857091408
0.000819188308719
0.00173778685673
0.000760904348405
0.00155299322195
0.000705078827218
0.00137415608767
0.000654123339662
0.00121130520184
0.000591935689664
0.00106711528038
0.000540999986197
0.000909595147124
0.00050815145269
0.00076575361633
0.000438731137143
0.000638678450575
0.000378833114589
0.000519941863195
0.00033073261661
0.000438663969635
0.000305972697937
0.000374546229132
0.000337775566617
0.000286719327769
0.000394590184611
0.000181734842107
0.000435652939966
0.00010203129082
0.000461328225457
0.000469465422226
0.00200315553386
-0.00932836307069
0.00423001253308
-0.0103664598838
0.00644841847347
-0.0103313932425
0.0086336758382
-0.0101843698684
0.0107745263431
-0.00998498182721
0.0128615706967
-0.00974070750192
0.014888540461
-0.00945801905508
0.01684342442
-0.00913527927756
0.0187163921673
-0.00877709550496
0.0205041623714
-0.00838881806346
0.0222009695449
-0.00797548413908
0.0238079446944
-0.00754527696513
0.025327289465
-0.00711207144569
0.0267446840721
-0.00666204017092
0.0280546356253
-0.00619368302155
0.0292642907503
-0.00571905185701
0.0303726704691
-0.005244157427
0.0313810443446
-0.0047724215798
0.0322951039884
-0.00431313869301
0.0331224452777
-0.00386431097984
0.0338548061678
-0.00341788198324
0.0344858909491
-0.0029736930768
0.0350336079135
-0.00254418220751
0.0355152359799
-0.00215114864466
0.0359343316763
-0.00179603177069
0.0362633818026
-0.0014272214249
0.0365028634217
-0.00105412879065
0.0366663269745
-0.000684170058024
0.0367390611102
-0.000308270570588
0.0367252619074
5.58279598929e-05
0.0366310951358
0.000420126447734
0.036473827122
0.000772125663924
0.0362681898523
0.00110690126996
0.035991798953
0.00145124229184
0.0356257116911
0.00180237915415
0.0351817186315
0.00214636069835
0.0346690010487
0.0024620755494
0.0341118956163
0.00276050089866
0.0335077943205
0.00304573375429
0.0328767642841
0.00329355165251
0.0321833914353
0.00355989217766
0.0314073243772
0.00380429946797
0.0305604881717
0.0040529043419
0.0296402244857
0.00430378237754
0.0286613667253
0.00451859607287
0.0276526814259
0.00469409207654
0.0266302431964
0.00484412102075
0.0255780545618
0.00497862727946
0.0244780977321
0.00510215414796
0.0233497807157
0.0051871226563
0.02221260591
0.00522283759561
0.0210752478632
0.00523502685688
0.019947429422
0.0052099781578
0.0188454703327
0.00516968430322
0.0177541000236
0.00512112321201
0.0166733565411
0.00502595894603
0.0156135223675
0.00491211662168
0.0145772661888
0.0047867023347
0.0135648331367
0.00464995137842
0.0125993741348
0.00447049076483
0.0116678375197
0.00430031303701
0.0107844921619
0.00410340882936
0.00996162712534
0.00388766829496
0.00918193747277
0.00369112236665
0.00851158514994
0.00339657070748
0.0079078765205
0.00314661464006
0.0073213214011
0.00296161386532
0.0067442503855
0.00280254274577
0.00620525449527
0.00261000375065
0.00568415193812
0.00246325986476
0.00516729293349
0.00234881108045
0.00467930415408
0.00220385481811
0.00423630664071
0.00203109203958
0.00383006220875
0.00186963246045
0.00344823939252
0.00173321764042
0.00309263567676
0.00160411796983
0.00277723337853
0.00146689840946
0.00250250453435
0.0013334279687
0.00225249435314
0.00122823996852
0.00202157356441
0.00112847728497
0.00181631767205
0.00102646384302
0.00163610781541
0.000942581721973
0.00147758260727
0.000865275725965
0.00134066034923
0.000792240745677
0.00120514578592
0.000728644411472
0.00107082403487
0.000676566446573
0.000942805588226
0.000637281131304
0.000794440756004
0.000588368163946
0.000646704641335
0.000527726958123
0.000488783427367
0.00048977965266
0.000365415660755
0.000430244819925
0.000291992378284
0.000411825959077
0.000242925409554
0.000444073266445
0.000149265697043
0.000530103309368
7.87301996705e-05
0.000532621385615
0.000548401171006
0.00205060233552
-0.0113379233277
0.00432987728627
-0.012601608293
0.00659914042205
-0.0125566726763
0.00883302785191
-0.0123743284881
0.0110194490427
-0.01212771359
0.0131517977151
-0.0118295676886
0.0152159599439
-0.011478975923
0.0172000779278
-0.0110765279563
0.0191046173982
-0.0106391622873
0.0209172044506
-0.0101594106377
0.0226343212432
-0.00965118807871
0.024266219355
-0.00913638796559
0.0257971520523
-0.00860295700124
0.0272153766626
-0.008041062434
0.0285294984741
-0.00746958108094
0.0297400218338
-0.00689238152497
0.0308480805177
-0.00631622226833
0.0318647967926
-0.00575435032128
0.0327832191036
-0.00519818695655
0.0335935627662
-0.0046426754835
0.0343042402511
-0.00409812438082
0.034922861305
-0.00356336863935
0.0354772890839
-0.00307122452784
0.0359729458298
-0.00262093888032
0.0363731209174
-0.00217199289571
0.0366876196555
-0.00171914200261
0.0369164684071
-0.0012621395018
0.0370514914485
-0.00079999654673
0.0371132141515
-0.000352584687735
0.0370998445798
8.50122536427e-05
0.0370289918634
0.000505069714217
0.0368905630584
0.000923123497219
0.0366590007652
0.00134936996852
0.0363541478859
0.00176557616553
0.0359832837443
0.00218123227766
0.0355588343746
0.00257748733217
0.0350758638449
0.00295041584217
0.0345525035345
0.00328802077633
0.0339737035385
0.00362743796559
0.0333081620828
0.00396083309233
0.0325685764962
0.00429999374445
0.0317365010247
0.0046357674645
0.0308407613896
0.0049468641675
0.0299235430607
0.00521808134827
0.0289553074171
0.00548269458853
0.0279189973558
0.00572499916599
0.0268307641054
0.00592568576206
0.0257254338167
0.00607585486465
0.0246219465424
0.00619606606685
0.0234978898359
0.00630005892074
0.0223384758982
0.00636955272457
0.0211666839692
0.00639249782087
0.0200101609168
0.00635046644438
0.0188785435852
0.00628368742046
0.017765547055
0.00621465810869
0.0166665043771
0.00610401468876
0.0155915137999
0.00596474488678
0.0145617959101
0.00579296012745
0.0135561632855
0.00563156913914
0.0126138559245
0.00538883261971
0.011722962425
0.00516751860541
0.0108500398698
0.00495310079684
0.0101622380927
0.0045526632061
0.00955822599291
0.00427277137014
0.00895111288164
0.00398197482435
0.00836282093437
0.00371435910492
0.00777954586452
0.0035253894954
0.00721336268968
0.00335057117902
0.00668277201981
0.00312457061774
0.00615974707918
0.00297321146376
0.00562947495648
0.00286771117369
0.0050950748006
0.00272944466497
0.00455999356371
0.00255872692021
0.00407495428942
0.00234906578764
0.00366794792485
0.00213643465879
0.00327472353384
0.00199548625549
0.00289261311858
0.00184858275806
0.00255138997444
0.00167610942937
0.00226414298958
0.00151706711489
0.0020027579852
0.00139222091272
0.00178078833936
0.00125031434883
0.00158180368399
0.0011433684465
0.00139529264097
0.00105326902377
0.00123301952768
0.000955622145255
0.0010928593158
0.000870033803077
0.000963073332633
0.000807195532501
0.000846854087207
0.000754578578414
0.00074446731793
0.000691830281964
0.000625892092974
0.000647437156805
0.000496569448657
0.000620305331477
0.000345083672086
0.000582619825167
0.000235919088908
0.000521718382909
0.000187973663663
0.0004927324398
0.000137039666843
0.000581571645386
6.195364679e-05
0.000608106060404
0.000610641122621
0.00211075418218
-0.0134072640643
0.00445392274061
-0.0149007050236
0.00678607354429
-0.0148444200578
0.00908024245842
-0.014624298928
0.0113253257538
-0.0143287324277
0.0135103322936
-0.0139707051457
0.0156187834646
-0.0135438311614
0.0176453232353
-0.0130597702738
0.0195848487171
-0.0125357731944
0.0214276296493
-0.0119597226309
0.0231800220508
-0.0113616640211
0.0248305042834
-0.0107455413317
0.0263622047169
-0.01009410981
0.0277877306897
-0.00942687078367
0.0291069542172
-0.00875007525017
0.0303189866795
-0.0080667495175
0.0314343329016
-0.00739507755275
0.0324450334857
-0.00672986535094
0.0333436878474
-0.00606304421714
0.034141028846
-0.00540770882595
0.0348408462659
-0.0047671444879
0.0354601026382
-0.00415339504858
0.0360329963493
-0.00361642129612
0.0365269834907
-0.00308885135319
0.0369086469855
-0.00252926775088
0.0371903718837
-0.00197824000855
0.0373854447105
-0.00143629587233
0.0375057775035
-0.000901203249464
0.0375615808178
-0.000390962916874
0.0375652626209
9.70017550018e-05
0.0374910601851
0.000593292777479
0.0373260347824
0.00110045816181
0.0370856460618
0.0016005429535
0.0367806227684
0.00207982347326
0.0364332767055
0.0025364101218
0.036036684423
0.00298051437572
0.035583292832
0.00340899142302
0.0350594663348
0.00381572081412
0.0344459656948
0.00424362386216
0.033724910345
0.00468331432985
0.0329344701057
0.00509075197658
0.0321138573874
0.00545554658258
0.0312291350262
0.0058296522822
0.0302531195741
0.00619100019946
0.0292250263379
0.00650652598096
0.028186363077
0.00675822594499
0.0271031410201
0.00700212232271
0.0259603024401
0.00721064782291
0.0247836603158
0.00736315414938
0.0235928631807
0.00747986613764
0.0224227269298
0.00752709271505
0.0212479313419
0.00755301760954
0.0200660986788
0.00751638751046
0.0189034314358
0.00742844159372
0.0177770564525
0.0073213687932
0.0166789052629
0.00718089277739
0.0156151998634
0.00700563132084
0.0145713290743
0.00681328801744
0.0135596064895
0.00661948466599
0.0126239650278
0.00630029710771
0.0119264922095
0.00584087982293
0.0113902651903
0.00546467786693
0.0108206061972
0.00509816015727
0.0102366539715
0.00483326911107
0.00960163668073
0.00459411999749
0.00901438266776
0.00427959505978
0.00848526332988
0.00403338675607
0.00790902725286
0.00390674364552
0.00735670375229
0.00365970353172
0.00682058984608
0.00349526454487
0.00624999670474
0.00342671381256
0.00570823985227
0.0032614122452
0.00515332106278
0.00310540631863
0.00458642084618
0.00290964327603
0.00407340216086
0.00264502802207
0.00363024210761
0.00243647133368
0.0032176900355
0.0022613007501
0.00283103768196
0.00206422779659
0.00246328468387
0.0018873456495
0.00214300336453
0.00171509615461
0.00186724561016
0.00152840429815
0.00162616015948
0.00138641614636
0.00141333127181
0.00126743116368
0.00120979209118
0.00116069426505
0.00102672208496
0.00105410878809
0.000873621740533
0.000961352773182
0.000731206001907
0.000898051495697
0.000621008749551
0.000803004021917
0.00051644390467
0.00075312695167
0.000427321202746
0.000710412700512
0.000325375067958
0.000685635102566
0.000202420762492
0.000645360873454
0.000120095489128
0.000575454784935
0.000114080703241
0.000588086769463
5.08863147418e-05
0.000671829775109
0.000661620116467
0.00218231763564
-0.0155479910301
0.00460346803496
-0.0172771398528
0.00701124818866
-0.017207585548
0.0093771328726
-0.0169455958749
0.0116923525413
-0.0165995242937
0.0139379208424
-0.0161720102623
0.0161028481516
-0.015664710063
0.0181792994018
-0.0150924687724
0.0201617284195
-0.0144747609494
0.0220445238174
-0.0137995145932
0.0238241427086
-0.0130987576142
0.0254853963957
-0.0123648953809
0.0270309162078
-0.0115984594332
0.0284674826599
-0.0108231211649
0.0297939313675
-0.0100371824254
0.0310154264248
-0.00924998910843
0.0321246904585
-0.00846731583222
0.0331151748991
-0.00768464257295
0.0339999575829
-0.00691359458926
0.0347822746041
-0.00615726391527
0.0354667421018
-0.00542045670308
0.0361086117891
-0.00476562274472
0.0366657735108
-0.00414559366095
0.0371076947602
-0.00350447327754
0.0374688871318
-0.00286595617755
0.0377379550297
-0.00222455027951
0.0379278147365
-0.00160523302949
0.0380651860985
-0.00101940808138
0.0381354159573
-0.00044385301398
0.0381110045648
0.000136999272853
0.0380066381912
0.000711458142911
0.0378355725988
0.00128368339826
0.0376171213961
0.00182950668269
0.0373360450019
0.00236993624012
0.0369855907237
0.00289438186417
0.0365843107796
0.00338797334891
0.0361193889182
0.00387868744432
0.0355602401452
0.00437843718462
0.0349087632032
0.00489735661137
0.0342029075359
0.00539027542208
0.033426859225
0.00586673536381
0.0325515638979
0.00632971458921
0.0316130009943
0.00676596934985
0.0306343901505
0.00716628567149
0.0296018049026
0.00753467106813
0.0284882952249
0.00786618162635
0.0273319743863
0.00815173868839
0.0261403005272
0.00839428403946
0.0249556827828
0.00853846553263
0.02375960747
0.00866512018802
0.0225454241109
0.00872891356205
0.0213458725706
0.00873861491921
0.0201483701652
0.0086979080194
0.018962469988
0.0085964672138
0.0178001711943
0.00846411546641
0.0166735741424
0.00828588238362
0.0155688214002
0.00808797547023
0.0145397652313
0.00781933880303
0.0136331258988
0.00750171220886
0.0130212747956
0.00688712775235
0.0124344592263
0.00640170930077
0.0118403382263
0.00603306759813
0.0112407903568
0.00567261086176
0.0106846951434
0.00536484103712
0.0101902577923
0.0050646981624
0.00969990589316
0.00474616113629
0.00916886309369
0.00454134350377
0.00866268575444
0.00439057949415
0.00815745483498
0.00414602852376
0.0077154068027
0.00392285614344
0.00716145563982
0.00396827502488
0.00654272535825
0.00386948360485
0.00591749169695
0.0037220685797
0.00534824896856
0.00347148661881
0.00482716691603
0.00316095340401
0.00432049023615
0.00294113069851
0.00377645902697
0.00280520075277
0.00326754456882
0.00257550765627
0.00280395630249
0.00235423684135
0.0023860579406
0.00213618954873
0.00201563464664
0.00190188174549
0.00170289546445
0.00170100890317
0.00143698945175
0.00153537353228
0.00120730254051
0.00139201896781
0.00101384570938
0.00124916654386
0.000845334290175
0.00113128748683
0.000682813985371
0.00106183851132
0.00052871027136
0.000958364689657
0.000407769886505
0.000875164367726
0.000318696173385
0.000800461717668
0.000254360728234
0.00075071854032
0.000182732851092
0.000717612306685
7.35627168262e-05
0.000685202453995
6.60089165716e-05
0.000595938992805
3.85139199627e-05
0.000699612033011
0.000700399117561
0.00226731030685
-0.0177733237122
0.00478121738687
-0.0197463826945
0.00727960134356
-0.0196609393116
0.00973250876293
-0.0193536133184
0.0121282850314
-0.0189504704014
0.0144449685569
-0.018443993615
0.0166749284655
-0.0178501706983
0.0188082236354
-0.0171814659076
0.0208382709309
-0.0164608213985
0.0227611015492
-0.0156787091326
0.0245696126862
-0.0148641071907
0.0262558052252
-0.0140084932609
0.0278315640995
-0.0131323419396
0.0292883501509
-0.0122388511404
0.0306177590555
-0.0113265361128
0.0318246320465
-0.0104179399794
0.0329114941867
-0.00951650626187
0.0338876270059
-0.00862450660986
0.0347576319592
-0.00774878491929
0.0355254896147
-0.00689188880324
0.0362286359172
-0.00609189587261
0.0368515526407
-0.00535850517715
0.0373670947721
-0.00463276151578
0.0377895013129
-0.00390035442398
0.0381146496359
-0.00316636914994
0.0383658066775
-0.00245286575272
0.0385632516991
-0.00178165047199
0.0386892219127
-0.00112625304618
0.038727200091
-0.000464544175375
0.0386919227792
0.000187676213026
0.0385854738303
0.000831565079996
0.0384323632403
0.00144868038474
0.0382133059729
0.00205886051533
0.0379311621181
0.00266074827823
0.0376014943374
0.00323125334394
0.0371999668798
0.00379518632479
0.0366978726233
0.0043851758429
0.036101411043
0.00497792240378
0.0354640890451
0.00553649332345
0.0347399495256
0.00611500496137
0.033911449942
0.00669476251658
0.0330082443505
0.00723133214986
0.0320701029614
0.00770152868618
0.031057222696
0.00817553626472
0.0299551755969
0.00863215296747
0.0287961252598
0.00901963506183
0.0276267064275
0.00931447290629
0.0264164906285
0.00959672920852
0.0251435138536
0.00980232624695
0.0238869900175
0.00991116467188
0.0226147886543
0.00998916530728
0.0213628083964
0.00997674866939
0.0201101784255
0.009934722535
0.0188882078573
0.00980105090584
0.0176852394058
0.00964719259747
0.0165529419502
0.00939735428455
0.0155135160147
0.00910538289402
0.0147021269644
0.0086067733328
0.01409242442
0.00808614833273
0.0134149384208
0.00753750204707
0.0127888187287
0.00700067213158
0.0122368197704
0.00655797288733
0.0117436504148
0.00613868144934
0.0113148420862
0.00576858818519
0.0108538378824
0.00549951904202
0.0105553467038
0.00501936911328
0.0103459906844
0.00472450489458
0.0101588878549
0.00455245001726
0.00985008139426
0.0044346403462
0.00963411092729
0.00412318099413
0.00928631384036
0.00430317915384
0.0086392363637
0.00450537038746
0.00791978724779
0.00443194969232
0.00727606290485
0.00410621177655
0.00672063930071
0.00371154199034
0.00612797434169
0.0035307882523
0.00545346981844
0.00348099810019
0.00472977802112
0.00330281426409
0.0039560618354
0.00313231592976
0.00320346492907
0.00289369129609
0.00262252237883
0.00248651675473
0.00208545570286
0.00224111548082
0.0016643308558
0.00195890590315
0.00127689732155
0.0017820618436
0.000989332799642
0.0015390020134
0.000763521544872
0.00135910334078
0.000598478221654
0.00122856455663
0.000460087549325
0.00109833140164
0.000336484788449
0.00100000675256
0.000238251239431
0.000899594706957
0.000157822804856
0.000831912881254
0.000117674094629
0.000758267047701
5.82308935249e-05
0.000744850676608
1.38655696488e-05
0.00064079381148
2.50536513263e-05
0.000688927094924
0.000725570482737
0.00236683172817
-0.0200980627122
0.00499016560501
-0.0223244857696