/*--------------------------------*- C++ -*----------------------------------*\
| =========                 |                                                 |
| \\      /  F ield         | OpenFOAM: The Open Source CFD Toolbox           |
|  \\    /   O peration     | Version:  v1906                                 |
|   \\  /    A nd           | Web:      www.OpenFOAM.com                      |
|    \\/     M anipulation  |                                                 |
\*---------------------------------------------------------------------------*/
FoamFile
{
    version     2.0;
    format      ascii;
    class       volScalarField;
    location    "637";
    object      p;
}
// * * * * * * * * * * * * * * * * * * * * * * * * * * * * * * * * * * * * * //

dimensions      [0 2 -2 0 0 0 0];


internalField   nonuniform List<scalar> 
9216
(
268.213028698
268.298258631
268.471243438
268.732342877
269.080123689
269.512856725
270.028400038
270.624278078
271.297689469
272.045590708
272.864696005
273.751568342
274.702606992
275.714142283
276.782407243
277.903633821
279.074006936
280.289761747
281.547120056
282.842389423
284.171882872
285.532021313
286.919238059
288.330086069
289.761128825
291.209053808
292.670551318
294.142435214
295.621511139
297.104705371
298.588923929
300.071190026
301.54849594
303.01794938
304.476619675
305.921693288
307.350316325
308.759758945
310.147255974
311.510179345
312.845878133
314.151857435
315.425618601
316.664841951
317.867227381
319.03067788
320.153140961
321.232790208
322.267869301
323.256870488
324.198385468
325.091281482
325.93456501
326.727556277
327.469769726
328.161083328
328.80163243
329.391963538
329.932930696
330.425821468
330.872243261
331.274210699
331.634012601
331.954259186
332.237727195
332.487362764
332.706116153
332.896937377
333.062649735
333.205977302
333.329468084
333.435535184
333.526395472
333.604100319
333.670480206
333.727177924
333.775615678
333.817044646
333.852531422
333.883010617
333.909272427
333.93200869
333.951800152
333.969159203
333.984582504
333.997889052
334.008815605
334.017538804
334.024215884
334.029136841
334.032608568
334.034983407
334.036568335
334.037528996
334.038012941
334.038183563
268.127855741
268.213511834
268.387133669
268.649449803
268.998885104
269.433650537
269.951564712
270.550104497
271.22643267
271.977457036
272.799858782
273.690154055
274.64471555
275.65983172
276.731717796
277.856570206
279.030565524
280.24990966
281.510824916
282.809594821
284.142540492
285.506062619
286.896608704
288.310713824
289.744960347
291.196018925
292.660602142
294.135506948
295.617563522
297.103680135
298.590788541
300.075892131
301.556008911
303.028223815
304.48963086
305.937390203
307.368670677
308.780712171
310.170769694
311.536181062
312.874313085
314.182633797
315.458660574
316.700035202
317.904473002
319.069838455
320.194094373
321.275376223
322.311941678
323.302243685
324.244883406
325.138684705
325.982655796
326.776068582
327.51843261
328.209577831
328.849636251
329.439117488
329.9788853
330.470213001
330.914741847
331.314502625
331.671844945
331.989427277
332.270115565
332.516923717
332.732886058
332.920996735
333.084123748
333.225001647
333.346199625
333.450135204
333.539045755
333.614987926
333.679804043
333.735127284
333.782372537
333.822767496
333.857364519
333.887075753
333.912679979
333.934849131
333.954150749
333.971066381
333.986008555
333.99902619
334.009787595
334.018254475
334.024801011
334.029646756
334.033007726
334.03530037
334.036852033
334.03775836
334.038193265
334.038370389
267.95406547
268.040814893
268.216188346
268.481109934
268.833961906
269.272893442
269.795650685
270.399626705
271.081901928
271.839295906
272.668409785
273.565677452
274.527402621
275.549804272
276.629044536
277.761266023
278.942609247
280.169241652
281.437365135
282.743237913
284.083173642
285.453557869
286.850840529
288.271548725
289.712274267
291.169684322
292.640505411
294.121533165
295.609613968
297.101654876
298.594604002
300.085461563
301.571260046
303.049077384
304.516018158
305.969229865
307.405886291
308.823207813
310.218447912
311.588917955
312.931977222
314.245061811
315.52567758
316.771431689
317.980026789
319.149292877
320.27718072
321.36179195
322.401370972
323.394333611
324.339260142
325.234926726
326.080306072
326.87460831
327.617295049
328.30813063
328.94720448
329.534979971
330.07230779
330.560458691
331.001114845
331.396365413
331.748657693
332.060773834
332.33574759
332.576761979
332.78701163
332.969600481
333.127466175
333.263372135
333.379910895
333.479519642
333.564467871
333.636837903
333.698488896
333.751043618
333.795889954
333.834212386
333.867023787
333.895198421
333.919485746
333.940528204
333.958870307
333.974970267
333.989234459
334.001681033
334.01175829
334.01969402
334.025982485
334.030617684
334.033762447
334.035952274
334.037391393
334.038218448
334.038656613
334.038875336
267.689502213
267.777659276
267.955740352
268.224689315
268.582811999
269.028160447
269.558366407
270.170695937
270.862098345
271.629259745
272.468653403
273.37659047
274.349264006
275.382791573
276.47324914
277.616703352
278.809234475
280.046958623
281.326040843
282.642708971
283.993258816
285.374061741
286.781564023
288.21229011
289.662837939
291.129879464
292.610153323
294.100463866
295.59767229
297.098695165
298.600494999
300.10007923
301.594491248
303.080810873
304.556147001
306.017640762
307.462461043
308.887811525
310.290930175
311.669100969
313.019657847
314.340000974
315.627604429
316.880035403
318.094963365
319.270179211
320.403602706
321.493298512
322.537479897
323.534521356
324.482961124
325.381516229
326.229093092
327.024816375
327.768058494
328.45848754
329.09611083
329.681323863
330.214940563
330.698230728
331.132929275
331.521223363
331.86569376
332.169323442
332.435419177
332.667458714
332.868901123
333.043028208
333.192864391
333.32119855
333.430638318
333.523649377
333.602553915
333.669489748
333.726347782
333.774736689
333.815990908
333.85121961
333.88136624
333.90724953
333.929574073
333.948941586
333.965862984
333.980768184
333.994058929
334.005537608
334.01470633
334.022018657
334.027724677
334.031962557
334.034958247
334.036988642
334.038297779
334.039084785
334.039528156
334.039748011
267.332849484
267.422874899
267.604663881
267.879132169
268.244472352
268.698597684
269.238978324
269.862703474
270.566538849
271.346986417
272.200341778
273.122748713
274.110247945
275.158820848
276.264425898
277.423029749
278.630631197
279.883280691
281.177093709
282.508261122
283.873054599
285.26783043
286.689029429
288.133176419
289.596876551
291.076812097
292.569736565
294.072469956
295.581891672
297.094935136
298.608580334
300.119848677
301.625796157
303.123509469
304.610100973
306.082707432
307.538488248
308.974628329
310.388341033
311.776876364
313.137529448
314.467654207
315.764676656
317.026112249
318.249581068
319.432824789
320.573718976
321.670284727
322.720694049
323.723274362
324.67650903
325.579042057
326.429687189
327.227451721
327.971574366
328.661582459
329.297355265
329.879187213
330.40782252
330.88451954
331.311081997
331.689840255
332.023520528
332.315385205
332.569159299
332.788795052
332.978165066
333.140806059
333.279815891
333.397964497
333.497840325
333.581938793
333.652671225
333.712285917
333.762739108
333.805618221
333.842160585
333.873345149
333.900005715
333.922890637
333.942648192
333.959827783
333.974896386
333.988251329
334.000247784
334.010432355
334.018498397
334.024985001
334.030138817
334.033957385
334.036630316
334.038467511
334.039691577
334.040441521
334.040878683
334.04109823
266.882163516
266.974582112
267.161152389
267.44273984
267.817381938
268.282804472
268.83626124
269.474606698
270.194363916
270.991793504
271.862959278
272.803788824
273.810127113
274.877782636
276.002565485
277.180318
278.406938158
279.678396943
280.9907501
282.340145676
283.722827631
285.13513683
286.573509441
288.034473891
289.514646108
291.010724108
292.519481405
294.037760253
295.562464068
297.09055005
298.619021255
300.144919357
301.665317274
303.177313027
304.678024143
306.164584184
307.634140686
309.083856252
310.510911977
311.912514908
313.285908328
314.628386219
315.937309938
317.210127718
318.444394076
319.637788869
320.788132428
321.89339633
322.951706891
323.961342882
324.920727482
325.828421252
326.683121236
327.483679024
328.229144788
328.918842882
329.552465298
330.130163131
330.652555079
331.120858524
331.536970141
331.903449226
332.223090747
332.499506269
332.737061311
332.940466566
333.114250137
333.262293584
333.387683282
333.493041515
333.580857398
333.65364681
333.713978555
333.764325331
333.806780329
333.842895023
333.873727778
333.900024902
333.922452511
333.941689549
333.9583277
333.972850118
333.985668692
333.997137714
334.007463086
334.016101867
334.023101364
334.028793781
334.033239462
334.036449314
334.038836987
334.040502739
334.041608868
334.042376876
334.04282377
334.043051932
266.334954442
266.430351938
266.622880929
266.913335706
267.299550151
267.77900468
268.348671878
269.0051033
269.744511101
270.562849241
271.45588946
272.419289668
273.448652983
274.539576863
275.687692272
276.888693674
278.138360717
279.432572972
280.767318786
282.138699608
283.542930612
284.976338714
286.435358451
287.916526502
289.416475
290.931924196
292.4596744
293.996597609
295.539628668
297.085756337
298.632014056
300.175470982
301.713223127
303.242385222
304.760083483
306.263450087
307.749619686
309.215728916
310.658919313
312.076344501
313.465181786
314.82264849
316.146022326
317.432665012
318.680047087
319.885771588
321.047593333
322.163430538
323.231366119
324.249636667
325.216611595
326.130766147
326.990661866
327.794949948
328.542418647
329.232101024
329.863418445
330.436345141
330.951267672
331.409284255
331.812435105
332.163763707
332.465762683
332.722433792
332.939150269
333.121878524
333.276226885
333.406543014
333.515631719
333.605678078
333.678915873
333.737857963
333.785360655
333.824366675
333.857259773
333.885519075
333.909858257
333.930589685
333.948119175
333.963118869
333.976148674
333.98760085
333.997824019
334.007115723
334.015523
334.022572016
334.028404244
334.033133428
334.036797232
334.039564973
334.041683778
334.043200136
334.044201861
334.044952039
334.045399669
334.04562593
265.688121713
265.787155818
265.986956771
266.288222047
266.688522462
267.185022479
267.774334858
268.452626596
269.215718534
270.059182428
270.978429864
271.968790113
273.025575314
274.144132563
275.319883543
276.548352892
277.825186997
279.146164906
280.507203098
281.904355588
283.333810672
284.791885291
286.275017811
287.779759742
289.302766783
290.840789406
292.390663115
293.949298425
295.513670578
297.080809013
298.647786563
300.21170863
301.7697024
303.31890641
304.856461001
306.379500307
307.885146473
309.370507141
310.832677036
312.268744775
313.675805444
315.050979569
316.391437943
317.694431506
318.957323681
320.177622114
321.353004765
322.481335733
323.560664492
324.58920619
325.565299819
326.487353093
327.353784412
328.16299515
328.913409057
329.603630181
330.232682704
330.800409391
331.306738996
331.752428706
332.139759112
332.473175629
332.753535268
332.985217206
333.175293014
333.331882944
333.462510032
333.572161835
333.662638288
333.735082349
333.791226906
333.83353139
333.865364385
333.89068927
333.912513817
333.932137946
333.949593972
333.964334457
333.976349428
333.986557195
333.995569457
334.003605227
334.010950097
334.017823277
334.024133008
334.029552338
334.034139454
334.037929906
334.040936631
334.043341326
334.045143188
334.046532961
334.047511648
334.048166801
334.048623596
334.048843114
264.937880916
265.041299723
265.249861796
265.564132704
265.98134575
266.498261147
267.111034772
267.815349644
268.60653915
269.479704475
270.429819455
271.451819621
272.540673891
273.691439164
274.899299125
276.159589502
277.46781216
278.819640602
280.210919066
281.637657238
283.096021997
284.582327462
286.093024015
287.624686943
289.174004879
290.737768276
292.312857833
293.896232887
295.48491959
297.075998817
298.666593614
300.253856387
301.834955796
303.407063614
304.967342187
306.51293319
308.040948635
309.548465364
311.032524423
312.490136715
313.918296303
315.314002227
316.674289071
317.996265209
319.277156241
320.514349025
321.705430176
322.848210317
323.94072624
324.981210484
325.968026073
326.899563417
327.77412013
328.589800423
329.344511402
330.036194816
330.663228083
331.22571761
331.722624164
332.15365456
332.521403391
332.835097122
333.089484455
333.289384095
333.44500042
333.568243015
333.670344284
333.757199601
333.827662446
333.880671962
333.917239899
333.939650608
333.95208856
333.960810721
333.970192757
333.981021854
333.991963943
334.000689494
334.006451003
334.011259543
334.01597473
334.020328626
334.024592139
334.02890281
334.033044322
334.036840136
334.040216474
334.043137803
334.04559064
334.047606791
334.049220327
334.050461702
334.051411482
334.052006826
334.0524874
334.052701259
264.079670425
264.188338334
264.407376885
264.737172435
265.174524851
265.715677847
266.356208507
267.091193117
267.915361348
268.823239541
269.809275019
270.867937801
271.99379876
273.181585339
274.426217551
275.722827612
277.066766977
278.453604105
279.87911605
281.339276155
282.830239746
284.348328948
285.890017519
287.451916017
289.030757578
290.62338419
292.226733412
293.837825224
295.453748825
297.071649008
298.688711896
300.302149962
301.909186342
303.507038445
305.092901695
306.663934076
308.217242699
309.749874013
311.258809456
312.740968817
314.193223272
315.612420111
316.995419934
318.339146057
319.640643274
320.897140924
322.106111072
323.265311031
324.37279458
325.426878499
326.426046763
327.368787055
328.253360899
329.077557959
329.838542191
330.533154024
331.158426861
331.716425988
332.203941464
332.617348873
332.958955539
333.25517584
333.479192863
333.637690789
333.747351543
333.826548217
333.894563332
333.958640482
334.009573661
334.042180014
334.056949878
334.055562991
334.04290324
334.030795643
334.026745225
334.029877754
334.036228448
334.039618717
334.03771049
334.036224889
334.036690528
334.037183124
334.038235517
334.039968582
334.0419606
334.044238079
334.046493452
334.048635844
334.050586499
334.052294599
334.053795692
334.055000183
334.05588005
334.056490014
334.056978597
334.05720734
263.10803169
263.222962994
263.454485737
263.802741046
264.263970441
264.833755893
265.50694053
266.277840559
267.14044003
268.088566819
269.116040162
270.21678621
271.384921535
272.614807527
273.90108015
275.238660487
276.622751208
278.048823744
279.512599881
281.010030756
282.537275126
284.09067827
285.666752073
287.262156645
288.873683339
290.49823905
292.132831357
293.774554187
295.420573424
297.068112057
298.714434276
300.356828356
301.992588088
303.618992659
305.233285796
306.832654918
308.414211714
309.974976141
311.511866363
313.021697627
314.501193457
315.947012258
317.355791859
318.724212655
320.049077415
321.327401536
322.556503213
323.734077052
324.858231229
325.927461838
326.940537606
327.896260977
328.793079882
329.62856607
330.398835984
331.09878238
331.721571176
332.27748298
332.758621781
333.150005272
333.447797588
333.741709641
333.930630516
334.03274613
334.079235267
334.098843955
334.132667727
334.186632801
334.224875731
334.235853666
334.223253861
334.187971735
334.135760955
334.094370592
334.076872534
334.075935386
334.082895206
334.082857147
334.069207131
334.059606981
334.057036193
334.053564077
334.051257831
334.050594658
334.050417273
334.051356986
334.052657775
334.054268552
334.055925559
334.057455553
334.058830884
334.060021338
334.060952164
334.06161552
334.06210357
334.062364687
262.016454532
262.13885895
262.385252354
262.755439384
263.244937177
263.848475653
264.559963978
265.372764846
266.279942412
267.274479189
268.349450794
269.498155424
270.714200148
271.991549496
273.324543917
274.707895965
276.136671685
277.606263295
279.112358008
280.650906195
282.218091081
283.810300919
285.424104169
287.056227471
288.703536217
290.3630171
292.031762203
293.706953843
295.385849577
297.065766468
298.744063995
300.418124854
302.085333408
303.74305133
305.388591248
307.019189064
308.631976571
310.223956762
311.791985009
313.332760333
314.842831541
316.318623553
317.756488654
319.152785743
320.503987209
321.806807551
323.058341038
324.256187752
325.39854029
326.484196274
327.512450399
328.482802456
329.394379864
330.244978965
331.029448851
331.73927754
332.353979601
332.913333629
333.401097647
333.765954606
333.975078358
334.383865078
334.531968172
334.538089946
334.477373749
334.355020439
334.234603648
334.219199518
334.255493031
334.288262642
334.299290305
334.275438775
334.204327867
334.129934648
334.106985667
334.113671605
334.137254146
334.137749677
334.09929439
334.07752162
334.077187727
334.069071281
334.062755021
334.06050246
334.057814781
334.057903605
334.058491798
334.059927045
334.061527746
334.062985986
334.064324788
334.065506395
334.066535402
334.067327838
334.067828818
334.068122051
260.797176205
260.928519464
261.192665389
261.588952926
262.111951646
262.75528649
263.511672143
264.37327184
265.332014878
266.379864284
267.509022156
268.712071455
269.98205972
271.312534728
272.697543798
274.131608457
275.609684509
277.12711557
278.67958567
280.263074585
281.873817697
283.508271142
285.163081987
286.835062995
288.521171102
290.218488903
291.924208224
293.635614972
295.350074197
297.065014269
298.777909212
300.486257859
302.187559253
303.879283803
305.558840416
307.223540409
308.870559779
310.49690258
312.099369281
313.674535551
315.218748297
316.728147158
318.198719692
319.626397606
321.007196647
322.337396809
323.613747737
324.833675104
325.99545282
327.098300133
328.14234898
329.128391391
330.057208818
330.928190075
331.735684691
332.467353266
333.050713286
333.632556209
334.228288817
334.582266773
334.34188535
334.351948709
334.453281105
334.477144181
334.445736585
334.387049454
334.325819934
334.290680024
334.281968489
334.278476257
334.266804991
334.242310956
334.210937085
334.189624238
334.190972624
334.2151744
334.251574986
334.239901309
334.116822939
334.069332025
334.097920803
334.083615001
334.070965814
334.070189128
334.063061029
334.063761314
334.06368148
334.065491733
334.067308625
334.068779287
334.070152566
334.071434394
334.072578957
334.073552856
334.074109111
334.074460462
259.440917981
259.583005686
259.868439218
260.295908462
260.858730085
261.549083972
262.358147526
263.276569796
264.294879791
265.403815943
266.594564058
267.858906262
269.18929276
270.578853055
272.021364825
273.511196962
275.043240471
276.612837045
278.215711894
279.847914165
281.505766346
283.185822326
284.88483323
286.599719574
288.327548573
290.065515284
291.810926667
293.561187329
295.313785829
297.066279796
298.816278761
300.561422351
302.299353111
304.027682885
305.743952666
307.445586378
309.129840122
310.79374964
312.434080443
314.047287241
315.62949204
317.176492539
318.683815042
320.146824619
321.560903476
322.921696006
324.225408143
325.46912703
326.651122336
327.771088622
328.830283485
329.831525638
330.778778916
331.676018859
332.521941833
333.315400155
333.782743827
334.38122021
334.364736368
334.4392905
334.464950554
334.431587355
334.454233135
334.453310477
334.421254562
334.373555878
334.326290965
334.293371538
334.276194545
334.264699341
334.249983417
334.229726717
334.208597124
334.194623306
334.19222381
334.199052188
334.205681559
334.19156191
334.177342071
334.202368934
334.208183804
334.10400812
334.062566151
334.081389491
334.06284528
334.069367209
334.067486672
334.070954034
334.073419289
334.07483868
334.076235531
334.07769174
334.079082799
334.080256079
334.080975299
334.081412062
257.936536641
258.091630304
258.402758884
258.867697721
259.478087381
260.22419957
261.095219433
262.079877278
263.166974612
264.345786943
265.606332634
266.939518176
268.337181807
269.792062833
271.297723658
272.848447832
274.439131707
276.065181633
277.722423285
279.407025878
281.115441077
282.844355017
284.590650919
286.351380051
288.123738911
289.905051247
291.692753594
293.484383317
295.277567511
297.07001081
298.859480113
300.643783239
302.420739851
304.188143318
305.943712624
307.685034536
309.409496946
311.114215904
312.795960682
314.451084763
316.075473999
317.664529066
319.213202499
320.716115358
322.167773201
323.562892588
324.896823075
326.166021129
327.368522557
328.50437309
329.576035262
330.588963838
331.552259378
332.482238358
333.415906947
334.546032021
334.357894673
334.353536693
334.434607796
334.45046548
334.456539724
334.437445359
334.435075665
334.421094988
334.388951783
334.347231687
334.306448235
334.274905836
334.254836188
334.241004342
334.226770165
334.211008651
334.196626882
334.187817348
334.185948654
334.188183476
334.189021723
334.181427429
334.173697252
334.176862004
334.170895551
334.171515479
334.186210736
334.140093901
334.039132766
334.076360866
334.067389249
334.07679248
334.080476415
334.081192878
334.082470174
334.084213369
334.085978242
334.087475532
334.088506009
334.089032195
256.270557286
256.441539875
256.783950575
257.29426169
257.961841261
258.77441498
259.718567126
260.780587987
261.947150726
263.205797217
264.545229116
265.955428578
267.427647561
268.954308767
270.528858008
272.145599553
273.799536693
275.486230553
277.201683129
278.942245053
280.704545678
282.485441163
284.281976322
286.091356236
287.910924987
289.738149641
291.570608646
293.40598353
295.242052518
297.076683148
298.907821343
300.733472365
302.551671354
304.360441235
306.157736662
307.941373395
309.708943255
311.457715914
313.184531281
314.885689947
316.556855451
318.192989361
319.788350801
321.336598506
322.831038787
324.265045694
325.632648995
326.929210351
328.152090958
329.301241435
330.379650894
331.393931188
332.354007051
333.277810567
334.21947749
334.419941218
334.501745556
334.433869141
334.441244121
334.440670578
334.429606663
334.408927051
334.391339157
334.367431938
334.334100944
334.29615397
334.260010357
334.230899771
334.21112794
334.197634219
334.186029132
334.175591047
334.167802054
334.164465148
334.165581764
334.168868805
334.171026195
334.168917684
334.165086034
334.164798041
334.16148165
334.159176103
334.157232065
334.153061409
334.160717669
334.137461084
334.051653672
334.084721083
334.090048375
334.087487037
334.088475391
334.090840778
334.093289726
334.09532077
334.096723369
334.097374344
254.426538689
254.617153442
254.998053598
255.563828518
256.300720723
257.193021318
258.223894629
259.376519616
260.63495595
261.984716452
263.413058172
264.909041697
266.463424338
268.068453953
269.7176202
271.405405067
273.127058799
274.878414192
276.655742205
278.455645676
280.274984319
282.110823288
283.960397858
285.821088623
287.690403409
289.565964506
291.445500806
293.32684498
295.207934151
297.086810735
298.96161905
300.830591679
302.692021577
304.544217447
306.385440181
308.213819328
310.027247999
311.823255621
313.598859386
315.350400676
317.073379257
318.762311316
320.410652325
322.010847082
323.55458396
325.033321349
326.439112571
327.765569262
329.008803463
330.168203109
331.24660484
332.252624589
333.203054232
334.149048271
334.296409361
334.396421971
334.449270799
334.425002406
334.412800861
334.397572458
334.373825473
334.344343224
334.314948563
334.283369254
334.248651054
334.213499004
334.181572975
334.156975336
334.14093164
334.130493039
334.123449307
334.119238129
334.118293045
334.121040555
334.126875755
334.134038774
334.14044139
334.144568803
334.147386896
334.150836639
334.15198741
334.150963501
334.149612176
334.147206056
334.147288355
334.148879597
334.148457031
334.121973053
334.106998739
334.091712725
334.093300938
334.097374209
334.1010872
334.103896764
334.105718453
334.106518089
252.384196571
252.599401232
253.028260486
253.662600022
254.484296637
255.472956583
256.607217319
257.866285906
259.231033931
260.684645087
262.212860464
263.803913521
265.448262539
267.138221406
268.867568187
270.631184154
272.424751662
274.244520122
276.087137071
277.949533976
279.828853816
281.722407092
283.62764515
285.542142433
287.46358348
289.389753639
291.31853546
293.247912631
295.175981163
297.100962959
299.021215119
300.935225782
302.84159087
304.738968625
306.626010032
308.501263496
310.363050453
312.2093071
314.037388851
315.843838204
317.624125336
319.372386212
321.081209045
322.741559078
324.342978671
325.874214423
327.324406976
328.68450904
329.948647032
331.115023009
332.185284989
333.177902615
334.147084878
334.269996903
334.334110549
334.387139533
334.405051122
334.381852537
334.351495517
334.317207185
334.278862966
334.238832572
334.200389955
334.163616851
334.128567208
334.096802966
334.070358109
334.051938537
334.041643168
334.036790824
334.036214364
334.039413507
334.046185889
334.056227997
334.068675091
334.082104428
334.095040977
334.106513544
334.116686929
334.126018867
334.13323436
334.138326843
334.141982456
334.143219104
334.143670716
334.144783145
334.145639815
334.160822466
334.14863312
334.080784819
334.094222044
334.103825204
334.109675974
334.113521065
334.115694877
334.116585665
250.118170829
250.364674297
250.854181525
251.574386473
252.500969091
253.60707633
254.865321702
256.2498488
257.737685396
259.309424031
260.94933499
262.645073489
264.38715315
266.168335428
267.983042315
269.826854714
271.696121607
273.587679939
275.498670427
277.426428166
279.36842547
281.322246539
283.285577302
285.256199383
287.231982966
289.210879888
291.190922464
293.170235177
295.147060443
297.119792268
299.08700563
301.047468043
303.000124279
304.944052124
306.878388529
308.802226013
310.714472947
312.61366744
314.497732967
316.363667399
318.207162844
320.02217137
321.800464505
323.531301487
325.201438236
326.795769208
328.299159765
329.698597384
330.985135895
332.156283411
333.213139608
334.221652336
334.311561328
334.333056177
334.34862824
334.355497511
334.337145559
334.294425933
334.243840172
334.191532829
334.139720041
334.090512092
334.045977601
334.006784165
333.973285162
333.946344125
333.927035431
333.916467414
333.913506355
333.916103036
333.923586754
333.935412565
333.951006274
333.969680665
333.990452239
334.012080979
334.033364823
334.053445742
334.072025576
334.088979308
334.103645455
334.11592739
334.125932991
334.133320376
334.138583585
334.141937294
334.143224574
334.147976587
334.143860309
334.131334159
334.097363948
334.112523916
334.120103128
334.12481672
334.126898617
334.127700695
247.596254992
247.883356002
248.45087652
249.280203576
250.33807549
251.588647399
252.996492028
254.529332046
256.159651525
257.865309186
259.629365611
261.439396553
263.286561506
265.164644912
267.069209453
268.996926367
270.945094163
272.911325457
274.893367862
276.889021124
278.896115463
280.912520999
282.936165371
284.965044275
286.997219626
289.030809695
291.063984809
293.09498555
295.122169235
297.144075142
299.159486307
301.167465118
303.167349804
305.158711683
307.141278504
309.114828288
311.079044493
313.03331265
314.976435325
316.906241887
318.819070498
320.709106752
322.567594506
324.382026892
326.135657116
327.807828607
329.37706778
330.82420265
332.136584555
333.324648455
334.396374436
334.443011251
334.403642547
334.365652
334.329511018
334.285251559
334.2276234
334.159046953
334.088227793
334.020290178
333.95768574
333.902059919
333.854656557
333.815994638
333.786293134
333.765906569
333.755329311
333.753860998
333.759267582
333.770571109
333.787285405
333.80872025
333.834074865
333.862460117
333.892832297
333.924037655
333.954981827
333.984795838
334.012919945
334.038940624
334.062323275
334.082813033
334.100300746
334.114616731
334.125835267
334.133947303
334.138557098
334.140853697
334.13833434
334.131277072
334.132547621
334.127188471
334.133711269
334.138634432
334.139560856
334.139849045
244.776792769
245.117733868
245.787585895
246.757876613
247.982236374
249.41221066
251.001645184
252.710211533
254.505197693
256.361851218
258.262660009
260.196011585
262.154643893
264.134198581
266.132046236
268.146433405
270.175927613
272.219103481
274.274405077
276.340124281
278.414444118
280.495505984
282.581469634
284.670546032
286.760996192
288.851106462
290.939165956
293.023486687
295.102479347
297.174770999
299.239319482
301.295485554
303.343042912
305.382132698
307.413181114
309.436800057
311.453655491
313.46426962
315.468717924
317.466180988
319.454299181
321.428256373
323.379515077
325.294181327
327.151432624
328.922314175
330.575450086
332.08168323
333.42644751
334.659664828
334.678173998
334.560137904
334.451120104
334.355153017
334.261096644
334.166418434
334.070947252
333.976711037
333.888128992
333.808347748
333.738927321
333.68065335
333.633927801
333.598799893
333.575204093
333.563237337
333.562146249
333.569770606
333.584171123
333.604935785
333.63151056
333.66306058
333.698659731
333.737321415
333.777977075
333.819514432
333.860875677
333.901150241
333.939616237
333.975677855
334.008764544
334.038477777
334.064544796
334.08673744
334.104968764
334.119210549
334.129294086
334.135688264
334.137939523
334.136653416
334.136924579
334.140159555
334.149674481
334.156019917
334.153433827
334.152505785
241.604741257
242.018986289
242.826094393
243.981765885
245.420149024
247.075047693
248.886085108
250.803042109
252.787595704
254.813019806
256.862494327
258.926710366
261.001399079
263.085224
265.178220519
267.280775914
269.393052915
271.514737355
273.645001268
275.782593239
277.925987871
280.073541545
282.223614609
284.374632385
286.525075193
288.673413281
290.818032193
292.957242204
295.089397265
297.213104763
299.327429148
301.432018042
303.527123338
305.613535337
307.692480627
309.765542494
311.834574372
313.901545591
315.968262518
318.035915196
320.104373959
322.171080641
324.229264506
326.265074971
328.253966494
330.153628812
331.918676093
333.51722659
334.997329025
335.000334378
334.801323232
334.611910446
334.443978831
334.285123458
334.134938188
333.995513782
333.867751915
333.752574614
333.651480726
333.565350389
333.494223436
333.437706643
333.395279845
333.366412346
333.350756531
333.348249862
333.356577874
333.372786263
333.396208123
333.42646287
333.462788147
333.504254236
333.549888608
333.598678849
333.649565919
333.701471119
333.753352193
333.804257556
333.853354139
333.89991099
333.943267123
333.982889521