/*--------------------------------*- C++ -*----------------------------------*\
| =========                 |                                                 |
| \\      /  F ield         | OpenFOAM: The Open Source CFD Toolbox           |
|  \\    /   O peration     | Version:  v1906                                 |
|   \\  /    A nd           | Web:      www.OpenFOAM.com                      |
|    \\/     M anipulation  |                                                 |
\*---------------------------------------------------------------------------*/
FoamFile
{
    version     2.0;
    format      ascii;
    class       volScalarField;
    location    "128";
    object      p;
}
// * * * * * * * * * * * * * * * * * * * * * * * * * * * * * * * * * * * * * //

dimensions      [0 2 -2 0 0 0 0];


internalField   nonuniform List<scalar> 
9216
(
289.388012628
289.468430233
289.646045503
289.909810719
290.260184874
290.6955378
291.213615839
291.811781386
292.486968588
293.235884573
294.054921123
294.940348031
295.88821687
296.894541265
297.955201466
299.066103415
300.223090517
301.422072399
302.658951939
303.929719568
305.230403158
306.55712199
307.906064685
309.273506146
310.655814311
312.049427342
313.450895366
314.856818742
316.263927038
317.668976694
319.06886801
320.460506368
321.840956701
323.207272534
324.556680502
325.886379026
327.193764298
328.476194724
329.731252964
330.956483738
332.149688039
333.308636577
334.431395245
335.516016554
336.560894362
337.564430667
338.525415239
339.442672918
340.315461929
341.143097847
341.925365412
342.662119251
343.353700819
344.000515935
344.603451117
345.163430142
345.681825264
346.159997602
346.59970216
347.002620421
347.370760776
347.705992638
348.010443324
348.286043059
348.534920002
348.758961837
348.960207986
349.140431233
349.301522249
349.445091564
349.572844931
349.686207098
349.786683084
349.875504951
349.953975964
350.023140359
350.084108949
350.137752621
350.185005741
350.226583206
350.263266313
350.295682493
350.324192162
350.348372797
350.368242609
350.384482978
350.397799781
350.40837431
350.416348088
350.422085353
350.426017397
350.428621241
350.430333596
350.431349088
350.431835064
350.431979958
289.307648738
289.38853821
289.562989071
289.827141331
290.178980737
290.616421691
291.137044501
291.738096466
292.416468563
293.168792393
293.991434146
294.880597653
295.832315882
296.842545542
297.907155051
299.022004934
300.182932091
301.385812548
302.626546616
303.901102981
305.205508406
306.535871673
307.888379186
309.25930383
310.645009248
312.041940407
313.446639349
314.855720342
316.265899305
317.67395266
319.0767607
320.471254796
321.854473858
323.223498538
324.575522626
325.907776644
327.217615164
328.502430308
329.759755028
330.987168739
332.182414349
333.343298323
334.46782149
335.554072557
336.600373307
337.605164983
338.567162406
339.485233762
340.358562041
341.186513817
341.968802708
342.705345237
343.396419798
344.042506687
344.644439348
345.203228823
345.720203924
346.196822051
346.634800902
347.035921985
347.402158225
347.735476747
348.037966261
348.31164785
348.558605875
348.780809829
348.980250083
349.158772734
349.318216045
349.460256256
349.586544328
349.698563531
349.797763682
349.885429352
349.962809542
350.030995617
350.09104583
350.143873537
350.190361796
350.231257434
350.267274105
350.298984099
350.326841021
350.350654355
350.370273481
350.386200732
350.399112155
350.409281829
350.417073969
350.422722814
350.426486257
350.428967312
350.430636227
350.431572683
350.431984414
350.43213574
289.129143208
289.215099068
289.391472686
289.658337309
290.013791339
290.455713878
290.981596543
291.588573944
292.273442953
293.032726449
293.862705071
294.759484779
295.719026322
296.737205137
297.80983293
298.932707742
300.101627343
301.31242366
302.560971894
303.843213787
305.155161353
306.492909618
307.852638584
309.230617028
310.623205517
312.026852752
313.438098824
314.85356675
316.269969746
317.684096241
319.092821028
320.493087777
321.881924983
323.256424463
324.613764313
325.951183733
327.266013095
328.555649231
329.817592135
331.049420117
332.248833793
333.413632741
334.541766486
335.631312977
336.680536372
337.687864832
338.65195398
339.571662933
340.446120011
341.274693072
342.05705385
342.793139248
343.483205231
344.127776002
344.727686316
345.284014872
345.798112987
346.271524482
346.706003382
347.103425618
347.465802208
347.795190765
348.093710283
348.363459437
348.606539055
348.824980714
349.020777688
349.195823728
349.351948702
349.490864652
349.614205775
349.723482488
349.820121724
349.905427498
349.980622651
350.046812058
350.105027062
350.156192294
350.201164068
350.240700409
350.275494018
350.306129662
350.332986544
350.355766864
350.37449291
350.389681006
350.401642696
350.411057337
350.418522881
350.423887669
350.427327648
350.429663276
350.431167982
350.431983781
350.432392741
350.432595333
288.86158196
288.950026623
289.129516136
289.400797956
289.761987272
290.210900603
290.744914245
291.361019679
292.055868233
292.825830839
293.667047278
294.575484924
295.546983021
296.577302558
297.662160882
298.797270219
299.978360369
301.201205025
302.461636216
303.755560199
305.078964941
306.427927486
307.798617405
309.187298584
310.590329295
312.004161258
313.425337822
314.850489723
316.276333968
317.69966749
319.117368656
320.526388379
321.923753674
323.306559765
324.671976152
326.017239024
327.339660541
328.636625242
329.905604321
331.144152856
332.349929207
333.520698143
334.65435663
335.748938768
336.802647189
337.813860997
338.781172102
339.703394426
340.57960037
341.409128313
342.19161427
342.92699225
343.61551605
344.257743471
344.854544747
345.407069995
345.916740274
346.385200355
346.814296272
347.206017684
347.562469937
347.885817524
348.178259535
348.441981133
348.679140258
348.891830685
349.082080028
349.251823159
349.402906349
349.537066268
349.655939852
349.761049126
349.853813156
349.935538374
350.007432045
350.070595515
350.126042141
350.174690736
350.217381888
350.254875004
350.287877181
350.316971056
350.342161354
350.363255598
350.380640366
350.394578079
350.4054348
350.414053583
350.420677369
350.425452372
350.428684174
350.430781249
350.432070402
350.432797944
350.433180532
350.433367062
288.501472323
288.592320256
288.776011708
289.053393856
289.422499385
289.881021352
290.426170512
291.054746464
291.763199397
292.547695808
293.404179435
294.328431604
295.316123118
296.362863571
297.464240481
298.615853682
299.813341537
301.052402849
302.328812211
303.638431471
304.977217309
306.341226018
307.726614369
309.12964064
310.546663013
311.974137913
313.408615389
314.846734935
316.285223157
317.720887296
319.150613096
320.571359463
321.980155911
323.374099067
324.750353168
326.106145638
327.438771311
328.745593113
330.024048238
331.271653902
332.486020857
333.664860527
334.806003667
335.907416232
336.967222322
337.983725089
338.955435956
339.881095265
340.759704358
341.590547761
342.373219361
343.10763744
343.79405822
344.433075468
345.025617902
345.572925074
346.076525548
346.538196387
346.959923048
347.343845651
347.692212285
348.007326557
348.29150715
348.547047861
348.776191759
348.98110596
349.163871281
349.326467622
349.470769641
349.598537484
349.711418257
349.810941091
349.898520659
349.975457228
350.042943412
350.102067711
350.153824226
350.19911485
350.238760062
350.273504671
350.304039281
350.330906424
350.353982168
350.373039976
350.388567317
350.40085585
350.410371309
350.417898999
350.423758329
350.427909243
350.430612782
350.432357138
350.433458479
350.43406784
350.434383932
350.434542904
288.046438352
288.14005022
288.329074477
288.614312293
288.993637299
289.464548783
290.024027012
290.668616378
291.394501215
292.197582105
293.07354726
294.017939031
295.026212196
296.09378496
297.216080189
298.388559074
299.606746802
300.866251549
302.162778367
303.492138047
304.850251329
306.233150674
307.63698038
309.05799484
310.4925549
311.937124422
313.388264316
314.842627118
316.296952655
317.748062467
319.19285409
320.628296697
322.051427066
323.459343955
324.849207043
326.218233239
327.56369656
328.882933349
330.173343149
331.432394553
332.65763755
333.846712646
334.997368143
336.107479566
337.175072907
338.19834822
339.175710842
340.105799031
340.987519804
341.820079839
342.603014549
343.33621353
344.019936069
344.65481741
345.241863991
345.782429444
346.278188676
346.731092046
347.143315563
347.517198444
347.855180666
348.159747366
348.433375845
348.67849541
348.897457463
349.09251594
349.265817394
349.419392457
349.555151598
349.674879634
349.78023705
349.872757004
349.95384886
350.024801348
350.086789267
350.140880175
350.188042552
350.229152059
350.265004364
350.296323653
350.323799533
350.347881697
350.368142093
350.384624797
350.397962498
350.408385777
350.416586256
350.423033949
350.427825375
350.43098189
350.433169653
350.434522618
350.435313715
350.435847371
350.436099951
350.436229954
287.493632976
287.590574674
287.786190754
288.081195445
288.473236653
288.959547361
289.53680129
290.201211032
290.948619631
291.774590084
292.674489099
293.643561553
294.676995726
295.76997686
296.917729154
298.115549076
299.358829278
300.64307414
301.963910312
303.317091915
304.698501812
306.104149223
307.530167618
308.972811233
310.428448158
311.893554016
313.364705156
314.838572634
316.311914902
317.781572491
319.244461271
320.697564961
322.137930446
323.56266109
324.96891439
326.353896101
327.714860012
329.049111168
330.354003991
331.626949129
332.865422394
334.066977659
335.229263747
336.350043035
337.427215665
338.458850257
339.443216335
340.378818421
341.264437789
342.099171905
342.882474908
343.614191665
344.294579689
344.92432184
345.504520805
346.036676022
346.52265069
346.96462071
347.365010022
347.72641658
348.051535605
348.343084094
348.603736674
348.836087372
349.042614177
349.225670854
349.387477963
349.530121859
349.655551139
349.76557823
349.861877068
349.945982266
350.019294722
350.08308619
350.138506664
350.186593961
350.228282029
350.264412034
350.295744775
350.322972531
350.346751138
350.367396931
350.384327229
350.397955301
350.408878816
350.417366387
350.424017656
350.429010369
350.432511845
350.434842696
350.436448561
350.437392503
350.437816861
350.438159611
350.438310976
350.438382211
286.839603413
286.940567123
287.144200887
287.451100319
287.858620013
288.363643853
288.962449405
289.65082591
290.424185639
291.277671176
292.206252522
293.204813114
294.268220856
295.391384758
296.569297702
297.79706771
299.069937883
300.383298548
301.732692636
303.113816271
304.522514985
305.954778528
307.406734684
308.874642827
310.354883985
311.843951675
313.338444833
314.835058829
316.330578487
317.82187032
319.305873355
320.779592018
322.240088184
323.684475465
325.109911137
326.51359185
327.892752795
329.244663049
330.566625015
331.855982404
333.110127173
334.326509895
335.502657892
336.636195123
337.724869781
338.766586585
339.759441781
340.701766344
341.592175646
342.429621186
343.213442111
343.94341396
344.619783627
345.243286198
345.815142298
346.337032466
346.811056926
347.239674547
347.625637353
347.971886228
348.281439758
348.55730247
348.80239271
349.019495339
349.211233952
349.380067727
349.528294223
349.658055082
349.771341577
349.869993246
349.955695622
350.02998288
350.094241715
350.149719179
350.19753204
350.238678043
350.274047246
350.304434346
350.330552414
350.353042901
350.372524442
350.389115129
350.402345133
350.412911913
350.421160414
350.42748717
350.432287052
350.435752643
350.43803875
350.439567125
350.440366547
350.440835738
350.440968349
350.440948425
350.440973419
350.440962785
286.080168688
286.185967274
286.399247406
286.720452588
287.146559438
287.674003303
288.298556489
289.015473944
289.819630759
290.705651423
291.668024642
292.701200863
293.79967063
294.958023628
296.170990396
297.433469283
298.740541866
300.087478623
301.469738073
302.882961092
304.322961155
305.785715403
307.26735445
308.764150232
310.272504445
311.788937411
313.310078116
314.832655471
316.353488714
317.869477087
319.377591298
320.874862821
322.358377192
323.825262617
325.272682
326.697829045
328.097918502
329.470181071
330.811865509
332.120241142
333.392602136
334.626278436
335.818655271
336.967193855
338.069458408
339.123149762
340.126149609
341.076569029
341.972805409
342.813611233
343.598165166
344.326140287
344.99775518
345.613800994
346.175640335
346.68517244
347.144786008
347.557313716
347.925936086
348.254028638
348.545024458
348.802290614
349.029037237
349.228266836
349.402755904
349.555067376
349.687568361
349.802454388
349.901757807
349.987346081
350.06091582
350.123995648
350.17795067
350.223994446
350.263198605
350.296509903
350.324762174
350.34869155
350.368950211
350.386120682
350.400767302
350.412785252
350.422142916
350.429335638
350.434676436
350.438657221
350.441434373
350.443237739
350.444275825
350.444803427
350.444924692
350.444747512
350.444500407
350.444124986
350.443987909
350.443878792
285.210302604
285.321883838
285.546698334
285.884982417
286.333230062
286.887301809
287.54232861
288.292894867
289.1332098
290.057265295
291.058971507
292.132267873
293.271208152
294.470020092
295.723144083
297.025253426
298.371261808
299.756320512
301.175809064
302.625321014
304.100648385
305.597767082
307.112821597
308.642107399
310.18205724
311.729227959
313.280289594
314.832014189
316.381263506
317.924979786
319.460173972
320.983914558
322.493318483
323.985538043
325.457751174
326.907151492
328.330935549
329.726299903
331.090436842
332.420532661
333.713772252
334.967350418
336.178488845
337.344455825
338.462596057
339.530367954
340.545388427
341.505488742
342.408782921
343.253755449
344.039358355
344.765110812
345.43117948
346.038411173
346.588333767
347.083116512
347.525504297
347.918798206
348.266730486
348.573253952
348.842340849
349.077807931
349.283208914
349.4617841
349.616458237
349.749875198
349.864453301
349.962430728
350.045883243
350.116708807
350.176615033
350.227118733
350.269554153
350.305087345
350.334732874
350.3593719
350.379768022
350.396584309
350.410396766
350.4217192
350.430987935
350.438080605
350.443294407
350.446899097
350.449309651
350.450810598
350.451430304
350.45140722
350.451008149
350.450409565
350.449812219
350.449098937
350.448316071
350.447609959
350.447233015
350.447028824
284.223993754
284.342478057
284.581041698
284.93964376
285.414154112
285.999696757
286.690588252
287.480572215
288.363035819
289.331202339
290.378292839
291.497650631
292.682832265
293.927664504
295.22627579
296.57310657
297.962904933
299.390711867
300.851841066
302.341853589
303.856536967
305.391882401
306.944061682
308.509408356
310.084399078
311.665640333
313.249854647
314.833866872
316.414592258
317.989026393
319.554232921
321.107327434
322.645470141
324.165848985
325.665665264
327.142120194
328.592401947
330.013676603
331.403076615
332.757701693
334.074619725
335.350873654
336.583496075
337.769534661
338.906080488
339.99030191
341.019495334
341.991142365
342.902989812
343.753156442
344.540272151
345.263626102
345.923302791
346.520186284
347.056024667
347.533326171
347.955215234
348.325581621
348.648904303
348.929916409
349.173294246
349.383414845
349.564229916
349.719219704
349.851424261
349.963520497
350.057933923
350.13692872
350.202632086
350.256985628
350.301709205
350.338297887
350.368042401
350.392046552
350.411249204
350.42644892
350.438322496
350.447443982
350.454297959
350.459302102
350.462769952
350.464752654
350.465560365
350.465422927
350.464715791
350.463502509
350.46187235
350.460073022
350.458260499
350.45650626
350.454927886
350.453567604
350.452350018
350.451275644
350.450590233
350.450283784
283.114070811
283.240796563
283.495751542
283.87851036
284.384134148
285.006796589
285.739776979
286.575764045
287.507130781
288.526171832
289.625293293
290.79715219
292.034748541
293.331476027
294.681139642
296.077950709
297.516505487
298.991754727
300.498968561
302.033700532
303.59175573
305.169161734
306.762137937
308.367071701
309.980500331
311.599093906
313.219638832
314.839024623
316.454232936
318.06232576
319.660428183
321.245719334
322.815416424
324.366755491
325.896974874
327.403297244
328.882913228
330.332962015
331.750522917
333.132607646
334.476156074
335.778042906
337.035092701
338.244103541
339.401871793
340.505231616
341.551097448
342.536521144
343.458773507
344.315475238
345.10478743
345.825654351
346.478034483
347.062826648
347.582105462
348.038793549
348.436319922
348.779338405
349.073368615
349.32423571
349.537548423
349.718380046
349.871121606
349.999471622
350.106507863
350.194845501
350.266824301
350.324715115
350.370731612
350.406894089
350.434932031
350.456309866
350.472255163
350.483785213
350.491742306
350.496821808
350.49959588
350.500533772
350.500015038
350.498344199
350.495764428
350.49253179
350.488724117
350.48465772
350.480603119
350.476529644
350.472657817
350.469060263
350.465799738
350.462831212
350.46025239
350.458051344
350.456309726
350.454904188
350.453882337
350.45343568
281.871975063
282.008571363
282.283114161
282.694649225
283.237175293
283.903632047
284.685970801
285.575552924
286.563501545
287.640992933
288.799478655
290.030836094
291.327456623
292.682280671
294.088794045
295.540998971
297.033369639
298.560800486
300.118552368
301.702205834
303.307614959
304.930868971
306.568258624
308.216246748
309.871448135
311.530610887
313.190598478
314.848378847
316.501012672
318.145638627
319.779461084
321.399736223
323.003754654
324.588818249
326.152220528
327.691224063
329.203033232
330.684776343
332.133487213
333.546086891
334.919382922
336.250070578
337.534742601
338.769916362
339.952061233
341.07763007
342.143097229
343.144997567
344.07999632
344.945024117
345.7375491
346.455963791
347.100102047
347.67078958
348.170654703
348.603195688
348.971752127
349.28199329
349.540999921
349.756171798
349.93437488
350.081527066
350.202479495
350.301079429
350.380299757
350.442504793
350.489781259
350.524373764
350.548697515
350.564929859
350.574811026
350.579744111
350.580865155
350.579072994
350.575084349
350.569467665
350.56267005
350.555041719
350.546848486
350.538285498
350.529543717
350.520789666
350.512271875
350.504224286
350.496709826
350.489876439
350.483699416
350.478186191
350.473312692
350.469046688
350.465430688
350.462424864
350.460025811
350.458228308
350.456885143
350.456283431
280.487465384
280.635942642
280.934007723
281.379962246
281.966397273
282.684634939
283.524915725
284.476925936
285.530248149
286.674718898
287.900682804
289.199148178
290.561859612
291.98130536
293.450679298
294.963817763
296.51512299
298.099485189
299.7122062
301.348936704
303.005619322
304.678438559
306.363783261
308.058215439
309.75844674
311.461317155
313.163782246
314.862901018
316.555823131
318.23977953
319.912068895
321.570043062
323.211084392
324.832582862
326.431911587
328.006392006
329.55326774
331.069674743
332.552609461
333.998912848
335.405257801
336.768142949
338.083910809
339.348769839
340.55882666
341.710119199
342.798634324
343.820316031
344.771074969
345.646889156
346.4441529
347.160291307
347.795273228
348.349396734
348.826498079
349.231189223
349.565215404
349.83577757
350.052516342
350.225201964
350.362405839
350.471018917
350.556307988
350.622123444
350.671106107
350.705022463
350.725363453
350.734309666
350.734782559
350.729328424
350.71963879
350.706979637
350.692368014
350.676531825
350.660023564
350.643257273
350.626535162
350.610070247
350.59400178
350.578406957
350.563469445
350.549205917
350.535872657
350.523806815
350.512892425
350.503208612
350.494701253
350.487151026
350.480592593
350.474959838
350.47022975
350.466365932
350.463312419
350.461049389
350.459419096
350.458641507
278.948224903
279.11111294
279.437617956
279.924993778
280.56393844
281.343632491
282.252097462
283.27689809
284.405720459
285.626806225
286.92923456
288.303069347
289.739397285
291.230288212
292.768705551
294.348393714
295.963761036
297.6097663
299.281819066
300.975696706
302.687477092
304.413480021
306.150223974
307.894394544
309.642818126
311.39244372
313.140331522
314.883640045
316.619620915
318.345612155
320.059022603
321.757317775
323.437996579
325.098564438
326.736500054
328.349217814
329.934030384
331.488102658
333.008419478
334.491753585
335.93463913
337.333371523
338.684017584
339.982446404
341.224372782
342.405395357
343.521008026
344.566533228
345.537005304
346.427089906
347.231425142
347.945555837
348.57073345
349.104851494
349.555073911
349.928944009
350.221567911
350.443233736
350.608178097
350.729928192
350.819235173
350.884027589
350.929744322
350.960075311
350.976927394
350.980935423
350.972197305
350.952754781
350.926886488
350.897987337
350.867430319
350.836162185
350.805070635
350.774630438
350.745183131
350.7169591
350.690095845
350.66465115
350.640621208
350.617966553
350.596816327
350.577297943
350.559316785
350.543100953
350.528795811
350.516198895
350.505234686
350.495650661
350.487375099
350.480347004
350.474465249
350.469693664
350.465936081
350.463170631
350.461275564
350.460311174
277.239331058
277.419866037
277.781072392
278.318695383
279.020857569
279.873873222
280.862864135
281.972701189
283.188741093
284.497345207
285.886175509
287.344308045
288.862206174
290.43160554
292.045348107
293.697203322
295.381695865
297.093952374
298.829574283
300.584535986
302.355105233
304.137780068
305.929243515
307.726330582
309.526000968
311.325325886
313.121478124
314.911725196
316.693431598
318.464052139
320.221122672
321.962244868
323.68506186
325.387226275
327.066360496
328.720012203
330.345597762
331.940353595
333.501283519
335.025107782
336.508232991
337.946737076
339.336382228
340.672658559
341.950852536
343.166126266
344.313527164
345.387863618
346.383301793
347.292773998
348.108030806
348.819942093
349.435807428
349.944019461
350.36186524
350.705961097
350.948223111
351.107617146
351.207603939
351.26770504
351.301091106
351.316533466
351.318916178
351.311732211
351.295584929
351.269248619
351.229426727
351.177814311
351.122291584
351.068327699
351.015907381
350.965172259
350.917087481
350.871696474
350.829073991
350.789254566
350.75218243
350.717755478
350.685798963
350.656183803
350.628975813
350.604214824
350.581857114
350.561673326
350.543910458
350.528506024
350.515070631
350.503406911
350.493388827
350.484924964
350.477884921
350.472184972
350.467700421
350.464408962
350.462213033
350.461083702
275.34253414
275.544943013
275.94896186
276.548144585
277.327047498
278.268108336
279.352634041
280.562067924
281.878921659
283.287371799
284.7735421
286.325537835
287.93330856
289.58841365
291.28374891
293.013279123
294.771797278
296.554725248
298.357959615
300.177752427
302.010622822
303.853294697
305.702649924
307.555696336
309.409544945
311.261398058
313.10854627
314.948370712
316.778350042
318.596067341
320.399201073
322.185513221
323.952822832
325.6989691
327.421766008
329.118939756
330.788069394
332.426512713
334.031335152
335.599242359
337.126523817
338.609027586
340.042169005
341.420993216
342.740298686
343.994799514
345.179250636
346.28830972
347.315719152
348.252505551
349.085784459
349.792336112
350.404655073
350.873268037
351.248483185
351.576093147
351.753937078
351.829368369
351.846049853
351.831158153
351.800212818
351.761117362
351.717188494
351.671542707
351.623885182
351.569649307
351.497574542
351.407298177
351.316789733
351.237038369
351.162580907
351.091605713
351.026357696
350.96594434
350.910110316
350.858750297
350.811564703
350.768301465
350.728568422
350.692183936
350.659229778
350.62950593
350.602755418
350.57882612
350.557800518
350.539636878
350.523802971
350.510020319
350.498270039
350.488438911
350.480225475
350.473566519
350.468370046
350.464548612
350.46202366
350.460746489
273.235249261
273.465166731
273.922719098
274.598209134
275.471181766
276.518769626
277.71723297
279.043656491
280.477107648
281.999284874
283.594725261
285.250686501
286.956828159
288.704798581
290.487812222
292.300265926
294.137419627
295.995148612
297.86976335
299.757881937
301.656340218
303.562134579
305.472379046
307.384277128
309.29510295
311.202194096
313.102956278
314.994876916
316.875549868
318.742688412
320.594128624
322.427818573
324.241789908
326.0341175
327.802857923
329.54598645
331.261312403
332.946387257
334.598405128
336.214106047
337.789692122
339.32076758
340.802338409
342.228887702
343.594576991
344.893589511
346.120586054
347.270901871
348.339383694
349.316413139
350.183239762
350.866696433
351.502845652
351.897982499
352.236778614
352.678403118
352.758749301
352.693443356
352.584079365
352.467568338
352.35425615
352.248252577
352.151231801
352.066236205
351.988862915
351.912780683
351.797592632
351.643540456
351.503170674
351.39981331
351.305317203
351.212613182
351.130623033
351.055551586
350.986624967
350.924010832
350.86700377
350.815298143
350.768186081
350.725382885
350.686811503
350.652392346
350.621533563
350.594053459
350.569950247
350.549126888
350.530925579
350.515138817
350.501755767
350.490524194
350.481181193
350.473597448
350.467706689
350.463382936
350.460527759
350.459115416
270.889133213
271.154250593
271.679800502
272.451172334
273.440742607
274.618310556
275.95343406
277.417676431
278.986001247
280.637401615
282.354923533
284.125276479
285.938226897
287.785925959
289.662285966
291.562453801
293.482404891
295.418652206
297.368050033
299.327671442
301.294731275
303.26654046
305.240475509
307.213952902
309.184418194
311.149339343
313.106222499
315.052645397
316.986298784
318.905025109
320.806829294
322.689873162
324.552445221
326.392905905
328.209629099
330.000917758
331.764904753
333.499431898
335.201918426
336.86922184
338.49750499
340.082132262
341.617612672
343.097666816
344.515483855
345.864342107
347.138769792
348.336081091
349.455833358
350.494517629
351.442264342
352.048416529
352.93865177
353.065874787
352.764025412
352.731361895
352.756880152
352.704551198
352.613611378
352.512088849
352.410601541
352.314627595
352.229619375
352.163725543
352.111263953
352.061372301
351.976388838
351.81416655
351.658361909
351.558062569
351.448104056
351.324730223
351.227527027
351.138871233
351.056783932
350.983576479
350.917134202
350.857578287
350.803560461
350.754812589
350.711144731
350.672256154
350.637619588
350.606890517
350.579975141
350.556630847
350.536184118
350.518466019
350.503533959
350.490956316
350.480519528
350.47208389
350.465532974
350.460714791
350.457558049
350.456004392
268.267996103
268.579095469
269.192613923
270.086337333
271.222216133
272.559822401
274.059806962
275.686806793
277.411022294
279.208684
281.061700923
282.956813732
284.884545609
286.83816697
288.8128086
290.804774501
292.811050793
294.828988509
296.856114927
298.890035495
300.928393217
302.968846586
305.009056992
307.04667132
309.079305416
311.104544707
313.119964015
315.123190057
317.111981935
319.084292969
321.038305504
322.972427834
324.885248419
326.775483565
328.641903682
330.483240596
332.298069057
334.084653532
335.84077492
337.563536249
339.249164694
340.892817125
342.488435683
344.028682197
345.505144108
346.909124982
348.233907907
349.480078494
350.659923738
351.812963803
353.114055394
353.090831713
353.050302837
353.061083987
352.944197708
352.814542616
352.755316159
352.680551087
352.587822605
352.489190174
352.391258729
352.298251856
352.213202757
352.137872968
352.068167145
351.998631433
351.920745401
351.834737047
351.762399168
351.693014151
351.574204149
351.415744181
351.31590637
351.215732203
351.118312682
351.036066732
350.960436102
350.893986285
350.833816855
350.779640172
350.731347694
350.688506406
350.650501602
350.616893955
350.587510001
350.561725356
350.539105233
350.51973397
350.503347484
350.48950248
350.478055035
350.468828158
350.461645155
350.456364235
350.452927213
350.451223136
265.324735705
265.697380276
266.427134241
267.479696683
268.80160864
270.338101496
272.038042062
273.857531431
275.761488402
277.723672837
279.725650656
281.755203956
283.804621412
285.869169882
287.94588846
290.032732092
292.128024199
294.230147436
296.337406567
298.447991374
300.559992651
302.67143298
304.780275283
306.884408561
308.981623576
311.069594727
313.145907687
315.20816947
317.254141157
319.281856274
321.289679875
323.276299899
325.24066635
327.181922901
329.099329193
330.99216724
332.859604784
334.700502417
336.51319271
338.295223546
340.043065218
341.751809384
343.414840888
345.023495815
346.56682436
348.031667068
349.404923161
350.685452746
351.89399442
353.127661038
353.248698391
353.243877145
353.119076854
353.045188365
352.941690686
352.831041333
352.747835695
352.660656206
352.565156526
352.46707832
352.370802048
352.279152535
352.193307368
352.113030119
352.035851748
351.958384883
351.877254611
351.79274221
351.715934024
351.646575324
351.570612765
351.497387916
351.422476677
351.293990878
351.165227865
351.080935179
350.995130394
350.923610958
350.857924977
350.799389873
350.746882251
350.700638599
350.659687826
350.623500036
350.591870456
350.56399684
350.539524681
350.518605172
350.500840789
350.485901259
350.473559922
350.463612832
350.455857544
350.450166722
350.446442294
350.444592964
261.996513619
262.454033195
263.341154821
264.60384657
266.165567638
267.951455464
269.894983311
271.942060038
274.052208098
276.197659687
278.361147827
280.533150247
282.709223919
284.887830809
287.068781881
289.252244563
291.438201026
293.626218294
295.815420975
298.004574774
300.192198748
302.376666402
304.556254209
306.729119771
308.893234742
311.04633
313.18590849
315.309425182
317.414533755
319.499290255
321.562248271
323.602429083
325.619213422
327.612249386
329.581386512
331.526596303
333.447822918
335.344749574
337.216521672
339.061411112
340.876438085
342.65693793
344.396051894
346.083947165
347.706673385
349.243399245
350.665755729
351.976502628
353.261855619
353.341627371
353.292447967
353.235230569
353.135469628
353.043851246
352.937734425
352.829585229
352.731880486
352.634515405
352.535048238
352.436127867
352.340501168
352.249308356
352.162495694
352.079784212
351.999632829
351.919888515
351.838747822
351.756349552
351.677315197
351.601526702
351.524081776
351.455282389
351.388154527
351.32180706
351.250090716
351.135391833
351.017282061
350.946810384
350.874747447
350.8129698
350.757028661