/*--------------------------------*- C++ -*----------------------------------*\
| =========                 |                                                 |
| \\      /  F ield         | OpenFOAM: The Open Source CFD Toolbox           |
|  \\    /   O peration     | Version:  v1906                                 |
|   \\  /    A nd           | Web:      www.OpenFOAM.com                      |
|    \\/     M anipulation  |                                                 |
\*---------------------------------------------------------------------------*/
FoamFile
{
    version     2.0;
    format      ascii;
    class       volVectorField;
    location    "233";
    object      Ua;
}
// * * * * * * * * * * * * * * * * * * * * * * * * * * * * * * * * * * * * * //

dimensions      [0 1 -1 0 0 0 0];


internalField   nonuniform List<vector> 
9216
(
(-0.010514556479 0.0105337388411 0)
(-0.0110970741892 0.0339986483815 4.00367426825e-27)
(-0.0110972719709 0.0578324747444 -7.19340446888e-31)
(-0.0109987894948 0.081684664515 0)
(-0.0108586329227 0.105155383257 0)
(-0.0106792978957 0.128153504969 0)
(-0.0104670591652 0.150578512636 0)
(-0.0102228943495 0.172340634484 0)
(-0.00995193805031 0.193357127753 0)
(-0.00965426531045 0.213556200697 0)
(-0.0093356527631 0.232873177558 0)
(-0.00899556092751 0.251254804079 0)
(-0.00864045776802 0.268654843736 0)
(-0.00826901951656 0.285038426132 0)
(-0.00788830485019 0.300377051853 0)
(-0.0074960159204 0.314652994538 0)
(-0.00709973324007 0.327853845181 0)
(-0.00669607173005 0.339976947027 0)
(-0.00629308765568 0.351023708212 0)
(-0.0058862515895 0.361004075391 0)
(-0.00548409625311 0.369930800699 0)
(-0.00508097491082 0.377823857811 0)
(-0.00468589283125 0.384704903424 0)
(-0.00429214399767 0.390601564862 0)
(-0.00390921297294 0.395542239926 0)
(-0.00352944156895 0.399560086166 0)
(-0.00316275538914 0.402688346918 0)
(-0.00280064505009 0.404963938371 0)
(-0.00245342979599 0.406423375182 0)
(-0.00211188155495 0.407105798295 0)
(-0.00178663475 0.407049603131 0)
(-0.00146782685279 0.406294972949 0)
(-0.00116620193685 0.404881122651 0)
(-0.000871433883692 0.402847716129 0)
(-0.000594466465976 0.400233610095 0)
(-0.000324623833969 0.397077615575 0)
(-7.28208657865e-05 0.393417472327 0)
(0.000171850649558 0.389290192309 0)
(0.000398577858696 0.384731732789 0)
(0.000618379838669 0.379776759771 0)
(0.000820610248411 0.374458952194 0)
(0.00101627734657 0.368810214036 0)
(0.00119497381021 0.362861567203 0)
(0.00136760681811 0.356641930133 0)
(0.00152404693567 0.350179464632 0)
(0.00167500562991 0.343499969886 0)
(0.00181067506386 0.336628637456 0)
(0.00194150591014 0.329588171819 0)
(0.00205802583456 0.322400832293 0)
(0.0021703557332 0.315086316313 0)
(0.00226938060557 0.307664057923 0)
(0.00236484923879 0.300150958939 0)
(0.00244800371056 0.292563848399 0)
(0.00252817500866 0.28491707501 0)
(0.00259697497182 0.277225116136 0)
(0.00266329524484 0.269500088143 0)
(0.002719115966 0.261754433469 0)
(0.0027728653102 0.253998343342 0)
(0.0028169063886 0.246242525675 0)
(0.0028592008696 0.238495576404 0)
(0.00289250004142 0.230766775196 0)
(0.0029242929426 0.223063391533 0)
(0.00294773938565 0.215393519415 0)
(0.00296986592677 0.207763344948 0)
(0.00298425221247 0.200179980573 0)
(0.00299746713831 0.192648681685 0)
(0.00300353201385 0.185175695769 0)
(0.00300857310228 0.177765452963 0)
(0.00300706414615 0.170423400646 0)
(0.00300469581389 0.163153161726 0)
(0.00299640996893 0.1559593712 0)
(0.00298747347907 0.148844827306 0)
(0.00297329938997 0.14181330789 0)
(0.00295873334902 0.134866713691 0)
(0.00293966376186 0.128007880135 0)
(0.00292051899438 0.121237735122 0)
(0.00289765529461 0.11455809018 0)
(0.00287507930426 0.107968813035 0)
(0.00284960749615 0.101470613024 0)
(0.00282481974409 0.0950622434766 0)
(0.00279797596524 0.0887432729977 0)
(0.00277221600773 0.0825113155967 0)
(0.00274522339665 0.0763648063518 0)
(0.00271967546775 0.0703002720383 0)
(0.00269363814259 0.0643151213036 0)
(0.0026692650128 0.0584049940902 0)
(0.00264488175565 0.0525666431259 0)
(0.0026218735388 0.0467955510064 0)
(0.00259825461632 0.0410892303375 0)
(0.00257329895085 0.0354460989214 0)
(0.00254126372691 0.0298714906746 0)
(0.00249075594706 0.0243848954619 0)
(0.0023731989373 0.0190903258967 0)
(0.00211220568035 0.0134946916565 0)
(0.00262194428054 0.00926257061733 0)
(0.00438298530683 0.00438558068082 0)
(-0.0340391165219 0.0112020585517 0)
(-0.0376343295765 0.037956954844 0)
(-0.0375592817182 0.0646466680856 -4.20289866357e-27)
(-0.0370684962719 0.0913814530049 0)
(-0.0363862348805 0.117654118261 0)
(-0.035536698704 0.143383169886 0)
(-0.0345369097812 0.16846259746 0)
(-0.0333974627251 0.192793058604 0)
(-0.0321360402683 0.216283120446 0)
(-0.0307633864359 0.238851985897 0)
(-0.0292989873105 0.260428241206 0)
(-0.0277530350242 0.280951872289 0)
(-0.0261459407294 0.300372364545 0)
(-0.0244862483825 0.318650442755 0)
(-0.022794419288 0.335755682118 0)
(-0.0210764611903 0.351668078497 0)
(-0.0193522903159 0.366375326203 0)
(-0.0176248410542 0.379874303151 0)
(-0.0159131792177 0.39216818076 0)
(-0.0142169544458 0.403267881426 0)
(-0.0125543402507 0.41318917382 0)
(-0.0109217786258 0.421954129466 0)
(-0.00933665950096 0.429588339379 0)
(-0.0077924627014 0.436122354595 0)
(-0.00630597832273 0.441589115388 0)
(-0.00486806967587 0.446025326197 0)
(-0.00349507454572 0.449469165721 0)
(-0.00217558680719 0.451961529119 0)
(-0.000925593572545 0.453544048299 0)
(0.000268226886251 0.45426013086 0)
(0.00139020031612 0.454153333178 0)
(0.0024552421826 0.45326806185 0)
(0.00344807436465 0.451648427049 0)
(0.0043849266158 0.449339054793 0)
(0.00525080656748 0.446383677427 0)
(0.00606285900976 0.442825603171 0)
(0.00680648919769 0.438707146442 0)
(0.00749948788156 0.434069656256 0)
(0.00812766520301 0.428953302063 0)
(0.00870916918245 0.423396867249 0)
(0.00923021688325 0.417437830759 0)
(0.00970904462884 0.411111959187 0)
(0.0101322883485 0.404453657175 0)
(0.0105180524298 0.397495396524 0)
(0.0108533811995 0.390268283278 0)
(0.0111560456093 0.382801353192 0)
(0.0114134941285 0.375122325921 0)
(0.0116430081624 0.367256802137 0)
(0.0118324165753 0.359229158462 0)
(0.0119983713961 0.351061667925 0)
(0.0121290689925 0.34277551373 0)
(0.0122404333417 0.334389857141 0)
(0.0123210062348 0.32592293332 0)
(0.012385900981 0.317391075861 0)
(0.0124240031527 0.308809880535 0)
(0.0124495721534 0.300193197997 0)
(0.012451837974 0.291554336836 0)
(0.0124441793689 0.28290502336 0)
(0.0124161977933 0.274256635709 0)
(0.0123803998036 0.265619134534 0)
(0.0123267915023 0.257002306452 0)
(0.0122670275501 0.248414660688 0)
(0.0121915742393 0.239864678891 0)
(0.0121112791224 0.2313596807 0)
(0.0120171239341 0.22290706493 0)
(0.0119191948846 0.214513141415 0)
(0.0118090541339 0.206184365793 0)
(0.011696081712 0.197926144217 0)
(0.0115724731304 0.18974405315 0)
(0.0114469460684 0.181642619128 0)
(0.0113123781146 0.173626529897 0)
(0.0111768646984 0.165699399947 0)
(0.0110339931077 0.157864968876 0)
(0.0108912579012 0.15012585823 0)
(0.0107429716881 0.142484765225 0)
(0.0105960395822 0.134943222496 0)
(0.0104454928794 0.127502785374 0)
(0.0102976397345 0.120163799451 0)
(0.0101482113464 0.112926589707 0)
(0.0100029005619 0.105790244745 0)
(0.0098581008512 0.0987538074245 0)
(0.00971885171032 0.0918150774064 0)
(0.00958215407222 0.0849718125239 0)
(0.00945232760082 0.0782205573312 0)
(0.00932687356255 0.0715578593486 0)
(0.00920923039049 0.0649791369029 0)
(0.00909710365186 0.0584799286114 0)
(0.00899250075311 0.0520548228876 0)
(0.00889216268256 0.0456986557959 0)
(0.00879419700993 0.0394052598027 0)
(0.00868869169624 0.0331676997906 0)
(0.00855655351606 0.0269729185054 0)
(0.0083477867764 0.0207968520015 0)
(0.00791215344371 0.0143992763333 0)
(0.00784713094346 0.00783415130467 0)
(0.00924260719783 0.00261513982291 0)
(-0.0582695419865 0.0113477015624 0)
(-0.0645213123273 0.0385698819747 0)
(-0.0643226797313 0.0655876895336 -4.20668039076e-27)
(-0.0634724118246 0.0927030997921 0)
(-0.0623179952884 0.119345993221 0)
(-0.0608919116715 0.145429374514 0)
(-0.0592150325696 0.170843733291 0)
(-0.0573073393462 0.195487246802 0)
(-0.0551934226011 0.21926710924 0)
(-0.0528959202379 0.242101051896 0)
(-0.0504417334577 0.263917227286 0)
(-0.0478539419433 0.284654996232 0)
(-0.0451597417908 0.304264261098 0)
(-0.042380757516 0.322705842069 0)
(-0.0395428762424 0.339950399114 0)
(-0.0366648676137 0.355978545384 0)
(-0.0337702412528 0.37077950221 0)
(-0.0308740830155 0.384351064884 0)
(-0.0279969993909 0.396698143497 0)
(-0.0251500998572 0.407832691051 0)
(-0.0223510275668 0.417772245628 0)
(-0.0196070467894 0.426539884698 0)
(-0.0169330890515 0.43416287286 0)
(-0.0143329589253 0.440672680722 0)
(-0.0118192696299 0.446103774296 0)
(-0.0093928402056 0.450493679096 0)
(-0.0070643471247 0.453881938152 0)
(-0.00483206692844 0.456310195564 0)
(-0.0027050432982 0.457821300242 0)
(-0.000679387354386 0.45845936315 0)
(0.00123727946139 0.458269014062 0)
(0.00305068602307 0.457295433263 0)
(0.00475440298436 0.455583730165 0)
(0.00635564944377 0.453178947981 0)
(0.00784911003006 0.450125591215 0)
(0.00924325413328 0.446467535429 0)
(0.0105336534422 0.442247717132 0)
(0.011729689876 0.437508013118 0)
(0.0128276758871 0.432289068678 0)
(0.0138376268932 0.426630144878 0)
(0.0147564394044 0.420569059684 0)
(0.0155945003574 0.414142000987 0)
(0.016349147061 0.407383584685 0)
(0.017030906456 0.400326649528 0)
(0.0176374196862 0.393002400035 0)
(0.0181791460804 0.385440180889 0)
(0.0186539079306 0.377667708137 0)
(0.0190719187615 0.369710837781 0)
(0.0194310666432 0.361593856025 0)
(0.0197411643539 0.353339238571 0)
(0.020000068988 0.344968003922 0)
(0.0202170694606 0.336499473473 0)
(0.0203899119919 0.327951660911 0)
(0.0205272682316 0.319341025558 0)
(0.0206267241357 0.310682900729 0)
(0.0206962801408 0.301991244411 0)
(0.0207333415043 0.293279081115 0)
(0.0207452195807 0.284558238651 0)
(0.0207291562697 0.27583980561 0)
(0.0206917963493 0.267133854834 0)
(0.0206302655457 0.258449894168 0)
(0.0205505950155 0.249796565715 0)
(0.0204498712223 0.241182093733 0)
(0.0203335914487 0.232613961272 0)
(0.0201988945402 0.224099338687 0)
(0.0200508348275 0.215644731276 0)
(0.0198867035406 0.207256396134 0)
(0.0197112063537 0.198939966475 0)
(0.0195218784659 0.190700847323 0)
(0.0193231590693 0.182543816121 0)
(0.0191129045251 0.174473408672 0)
(0.0188953521978 0.166493505549 0)
(0.0186687306084 0.158607704218 0)
(0.0184371129791 0.150818894871 0)
(0.0181991246575 0.143129631334 0)
(0.017958686458 0.135541706333 0)
(0.0177148149449 0.128056519498 0)
(0.0174712620264 0.120674656178 0)
(0.0172274049525 0.113396263288 0)
(0.0169867869554 0.106220638849 0)
(0.0167490898182 0.0991466139099 0)
(0.0165175822547 0.0921721540755 0)
(0.0162921678249 0.0852947538259 0)
(0.0160757394308 0.0785110517642 0)
(0.0158682849291 0.0718172297109 0)
(0.0156721318657 0.0652086323812 0)
(0.0154870619909 0.0586801499508 0)
(0.015314379682 0.0522257626776 0)
(0.0151528935187 0.0458386995388 0)
(0.0150016677689 0.0395104197658 0)
(0.0148566817187 0.0332292821719 0)
(0.0147126945293 0.0269757290826 0)
(0.014563459673 0.020714873911 0)
(0.0144058038069 0.0143381581716 0)
(0.014391660089 0.00785509162096 0)
(0.0134509864776 0.00209872910518 0)
(-0.0830558215739 0.0114732219864 0)
(-0.0920392228833 0.0391379687255 0)
(-0.0917471347953 0.06649325581 4.20472379973e-27)
(-0.0905196838346 0.0939679891879 0)
(-0.0888553782609 0.120955112204 0)
(-0.0868030861807 0.147362692898 0)
(-0.0843914862127 0.173077129848 0)
(-0.0816507691971 0.197993616857 0)
(-0.0786147786656 0.222017439041 0)
(-0.0753181515459 0.245064985223 0)
(-0.0717976943054 0.267063959617 0)
(-0.0680891008848 0.287953676341 0)
(-0.0642290260669 0.307684760577 0)
(-0.0602514295996 0.326218993486 0)
(-0.0561904261363 0.343528611496 0)
(-0.0520762455747 0.359595852881 0)
(-0.047938909099 0.374412013372 0)
(-0.0438037703587 0.387976843041 0)
(-0.0396960214151 0.400297502975 0)
(-0.0356357710604 0.41138793527 0)
(-0.0316433464496 0.42126784523 0)
(-0.0277338482062 0.429962142006 0)
(-0.0239231705218 0.437500028616 0)
(-0.0202219878872 0.443914553717 0)
(-0.0166424020048 0.449241840979 0)
(-0.0131913348601 0.453520749903 0)
(-0.00987770947728 0.456792231962 0)
(-0.00670528369654 0.459099060473 0)
(-0.00368029472739 0.460485284537 0)
(-0.000803801376059 0.460995995783 0)
(0.0019202774909 0.460676847109 0)
(0.00449319462659 0.459573884832 0)
(0.00691298680155 0.457733085252 0)
(0.00918285261011 0.455200186139 0)
(0.0113025494862 0.452020405208 0)
(0.0132768945335 0.448238200979 0)
(0.0151070067177 0.443897056616 0)
(0.016798945222 0.439039317027 0)
(0.0183548942554 0.433706029527 0)
(0.0197818214926 0.427936802839 0)
(0.021082687314 0.421769716328 0)
(0.0222650561706 0.415241201584 0)
(0.0233324051712 0.408386014003 0)
(0.0242926173814 0.40123713424 0)
(0.0251494455179 0.393825791726 0)
(0.0259108394609 0.386181387957 0)
(0.0265806155475 0.378331567227 0)
(0.0271665697999 0.370302159823 0)
(0.0276723878402 0.362117291657 0)
(0.0281055173717 0.353799348217 0)
(0.0284693517877 0.345369119205 0)
(0.028770832862 0.336845779207 0)
(0.029012929485 0.328247058279 0)
(0.0292019585777 0.319589236265 0)
(0.0293403804025 0.310887333474 0)
(0.0294338195256 0.302155110744 0)
(0.0294841887408 0.293405269134 0)
(0.0294964037757 0.284649448941 0)
(0.0294718484698 0.275898431222 0)
(0.0294147685239 0.267162126485 0)
(0.0293260827813 0.258449767292 0)
(0.0292094501528 0.249769880188 0)
(0.0290654330276 0.241130464354 0)
(0.0288972233192 0.232538940589 0)
(0.0287051581018 0.224002309427 0)
(0.028492098744 0.215527075151 0)
(0.0282583008881 0.207119383534 0)
(0.0280064343412 0.198784920751 0)
(0.0277368055788 0.190529030149 0)
(0.027452014311 0.182356589632 0)
(0.0271525293897 0.174272113003 0)
(0.0268409739435 0.166279611112 0)
(0.0265180531903 0.15838268151 0)
(0.026186468063 0.150584360295 0)
(0.0258471960978 0.142887208001 0)
(0.025503030761 0.135293159168 0)
(0.0251552148386 0.127803609012 0)
(0.0248066091167 0.120419266892 0)
(0.0244586794826 0.113140250429 0)
(0.0241142954654 0.105965947845 0)
(0.0237750701851 0.0988951210314 0)
(0.0234437922999 0.0919257783933 0)
(0.0231221175883 0.0850552877576 0)
(0.0228126318141 0.0782802571739 0)
(0.0225168876593 0.0715966475604 0)
(0.0222370934779 0.0649996438486 0)
(0.021974483951 0.058483735509 0)
(0.0217306329362 0.0520425081599 0)
(0.0215061795598 0.0456685349944 0)
(0.0213019301488 0.0393528032845 0)
(0.0211184140551 0.0330840939646 0)
(0.0209581146931 0.0268473153589 0)
(0.0208296809388 0.0206228392629 0)
(0.020753647609 0.0143774063343 0)
(0.0207269577008 0.00821872148106 0)
(0.0189741360376 0.00234288239928 0)
(-0.108232834474 0.011634007905 0)
(-0.119954082922 0.039881383005 0)
(-0.119562884521 0.0677035301879 0)
(-0.117943834612 0.095659570766 0)
(-0.115749274092 0.123105073107 0)
(-0.113045181393 0.149942850914 0)
(-0.109869794754 0.176054273805 0)
(-0.106264009167 0.201330697629 0)
(-0.102272515406 0.22567473982 0)
(-0.097942057062 0.249001127577 0)
(-0.0933209411812 0.271236924323 0)
(-0.0884572315519 0.292321612432 0)
(-0.0833986416604 0.312206803848 0)
(-0.0781908255407 0.330855837091 0)
(-0.0728777223683 0.348243086542 0)
(-0.0674999635566 0.364353246516 0)
(-0.062095686863 0.379180408467 0)
(-0.0566990443437 0.392727193337 0)
(-0.0513414670448 0.405003757866 0)
(-0.046050226891 0.416026923563 0)
(-0.0408500898656 0.425819244312 0)
(-0.0357618546168 0.434408239179 0)
(-0.0308042989249 0.441825610379 0)
(-0.0259926034744 0.448106632951 0)
(-0.021340485349 0.453289539197 0)
(-0.0168584364485 0.457415047287 0)
(-0.0125559701669 0.4605258794 0)
(-0.00843965780342 0.462666380641 0)
(-0.00451546016254 0.46388211444 0)
(-0.000786593567484 0.464219525212 0)
(0.00274405195636 0.463725559383 0)
(0.00607615927954 0.4624474425 0)
(0.0092094506787 0.460432235015 0)
(0.0121460786195 0.457726667487 0)
(0.0148880286922 0.454376868581 0)
(0.0174394942983 0.45042808978 0)
(0.019804255706 0.445924523054 0)
(0.0219880979144 0.440909125102 0)
(0.0239961753378 0.435423462464 0)
(0.0258354446384 0.429507586467 0)
(0.0275120405663 0.423199923804 0)
(0.0290337065254 0.416537192426 0)
(0.0304072010504 0.409554337854 0)
(0.0316407069427 0.402284486901 0)
(0.0327412846094 0.394758920864 0)
(0.0337172448246 0.387007059524 0)
(0.0345756614609 0.379056473954 0)
(0.0353246940053 0.370932899848 0)
(0.0359711716503 0.362660282893 0)
(0.0365228577944 0.354260815905 0)
(0.0369861158704 0.345755018219 0)
(0.0373681093199 0.337161795012 0)
(0.0376745593719 0.32849854093 0)
(0.0379118782405 0.31978121396 0)
(0.0380850270559 0.311024459997 0)
(0.0381995787723 0.302241695943 0)
(0.0382596829033 0.293445241647 0)
(0.0382700559938 0.284646401561 0)
(0.0382340566921 0.275855597769 0)
(0.0381555984528 0.267082443016 0)
(0.0380373362067 0.258335861335 0)
(0.0378824960862 0.249624142662 0)
(0.0376931722035 0.240955046787 0)
(0.0374720651703 0.232335835203 0)
(0.0372208859779 0.223773349877 0)
(0.0369419960847 0.215274017946 0)
(0.0366369142353 0.206843906744 0)
(0.0363078494292 0.198488703154 0)
(0.0359563067767 0.190213743608 0)
(0.0355845073375 0.182023970308 0)
(0.0351940897271 0.173923943684 0)
(0.0347874111872 0.165917782597 0)
(0.0343663432003 0.158009163195 0)
(0.0339334517735 0.150201249461 0)
(0.0334908868705 0.142496688257 0)
(0.033041440862 0.134897538542 0)
(0.0325875329811 0.12740526741 0)
(0.0321321478604 0.120020683778 0)
(0.0316779172595 0.112743943035 0)
(0.0312279404463 0.105574490399 0)
(0.0307849655045 0.098511075325 0)
(0.0303520945195 0.091551705527 0)
(0.0299320666626 0.0846936714987 0)
(0.0295278496008 0.0779335076748 0)
(0.0291420263756 0.0712670170013 0)
(0.0287772784715 0.0646892247212 0)
(0.0284358878914 0.0581943848435 0)
(0.0281201428649 0.0517758804076 0)
(0.0278320351494 0.0454261714481 0)
(0.027573776022 0.0391366075528 0)
(0.0273480808241 0.0328972431517 0)
(0.0271595665593 0.0266969783264 0)
(0.0270166221905 0.0205249404409 0)
(0.0269274706842 0.0143672932585 0)
(0.0267843292864 0.00833152641945 0)
(0.0241481071918 0.00243812066473 0)
(-0.133937487261 0.0118342605933 0)
(-0.148437823479 0.0408274970285 0)
(-0.147935857853 0.0692526970186 0)
(-0.145902962953 0.097826344974 0)
(-0.143148717611 0.125858135063 0)
(-0.139757123866 0.153244644671 0)
(-0.13577742135 0.179861159422 0)
(-0.131262286467 0.205594303432 0)
(-0.126268737366 0.230343380808 0)
(-0.120856516241 0.254021145571 0)
(-0.115086785397 0.276553969266 0)
(-0.109020576474 0.297881746819 0)
(-0.102717826924 0.317957501786 0)
(-0.0962361352372 0.336746779369 0)
(-0.0896302142949 0.354226831032 0)
(-0.0829509814281 0.370385690757 0)
(-0.0762454381337 0.385221130767 0)
(-0.0695560777166 0.398739606633 0)
(-0.0629211587413 0.410955160589 0)
(-0.0563743741629 0.421888401728 0)
(-0.0499454401169 0.431565511897 0)
(-0.0436599200943 0.440017391924 0)
(-0.0375400018521 0.447278866818 0)
(-0.0316043410886 0.453388049732 0)
(-0.0258688913699 0.458385756948 0)
(-0.0203466527699 0.462315055085 0)
(-0.0150484698052 0.465220819442 0)
(-0.00998264871214 0.467149378725 0)
(-0.00515571888783 0.468148139391 0)
(-0.000571949266066 0.468265264897 0)
(0.00376589051824 0.467549291571 0)
(0.00785706163154 0.46604895338 0)
(0.0117020116033 0.46381264036 0)
(0.0153030321007 0.460888359251 0)
(0.0186633682519 0.457323365309 0)
(0.0217877919338 0.453163911911 0)
(0.0246817554523 0.448455073768 0)
(0.0273519713292 0.443240570387 0)
(0.0298055682356 0.437562620671 0)
(0.0320506812771 0.431461814141 0)
(0.0340956224338 0.424977016825 0)
(0.0359494778282 0.418145284645 0)
(0.0376213008767 0.411001812332 0)
(0.0391207077541 0.403579883075 0)
(0.0404570954985 0.395910854286 0)
(0.041640231828 0.388024141605 0)
(0.0426795006126 0.379947238118 0)
(0.0435844812145 0.371705730191 0)
(0.0443642223448 0.36332334776 0)
(0.0450278129377 0.354822011364 0)
(0.0455836886508 0.346221910893 0)
(0.0460401951178 0.33754157957 0)
(0.0464049309245 0.328797996422 0)
(0.0466853084084 0.320006682034 0)
(0.0468879386732 0.311181817706 0)
(0.0470191910186 0.302336353481 0)
(0.047084622847 0.293482134256 0)
(0.0470895398212 0.284630010285 0)
(0.0470384725448 0.275789959787 0)
(0.0469357337148 0.266971190314 0)
(0.046784939421 0.258182247353 0)
(0.0465895595238 0.249431097334 0)
(0.0463524799912 0.24072521412 0)
(0.0460765378924 0.232071636088 0)
(0.045764118056 0.223477024686 0)
(0.0454176652561 0.214947692514 0)
(0.0450393088666 0.206489632999 0)
(0.0446313422451 0.198108519174 0)
(0.0441958684156 0.189809706455 0)
(0.0437352401835 0.18159820662 0)
(0.0432517220086 0.173478669658 0)
(0.0427478844252 0.165455339548 0)
(0.0422262788561 0.157532022521 0)
(0.0416897844946 0.149712033334 0)
(0.0411412958279 0.141998158806 0)
(0.0405840210837 0.134392602833 0)
(0.0400211839051 0.126896952736 0)
(0.0394562762617 0.119512130432 0)
(0.0388927777487 0.11223836803 0)
(0.0383343656702 0.105075170048 0)
(0.0377846558709 0.098021300989 0)
(0.0372473748702 0.0910747603036 0)
(0.0367261269199 0.0842327811985 0)
(0.0362245327951 0.0774918154744 0)
(0.0357460300066 0.0708475376993 0)
(0.0352939896076 0.0642948316034 0)
(0.0348715688488 0.0578277932199 0)
(0.0344818420889 0.0514397178639 0)
(0.034127772736 0.0451231013817 0)
(0.033812485423 0.0388696564369 0)
(0.033539547605 0.0326705940579 0)
(0.0333135451299 0.026516944682 0)
(0.0331403091179 0.0204005735939 0)
(0.0330182392798 0.0143107454431 0)
(0.0327852016287 0.00834366257847 0)
(0.0294452580623 0.002461401747 0)
(-0.160300041861 0.0120790256595 0)
(-0.177639300205 0.0419935084516 0)
(-0.17701014693 0.0711641074176 4.22851852398e-27)
(-0.174533547644 0.100499890685 0)
(-0.17118092268 0.129253468001 0)
(-0.167055617604 0.157313738789 0)
(-0.162219427386 0.18454858649 0)
(-0.156738321609 0.21083896791 0)
(-0.150683295824 0.236080271643 0)
(-0.144128478167 0.260183058776 0)
(-0.13714933397 0.283073088048 0)
(-0.129820930147 0.304691051383 0)
(-0.122216554529 0.324991979682 0)
(-0.114406425506 0.343944423743 0)
(-0.106456802903 0.361529429653 0)
(-0.0984291661566 0.377739396513 0)
(-0.0903798133988 0.392576836266 0)
(-0.0823594877461 0.406053111746 0)
(-0.0744134244946 0.418187181222 0)
(-0.0665813605148 0.429004411289 0)
(-0.0588979296089 0.438535489052 0)
(-0.0513929209774 0.446815466176 0)
(-0.0440918523 0.453882957102 0)
(-0.0370162880179 0.459779475313 0)
(-0.0301843989172 0.464548912699 0)
(-0.0236111811024 0.46823710002 0)
(-0.0173088913098 0.470891456369 0)
(-0.0112871213109 0.47256064453 0)
(-0.00555312096154 0.473294267204 0)
(-0.000111786206769 0.473142528513 0)
(0.00503405520333 0.472155880082 0)
(0.00988367811276 0.470384872352 0)
(0.0144380711372 0.467879495974 0)
(0.0187001155203 0.464689300412 0)
(0.0226741400566 0.460862894041 0)
(0.0263659480115 0.456447734887 0)
(0.0297824815049 0.451489954818 0)
(0.0329318298851 0.446034186307 0)
(0.0358229003931 0.440123417698 0)
(0.0384654446267 0.433798883069 0)
(0.0408697428654 0.427099959409 0)
(0.0430466498522 0.420064105676 0)
(0.0450072931152 0.412726796839 0)
(0.0467631341363 0.40512150301 0)
(0.0483256793163 0.397279656579 0)
(0.0497065518403 0.389230663979 0)
(0.0509172138739 0.381001907623 0)
(0.0519690460522 0.372618787978 0)
(0.0528730826453 0.364104760156 0)
(0.0536400993143 0.355481403999 0)
(0.054280365328 0.346768495497 0)
(0.0548037429692 0.337984102965 0)
(0.0552194633477 0.329144687802 0)
(0.0555362425898 0.320265220819 0)
(0.0557620872858 0.311359305041 0)
(0.0559044315535 0.302439304035 0)
(0.0559699766486 0.293516474247 0)
(0.0559648507929 0.284601093726 0)
(0.0558944836611 0.275702591877 0)
(0.0557637870085 0.266829667336 0)
(0.0555770613783 0.257990401584 0)
(0.0553381923483 0.249192354923 0)
(0.0550505828358 0.24044265446 0)
(0.0547173565947 0.231748060983 0)
(0.0543413075785 0.22311502434 0)
(0.0539251007554 0.214549716496 0)
(0.0534712287041 0.206058053596 0)
(0.0529821994651 0.197645696377 0)
(0.0524604911389 0.189318040774 0)
(0.0519087183188 0.181080190595 0)
(0.0513295773061 0.172936924029 0)
(0.0507259847937 0.164892646969 0)
(0.0501010096735 0.156951344158 0)
(0.0494579813076 0.149116522654 0)
(0.0488004070235 0.141391158252 0)
(0.0481320504222 0.133777639079 0)
(0.0474568367295 0.126277715822 0)
(0.0467789044911 0.118892453259 0)
(0.0461025032116 0.111622191968 0)
(0.0454320231875 0.104466513363 0)
(0.0447718910122 0.0974242159428 0)
(0.0441265836863 0.090493295744 0)
(0.0435005286945 0.0836709373802 0)
(0.0428981095417 0.0769535084316 0)
(0.0423235795565 0.0703365620093 0)
(0.0417810714449 0.0638148430176 0)
(0.0412745428029 0.0573823086788 0)
(0.0408078161727 0.0510321480969 0)
(0.0403845988963 0.0447568713231 0)
(0.040008602241 0.0385484338188 0)
(0.0396836719074 0.0323983831883 0)
(0.0394139419753 0.0262984308188 0)
(0.0392031878488 0.0202411628999 0)
(0.0390438829934 0.0142141833933 0)
(0.0387367109059 0.00830398493868 0)
(0.0347478209968 0.00246016746348 0)
(-0.187462478202 0.0123722471432 0)
(-0.207715732752 0.043398307316 0)
(-0.206938598473 0.073466441408 -4.22626479819e-27)
(-0.203980358112 0.103718998769 0)
(-0.199980338419 0.133338801484 0)
(-0.195063169623 0.162205270942 0)
(-0.189305150247 0.190177404817 0)
(-0.182787540969 0.217129485778 0)
(-0.175597305541 0.242952462501 0)
(-0.167824788697 0.267554591245 0)
(-0.159561443482 0.290861284547 0)
(-0.150897797237 0.312814594692 0)
(-0.141921727445 0.333372375071 0)
(-0.132717020055 0.352507182955 0)
(-0.123362247788 0.3702049965 0)
(-0.113929920527 0.386463803072 0)
(-0.104485947364 0.401292106795 0)
(-0.0950893510372 0.414707425003 0)
(-0.0857922725133 0.426734807839 0)
(-0.0766401808025 0.437405469479 0)
(-0.0676723073791 0.446755544252 0)
(-0.058922180869 0.454825054484 0)
(-0.0504182653975 0.461657055453 0)
(-0.0421845550506 0.467297012405 0)
(-0.0342411488942 0.471792314798 0)
(-0.0266046751132 0.47519194754 0)
(-0.0192886546693 0.477546193894 0)
(-0.0123037042372 0.478906392477 0)
(-0.00565773595594 0.47932464785 0)
(0.000643955055983 0.478853544968 0)
(0.00659851728556 0.477545754198 0)
(0.0122054868146 0.475453981694 0)
(0.0174664462791 0.472630071948 0)
(0.0223851349939 0.469125403639 0)
(0.0269670235735 0.464990159239 0)
(0.0312192250826 0.460273205022 0)
(0.0351502243477 0.455021900988 0)
(0.0387697547436 0.449281930986 0)
(0.042088543174 0.443097175289 0)
(0.0451182051933 0.436509595727 0)
(0.0478710171406 0.429559160676 0)
(0.0503598274686 0.42228377265 0)
(0.0525978566706 0.414719232474 0)
(0.0545986178122 0.406899201705 0)
(0.0563757389362 0.39885519897 0)
(0.0579428883274 0.390616595325 0)
(0.0593136141273 0.382210640986 0)
(0.0605012731995 0.373662494242 0)
(0.0615188851622 0.364995279888 0)
(0.0623790697266 0.356230153438 0)
(0.0630939175585 0.347386391389 0)
(0.0636749435984 0.338481488935 0)
(0.0641329803217 0.329531279054 0)
(0.0644781564955 0.320550058063 0)
(0.0647198199181 0.31155072547 0)
(0.0648665483752 0.30254492635 0)
(0.0649261065724 0.293543199995 0)
(0.0649054928873 0.28455512548 0)
(0.0648109317072 0.275589464934 0)
(0.0646479538394 0.26665429723 0)
(0.0644214204836 0.257757141986 0)
(0.0641356309522 0.248905068403 0)
(0.0637943705985 0.240104788883 0)
(0.0634010352135 0.231362733138 0)
(0.0629586918013 0.222685104222 0)
(0.0624702074409 0.214077913615 0)
(0.0619383108727 0.205546998011 0)
(0.061365712784 0.19709801623 0)
(0.0607551565746 0.188736430324 0)
(0.0601095193983 0.180467470407 0)
(0.0594318433772 0.172296088651 0)
(0.0587254094833 0.1642269016 0)
(0.057993744125 0.156264128182 0)
(0.0572406629434 0.148411521541 0)
(0.0564702520155 0.140672302613 0)
(0.0556868824962 0.133049093118 0)
(0.0548951694406 0.12554385522 0)
(0.0540999618821 0.118157834968 0)
(0.0533062851386 0.110891516082 0)
(0.0525193126871 0.103744580019 0)
(0.0517442990707 0.0967158778365 0)
(0.0509865415659 0.0898034097338 0)
(0.0502513119082 0.0830043152905 0)
(0.0495438163209 0.0763148720343 0)
(0.04886913584 0.0697305035812 0)
(0.0482321961798 0.0632457978076 0)
(0.0476377304029 0.0568545405159 0)
(0.0470902745958 0.0505497765952 0)
(0.0465941680905 0.0443238905737 0)
(0.0461535876986 0.0381687351379 0)
(0.0457725634181 0.0320759819689 0)
(0.045454881658 0.0260372394464 0)
(0.0452032215352 0.0200440967004 0)
(0.0450067892951 0.0140826997718 0)
(0.0446345900061 0.0082328753108 0)
(0.0400203571638 0.00244689158394 0)
(-0.215580013914 0.0127182277891 0)
(-0.238837018734 0.0450647210767 0)
(-0.237885922681 0.0761954352658 0)
(-0.234398758549 0.107532168473 0)
(-0.229690407662 0.138173590466 0)
(-0.223909405721 0.167987607003 0)
(-0.217149102883 0.196822667493 0)
(-0.209508605229 0.224545383443 0)
(-0.201093328183 0.251041826351 0)
(-0.192012094901 0.276218032344 0)
(-0.182374380567 0.29999955071 0)
(-0.172287888089 0.322330622328 0)
(-0.16185653689 0.34317299497 0)
(-0.151178796786 0.36250450349 0)
(-0.140346417651 0.380317454276 0)
(-0.129443473637 0.396616899598 0)
(-0.118545787687 0.411418833148 0)
(-0.107720656277 0.424748384869 0)
(-0.0970269386067 0.436638069184 0)
(-0.0865154068095 0.447126166981 0)
(-0.0762293804448 0.456255311969 0)
(-0.0662054980751 0.464071330001 0)
(-0.0564745953979 0.470622376839 0)
(-0.0470625275613 0.475958337441 0)
(-0.0379909005632 0.48013047538 0)
(-0.0292776129301 0.483191204575 0)
(-0.0209372311431 0.485193959908 0)
(-0.012981204946 0.48619301654 0)
(-0.00541799026585 0.486243301379 0)
(0.00174686619252 0.485400078253 0)
(0.0085105926976 0.483718581635 0)
(0.0148731763459 0.481253998091 0)
(0.0208369817398 0.47806032502 0)
(0.0264067848257 0.474191033409 0)
(0.0315893967885 0.469698119447 0)
(0.0363934489569 0.464632055423 0)
(0.0408291581568 0.459041592727 0)
(0.0449080963699 0.452973605014 0)
(0.0486429750228 0.446472961897 0)
(0.0520474490503 0.439582446029 0)
(0.0551359281119 0.432342666427 0)
(0.0579234141506 0.424792025448 0)
(0.0604253339928 0.416966661961 0)
(0.0626574010872 0.408900453049 0)
(0.0646354614954 0.400624985767 0)
(0.0663753701079 0.392169586224 0)
(0.0678928444466 0.383561325052 0)
(0.0692033502528 0.374825073973 0)
(0.0703219633276 0.365983550746 0)
(0.0712632662639 0.357057406203 0)