/*--------------------------------*- C++ -*----------------------------------*\
| =========                 |                                                 |
| \\      /  F ield         | OpenFOAM: The Open Source CFD Toolbox           |
|  \\    /   O peration     | Version:  v1906                                 |
|   \\  /    A nd           | Web:      www.OpenFOAM.com                      |
|    \\/     M anipulation  |                                                 |
\*---------------------------------------------------------------------------*/
FoamFile
{
    version     2.0;
    format      ascii;
    class       volScalarField;
    location    "636";
    object      pa;
}
// * * * * * * * * * * * * * * * * * * * * * * * * * * * * * * * * * * * * * //

dimensions      [0 2 -2 0 0 0 0];


internalField   nonuniform List<scalar> 
9216
(
915.25742789
914.951969032
914.320045917
913.356171319
912.065749905
910.454845709
908.530996898
906.303117149
903.781331255
900.976877589
897.90193653
894.569534698
890.99336407
887.187694225
883.167191383
878.946846793
874.541803351
869.967305723
865.238539351
860.370604816
855.378371171
850.276474467
845.079185172
839.800428872
834.453666161
829.051932646
823.60772925
818.133078448
812.639423013
807.137695707
801.638224629
796.150815818
790.684664311
785.248441887
779.850214428
774.497539844
769.197388142
763.956244098
758.780030984
753.674217249
748.643743109
743.693129795
738.826408582
734.047231265
729.35880123
724.763983979
720.265239937
715.86473389
711.564269196
707.365395138
703.269342306
699.277126909
695.389487095
691.606983461
687.929936221
684.358521238
680.892708032
677.532350909
674.277127959
671.126626996
668.080285808
665.137472852
662.297429152
659.559343808
656.922298001
654.385335511
651.947409349
649.607447508
647.364302704
645.21681362
643.163758205
641.20391062
639.335998423
637.55875539
635.870882841
634.271098398
632.758101574
631.330618483
629.987371728
628.727120977
627.548637081
626.450738396
625.432268997
624.492130548
623.6292644
622.842678717
622.131434092
621.4946653
620.931569293
620.441419257
620.023549395
619.677349197
619.402211611
619.197376888
619.060041545
619.00304229
915.561866509
915.254679139
914.621108927
913.652877299
912.356252519
910.737579786
908.804569896
906.56627521
904.032967095
901.216021884
898.127772276
894.781384202
891.190700867
887.370123359
883.334458921
879.098814624
874.678457721
870.088728283
865.344916155
860.462195219
855.455518488
850.339573945
845.128697013
839.836846057
834.477530099
829.063801206
823.608194907
818.122736611
812.618892438
807.107587244
801.599164282
796.103411518
790.629528683
785.186163708
779.781384139
774.422718396
769.117132983
763.871079014
758.69047302
753.580747067
748.546832505
743.593212612
738.723908568
733.942533597
729.252280539
724.655976567
720.156071761
715.75469354
711.453635698
707.254411759
703.158243983
699.166114928
695.278756015
691.496696691
687.820252246
684.249570123
680.784616804
677.425220983
674.171059512
671.021697319
667.976572548
665.03503329
662.196322199
659.459610219
656.823981053
654.28846219
651.852009641
649.513536606
647.2718989
645.125921585
643.074385476
641.116052013
639.249651142
637.473904634
635.787515552
634.189190128
632.677628909
631.251547215
629.90966798
628.650740726
627.473536014
626.376862821
625.359564454
624.42053415
623.558712267
622.773099875
622.062756979
621.426813839
620.86447
620.375003475
619.957772009
619.612226512
619.337935369
619.134687856
619.002896582
618.945996163
916.195194264
915.883278387
915.243948383
914.267015222
912.958847654
911.325925967
909.376157058
907.118811374
904.564400236
901.724546822
898.611842126
895.239705979
891.622237927
887.774081251
883.710280909
879.446160443
874.997194981
870.378907075
865.606759113
860.696070643
855.661931304
850.519139333
845.282133723
839.964951659
834.581177223
829.143914738
823.665751053
818.158741862
812.634385023
807.103617499
801.576797812
796.063711337
790.573560685
785.114978528
779.69602354
774.324199112
769.006454469
763.749208036
758.55835242
753.439281232
748.396897008
743.435640517
738.559500802
733.772046084
729.076435167
724.475449144
719.971503489
715.566679785
711.262737853
707.061146823
702.963096695
698.969528109
695.081142825
691.298431656
687.621683477
684.051010918
680.586357634
677.227521554
673.974160332
670.825812093
667.781899156
664.841746412
662.00458357
659.269561421
656.635752951
654.102167864
651.667752975
649.331405369
647.0919725
644.948264357
642.899053643
640.943087267
639.079086878
637.305759927
635.621800747
634.025901298
632.51675289
631.093056639
629.753525818
628.496895972
627.321927801
626.227416811
625.212196587
624.275147803
623.415201713
622.631348352
621.922640095
621.288198982
620.727220523
620.238980849
619.822842799
619.478267884
619.204835016
619.002291618
618.870839201
618.808763087
917.168839772
916.851479422
916.203148934
915.212622487
913.886464296
912.231385727
910.255588565
907.968680111
905.38154064
902.506180761
899.355590945
895.943590482
892.284674275
888.393866282
884.286576081
879.978467051
875.485330842
870.822976348
866.007126196
861.053328741
855.976877169
850.792743634
845.515518934
840.159365863
834.737976057
829.264538953
823.751712322
818.21160363
812.655751523
807.095117228
801.540075042
796.000412109
790.485326835
785.003434702
779.562772877
774.170812656
768.834468628
763.560115477
758.353601025
753.220266388
748.164961891
743.192069645
738.305521483
733.508823136
728.805073431
724.196989292
719.686925495
715.276899773
710.968612436
706.763470901
702.662608535
698.666907976
694.777018633
690.993378269
687.316228705
683.745635274
680.281500441
676.923580916
673.671499087
670.524757771
667.482749557
664.54476936
661.710021918
658.977632467
656.346652774
653.816070335
651.38481338
649.05175903
646.815737718
644.675540721
642.629924379
640.677617349
638.817324917
637.047736216
635.36752883
633.775376097
632.269952085
630.849939009
629.514032552
628.260949325
627.089432435
625.998258853
624.986245068
624.052254198
623.195201551
622.414061331
621.707871994
621.075742519
620.516857739
620.030484719
619.615979246
619.272793963
619.000488342
618.798745494
618.667631375
618.604533282
918.486835806
918.16247283
917.50183968
916.492697489
915.141909812
913.456525096
911.445154939
909.117873191
906.486068941
903.56228827
900.360071179
896.893787311
893.178473
889.229674349
885.063297459
880.69546947
876.142410195
871.420317093
866.545262089
861.533102192
856.399401384
851.159365123
845.827784241
840.41898937
834.946812414
829.424556395
823.864970344
818.280230958
812.681927955
807.081055233
801.488004892
795.912566552
790.363929327
784.850686078
779.380841869
773.961825462
768.600501665
763.303187077
758.075666199
752.923210404
747.850596808
742.862129568
737.96166068
733.152612822
728.438001331
723.820457857
719.302252814
714.885319128
710.57127446
706.361444353
702.256883557
698.258397921
694.366564201
690.581750145
686.904132293
683.333713837
679.870340101
676.513713954
673.26340887
670.118881884
667.079484335
664.144472574
661.313016674
658.584209256
655.957072586
653.43056598
651.003591782
648.675001832
646.443602809
644.308162228
642.267413562
640.320062134
638.464790343
636.700263711
635.025136396
633.438057525
631.937677075
630.522652496
629.19165492
627.943375995
626.776534298
625.689882221
624.682212416
623.752364552
622.899231599
622.121766289
621.4189871
620.789984339
620.233925862
619.750062875
619.337735616
618.99637875
618.725525397
618.5248118
618.394244378
618.331061194
920.155828685
919.822606564
919.146215462
918.113190894
916.730806267
915.006564543
912.949618165
910.570652399
907.881719845
904.896063093
901.627934256
898.092414462
894.305237153
890.282619029
886.041100956
881.597401357
876.968283036
872.170434773
867.220367385
862.134324553
856.928207045
851.617509813
846.217269937
840.742024551
835.205776621
829.621967979
824.003457857
818.362506872
812.71076523
807.059265502
801.418419009
795.798016466
790.207232245
784.654628976
779.148168718
773.695225267
768.302598389
762.976530389
757.722723919
752.546361603
747.452126463
742.444223736
737.526403126
732.701982082
727.973869164
723.344588084
718.816301486
714.390835039
710.069700924
705.854121258
701.745050569
697.743197868
693.849047449
690.062878988
686.38478614
682.814694211
679.352376203
675.997467826
672.74948088
669.607815624
666.571771615
663.640557682
660.813300573
658.08905295
655.46680033
652.94546764
650.523925012
648.20099345
645.975450025
643.846033164
641.811447717
639.870370273
638.021454428
636.263336412
634.594640759
633.013986359
631.519992594
630.111285819
628.786505893
627.544312984
626.383394348
625.302471272
624.300305899
623.375708096
622.527542111
621.754733151
621.056273689
620.431229586
619.878745884
619.398052323
618.988468368
618.64940694
618.380376889
618.180985839
618.05121421
617.988332584
922.184256505
921.840117428
921.144273585
920.081753457
918.66035777
916.888173689
914.775043022
912.332425859
909.573211625
906.511517743
903.162486996
899.542086898
895.666915646
891.554018384
887.22071653
882.684452266
877.962649509
873.072592066
868.03131898
862.855536516
857.561545579
852.165183007
846.681774765
841.12609906
835.51235743
829.85415225
824.164469411
818.455665448
812.739458668
807.026924102
801.328492311
795.653951823
790.012455395
784.412526048
778.862070778
773.368394266
767.938215004
762.577683245
757.292400459
752.087440123
746.967369592
741.936272932
736.997774494
732.15506311
727.410916717
722.767727267
718.227525714
713.792006934
709.462554351
705.240264115
701.125968603
697.120259104
693.223507467
689.435886611
685.757389722
682.187848083
678.726947423
675.374242814
672.129172059
668.991067684
665.959167534
663.03262415
660.210512988
657.49183969
654.875546499
652.360518045
649.945586605
647.629537051
645.411111573
643.289014373
641.261916372
639.328460091
637.487264721
635.736931479
634.076049238
632.503200483
631.016967542
629.615939111
628.298717001
627.063923095
625.910206416
624.836250297
623.840779539
622.922567535
622.080443257
621.313298085
620.620092374
619.999861741
619.451722961
618.974879348
618.568625526
618.232351036
617.965542251
617.767786189
617.639049443
617.576682374
924.582505807
924.225191567
923.505894113
922.407817868
920.939423134
919.109529814
916.928839858
914.409775261
911.566258985
908.413483588
904.967680986
901.245897271
897.265777609
893.045365084
888.602916273
883.956735594
879.125029587
874.12578172
868.97664743
863.694868523
858.297205216
852.799883635
847.218556059
841.568271256
835.863452269
830.117879769
824.344679461
818.55631299
812.764572005
806.980575584
801.214771782
795.476941455
789.776206884
784.121040473
778.519280274
772.978145993
767.504257062
762.103652448
756.78181177
751.543677666
746.393679084
741.335755496
736.373381759
731.5095936
726.747013459
722.087876655
717.534057555
713.087095715
708.748221636
704.518382077
700.398264582
696.388321125
692.488790589
688.69971998
685.020984158
681.452304047
677.993263169
674.64332256
671.40183399
668.268051632
665.241142181
662.32019364
659.50422284
656.792181953
654.182964098
651.675408313
649.268304018
646.960395195
644.750384422
642.636936935
640.618684814
638.694231426
636.862156174
635.121019625
633.469369023
631.905744211
630.428683929
629.036732473
627.728446651
626.502402989
625.35720512
624.291491268
623.303941779
622.393286593
621.558312596
620.797870782
620.110883128
619.496349134
618.95335189
618.481063621
618.078750547
617.745776349
617.481605093
617.285806408
617.158333271
617.096630941
927.363091409
926.990109754
926.242977098
925.102722526
923.57862194
921.680402614
919.419826808
916.810495701
913.867591955
910.607610837
907.048096231
903.207385935
899.104371687
894.758277717
890.188460591
885.414232118
880.454706461
875.328671738
870.054485718
864.649994211
859.13246995
853.518568818
847.824299854
842.065005198
836.255346633
830.409296059
824.540128437
818.660416617
812.782028389
806.91612619
801.07317128
795.262929389
789.494481582
783.776236016
778.115945956
772.520728226
766.997083659
761.550918938
756.187569684
750.911824481
745.727949834
740.639715819
735.65042246
730.762926573
725.979669074
721.302702491
716.733718592
712.274075857
707.924826659
703.686743844
699.560346551
695.545924964
691.643563835
687.853164509
684.174465345
680.607060332
677.150415884
673.803885722
670.566723911
667.438096076
664.417088958
661.502718422
658.693936138
655.989635117
653.388654351
650.889782756
648.491762676
646.193293118
643.993032956
641.88960423
639.881595715
637.967566847
636.146052102
634.415565864
632.774607822
631.221668871
629.755237507
628.373806668
627.075880956
625.859984166
624.724667048
623.668515212
622.69015708
621.7882718
620.961597032
620.20893652
619.529167354
618.921246843
618.384218913
617.917219856
617.519483451
617.19034514
616.929245001
616.735733733
616.609749218
616.548840719
930.540866065
930.149440089
929.36961859
928.179866782
926.590463899
924.612254902
922.258300714
919.543637575
916.48497072
913.10035915
909.408910841
905.430493242
901.185464494
896.694428978
891.978019494
887.056707694
881.95064359
876.679524471
871.262492506
865.718059411
860.064055098
854.317596241
848.495069613
842.612125028
836.68367308
830.723884375
824.746188459
818.763272519
812.787080779
806.828816111
800.898946351
795.007212389
789.162640449
783.373558415
777.647616392
771.991808168
766.412494275
760.915426268
755.505771829
750.18814073
744.966611424
739.844758392
734.825680008
729.912027013
725.10603132
720.409535157
715.824020245
711.350636921
706.990232863
702.743381279
698.610408162
694.591418454
690.686320747
686.894850355
683.216590488
679.650991431
676.197387561
672.855012244
669.623010557
666.500449999
663.486329274
660.579585387
657.77909923
655.083699974
652.492168459
650.003239941
647.615606377
645.327918567
643.138788324
641.0467909
639.050467802
637.148330141
635.338862572
633.6205279
631.991772342
630.45103145
628.996736639
627.627322273
626.341233219
625.136932789
624.012910962
622.967692789
621.999846867
621.107993783
620.29081442
619.547058026
618.875549952
618.275198955
617.745003967
617.284060292
616.891565108
616.566821738
616.309243736
616.118361467
615.994093133
615.934101001
934.13327532
933.72027571
932.902328125
931.65489911
929.989502744
927.918359037
925.456115814
922.619549153
919.427195258
915.898978311
912.055857168
907.919495597
903.511961055
898.855454725
893.972074489
888.883611881
883.611383836
878.176099488
872.597761488
866.895599796
861.088034267
855.192660348
849.226250923
843.204766702
837.143368562
831.056427131
824.957527962
818.859473072
812.774281492
806.713191559
800.686668764
794.704416616
788.775389932
782.90781721
777.109224171
771.386458691
765.745717
760.192570514
754.731993226
749.368389543
744.105622708
738.947043757
733.89552111
728.953470641
724.122886258
719.405370737
714.802166755
710.314187795
705.942048779
701.686096025
697.546436323
693.522964681
689.615390524
685.823261952
682.145987891
678.58285786
675.133059323
671.795692497
668.569782746
665.454290581
662.448119534
659.550122072
656.75910388
654.07382679
651.493010714
649.015334865
646.639438641
644.363922393
642.187348416
640.108242309
638.125094946
636.236365138
634.44048311
632.735854809
631.12086706
629.59389354
628.153301506
626.797459197
625.524743818
624.333549987
623.222298519
622.189445446
621.233491112
620.352989258
619.546555938
618.812878196
618.150722349
617.558941826
617.036484439
616.58239896
616.195841055
615.876078396
615.622494527
615.434595603
615.312277746
615.253325542
938.160671849
937.722531375
936.860295772
935.545945405
933.792518555
931.613930764
929.026769621
926.049917775
922.704106651
919.011475283
914.995160345
910.678921137
906.086802912
901.242839673
896.17079671
890.893953348
885.434926624
879.815536693
874.056713796
868.178445008
862.19975616
856.138721575
850.012491548
843.837326707
837.628629281
831.400964942
825.168073424
818.942870744
812.73744812
806.563073071
800.430197476
794.348471725
788.326759001
782.373165714
776.495068468
770.69914335
764.991395598
759.377189299
753.861276984
748.447829425
743.140465737
737.94228407
732.85589284
727.883442622
723.026658508
718.286872923
713.66505862
709.161861729
704.777634478
700.512467355
696.366220212
692.338552029
688.42894881
684.636749361
680.961168527
677.401317749
673.956222701
670.624838067
667.406059403
664.29873233
661.301659197
658.413603591
655.633292962
652.959419815
650.390641805
647.92558118
645.562823911
643.300918886
641.138377444
639.073673546
637.105244725
635.231494007
633.45079286
631.761485212
630.161892525
628.650319877
627.225062971
625.884415955
624.62667994
623.450172069
622.353235007
621.334246675
620.391630112
619.523863303
618.729488833
618.007123261
617.355466069
616.773308104
616.259539389
615.813156283
615.433267907
615.119101296
614.870006328
614.685462678
614.565339543
614.507553463
942.646705689
942.179307773
941.265719184
939.87388303
938.018731264
935.716279623
932.985492808
929.847804804
926.326574466
922.446561786
918.233453595
913.713439585
908.912838822
903.857774704
898.573896568
893.086147449
887.418579117
881.594216267
875.634971234
869.561608142
863.393751591
857.14992995
850.847639094
844.503409995
838.132865193
831.750754538
825.370969017
819.006538824
812.669625781
806.371519883
800.122646439
793.932582076
787.810074033
781.763079266
775.798796412
769.923700325
764.143575784
758.463549998
752.888124379
747.421205977
742.066139228
736.825738181
731.702319501
726.69773613
721.813411661
717.050375207
712.409296682
707.890522177
703.494109215
699.219861377
695.06736196
691.036006033
687.125030511
683.333541666
679.660539767
676.104940487
672.665592962
669.341294387
666.130801302
663.032837659
660.046100069
657.169260489
654.400966877
651.739842198
649.184482343
646.733453363
644.385288552
642.138485714
639.991505042
637.942767842
635.990656371
634.133514901
632.369652116
630.697344847
629.114843118
627.620376415
626.212161076
624.888408656
623.647335118
622.487170676
621.406170114
620.402623411
619.474866496
618.621291959
617.840359575
617.130606486
616.490656915
615.919231306
615.415154793
614.977364856
614.604918236
614.296997
614.052913058
613.872115053
613.754443098
613.697955037
947.618811255
947.117345477
946.144203257
944.662668858
942.690047237
940.244973604
937.349337514
934.027667162
930.306462486
926.213574986
921.777663382
917.027720035
911.992662094
906.70098015
901.180439217
895.457830519
889.558776172
883.507591215
877.327207317
871.039159547
864.663631428
858.21954565
851.724679669
845.195780847
838.648656976
832.098227445
825.558534639
819.042728814
812.56304493
806.13079102
799.756349048
793.449195188
787.217931629
781.070332218
775.013383524
769.053325792
763.195690874
757.445337436
751.806484282
746.28274311
740.877151439
735.592206355
730.429899131
725.391750838
720.478848736
715.691883473
711.031186791
706.496769646
702.088360276
697.805441872
693.64728916
689.613003378
685.701544871
681.911762826
678.242421519
674.692222833
671.259824701
667.94385554
664.74292468
661.655629123
658.680556908
655.81628764
653.061390633
650.41442132
647.873916455
645.438388749
643.106321439
640.876163326
638.746324653
636.715174212
634.781037882
632.942198772
631.196899043
629.543343395
627.97970415
626.504127829
625.114743059
623.809669639
622.587028566
621.444952825
620.381598724
619.395157572
618.483867497
617.646025203
616.879997493
616.184232398
615.557269767
614.997751194
614.504429164
614.076175417
613.711988413
613.410999399
613.172478042
612.995839435
612.880889581
612.825836786
953.108821021
952.567588821
951.525250318
949.939729402
947.831339827
945.22201247
942.137254876
938.605354679
934.656562216
930.322361742
925.634856289
920.62624956
915.328408172
909.772488679
903.98861935
898.005634037
891.850862548
885.549986679
879.12697225
872.604083483
866.001977152
859.339860582
852.635683342
845.906322258
839.167719906
832.434951579
825.72222276
819.042823542
812.409074847
805.832299262
799.32281557
792.889966503
786.542169646
780.286974074
774.131113949
768.080557099
762.140547291
756.315641157
750.609742153
745.026133621
739.567512533
734.236024412
729.033299677
723.960491147
719.0183127
714.207078836
709.526745162
704.976949488
700.557053286
696.266182853
692.103269566
688.067088302
684.156293254
680.369450289
676.705065268
673.161607785
669.737530149
666.431281466
663.241317057
660.166103454
657.204119518
654.353854193
651.613801643
648.982454409
646.458295378
644.03978922
641.725374009
639.51345356
637.402391025
635.390504092
633.476062095
631.657285153
629.932345425
628.299370397
626.756448141
625.301634329
623.932960841
622.648445719
621.446104239
620.323960851
619.28006174
618.312487762
617.419367513
616.598890314
615.849318897
615.169001621
614.556384047
614.010019751
613.528580289
613.110864133
612.755804698
612.462477396
612.230104742
612.058063241
611.946122672
611.892650292
959.153746812
958.565897722
957.442862853
955.736422984
953.470761116
950.671998914
947.370146574
943.598067324
939.390479721
934.783114588
929.812038286
924.513105281
918.921505893
913.07138112
906.995487739
900.724910246
894.288828393
887.714358027
881.026486026
874.248115829
867.400226636
860.502127986
853.571765538
846.626012959
839.680880929
832.751598485
825.852572972
818.997282291
812.198164407
805.466556461
798.812687981
792.245721936
785.773837419
779.40430602
773.143561351
766.997256617
760.970310228
755.066942587
749.290708483
743.644529188
738.1307262
732.751057306
727.506754593
722.398564127
717.426786845
712.591320752
707.891704273
703.327160803
698.89664399
694.598883212
690.432428213
686.395691892
682.486990024
678.704576969
675.046676431
671.511506784
668.097300545
664.802318055
661.624855485
658.563247689
655.615866406
652.781114672
650.057418154
647.443214405
644.936940841
642.537022371
640.241859441
638.049817218
635.959216482
633.968326687
632.07536145
630.27847666
628.575771178
626.965290064
625.445030139
624.012947661
622.666967842
621.404995934
620.22492959
619.124672203
618.102146939
617.155311162
616.282170992
615.480795707
614.749331787
614.086016362
613.489189912
612.957308067
612.488952383
612.082840106
611.737832799
611.45294336
611.227342339
611.0603649
610.951739196
610.899999524
965.796789532
965.153951102
963.936289008
962.088581935
959.640075994
956.622287313
953.070866003
949.024248887
944.522456466
939.606145159
934.315896671
928.69167308
922.772376718
916.595468781
910.196621226
903.609398532
896.86498594
889.99199579
883.016390885
875.961559651
868.848559579
861.696511254
854.52307974
847.344936471
840.178078618
833.03791906
825.939161942
818.895573386
811.919770063
805.023109131
798.215687148
791.506417668
784.903166512
778.412859374
772.041572071
765.794597118
759.676490103
753.691102052
747.841606728
742.130529479
736.559780459
731.130691801
725.844057794
720.700176857
715.698894919
710.839650131
706.121519344
701.543266354
697.103391769
692.800183598
688.631767445
684.59615468
680.69128717
676.915077075
673.265440726
669.740325753
666.337731194
663.055720478
659.892427688
656.846057584
653.914880249
651.097221238
648.39144832
645.795955874
643.309148068
640.929421845
638.655150725
636.48467023
634.416265662
632.448162691
630.578521121
628.805431907
627.126917422
625.540934767
624.045381885
622.638106143
621.316915048
620.079588752
618.923893986
617.847599106
616.84848987
615.924385648
615.073155704
614.292735283
613.581141184
612.936486643
612.35699527
611.841013948
611.387024567
610.993654439
610.65968553
610.384062537
610.165898557
610.004481875
609.899496809
609.849651923
973.088665692
972.380414733
971.050949035
969.037140175
966.374996616
963.103074221
959.264130258
954.90338323
950.067098882
944.801578904
939.152475852
933.164308644
926.880078764
920.340917315
913.585727201
906.650819028
899.569569992
892.372159387
885.085448624
877.733072948
870.335788961
862.912070601
855.478866905
848.052346117
840.648400243
833.282730061
825.97054123
818.726082705
811.562260918
804.490456301
797.520550548
790.661098788
783.919544752
777.302379043
770.815252705
764.463050142
758.249930079
752.179345674
746.254060231
740.476170113
734.847137185
729.367828121
724.038557552
718.859133007
713.828900622
708.946792295
704.211375084
699.620903558
695.173374903
690.866585947
686.698190247
682.665753256
678.766803308
674.998876684
671.359555237
667.846495787
664.45745079
661.19028042
658.042956441
655.013558709
652.100265255
649.301337208
646.615099795
644.039920847
641.574188076
639.216286505
636.964577144
634.817378008
632.772948242
630.82947596
628.985070121
627.237756522
625.585477771
624.026096959
622.557404626
621.177128589
619.882946207
618.672498643
617.543406735
616.493288062
615.519774833
614.620532178
613.793276482
613.035793399
612.345955226
611.721737368
611.161233703
610.662670656
610.224419887
609.845009611
609.523134452
609.257663419
609.047646825
608.892323092
608.79132687
608.743547727
981.089386452
980.302471177
978.839594071
976.628839727
973.715471775
970.1473681
965.976282237
961.255644885
956.038984812
950.378954564
944.326781949
937.931942083
931.241897895
924.301810594
917.154173863
909.838375775
902.390236997
894.841610915
887.220158195
879.549417007
871.849267637
864.13681815
856.427605258
848.736825882
841.080177781
833.473910564
825.93414637
818.475977605
811.112781129
803.855938481
796.714961671
789.697861345
782.811499346
776.061816829
769.453965629
762.992378756
756.680794904
750.522251332
744.519077471
738.672908714
732.98472008
727.454870115
722.083149197
716.868828168
711.810706158
706.907159271
702.156192526
697.555496313
693.102507806
688.79447594
684.62852757
680.601731579
676.711158052
672.953929896
669.327265217
665.828509299
662.455155873
659.204857783
656.075427794
653.064830493
650.171166699
647.392651806
644.727589758
642.174344257
639.731308932
637.39687797
635.169418716
633.047247421
631.028609173
629.111662633
627.29446995
625.574991835
623.95108754
622.420519257
620.980960367
619.630006954
618.365192029
617.184001969
616.083894707
615.062319238
614.11673598
613.244637554
612.443569505
611.711150574
611.045092112
610.44321638
609.903473442
609.423956554
609.002915923
608.638770711
608.330119488
608.075749248
607.874641527
607.725978905
607.629344056
607.583813328
989.870696623
988.987869233
987.363762968
984.91698554
981.705840312
977.790731689
973.234809437
968.10133742
962.452109181
956.346715223
949.842319877
942.993638237
935.852898168
928.469659923
920.890438951
913.158146759
905.311425116
897.384002731
889.404250343
881.395141734
873.374821158
865.357892419
857.357336774
849.386616555
841.461175724
833.598399333
825.816139551
818.130980033
810.557035243
803.105590129
795.785475395
788.603828258
781.566699212
774.679342655
767.946337137
761.37163636
754.958560034
748.709732059
742.62703392
736.711608181
730.963900447
725.383713847
719.970266175
714.722243602
709.6378491
704.714850848
699.950635271
695.342267505
690.88656019
686.580148925
682.419570322
678.401338108
674.522012825
670.778261897
667.166907742
663.684962833
660.32965133
657.098417764
653.988923678
650.999033713
648.126792765
645.370396215
642.728155147
640.198458691
637.779735443
635.470415938
633.268897886
631.173515737
629.182515706
627.294037095
625.506100214
623.816600807
622.22331048
620.723882384
619.31586133
617.996697532
616.763763297
615.614372096
614.545799534
613.555305723
612.640158604
611.797657625
611.025157299
610.32009007
609.679988109
609.102503635
608.58542755
608.126706193
607.724456139
607.376977119
607.082763023
606.840510657
606.649127064
606.50773588
606.415861619
606.372772676
999.519501304
998.517731312
996.695624388
993.962159672
990.394673472
986.070617623
981.067479244
975.460031679
969.319129319
962.711588308
955.700583738
948.346143757
940.705461073
932.832875987
924.779474037
916.592331686
908.313519422
899.979043243
891.617982437
883.252158626
874.896716948
866.561937477
858.256308121
849.990231018
841.778921213
833.642163945
825.601110208
817.674967614
809.8789599
802.22395589
794.717458107
787.365161099
780.171994119
773.142385412
766.280284662
759.589172019
753.071998048
746.731012822
740.567647905
734.582515733
728.775480604
723.145734522
717.691869505
712.411937742
707.303496798
702.363653263
697.589114385
692.976251566
688.521178315
684.219839757
680.068107131
676.06186996
672.197119699
668.470020388
664.876963793
661.41460782
658.079898202
654.870074183
651.782659687
648.815441818
645.966438961
643.233860815
640.616062892
638.111497926
635.718666688
633.436070502
631.262167679
629.195335667
627.233840443
625.375814043
623.619240623
621.961950677
620.401622643
618.93579067
617.561857383
616.277110538
615.078742749
613.9638737
612.929574358
611.972892751
611.090880725
610.280621116
609.539254583
608.864005566
608.252206755
607.701321739
607.208965491
606.772922594
606.391163161
606.061856364
605.78338189
605.554339608
605.373555785
605.24008891
605.153403078
605.112962988
1010.14279453
1008.99051765
1006.92031869
1003.83267809
999.833971118
995.02500147
989.500888408
983.349297006
976.65037909
969.477875857
961.900551637
953.983482978
945.7888705
937.376241525
928.80199075
920.118322229
911.371739985
902.601318147
893.837095606
885.099098581
876.397667298
867.735829389
859.114182272
850.537588543
842.021251668
833.5900658
825.271483958
817.089284803
809.060207672
801.193858795
793.495083992
785.967149162
778.613516942
771.43771954
764.44307066
757.632640418
751.009154173
744.574593013
738.329945981
732.275236525
726.409675231
720.731772781
715.239435728
709.930034886
704.800436787
699.847033912
695.065790325
690.452306356
686.001908154
681.709757429
677.570969146
673.580725973
669.734380143
666.027537456
662.456120591
659.01641106
655.705070153
652.519140293
649.456028799
646.513476688
643.68951527
640.982413601
638.390619708
635.912698681
633.5472705
631.292950522
629.148295199
627.111755432
625.181639351
623.356085764
621.633048599
620.010291753
618.485392951
617.055754795
615.718621225
614.471097912
613.310175652
612.232756193
611.235680196
610.315756923
609.469795113
608.694634224
607.987175232