/*--------------------------------*- C++ -*----------------------------------*\
| =========                 |                                                 |
| \\      /  F ield         | OpenFOAM: The Open Source CFD Toolbox           |
|  \\    /   O peration     | Version:  v1906                                 |
|   \\  /    A nd           | Web:      www.OpenFOAM.com                      |
|    \\/     M anipulation  |                                                 |
\*---------------------------------------------------------------------------*/
FoamFile
{
    version     2.0;
    format      ascii;
    class       volVectorField;
    location    "636";
    object      Ua;
}
// * * * * * * * * * * * * * * * * * * * * * * * * * * * * * * * * * * * * * //

dimensions      [0 1 -1 0 0 0 0];


internalField   nonuniform List<vector> 
9216
(
(-0.0103637199413 0.0103716051382 0)
(-0.0109367780313 0.0334729304979 3.9152736235e-27)
(-0.0109329011793 0.0569307109759 -7.07890526113e-31)
(-0.0108303612256 0.0803957657484 0)
(-0.0106843203247 0.103471023315 0)
(-0.0104987930999 0.126062254565 0)
(-0.010278502803 0.148068025432 0)
(-0.0100265383152 0.169396316792 0)
(-0.00974600021571 0.189964325303 0)
(-0.00943967805253 0.20969876462 0)
(-0.00911072299522 0.228535867875 0)
(-0.00876194338836 0.246421658719 0)
(-0.00839650248543 0.263311730676 0)
(-0.00801708674882 0.279171196983 0)
(-0.00762670832047 0.293974179204 0)
(-0.00722778360922 0.307703487453 0)
(-0.00682304770965 0.320349906912 0)
(-0.00641455367246 0.331911709555 0)
(-0.00600469270333 0.342393846252 0)
(-0.00559512040494 0.351807391724 0)
(-0.00518787358294 0.360168733927 0)
(-0.0047842260286 0.36749903027 0)
(-0.00438588877433 0.373823461348 0)
(-0.00399379835557 0.379170748159 0)
(-0.0036093879114 0.383572502053 0)
(-0.00323331040068 0.387062819201 0)
(-0.00286676790303 0.38967773404 0)
(-0.00251017647743 0.391454888366 0)
(-0.00216454576373 0.392433078069 0)
(-0.0018300973163 0.392651989932 0)
(-0.00150769484179 0.392151781723 0)
(-0.00119731632543 0.390973120125 0)
(-0.000899587091176 0.389156300517 0)
(-0.000614399076993 0.386741398602 0)
(-0.000342317213175 0.38376813788 0)
(-8.3075062535e-05 0.380275614028 0)
(0.000162915796962 0.376302122902 0)
(0.000396058605318 0.371885023972 0)
(0.000616062224432 0.36706060084 0)
(0.000823443793551 0.361863955649 0)
(0.00101801727765 0.356328916298 0)
(0.0012003954687 0.350487951414 0)
(0.00137048345068 0.344372120363 0)
(0.00152897150427 0.338011007061 0)
(0.00167583974073 0.331432707646 0)
(0.00181183567311 0.324663779944 0)
(0.00193699742195 0.317729267638 0)
(0.00205210886798 0.310652665234 0)
(0.00215724729409 0.303455974356 0)
(0.00225321102267 0.296159681312 0)
(0.00234009828839 0.288782843749 0)
(0.00241870144581 0.281343079588 0)
(0.00248912229812 0.273856678221 0)
(0.00255212875085 0.266338596176 0)
(0.00260781247828 0.25880258893 0)
(0.00265690301261 0.251261209889 0)
(0.0026994719925 0.24372595515 0)
(0.00273620119249 0.236207259613 0)
(0.00276713799739 0.228714649462 0)
(0.00279291297006 0.221256731247 0)
(0.00281354961443 0.213841344585 0)
(0.00282962842125 0.206475538807 0)
(0.0028411542831 0.199165721947 0)
(0.00284866319248 0.191917622622 0)
(0.00285214932868 0.184736430543 0)
(0.00285211187429 0.177626741279 0)
(0.00284854412589 0.170592687539 0)
(0.00284191736408 0.16363786777 0)
(0.00283223331199 0.156765467116 0)
(0.00281994324654 0.149978170918 0)
(0.00280506549576 0.14327827766 0)
(0.00278803764477 0.13666760093 0)
(0.00276890000327 0.130147575868 0)
(0.00274807988227 0.123719152641 0)
(0.00272564228422 0.117382900098 0)
(0.00270200497935 0.11113889502 0)
(0.00267725709884 0.104986825267 0)
(0.00265180461689 0.0989258779251 0)
(0.00262575773101 0.0929548453084 0)
(0.00259950609514 0.0870720154085 0)
(0.00257317542737 0.0812752825385 0)
(0.002547132338 0.0755620423007 0)
(0.00252151057343 0.0699293095485 0)
(0.00249664465387 0.0643736207254 0)
(0.00247266524145 0.0588911622471 0)
(0.0024498593675 0.0534776862075 0)
(0.00242833032965 0.0481286615677 0)
(0.00240827189285 0.042839230512 0)
(0.0023896612122 0.0376044444486 0)
(0.00237236094985 0.0324194207872 0)
(0.00235560776322 0.0272800332024 0)
(0.0023373240106 0.0221844364685 0)
(0.00231165999592 0.0171378343052 0)
(0.00225245860416 0.012193361001 0)
(0.00214190695164 0.0069776925165 0)
(0.00308096552275 0.00308110729075 0)
(-0.033549589871 0.0110309695485 0)
(-0.0370864765869 0.037375959286 0)
(-0.0369992194154 0.063648447826 -4.11010147297e-27)
(-0.0364967477725 0.0899532354708 0)
(-0.0357987401628 0.115786553586 0)
(-0.0349317321397 0.141063577657 0)
(-0.0339107760076 0.165676548978 0)
(-0.0327499644076 0.189524142292 0)
(-0.0314643489573 0.212514202715 0)
(-0.0300690851675 0.234564910442 0)
(-0.0285801499224 0.255605182898 0)
(-0.0270130491503 0.275574944572 0)
(-0.0253836320727 0.294425010474 0)
(-0.023706666301 0.312116903083 0)
(-0.021996867988 0.32862236671 0)
(-0.0202674103129 0.343922874718 0)
(-0.0185311856086 0.358008908423 0)
(-0.0167992628325 0.370879284784 0)
(-0.0150823671267 0.382540326551 0)
(-0.0133892844856 0.39300512839 0)
(-0.011728530512 0.402292724927 0)
(-0.0101066899011 0.410427386533 0)
(-0.00853023703433 0.417437859457 0)
(-0.0070037954908 0.423356745584 0)
(-0.00553207373927 0.428219849752 0)
(-0.00411803339257 0.432065660675 0)
(-0.00276490945991 0.434934808285 0)
(-0.00147428781509 0.436869637036 0)
(-0.000248192060957 0.437913756609 0)
(0.000912918076987 0.438111682696 0)
(0.00200799520687 0.437508495285 0)
(0.00303753520492 0.436149321186 0)
(0.00400139959556 0.434079531815 0)
(0.00490082850767 0.431344246952 0)
(0.00573625999755 0.427987947104 0)
(0.00650952662325 0.424054384412 0)
(0.00722160494482 0.419586381641 0)
(0.00787479797595 0.414625687603 0)
(0.00847048071539 0.409212830232 0)
(0.00901129822042 0.403387001738 0)
(0.00949891153342 0.397185952753 0)
(0.00993619789152 0.390645907808 0)
(0.0103250071324 0.383801498047 0)
(0.010668351645 0.376685704225 0)
(0.0109681823984 0.369329824499 0)
(0.0112275584311 0.361763442506 0)
(0.0114484526201 0.354014428144 0)
(0.0116338904541 0.346108928948 0)
(0.0117857944471 0.338071401018 0)
(0.0119070841506 0.329924621353 0)
(0.011999568938 0.321689746207 0)
(0.0120660011385 0.313386341413 0)
(0.0121080254817 0.305032463523 0)
(0.0121281790481 0.296644703577 0)
(0.0121279059314 0.28823828584 0)
(0.0121094971831 0.279827119555 0)
(0.0120741773532 0.271423908296 0)
(0.0120239788166 0.263040203192 0)
(0.0119599065841 0.254686516231 0)
(0.0118837405844 0.24637236873 0)
(0.01179628311 0.238106401615 0)
(0.0116990836166 0.229896413401 0)
(0.0115927728637 0.221749462369 0)
(0.0114787041818 0.213671890116 0)
(0.0113573767454 0.205669411639 0)
(0.0112299884492 0.197747122169 0)
(0.0110969507947 0.189909573852 0)
(0.0109593483885 0.182160765893 0)
(0.0108175468987 0.174504207891 0)
(0.0106725556297 0.16694289485 0)
(0.0105247303808 0.159479359453 0)
(0.0103750357692 0.15211563512 0)
(0.0102238442184 0.144853300073 0)
(0.0100720961229 0.137693432141 0)
(0.00992019662274 0.130636648507 0)
(0.00976907194206 0.123683056462 0)
(0.00961916514327 0.116832292239 0)
(0.00947138805229 0.110083471381 0)
(0.00932621742971 0.103435230175 0)
(0.00918454188895 0.0968856789734 0)
(0.00904685940134 0.090432448692 0)
(0.00891401903435 0.0840726495064 0)
(0.00878652043972 0.0778029247116 0)
(0.00866514919366 0.0716194169484 0)
(0.00855037696629 0.0655178311771 0)
(0.00844288586137 0.0594934104012 0)
(0.00834306010579 0.0535410096053 0)
(0.00825137698522 0.0476550803075 0)
(0.00816793891767 0.04182974043 0)
(0.00809261062563 0.0360587044297 0)
(0.00802429345042 0.0303351091451 0)
(0.00796011460262 0.02465061685 0)
(0.00789241812582 0.018991897001 0)
(0.00779950558714 0.0133293436796 0)
(0.00756446620288 0.00754826871952 0)
(0.00697267336245 0.00213635841544 0)
(-0.05743687819 0.0111781506015 0)
(-0.063587365538 0.0379925596074 0)
(-0.0633690957928 0.0645970009768 -4.1138448654e-27)
(-0.0624979113569 0.0912850109119 0)
(-0.0613162950764 0.117490345001 0)
(-0.0598582207117 0.143122798032 0)
(-0.0581444719209 0.168070780348 0)
(-0.05619736642 0.192230655117 0)
(-0.0540412563717 0.215508585027 0)
(-0.0517015663835 0.237821546506 0)
(-0.0492045945037 0.259097755073 0)
(-0.0465765368604 0.279276865325 0)
(-0.0438434458383 0.298309865658 0)
(-0.0410303066878 0.316158798819 0)
(-0.0381611948433 0.332796263982 0)
(-0.0352584406879 0.348204818848 0)
(-0.0323429987688 0.362376239453 0)
(-0.0294337059514 0.375310748077 0)
(-0.0265478469858 0.387016168771 0)
(-0.0237004880584 0.397507108716 0)
(-0.020905202653 0.40680412308 0)
(-0.01817344554 0.414932946405 0)
(-0.0155153897217 0.421923744254 0)
(-0.0129392992152 0.427810449798 0)
(-0.0104524274813 0.432630134502 0)
(-0.00806035438407 0.436422461942 0)
(-0.0057679100117 0.439229173818 0)
(-0.00357845998688 0.441093645343 0)
(-0.00149483839395 0.442060463797 0)
(0.000481417712412 0.442175060676 0)
(0.00234913671482 0.441483376158 0)
(0.00410830436262 0.440031530375 0)
(0.00575905652804 0.437865546046 0)
(0.00730259592975 0.435031127503 0)
(0.0087402126286 0.43157339807 0)
(0.0100741098712 0.427536701729 0)
(0.0113064463394 0.422964417302 0)
(0.0124401993591 0.417898801834 0)
(0.0134782020887 0.412380851189 0)
(0.0144240144019 0.406450181169 0)
(0.0152809640758 0.400144926438 0)
(0.0160530212808 0.393501655141 0)
(0.0167438474807 0.386555302958 0)
(0.0173576677667 0.379339118329 0)
(0.0178983304984 0.371884628149 0)
(0.0183701726152 0.364221611067 0)
(0.0187770936724 0.356378093413 0)
(0.019123409992 0.348380349129 0)
(0.0194129471147 0.340252923307 0)
(0.0196498800788 0.332018656381 0)
(0.0198378490353 0.323698733174 0)
(0.0199807835213 0.315312728472 0)
(0.0200820459069 0.306878676949 0)
(0.0201452382949 0.298413135233 0)
(0.0201733783511 0.289931267737 0)
(0.0201696871138 0.281446919435 0)
(0.0201368007077 0.272972710296 0)
(0.0200775371504 0.264520111581 0)
(0.0199941464981 0.256099542169 0)
(0.0198890537457 0.247720441627 0)
(0.0197641484893 0.239391361075 0)
(0.0196215005968 0.231120026681 0)
(0.0194626895761 0.222913420002 0)
(0.019289488982 0.214777827633 0)
(0.0191032347241 0.20671890693 0)
(0.0189054743366 0.198741719221 0)
(0.0186973732924 0.19085077993 0)
(0.0184803253317 0.18305007534 0)
(0.0182553957169 0.175343097397 0)
(0.0180238896638 0.167732845589 0)
(0.0177868319759 0.160221849242 0)
(0.017545491243 0.152812157843 0)
(0.017300895635 0.145505354009 0)
(0.0170543116036 0.138302536112 0)
(0.0168067962751 0.131204326288 0)
(0.0165596300079 0.124210849653 0)
(0.0163139061053 0.117321741042 0)
(0.0160709173573 0.110536124554 0)
(0.0158317841664 0.103852622768 0)
(0.0155977954084 0.0972693398936 0)
(0.0153700759515 0.0907838759256 0)
(0.0151498822921 0.0843933155957 0)
(0.0149383101572 0.0780942494057 0)
(0.0147365445229 0.0718827695892 0)
(0.0145456064614 0.0657544980778 0)
(0.0143665547103 0.05970458819 0)
(0.0142002665189 0.0537277552611 0)
(0.0140475805797 0.047818271716 0)
(0.0139090959958 0.0419699694243 0)
(0.0137852385946 0.036176152906 0)
(0.0136760832261 0.0304293995227 0)
(0.0135815024178 0.024721011043 0)
(0.0135015090337 0.0190395902899 0)
(0.0134362208749 0.013365197818 0)
(0.0133315523373 0.00774199082914 0)
(0.0121627015072 0.00223754377548 0)
(-0.0818824203694 0.0113078509867 0)
(-0.0907213606877 0.038572574277 0)
(-0.0904010145721 0.0655233886394 4.11193416085e-27)
(-0.0891428141586 0.0925786259159 0)
(-0.0874390249037 0.119135064983 0)
(-0.0853396825642 0.145097478942 0)
(-0.0828745650338 0.170349953886 0)
(-0.0800759030686 0.194785857473 0)
(-0.0769787953643 0.21830929653 0)
(-0.0736201583293 0.240835997591 0)
(-0.0700379351132 0.26229366607 0)
(-0.0662701232385 0.28262209762 0)
(-0.0623541806779 0.301773008882 0)
(-0.0583262336539 0.31970965504 0)
(-0.0542207203193 0.336406253195 0)
(-0.050069807274 0.351847275414 0)
(-0.045903280829 0.36602662972 0)
(-0.0417481681256 0.378946787819 0)
(-0.0376288540236 0.39061787452 0)
(-0.0335668735274 0.401056769406 0)
(-0.0295812049626 0.410286229002 0)
(-0.025688175631 0.418334067408 0)
(-0.0219018621554 0.425232392686 0)
(-0.0182340401257 0.431016921493 0)
(-0.0146946216869 0.435726358023 0)
(-0.0112915907055 0.439401846431 0)
(-0.00803142970034 0.442086476413 0)
(-0.00491901251554 0.443824844787 0)
(-0.00195800530525 0.444662654243 0)
(0.000849282696572 0.444646352351 0)
(0.0035015203309 0.443822798688 0)
(0.00599853682311 0.442238993473 0)
(0.00834088208571 0.439941686227 0)
(0.0105301107694 0.436977260243 0)
(0.0125683795551 0.433391449588 0)
(0.0144586442813 0.429229139304 0)
(0.0162042977776 0.424534188833 0)
(0.0178093861064 0.419349275845 0)
(0.019278252282 0.413715760666 0)
(0.0206157610961 0.407673569909 0)
(0.021826950356 0.401261098302 0)
(0.0229172620153 0.3945151265 0)
(0.0238922006895 0.387470755971 0)
(0.024757567547 0.380161357547 0)
(0.0255191255592 0.372618536708 0)
(0.0261828337457 0.36487211108 0)
(0.0267545197555 0.356950104699 0)
(0.0272401129151 0.34887875309 0)
(0.0276453257475 0.340682525028 0)
(0.0279758860933 0.332384153604 0)
(0.028237230464 0.324004683288 0)
(0.0284347361018 0.315563523961 0)
(0.0285734294248 0.307078519334 0)
(0.028658219697 0.29856601928 0)
(0.028693625832 0.290040964015 0)
(0.0286840125343 0.281516968216 0)
(0.0286333376118 0.273006413721 0)
(0.0285453907859 0.264520537937 0)
(0.0284235623998 0.256069527349 0)
(0.0282710833258 0.24766260251 0)
(0.0280908142144 0.239308104915 0)
(0.0278854839525 0.231013571898 0)
(0.0276574974209 0.222785811051 0)
(0.0274091686524 0.214630960121 0)
(0.0271425440754 0.206554545107 0)
(0.0268596264521 0.198561522689 0)
(0.0265622104937 0.190656320762 0)
(0.026252093552 0.182842863279 0)
(0.0259309206984 0.175124594143 0)
(0.0256003791279 0.167504486516 0)
(0.0252620506696 0.159985053 0)
(0.0249175876003 0.152568342947 0)
(0.0245685714095 0.145255942871 0)
(0.0242166690579 0.138048966136 0)
(0.0238634978778 0.130948048147 0)
(0.023510762071 0.123953332896 0)
(0.0231601243236 0.117064467156 0)
(0.0228133232835 0.110280587941 0)
(0.0224720530636 0.103600319441 0)
(0.0221380626768 0.0970217646263 0)
(0.0218130447281 0.0905425075648 0)
(0.0214987180021 0.0841596112755 0)
(0.0211967265093 0.0778696269175 0)
(0.0209087058689 0.0716685985262 0)
(0.0206361931464 0.0655520784168 0)
(0.0203806769008 0.0595151363832 0)
(0.0201435175638 0.0535523758942 0)
(0.0199259816903 0.0476579365764 0)
(0.0197291785183 0.0418254887357 0)
(0.0195541019477 0.0360481882833 0)
(0.0194016549948 0.0303185993296 0)
(0.0192728891162 0.0246285219021 0)
(0.0191693274047 0.0189687906307 0)
(0.0190898439065 0.0133246332829 0)
(0.0189448149178 0.00777152436042 0)
(0.0170492787963 0.00228222802142 0)
(-0.106728466017 0.0114746393004 0)
(-0.118263456624 0.0393331998369 0)
(-0.117834683829 0.0667631975682 0)
(-0.116174141943 0.0943108861395 0)
(-0.1139264727 0.121335492116 0)
(-0.111158945039 0.147736284438 0)
(-0.107911671636 0.173392092776 0)
(-0.10422788622 0.198192327231 0)
(-0.100154472584 0.222038334531 0)
(-0.0957406989534 0.244844206528 0)
(-0.0910370160559 0.266537045512 0)
(-0.0860938908626 0.287056963158 0)
(-0.0809608564334 0.306356795301 0)
(-0.0756856251312 0.32440158544 0)
(-0.0703134497483 0.341167878138 0)
(-0.0648865459943 0.356642873627 0)
(-0.0594437715905 0.370823482607 0)
(-0.0540203458728 0.383715328258 0)
(-0.0486478158325 0.395331729794 0)
(-0.0433540247132 0.405692707121 0)
(-0.0381632983269 0.414824031757 0)
(-0.0330965804656 0.422756350687 0)
(-0.0281717439206 0.429524393421 0)
(-0.0234037920552 0.435166271091 0)
(-0.018805196077 0.439722861187 0)
(-0.0143860781528 0.443237271882 0)
(-0.0101545105866 0.445754370259 0)
(-0.00611664252044 0.447320363548 0)
(-0.00227694701747 0.447982419343 0)
(0.00136170201285 0.447788318608 0)
(0.00479781782515 0.446786131988 0)
(0.00803127905028 0.445023978412 0)
(0.0110630238411 0.442549573127 0)
(0.013895142862 0.439410214636 0)
(0.0165306350925 0.435652436811 0)
(0.0189733851569 0.431321833951 0)
(0.0212279839044 0.426462889546 0)
(0.0232997144774 0.42111882482 0)
(0.0251943848094 0.41533146821 0)
(0.0269183253711 0.40914114359 0)
(0.0284782322801 0.402586575841 0)
(0.0298811738804 0.395704812326 0)
(0.0311344418444 0.388531160075 0)
(0.0322455631605 0.381099137309 0)
(0.0332221569765 0.373440439889 0)
(0.0340719497204 0.365584921511 0)
(0.034802636889 0.357560588845 0)
(0.0354219007607 0.349393609982 0)
(0.0359372782381 0.34110833747 0)
(0.0363561825482 0.332727343919 0)
(0.0366857798365 0.324271471418 0)
(0.0369330175502 0.315759891797 0)
(0.0371045134308 0.307210178596 0)
(0.0372065938107 0.298638387089 0)
(0.037245198468 0.290059143017 0)
(0.0372259313304 0.281485735497 0)
(0.0371539834688 0.27293021453 0)
(0.0370341971954 0.264403488347 0)
(0.0368710075161 0.255915421213 0)
(0.0366685184836 0.247474926711 0)
(0.0364304613479 0.23909005752 0)
(0.0361602801581 0.230768087108 0)
(0.0358611030693 0.222515585113 0)
(0.0355358327127 0.214338482182 0)
(0.0351871260768 0.206242126795 0)
(0.0348174846368 0.198231330568 0)
(0.0344292380019 0.190310405425 0)
(0.034024628953 0.182483189559 0)
(0.0336057966223 0.174753066222 0)
(0.0331748525727 0.167122972797 0)
(0.0327338603986 0.159595404733 0)
(0.0322849002457 0.152172411918 0)
(0.0318300431213 0.144855592293 0)
(0.0313714027552 0.137646080427 0)
(0.0309111042728 0.130544535946 0)
(0.0304513235204 0.123551129299 0)
(0.0299942508611 0.116665529628 0)
(0.0295421190984 0.109886892062 0)
(0.0290971639018 0.103213849032 0)
(0.0286616419643 0.096644502475 0)
(0.0282377899069 0.0901764212708 0)
(0.0278278345395 0.0838066404385 0)
(0.0274339521205 0.0775316660721 0)
(0.027058272455 0.071347482005 0)
(0.0267028403131 0.0652495615357 0)
(0.0263696154175 0.0592328795896 0)
(0.0260604391372 0.0532919276388 0)
(0.0257770362312 0.0474207249189 0)
(0.0255209996804 0.0416128286638 0)
(0.0252938221491 0.0358613361458 0)
(0.025096956089 0.0301588984304 0)
(0.0249319679261 0.0244977525005 0)
(0.024800481086 0.0188698877315 0)
(0.0246983111075 0.0132620314627 0)
(0.0245023396983 0.00775377352249 0)
(0.0219912982469 0.00228835872831 0)
(-0.132115118152 0.0116828496569 0)
(-0.146388640747 0.0403021280142 0)
(-0.145838946499 0.0683512658306 0)
(-0.143752513409 0.0965311769479 0)
(-0.140929802049 0.124154891889 0)
(-0.137456453313 0.15111510229 0)
(-0.133384269568 0.177284262187 0)
(-0.128768845764 0.202546882151 0)
(-0.123670189786 0.226800903784 0)
(-0.118151142325 0.249958469106 0)
(-0.112275801264 0.271946073159 0)
(-0.10610807255 0.292704418258 0)
(-0.0997104250012 0.312187965758 0)
(-0.0931428217841 0.33036424303 0)
(-0.0864618818529 0.347212957936 0)
(-0.0797202217895 0.362724974075 0)
(-0.0729660247141 0.376901194529 0)
(-0.0662427714028 0.389751402383 0)
(-0.0595891752619 0.40129310072 0)
(-0.0530392402554 0.411550393613 0)
(-0.0466224758299 0.420552941014 0)
(-0.0403641720251 0.428335014338 0)
(-0.0342857647633 0.434934666369 0)
(-0.0284051883141 0.44039301945 0)
(-0.0227372540659 0.444753662711 0)
(-0.017293962408 0.448062142547 0)
(-0.0120848089993 0.450365524546 0)
(-0.00711700969578 0.451712007183 0)
(-0.00239572565312 0.452150570257 0)
(0.00207577862769 0.451730647205 0)
(0.00629595298695 0.450501815162 0)
(0.010264880766 0.44851358828 0)
(0.0139839637138 0.445814882262 0)
(0.0174559775013 0.442454138714 0)
(0.0206848341087 0.438478885176 0)
(0.0236754841096 0.433935598803 0)
(0.0264337727143 0.428869537825 0)
(0.0289663451394 0.423324597224 0)
(0.0312805189716 0.417343184893 0)
(0.0333842049771 0.410966115852 0)
(0.0352857932259 0.404232522955 0)
(0.0369940853007 0.397179782656 0)
(0.0385181897095 0.389843455353 0)
(0.0398674608451 0.382257239629 0)
(0.04105139994 0.374452940725 0)
(0.0420795979884 0.366460452929 0)
(0.0429616408157 0.358307756488 0)
(0.0437070555696 0.350020928686 0)
(0.0443252210027 0.34162416965 0)
(0.0448253197916 0.333139842108 0)
(0.0452162574566 0.324588525203 0)
(0.0455066245114 0.31598908085 0)
(0.0457046286868 0.307358732135 0)
(0.0458180716671 0.298713151445 0)
(0.0458542991856 0.290066557112 0)
(0.0458201960591 0.281431815605 0)
(0.0457221570335 0.272820547678 0)
(0.0455661017624 0.264243235172 0)
(0.0453574667316 0.255709326835 0)
(0.0451012389122 0.24722733994 0)
(0.0448019662347 0.238804956463 0)
(0.0444638061376 0.230449111075 0)
(0.0440905497951 0.222166070376 0)
(0.0436856798108 0.213961501313 0)
(0.0432524020131 0.20584052908 0)
(0.0427937058701 0.197807783266 0)
(0.0423123974879 0.189867433337 0)
(0.0418111565578 0.182023212971 0)
(0.0412925649669 0.174278435033 0)
(0.0407591554154 0.166635997263 0)
(0.0402134316286 0.15909838094 0)
(0.0396579054593 0.151667642869 0)
(0.0390951065298 0.144345403166 0)
(0.0385276066025 0.137132829288 0)
(0.0379580183046 0.130030618713 0)
(0.0373890071224 0.12303898059 0)
(0.0368232802759 0.116157618561 0)
(0.0362635879672 0.109385714825 0)
(0.0357127044406 0.10272191734 0)
(0.035173420759 0.0961643298814 0)
(0.0346485205472 0.0897105064889 0)
(0.0341407669174 0.0833574496564 0)
(0.0336528755505 0.0771016133796 0)
(0.0331874984373 0.0709389100338 0)
(0.0327471971573 0.0648647216852 0)
(0.0323344267653 0.0588739145516 0)
(0.0319515137231 0.0529608569686 0)
(0.0316006466766 0.0471194400053 0)
(0.0312838700889 0.0413431017825 0)
(0.0310031004785 0.0356248588437 0)
(0.0307601621046 0.0299573721714 0)
(0.030556834155 0.0243330213852 0)
(0.0303944901867 0.0187440752945 0)
(0.0302662675338 0.0131773109241 0)
(0.0300185468298 0.00771052447047 0)
(0.0269220909236 0.0022821032726 0)
(-0.158176507738 0.0119376759488 0)
(-0.175249828403 0.0414972695144 0)
(-0.174561717785 0.0703122133602 4.13545171938e-27)
(-0.172017808409 0.099272783674 0)
(-0.168579130744 0.127634506354 0)
(-0.164351183095 0.155281932888 0)
(-0.159399065154 0.182079768134 0)
(-0.153792427607 0.207906633761 0)
(-0.147606085543 0.232656470017 0)
(-0.140918027328 0.256239257826 0)
(-0.133807434596 0.278581020358 0)
(-0.126352898679 0.299623485027 0)
(-0.118630885617 0.319323418417 0)
(-0.110714454639 0.337651704065 0)
(-0.102672244903 0.354592226021 0)
(-0.0945677150238 0.370140616178 0)
(-0.0864586399927 0.384302919623 0)
(-0.0783968399206 0.397094230215 0)
(-0.0704281360523 0.40853734678 0)
(-0.0625924935602 0.418661497245 0)
(-0.0549243305092 0.427501171813 0)
(-0.0474529337607 0.435095095986 0)
(-0.0402029481069 0.441485359891 0)
(-0.0331948731878 0.446716703656 0)
(-0.0264455423221 0.450835942562 0)
(-0.0199685369493 0.453891503814 0)
(-0.0137745407351 0.455933041689 0)
(-0.00787161804465 0.457011099967 0)
(-0.00226544782868 0.457176798933 0)
(0.00304048852949 0.456481528964 0)
(0.00804471226641 0.45497666365 0)
(0.0127476706079 0.452713376843 0)
(0.0171513620805 0.449742026711 0)
(0.0212593854433 0.446112411466 0)
(0.0250766870488 0.441873243493 0)
(0.0286094176905 0.437072049986 0)
(0.031864781231 0.431755008444 0)
(0.0348509030018 0.425966811805 0)
(0.0375766991688 0.4197505534 0)
(0.0400517651867 0.413147628948 0)
(0.0422862626008 0.406197653552 0)
(0.0442908214398 0.398938392459 0)
(0.046076437541 0.391405705007 0)
(0.047654382349 0.383633501689 0)
(0.0490361054682 0.375653714574 0)
(0.0502331480788 0.367496281613 0)
(0.0512570486605 0.359189145358 0)
(0.0521192596962 0.350758266613 0)
(0.0528310580103 0.342227653317 0)
(0.0534034677797 0.333619404765 0)
(0.0538471799492 0.324953770877 0)
(0.0541724871045 0.316249225747 0)
(0.054389218256 0.307522554204 0)
(0.0545066920143 0.298788949698 0)
(0.0545336728348 0.290062121333 0)
(0.0544783476974 0.281354407506 0)
(0.0543483077379 0.272676893364 0)
(0.0541505506877 0.264039529206 0)
(0.0538914883234 0.255451246967 0)
(0.0535769731922 0.24692007203 0)
(0.0532123286214 0.238453227895 0)
(0.0528023948251 0.230057231614 0)
(0.0523515752073 0.221737978317 0)
(0.0518638945432 0.213500813601 0)
(0.051343053631 0.20535059308 0)
(0.0507924913038 0.197291728875 0)
(0.0502154392661 0.189328223327 0)
(0.0496149801774 0.181463690563 0)
(0.0489940956436 0.173701366955 0)
(0.0483557142806 0.166044111793 0)
(0.0477027478743 0.158494399712 0)
(0.0470381256313 0.151054306494 0)
(0.0463648159667 0.143725489956 0)
(0.0456858455889 0.136509167607 0)
(0.0450043066618 0.129406092714 0)
(0.0443233614334 0.122416530213 0)
(0.0436462363144 0.115540233846 0)
(0.0429762142461 0.108776425637 0)
(0.0423166183855 0.102123778746 0)
(0.0416707952361 0.0955804043544 0)
(0.0410420911955 0.0891438432603 0)
(0.0404338298268 0.0828110624086 0)
(0.0398492847046 0.0765784566489 0)
(0.0392916542946 0.0704418555971 0)
(0.0387640346938 0.0643965355088 0)
(0.0382693960219 0.0584372360923 0)
(0.0378105595902 0.0525581823225 0)
(0.0373901814097 0.0467531113613 0)
(0.037010741029 0.0410153083361 0)
(0.0366745403781 0.0353376518717 0)
(0.0363837092265 0.0297126841112 0)
(0.0361401854382 0.0241326917535 0)
(0.0359451705912 0.0185898201208 0)
(0.0357897407591 0.0130704416932 0)
(0.0354914545115 0.00764937112562 0)
(0.031822688159 0.00226926823597 0)
(-0.185058999278 0.012243355636 0)
(-0.205008907904 0.0429385223728 0)
(-0.204160218008 0.0726763666004 -4.13324952922e-27)
(-0.201118663085 0.102576741153 0)
(-0.197012162259 0.13182477378 0)
(-0.19196816595 0.160294975628 0)
(-0.186067161155 0.187842731277 0)
(-0.179395016223 0.214339738809 0)
(-0.172043472292 0.239675408111 0)
(-0.164107640201 0.263757487959 0)
(-0.155683559579 0.286511852051 0)
(-0.146866039635 0.307881900612 0)
(-0.137746823904 0.327827611198 0)
(-0.128413084342 0.346324325118 0)
(-0.118946243107 0.36336134157 0)
(-0.109421109968 0.378940382912 0)
(-0.0999053276046 0.393073988944 0)
(-0.0904591082531 0.405783897797 0)
(-0.0811352457141 0.417099471146 0)
(-0.071979369305 0.427056221465 0)
(-0.0630303994831 0.43569449307 0)
(-0.0543211432433 0.443058336922 0)
(-0.0458789648948 0.449194599052 0)
(-0.0377264585032 0.454152218755 0)
(-0.0298820659952 0.457981708121 0)
(-0.0223605968642 0.460734767168 0)
(-0.0151736396421 0.462463981742 0)
(-0.00832987099847 0.463222557453 0)
(-0.00183529313406 0.463064058581 0)
(0.00430657607581 0.46204211696 0)
(0.0100945234498 0.460210240237 0)
(0.0155294639537 0.45762137584 0)
(0.0206142056664 0.454327700837 0)
(0.0253533230376 0.450380531774 0)
(0.0297529484796 0.445829955349 0)
(0.0338205826602 0.440724705934 0)
(0.0375649214474 0.435112015523 0)
(0.0409956993806 0.429037490577 0)
(0.0441235448411 0.422545008297 0)
(0.0469598498296 0.415676628294 0)
(0.0495166470374 0.408472517246 0)
(0.0518064961695 0.400970885204 0)
(0.05384237249 0.39320793334 0)
(0.0556375603647 0.385217813426 0)
(0.0572055460032 0.377032599925 0)
(0.058559913279 0.368682275555 0)
(0.059714238061 0.360194731499 0)
(0.0606819859475 0.35159578309 0)
(0.0614764100575 0.342909201941 0)
(0.0621104546893 0.33415676477 0)
(0.0625966624912 0.325358319082 0)
(0.0629470914541 0.316531864891 0)
(0.0631732398514 0.307693651425 0)
(0.0632859852519 0.298858286697 0)
(0.063295535446 0.290038857658 0)
(0.0632113965003 0.281247057763 0)
(0.0630423549394 0.272493318866 0)
(0.0627964779408 0.263786943831 0)
(0.0624811274391 0.255136236628 0)
(0.0621029906221 0.246548626493 0)
(0.0616681217719 0.238030783481 0)
(0.0611819968008 0.229588722743 0)
(0.0606495748353 0.221227895815 0)
(0.0600753674901 0.212953267388 0)
(0.0594635101015 0.204769377025 0)
(0.0588178353444 0.196680385489 0)
(0.0581419438715 0.188690106295 0)
(0.0574392725928 0.180802023197 0)
(0.056713156003 0.173019295137 0)
(0.0559668816644 0.165344750115 0)
(0.0552037362076 0.157780870028 0)
(0.0544270435391 0.150329768299 0)
(0.0536401926231 0.142993162496 0)
(0.0528466570421 0.13577234374 0)
(0.0520500045566 0.128668144938 0)
(0.0512538991928 0.121680909354 0)
(0.0504620947454 0.114810461175 0)
(0.0496784223398 0.108056079188 0)
(0.0489067713796 0.101416474749 0)
(0.0481510664555 0.0948897747108 0)
(0.0474152398415 0.0884735100097 0)
(0.0467032019678 0.0821646101619 0)
(0.0460188096877 0.075959403919 0)
(0.045365834495 0.0698536260425 0)
(0.0447479307048 0.0638424301275 0)
(0.0441686055678 0.0579204074934 0)
(0.0436311915817 0.0520816122667 0)
(0.0431388227533 0.0463195936712 0)
(0.0426944148943 0.0406274357773 0)
(0.0423006505165 0.0349978071948 0)
(0.0419599628802 0.0294230384307 0)
(0.0416744793501 0.0238951724626 0)
(0.0414453705021 0.018406016113 0)
(0.041262048064 0.0129415006303 0)
(0.040914081202 0.0075732123238 0)
(0.0366811545749 0.00225196359514 0)
(-0.212922916078 0.012604534454 0)
(-0.235841255601 0.0446499888364 0)
(-0.234804225826 0.0754815851651 0)
(-0.231214900184 0.106494405598 0)
(-0.226376032472 0.136788601555 0)
(-0.220439854336 0.166226467775 0)
(-0.213504975082 0.194652332667 0)
(-0.205676242362 0.221929933262 0)
(-0.197064976863 0.247943737658 0)
(-0.187785846812 0.272599394315 0)
(-0.17795390102 0.295823203606 0)
(-0.167682000134 0.317561165541 0)
(-0.157078672721 0.337777662922 0)
(-0.146246385936 0.356453883641 0)
(-0.135280212089 0.373586061832 0)
(-0.12426687279 0.38918360188 0)
(-0.113284148175 0.403267144187 0)
(-0.102400639667 0.415866633263 0)
(-0.0916758704472 0.42701945563 0)
(-0.0811606924445 0.436768719275 0)
(-0.0708979479766 0.445161744411 0)
(-0.0609233090311 0.452248820548 0)
(-0.0512661994056 0.458082258199 0)
(-0.0419506984023 0.462715726564 0)
(-0.032996339284 0.466203831238 0)
(-0.0244187463516 0.468601857569 0)
(-0.0162300976469 0.469965596436 0)
(-0.0084394382896 0.470351180756 0)
(-0.00105289454968 0.469814890185 0)
(0.00592616078013 0.468412879215 0)
(0.0124969709964 0.466201050404 0)
(0.0186611083315 0.463234432729 0)
(0.0244223552277 0.459567203865 0)
(0.029786470065 0.455252427604 0)
(0.034760952967 0.45034173873 0)
(0.0393548263445 0.444885226899 0)
(0.0435784351306 0.438931302576 0)
(0.0474432677222 0.432526590284 0)
(0.0509617959946 0.425715839889 0)
(0.0541473314467 0.418541850527 0)
(0.0570138926135 0.41104540415 0)
(0.0595760801957 0.403265207779 0)
(0.061848956081 0.395237844674 0)
(0.0638479244147 0.3869977356 0)
(0.0655886126672 0.378577111538 0)
(0.0670867524507 0.370005999574 0)
(0.0683580594833 0.36131222355 0)
(0.0694181138374 0.352521421172 0)
(0.0702822412611 0.343657078822 0)
(0.0709653980459 0.334740585169 0)