/*--------------------------------*- C++ -*----------------------------------*\
| =========                 |                                                 |
| \\      /  F ield         | OpenFOAM: The Open Source CFD Toolbox           |
|  \\    /   O peration     | Version:  v1906                                 |
|   \\  /    A nd           | Web:      www.OpenFOAM.com                      |
|    \\/     M anipulation  |                                                 |
\*---------------------------------------------------------------------------*/
FoamFile
{
    version     2.0;
    format      ascii;
    class       volVectorField;
    location    "220";
    object      Ua;
}
// * * * * * * * * * * * * * * * * * * * * * * * * * * * * * * * * * * * * * //

dimensions      [0 1 -1 0 0 0 0];


internalField   nonuniform List<vector> 
9216
(
(-0.0955944467374 0.0959806395174 0)
(-0.0969370650032 0.298597199282 4.53142063051e-26)
(-0.09224167354 0.503629000184 -6.02645203173e-30)
(-0.0849251792653 0.707441081762 0)
(-0.0752699163332 0.908106922776 0)
(-0.0634594327573 1.10482616833 0)
(-0.0496978240202 1.29679389956 0)
(-0.0342060106256 1.48328657349 0)
(-0.0172202476131 1.6636574972 0)
(0.00101261291303 1.83733980025 0)
(0.0202406228361 2.00384798129 0)
(0.0402121309053 2.1627780336 0)
(0.0606807538386 2.31380596345 0)
(0.0814096766378 2.45668484476 0)
(0.102175256518 2.59124067246 0)
(0.122769830458 2.71736727938 0)
(0.14300381142 2.83502060789 0)
(0.16270704361 2.94421258022 0)
(0.181729560842 3.04500480608 0)
(0.199941749167 3.13750230647 0)
(0.217234082778 3.22184741745 0)
(0.233516437454 3.29821398123 0)
(0.248717151058 3.36680191793 0)
(0.262781822283 3.42783222497 0)
(0.275672004535 3.48154244291 0)
(0.287363765402 3.52818259253 0)
(0.297846250666 3.56801158664 0)
(0.307120200223 3.60129410016 0)
(0.315196532466 3.6282978909 0)
(0.322094911365 3.6492915645 0)
(0.327842361806 3.66454282846 0)
(0.332471685557 3.67431746047 0)
(0.336018811853 3.67887919488 0)
(0.338514091339 3.67848790367 0)
(0.339947930514 3.6734015629 0)
(0.340441228087 3.66382764602 0)
(0.340053176654 3.6500080413 0)
(0.338836553664 3.63216917093 0)
(0.336844283696 3.6105296161 0)
(0.334129279848 3.58529960459 0)
(0.330744080456 3.55668114752 0)
(0.326740502737 3.52486807569 0)
(0.322169388057 3.49004612689 0)
(0.317080351129 3.45239306708 0)
(0.311521613761 3.41207884263 0)
(0.305539834948 3.36926575931 0)
(0.299180015852 3.32410867952 0)
(0.292485393233 3.2767552353 0)
(0.285497398844 3.22734604933 0)
(0.278255600827 3.17601496332 0)
(0.270797703516 3.12288926728 0)
(0.263159524342 3.06808993061 0)
(0.255375022904 3.01173182919 0)
(0.247476303585 2.95392397107 0)
(0.239493665172 2.89476971503 0)
(0.231455621635 2.8343669859 0)
(0.223388965614 2.77280848115 0)
(0.215318801609 2.71018187332 0)
(0.20726861825 2.64657000302 0)
(0.199260329571 2.58205106766 0)
(0.191314352273 2.51669880058 0)
(0.183449651852 2.45058264626 0)
(0.175683822012 2.38376792622 0)
(0.168033133284 2.31631600159 0)
(0.160512612498 2.24828442684 0)
(0.15313609216 2.17972710104 0)
(0.145916288433 2.11069441084 0)
(0.138864850018 2.04123337182 0)
(0.131992433537 1.97138776223 0)
(0.125308751002 1.90119825599 0)
(0.11882264177 1.83070254865 0)
(0.112542117974 1.75993548349 0)
(0.106474432447 1.68892917117 0)
(0.100626121652 1.6177131103 0)
(0.0950030691496 1.54631430206 0)
(0.0896105456993 1.47475736641 0)
(0.0844532679538 1.40306465294 0)
(0.0795354355089 1.33125635375 0)
(0.0748607845774 1.25935061157 0)
(0.0704326218238 1.18736363033 0)
(0.0662538728181 1.11530978136 0)
(0.0623271124929 1.04320171271 0)
(0.0586546081325 0.971050454534 0)
(0.0552383461493 0.898865528342 0)
(0.0520800690035 0.82665505361 0)
(0.049181297126 0.754425860385 0)
(0.046543357041 0.682183603671 0)
(0.044167391906 0.609932893762 0)
(0.0420543639888 0.537677451785 0)
(0.0402050086308 0.465420339093 0)
(0.0386196833274 0.393164386911 0)
(0.0372978892807 0.320913143642 0)
(0.036236484007 0.248673212902 0)
(0.0354304702433 0.176423734964 0)
(0.0348015358734 0.104680246363 0)
(0.0336030970366 0.0335634421344 0)
(-0.298110570059 0.100607423998 0)
(-0.31729378675 0.314539524358 0)
(-0.316643916009 0.532020715051 -4.58748276184e-26)
(-0.314841129639 0.74757936614 0)
(-0.312355873866 0.959725002765 0)
(-0.309274360889 1.16769039881 0)
(-0.305645807291 1.37066493779 0)
(-0.301518097232 1.56790161747 0)
(-0.296938279595 1.75872750154 0)
(-0.291952930847 1.94255010836 0)
(-0.286607422386 2.11886027183 0)
(-0.280945113446 2.28723268116 0)
(-0.275006594261 2.44732452698 0)
(-0.268829162772 2.59887257843 0)
(-0.262446470422 2.74168900953 0)
(-0.255888418774 2.87565626911 0)
(-0.249181183326 3.00072128638 0)
(-0.242347428722 3.11688926494 0)
(-0.235406574692 3.22421729891 0)
(-0.228375182425 3.32280799548 0)
(-0.221267321998 3.41280326381 0)
(-0.214095004477 3.49437838253 0)
(-0.206868545411 3.56773643718 0)
(-0.199596959497 3.63310317918 0)
(-0.192288260034 3.69072234422 0)
(-0.184949776487 3.74085143801 0)
(-0.177588370141 3.78375799025 0)
(-0.170210673667 3.81971625536 0)
(-0.162823245123 3.84900433278 0)
(-0.1554327842 3.87190165424 0)
(-0.148046320366 3.88868675642 0)
(-0.140671482672 3.89963507722 0)
(-0.133316131125 3.9050161242 0)
(-0.125980523305 3.90509091137 0)
(-0.118587112327 3.90010904677 0)
(-0.111228465895 3.8903534376 0)
(-0.103921345725 3.8760660845 0)
(-0.0966726600968 3.8574864501 0)
(-0.0894894848746 3.83484565059 0)
(-0.0823789132317 3.8083665493 0)
(-0.0753479033557 3.77826359427 0)
(-0.0684032364359 3.74474280283 0)
(-0.0615514400581 3.70800180118 0)
(-0.0547987862817 3.66822991725 0)
(-0.0481512336337 3.62560831317 0)
(-0.0416144358577 3.58031015 0)
(-0.0351936929678 3.53250077542 0)
(-0.0288939667516 3.48233792998 0)
(-0.0227198393299 3.42997196487 0)
(-0.0166755344512 3.37554606875 0)
(-0.0107648829357 3.31919649814 0)
(-0.00499134899533 3.26105281057 0)
(0.000641998080988 3.20123809603 0)
(0.00613245339412 3.13986920717 0)
(0.0114776992133 3.0770569844 0)
(0.0166757710839 3.01290647742 0)
(0.0217250757994 2.9475171598 0)
(0.0266243549707 2.88098313866 0)
(0.0313726988781 2.8133933566 0)
(0.0359695082812 2.74483178827 0)
(0.0404145047895 2.67537762896 0)
(0.0447076916092 2.60510547798 0)
(0.0488493609952 2.53408551426 0)
(0.052840054569 2.46238366717 0)
(0.0566805683551 2.3900617801 0)
(0.0603719132199 2.31717776993 0)
(0.0639153179279 2.24378577977 0)
(0.0673121901948 2.16993632848 0)
(0.0705641181457 2.09567645415 0)
(0.0736728324101 2.021049855 0)
(0.0766402063062 1.94609702509 0)
(0.0794682193605 1.87085538814 0)
(0.0821589565012 1.79535942684 0)
(0.0847145733289 1.71964081096 0)
(0.0871372945558 1.64372852156 0)
(0.0894293813131 1.56764897462 0)
(0.0915931290337 1.49142614139 0)
(0.0936308370288 1.4150816686 0)
(0.0955448059525 1.3386349959 0)
(0.0973373098152 1.26210347373 0)
(0.0990105930815 1.18550247875 0)
(0.100566845136 1.10884553017 0)
(0.102008196812 1.03214440417 0)
(0.103336696867 0.955409249576 0)
(0.10455430683 0.878648702287 0)
(0.105662877164 0.801870001554 0)
(0.106664135247 0.725079105387 0)
(0.107559649757 0.648280807081 0)
(0.108350785411 0.571478844383 0)
(0.109038593163 0.494675981296 0)
(0.109623578779 0.417874014244 0)
(0.110105152021 0.341073348217 0)
(0.11047990102 0.264271090184 0)
(0.11073242057 0.187400381422 0)
(0.110616443996 0.111230725196 0)
(0.104820530476 0.0344455912884 0)
(-0.503247227528 0.105815866246 0)
(-0.534661481383 0.316801642363 0)
(-0.530572229364 0.538038242038 -4.55839830602e-26)
(-0.523526659998 0.755853469359 0)
(-0.514159719619 0.9702671612 0)
(-0.502648051578 1.18036695418 0)
(-0.489149105204 1.38532405917 0)
(-0.473846245093 1.58437199639 0)
(-0.456937761388 1.77682503478 0)
(-0.438631699097 1.96208234108 0)
(-0.419140408738 2.13963086675 0)
(-0.398675648493 2.30904557177 0)
(-0.377444243226 2.46998762639 0)
(-0.355644451755 2.6222009376 0)
(-0.333463051882 2.76550737252 0)
(-0.311073181185 2.89980102207 0)
(-0.288632851987 3.02504182598 0)
(-0.266284114685 3.14124883954 0)
(-0.244152741593 3.24849338537 0)
(-0.222348384914 3.34689228591 0)
(-0.200965070687 3.43660133346 0)
(-0.180081989607 3.51780911135 0)
(-0.159764458075 3.5907312475 0)
(-0.140065030444 3.65560514867 0)
(-0.121024655451 3.71268524086 0)
(-0.102673881016 3.76223871889 0)
(-0.0850340199854 3.80454179443 0)
(-0.0681183008013 3.83987641662 0)
(-0.0519329296015 3.86852743016 0)
(-0.0364780959928 3.8907801234 0)
(-0.021748843827 3.90691809535 0)
(-0.00773584627666 3.91722124559 0)
(0.00557378912703 3.92196381477 0)
(0.0181933628544 3.92141516313 0)
(0.0301086717405 3.91584550952 0)
(0.0413719633771 3.90551270835 0)
(0.052008454944 3.89066292049 0)
(0.0620403132287 3.87153547749 0)
(0.0714903455983 3.84836201338 0)
(0.0803816374153 3.82136582086 0)
(0.0887373546812 3.79076164195 0)
(0.096580547585 3.75675563184 0)
(0.103934016799 3.71954541551 0)
(0.110820182501 3.67932020152 0)
(0.117261003307 3.63626093588 0)
(0.123277891401 3.59054048554 0)
(0.128891670603 3.54232384316 0)
(0.13412252528 3.49176834752 0)
(0.138989986384 3.43902391389 0)
(0.143512904242 3.38423327085 0)
(0.147709453753 3.32753219973 0)
(0.15159712341 3.26904977451 0)
(0.15519273298 3.20890859953 0)
(0.15851243305 3.14722504395 0)
(0.161571730281 3.08410947105 0)
(0.16438549332 3.01966646224 0)
(0.166967982081 2.95399503427 0)
(0.169332857091 2.88718885009 0)
(0.171493210289 2.81933642231 0)
(0.173461575773 2.75052131002 0)
(0.17524996041 2.68082230813 0)
(0.176869854625 2.61031363039 0)
(0.178332261694 2.53906508521 0)
(0.179647707714 2.46714224568 0)
(0.18082626888 2.39460661306 0)
(0.181877580135 2.32151577515 0)
(0.182810860033 2.24792355883 0)
(0.183634917835 2.17388017823 0)
(0.184358175781 2.09943237795 0)
(0.184988674562 2.0246235726 0)
(0.185534092982 1.94949398216 0)
(0.186001751866 1.87408076449 0)
(0.186398631187 1.79841814427 0)
(0.186731372545 1.72253753983 0)
(0.187006293893 1.64646768708 0)
(0.187229390777 1.57023476195 0)
(0.187406348818 1.49386250042 0)
(0.187542543901 1.41737231765 0)
(0.187643052582 1.34078342527 0)
(0.187712651376 1.26411294801 0)
(0.187755825175 1.18737603909 0)
(0.187776765683 1.11058599527 0)
(0.187779377696 1.03375437085 0)
(0.187767276312 0.95689109165 0)
(0.187743790225 0.880004567873 0)
(0.187711956043 0.803101806451 0)
(0.187674515471 0.726188520599 0)
(0.187633901299 0.649269234322 0)
(0.187592219848 0.572347372428 0)
(0.187551218514 0.495425315481 0)
(0.187512255097 0.418504415844 0)
(0.187476334805 0.341584715211 0)
(0.187443933283 0.264664733645 0)
(0.187407087777 0.187671899681 0)
(0.187018875898 0.111673793479 0)
(0.176976209456 0.0340147954747 0)
(-0.712208258394 0.113320493509 0)
(-0.757075767356 0.318788266618 0)
(-0.751297675249 0.545256741237 4.52404505117e-26)
(-0.741387254645 0.765682269263 0)
(-0.728232138705 0.982730266645 0)
(-0.712099267542 1.19527277102 0)
(-0.693215809004 1.40246602778 0)
(-0.671845394324 1.60351909769 0)
(-0.648271649136 1.79773240098 0)
(-0.622790484783 1.98449791288 0)
(-0.59570200339 2.1633017336 0)
(-0.567303420234 2.33372350207 0)
(-0.537882978226 2.49543374507 0)
(-0.507714980902 2.6481894865 0)
(-0.47705595261 2.79182854858 0)
(-0.446141900925 2.92626293718 0)
(-0.415186579925 3.05147166713 0)
(-0.384380648014 3.16749333318 0)
(-0.353891567689 3.27441867981 0)
(-0.323864119023 3.37238336933 0)
(-0.294421373045 3.46156109829 0)
(-0.265666013164 3.54215716739 0)
(-0.237681876619 3.61440257189 0)
(-0.210535636818 3.6785486479 0)
(-0.184278532561 3.73486228494 0)
(-0.158948099155 3.78362169551 0)
(-0.134569838288 3.82511271904 0)
(-0.111158809074 3.85962562674 0)
(-0.0887210984777 3.88745238978 0)
(-0.0672551670843 3.90888437355 0)
(-0.0467530269656 3.92421042613 0)
(-0.0272012158779 3.93371532697 0)
(-0.00858140823528 3.93767872805 0)
(0.00912972378276 3.9363750904 0)
(0.025963373028 3.93007146896 0)
(0.0419347607004 3.91901946621 0)
(0.0570698539082 3.9034716911 0)
(0.0713964542837 3.88366941511 0)
(0.0849433592077 3.8598451594 0)
(0.0977397965633 3.83222252631 0)
(0.109815105482 3.80101628894 0)
(0.121198490285 3.76643244253 0)
(0.131918839955 3.72866831048 0)
(0.142004580015 3.68791269054 0)
(0.151483565266 3.64434603414 0)
(0.16038299129 3.59814065076 0)
(0.16872933641 3.54946093015 0)
(0.176548314241 3.49846357695 0)
(0.183864849509 3.44529785305 0)
(0.190703058611 3.39010582391 0)
(0.197086248059 3.33302260581 0)
(0.203036913435 3.27417661183 0)
(0.208576752249 3.21368979438 0)
(0.213726674293 3.15167788321 0)
(0.218506822973 3.08825061745 0)
(0.222936592105 3.02351197139 0)
(0.22703465154 2.95756037295 0)
(0.230818966934 2.89048891514 0)
(0.234306826803 2.82238555977 0)
(0.237514862921 2.75333333407 0)
(0.240459076911 2.68341051972 0)
(0.243154859764 2.61269083503 0)
(0.245617016753 2.5412436102 0)
(0.247859785162 2.46913395617 0)
(0.249896856832 2.39642292736 0)
(0.25174139361 2.3231676787 0)
(0.253406047186 2.24942161734 0)
(0.254902972067 2.17523454956 0)
(0.256243842618 2.10065282301 0)
(0.257439863581 2.02571946513 0)
(0.258501784381 1.95047431758 0)
(0.259439907333 1.87495416765 0)
(0.260264099413 1.79919287642 0)
(0.260983798363 1.72322150462 0)
(0.261608022163 1.64706843582 0)
(0.262145373314 1.57075949802 0)
(0.262604046262 1.49431808312 0)
(0.262991830138 1.41776526524 0)
(0.263316114378 1.3411199175 0)
(0.26358389015 1.26439882802 0)
(0.263801754371 1.18761681476 0)
(0.263975909945 1.11078683982 0)
(0.264112168205 1.0339201229 0)
(0.264215947863 0.957026254107 0)
(0.264292275574 0.880113305758 0)
(0.264345783095 0.803187942657 0)
(0.264380705339 0.726255529444 0)
(0.264400875666 0.649320232546 0)
(0.264409724004 0.572385111212 0)
(0.264410281733 0.495452187282 0)
(0.264405215886 0.418522537552 0)
(0.264396957198 0.341596134258 0)
(0.26438728158 0.264672631616 0)
(0.264364125743 0.187665753483 0)
(0.263832002924 0.111996238409 0)
(0.249561213967 0.0332355516871 0)
(-0.9243110717 0.123485958511 0)
(-0.982698399154 0.321354431131 0)
(-0.975068524834 0.555006917368 0)
(-0.962050547898 0.778951050202 0)
(-0.944766795518 0.999554598313 0)
(-0.923582498542 1.2153864316 0)
(-0.898801394118 1.42558827368 0)
(-0.870775020905 1.62933619772 0)
(-0.839880518114 1.82591196928 0)
(-0.806510513598 2.01469793917 0)
(-0.771062239015 2.19517932303 0)
(-0.733928067195 2.36694245408 0)
(-0.69548745917 2.52967091202 0)
(-0.656100471482 2.68313983677 0)
(-0.616102824311 2.82720894797 0)
(-0.575802458924 2.961814724 0)
(-0.535477441345 3.0869621419 0)
(-0.495375039092 3.20271631197 0)
(-0.455711770379 3.30919427227 0)
(-0.416674232615 3.40655714237 0)
(-0.378420517694 3.49500277721 0)
(-0.341082049361 3.5747590109 0)
(-0.30476569063 3.64607753917 0)
(-0.269556003354 3.70922845616 0)
(-0.235517555819 3.76449543683 0)
(-0.202697206489 3.812171538 0)
(-0.171126301397 3.85255557944 0)
(-0.140822749574 3.88594905855 0)
(-0.11179294439 3.91265354907 0)
(-0.0840335199904 3.9329685379 0)
(-0.0575329266697 3.94718965463 0)
(-0.0322728333097 3.95560717002 0)
(-0.00822951588272 3.95850467095 0)
(0.0146245370617 3.95616000168 0)
(0.0363202750542 3.94884396705 0)
(0.0568927707317 3.93681198426 0)
(0.0763782838911 3.9203166943 0)
(0.0948141708602 3.89960010904 0)
(0.112238563452 3.87489531592 0)
(0.128689988434 3.84642617382 0)
(0.144207022158 3.81440742122 0)
(0.158828002507 3.77904477944 0)
(0.172590800468 3.74053510795 0)
(0.185532638059 3.69906659197 0)
(0.197689949824 3.65481895647 0)
(0.209098276247 3.60796369926 0)
(0.219792188244 3.55866433723 0)
(0.229805233036 3.50707666082 0)
(0.239169901982 3.45334899266 0)
(0.247917612042 3.39762244722 0)
(0.256078702496 3.34003118879 0)
(0.263682439655 3.28070268582 0)
(0.270757031917 3.21975796024 0)
(0.277329648766 3.15731183034 0)
(0.283426446598 3.09347314665 0)
(0.289072595634 3.02834502019 0)
(0.294292311177 2.96202504272 0)
(0.299108884028 2.894605499 0)
(0.303544713509 2.82617357092 0)
(0.307621338384 2.75681153379 0)
(0.311359469233 2.6865969449 0)
(0.314779017945 2.61560282471 0)
(0.317899127913 2.54389783098 0)
(0.320738200936 2.47154642636 0)
(0.323313924357 2.39860903964 0)
(0.325643294739 2.32514222129 0)
(0.327742641536 2.25119879365 0)
(0.329627647305 2.17682799621 0)
(0.331313367799 2.10207562638 0)
(0.33281424874 2.02698417632 0)
(0.334144142448 1.95159296597 0)
(0.335316321362 1.87593827295 0)
(0.336343491454 1.80005345955 0)
(0.3372378028 1.72396909709 0)
(0.338010860106 1.64771308817 0)
(0.338673730671 1.57131078694 0)
(0.339236952393 1.49478511768 0)
(0.339710539499 1.41815669209 0)
(0.340103988371 1.34144392526 0)
(0.340426281396 1.26466315074 0)
(0.340685890942 1.1878287347 0)
(0.3408907816 1.11095318942 0)
(0.341048412578 1.03404728604 0)
(0.341165738579 0.957120166624 0)
(0.341249210873 0.88017945526 0)
(0.341304777289 0.803231367894 0)
(0.341337883039 0.726280820031 0)
(0.341353472482 0.649331531299 0)
(0.341355996115 0.572386125142 0)
(0.341349428662 0.495446220991 0)
(0.341337311184 0.418512596405 0)
(0.341322853733 0.341585028194 0)
(0.341308126553 0.264663786778 0)
(0.341276214767 0.18764123852 0)
(0.340582887673 0.112394420632 0)
(0.322135183904 0.032174474385 0)
(-1.14060459302 0.136493455164 0)
(-1.21279129959 0.324595735085 0)
(-1.20315511399 0.567494228507 0)
(-1.18682857116 0.795928406345 0)
(-1.16515290609 1.0210747766 0)
(-1.13860549199 1.24109494927 0)
(-1.10757854798 1.45511669801 0)
(-1.07252448498 1.66227448538 0)
(-1.03392641379 1.86182739768 0)
(-0.992285195777 2.05314688041 0)
(-0.94810536693 2.23571870427 0)
(-0.901883033383 2.40913960581 0)
(-0.854095709539 2.57311172361 0)
(-0.80519427441 2.72743513473 0)
(-0.755597014802 2.87199914279 0)
(-0.705685620809 3.00677285328 0)
(-0.655802918501 3.13179549385 0)
(-0.606252084415 3.24716684468 0)
(-0.55729706807 3.35303805382 0)
(-0.50916395704 3.44960303124 0)
(-0.462043036196 3.53709054501 0)
(-0.416091324349 3.61575708594 0)
(-0.371435401533 3.68588052249 0)
(-0.328174376796 3.74775453405 0)
(-0.28638287541 3.8016837878 0)
(-0.246113956405 3.84797980877 0)
(-0.207401893324 3.88695748386 0)
(-0.170264775104 3.91893213658 0)
(-0.134706898004 3.94421710928 0)
(-0.100720935272 3.96312179987 0)
(-0.0682898703752 3.97595009942 0)
(-0.0373886949286 3.98299901177 0)
(-0.00798602465114 3.98455730742 0)
(0.0199546345696 3.98090821366 0)
(0.0464744628859 3.97232379236 0)
(0.0716153348903 3.95906254192 0)
(0.0954224249753 3.94137906797 0)
(0.117942419451 3.91951652311 0)
(0.139222816851 3.89370861621 0)
(0.159311448965 3.86417940715 0)
(0.178256074715 3.83114348916 0)
(0.196104051155 3.79480615776 0)
(0.212902070723 3.75536362354 0)
(0.228695954535 3.71300324879 0)
(0.243530494413 3.66790380299 0)
(0.257449334529 3.62023573049 0)
(0.270494887363 3.57016142562 0)
(0.282708276777 3.51783551096 0)
(0.294129304594 3.46340511544 0)
(0.304796435061 3.40701014979 0)
(0.314746794873 3.34878357717 0)
(0.324016184356 3.28885167749 0)
(0.33263909847 3.22733430441 0)
(0.340648754142 3.16434513402 0)
(0.348077123341 3.09999190494 0)
(0.354954969095 3.03437664942 0)
(0.361311884396 2.96759591538 0)
(0.367176331737 2.89974097954 0)
(0.372575683609 2.83089805172 0)
(0.377536262088 2.76114847066 0)
(0.38208337813 2.69056889166 0)
(0.386241369001 2.61923146656 0)
(0.390033634627 2.54720401633 0)
(0.393482671542 2.47455019688 0)
(0.39661010533 2.40132965848 0)
(0.399436720407 2.3275981994 0)
(0.401982488104 2.25340791406 0)
(0.404266592056 2.17880733632 0)
(0.406307451859 2.10384157836 0)
(0.408122744124 2.0285524655 0)
(0.409729421897 1.95297866747 0)
(0.411143731639 1.87715582651 0)
(0.41238122874 1.80111668265 0)
(0.413456790822 1.72489119658 0)
(0.414384629763 1.64850667032 0)
(0.415178301781 1.57198786621 0)
(0.415850716427 1.4953571242 0)
(0.416414143919 1.41863447795 0)
(0.41688022158 1.34183776975 0)
(0.417259958879 1.26498276465 0)
(0.417563741767 1.18808326373 0)
(0.417801335868 1.11115121676 0)
(0.417981889171 1.03419683434 0)
(0.418113933881 0.957228699409 0)
(0.418205388104 0.880253878089 0)
(0.41826355733 0.803278029788 0)
(0.41829513678 0.72630551629 0)
(0.418306215541 0.649339509894 0)
(0.418302285114 0.572382100844 0)
(0.418288255621 0.495434403679 0)
(0.41826848216 0.418496763577 0)
(0.418246819119 0.341568488626 0)
(0.418225454637 0.264650062657 0)
(0.418182881256 0.187605296428 0)
(0.41732664069 0.112882885814 0)
(0.394716435317 0.0308371632214 0)
(-1.36214299379 0.152563227273 0)
(-1.44852236336 0.32856527911 0)
(-1.43668378816 0.58292130973 4.44494226793e-26)
(-1.41679217938 0.816873166108 0)
(-1.39039030613 1.04761145517 0)
(-1.35808456894 1.27276807764 0)
(-1.32036903886 1.49145806061 0)
(-1.27781190244 1.7027650953 0)
(-1.23101669756 1.90592217429 0)
(-1.18060591796 2.1002896431 0)
(-1.12720321478 2.28535670258 0)
(-1.0714183482 2.46073582535 0)
(-1.01383478611 2.62615489863 0)
(-0.955000125303 2.78144739515 0)
(-0.895419235119 2.92654140065 0)
(-0.835549892606 3.06144813515 0)
(-0.775800588177 3.18625049122 0)
(-0.71653013929 3.30109198403 0)
(-0.658048742427 3.40616639115 0)
(-0.600620113508 3.501708259 0)
(-0.544464401266 3.58798437039 0)
(-0.489761602843 3.66528620371 0)
(-0.436655256792 3.73392336737 0)
(-0.385256234989 3.79421796081 0)
(-0.335646495975 3.84649979282 0)
(-0.287882699663 3.89110237691 0)
(-0.241999613387 3.92835961899 0)
(-0.19801326535 3.9586031131 0)
(-0.155923820902 3.98215996517 0)
(-0.115718172421 3.99935108291 0)
(-0.0773722344705 4.01048986449 0)
(-0.0408529514967 4.01588095396 0)
(-0.00612016431174 4.01581897695 0)
(0.0268723597945 4.01059375431 0)
(0.0581745047858 4.00047800552 0)
(0.0878388148461 3.98573455996 0)
(0.115920390714 3.96661959886 0)
(0.142475934941 3.94337745432 0)
(0.167562849984 3.91624238074 0)
(0.191238725146 3.88543851365 0)
(0.213560880558 3.85118012809 0)
(0.234586005342 3.8136718862 0)
(0.254369869599 3.77310911553 0)
(0.272967100501 3.72967810228 0)
(0.290431012702 3.68355639425 0)
(0.306813483958 3.63491310836 0)
(0.322164868657 3.58390923883 0)
(0.336533942267 3.53069796259 0)
(0.34996787137 3.47542493958 0)
(0.362512204057 3.41822860605 0)
(0.374210876889 3.35924045945 0)
(0.385106234562 3.29858533385 0)
(0.395239059652 3.23638166544 0)
(0.404648609614 3.17274174759 0)
(0.413372659255 3.1077719754 0)
(0.421447546681 3.04157307977 0)
(0.428908221528 2.97424035118 0)
(0.435788294058 2.90586385351 0)
(0.442120084455 2.83652862822 0)
(0.447934671245 2.76631488935 0)
(0.45326193856 2.69529820992 0)
(0.458130621467 2.62354970013 0)
(0.462568349329 2.55113617802 0)
(0.466601686629 2.47812033303 0)
(0.470256171393 2.4045608831 0)
(0.473556350818 2.33051272585 0)
(0.47652581434 2.2560270843 0)
(0.479187223862 2.1811516477 0)
(0.481562341453 2.105930708 0)
(0.483672054327 2.03040529234 0)
(0.48553639743 1.95461329209 0)
(0.487174573529 1.87858958872 0)
(0.488604971135 1.80236617719 0)
(0.489845180181 1.72597228676 0)
(0.490912005816 1.64943450004 0)
(0.491821480247 1.57277687021 0)
(0.49258887297 1.49602103685 0)
(0.493228699351 1.41918634068 0)
(0.493754727897 1.34228993721 0)
(0.494179986157 1.26534690974 0)
(0.494516765589 1.18837038163 0)
(0.494776625386 1.11137162822 0)
(0.494970395549 1.03436018815 0)
(0.495108179298 0.95734397447 0)
(0.495199355181 0.88032938539 0)
(0.495252579154 0.80332141474 0)
(0.495275787286 0.726323762348 0)
(0.495276199831 0.64933894482 0)
(0.495260327855 0.572368407368 0)
(0.495233983251 0.495412635579 0)
(0.495202288658 0.418471391574 0)
(0.495169700686 0.341543273096 0)
(0.495138556224 0.264628850653 0)
(0.495083166785 0.187556453512 0)
(0.494063017668 0.113465060074 0)
(0.467295622856 0.0292277524795 0)
(-1.5900659467 0.171967011396 0)
(-1.69112868462 0.333322000108 0)
(-1.67684019124 0.601545700967 -4.40855707357e-26)
(-1.65305662427 0.84211524918 0)
(-1.62150387619 1.07957117975 0)
(-1.58294020453 1.31087178533 0)
(-1.53797920703 1.53512185468 0)
(-1.48732423127 1.75134454588 0)
(-1.43171787596 1.95874418877 0)
(-1.37192137315 2.15667133119 0)
(-1.3086923798 2.34462345889 0)
(-1.24276661693 2.52223634121 0)
(-1.17484309928 2.68927309479 0)
(-1.10557308837 2.8456112537 0)
(-1.03555254383 2.991228902 0)
(-0.965317696122 3.12619062459 0)
(-0.895343268422 3.25063386829 0)
(-0.826042843908 3.36475612973 0)
(-0.757770886742 3.46880323646 0)
(-0.690825966468 3.56305886429 0)
(-0.625454793292 3.64783533839 0)
(-0.561856736661 3.72346569667 0)
(-0.500188563937 3.79029694672 0)
(-0.440569196244 3.8486844187 0)
(-0.38308433141 3.89898710169 0)
(-0.32779082909 3.94156384604 0)
(-0.274720789661 3.97677031654 0)
(-0.223885287928 4.00495658749 0)
(-0.175277744889 4.0264652811 0)
(-0.128876936224 4.04163017765 0)
(-0.0846496382008 4.05077521367 0)
(-0.0425529246019 4.05421342037 0)
(-0.00253618739733 4.05224587745 0)
(0.0354584713986 4.045169978 0)
(0.0714899694951 4.03325770633 0)
(0.105622626839 4.01677753004 0)
(0.137922243971 3.99598683589 0)
(0.168456208782 3.97113107763 0)
(0.197292377452 3.94244487711 0)
(0.22449854623 3.9101522318 0)
(0.250141958202 3.87446684879 0)
(0.274288920422 3.83559248285 0)
(0.297004501833 3.79372328807 0)
(0.318352301988 3.74904417386 0)
(0.338394278949 3.70173116063 0)
(0.357190626494 3.65195173132 0)
(0.374799692156 3.59986517581 0)
(0.391277928668 3.54562292607 0)
(0.406679872598 3.48936888059 0)
(0.421058144712 3.43123971697 0)
(0.434463467636 3.371365192 0)
(0.446944696838 3.30986842893 0)
(0.458548861824 3.24686619184 0)
(0.46932121473 3.18246914715 0)
(0.479305284141 3.11678211266 0)
(0.488542932197 3.04990429441 0)
(0.497074413525 2.98192951191 0)
(0.504938434665 2.91294641222 0)
(0.512172213077 2.8430386736 0)
(0.518811534829 2.77228519925 0)
(0.524890810434 2.70076030186 0)
(0.530443128269 2.62853387954 0)
(0.535500305318 2.55567158399 0)
(0.540092934888 2.48223498123 0)
(0.544250431244 2.40828170588 0)
(0.548001070971 2.33386560932 0)
(0.551372031138 2.25903690247 0)
(0.554389424193 2.18384229367 0)
(0.557078329742 2.10832512228 0)
(0.559462823213 2.03252548836 0)
(0.56156600163 1.95648037908 0)
(0.563410006528 1.88022379204 0)
(0.565016044271 1.80378685624 0)
(0.566404403835 1.72719795074 0)
(0.567594472325 1.65048282151 0)
(0.568604748312 1.57366469684 0)
(0.569452853246 1.49676440139 0)
(0.57015554105 1.41980046926 0)
(0.570728706134 1.34278925634 0)
(0.571187389945 1.26574505192 0)
(0.571545786275 1.18868018996 0)
(0.57181724547 1.11160515994 0)
(0.572014277757 1.03452871759 0)
(0.572148555871 0.957457995402 0)
(0.57223091726 0.880398613197 0)
(0.572271366144 0.803354788806 0)
(0.572279075808 0.726329449154 0)
(0.572262391531 0.649324342339 0)
(0.572228834466 0.572340151088 0)
(0.572185105978 0.495376604487 0)
(0.572137086577 0.418432740025 0)
(0.572089845791 0.341506249637 0)
(0.572045936274 0.264597838292 0)
(0.571975776378 0.187493295287 0)
(0.57079045254 0.114141757096 0)
(0.539868067422 0.0273477299931 0)
(-1.82562316901 0.195041626967 0)
(-1.94196167514 0.33893790491 0)
(-1.9249144565 0.62369027564 0)
(-1.89682961589 0.872069188786 0)
(-1.8595956013 1.11746309243 0)
(-1.81415270677 1.35598698786 0)
(-1.7612572717 1.58674005142 0)
(-1.70177278182 1.80867473037 0)
(-1.63660451167 2.02096550582 0)
(-1.56667373926 2.22295660774 0)
(-1.4928903077 2.41416140977 0)
(-1.41613056289 2.59424954053 0)
(-1.33722014352 2.76303183663 0)
(-1.25692164444 2.92044338976 0)
(-1.17592672261 3.06652602459 0)
(-1.09485205062 3.2014110926 0)
(-1.01423843586 3.3253032351 0)
(-0.934552416571 3.43846553498 0)
(-0.856189691069 3.54120628642 0)
(-0.779479812479 3.63386746535 0)
(-0.704691671174 3.71681487624 0)
(-0.632039379791 3.79042987999 0)
(-0.561688262592 3.85510256391 0)
(-0.493760728367 3.91122619365 0)
(-0.42834187146 3.95919278079 0)
(-0.365484699173 3.99938960425 0)
(-0.305214925925 4.03219653518 0)
(-0.247535307088 4.05798402863 0)
(-0.192429509048 4.07711166391 0)
(-0.139865526606 4.0899271495 0)
(-0.0897986670509 4.09676568649 0)
(-0.042174141495 4.09794915175 0)
(0.0030708286145 4.09378551251 0)
(0.0460078510796 4.08458052244 0)
(0.086705075526 4.07060365679 0)
(0.125240285169 4.05213040093 0)
(0.161690843775 4.02941867919 0)
(0.196135551476 4.0027148878 0)
(0.22865331881 3.97225372126 0)
(0.259322637757 3.93825872626 0)
(0.288221065691 3.90094270607 0)
(0.315424835057 3.86050816043 0)
(0.34100854994 3.81714771677 0)
(0.36504495865 3.77104455433 0)
(0.387604789088 3.72237281653 0)
(0.408756636096 3.67129800935 0)
(0.4285668915 3.6179773843 0)
(0.447099708845 3.56256030491 0)
(0.464416996109 3.50518859638 0)
(0.480578430602 3.44599687811 0)
(0.495641491247 3.38511287945 0)
(0.509661504129 3.32265773885 0)
(0.522691697918 3.25874628701 0)
(0.534783266298 3.19348731465 0)
(0.545985435069 3.1269838256 0)
(0.556345531925 3.05933327601 0)
(0.565909057394 2.99062780041 0)
(0.574719755578 2.92095442559 0)
(0.582819683722 2.85039527301 0)
(0.590249279769 2.7790277506 0)
(0.597047427292 2.70692473482 0)
(0.60325151733 2.63415474378 0)
(0.608897506801 2.56078210206 0)
(0.614019973239 2.4868670982 0)
(0.618652165765 2.4124661354 0)
(0.622826052184 2.33763187613 0)
(0.626572362256 2.26241338143 0)
(0.629920627166 2.18685624527 0)
(0.632899215313 2.11100272479 0)
(0.635535364527 2.03489186674 0)
(0.637855210898 1.95855963076 0)
(0.639883814361 1.88203900981 0)
(0.641645181244 1.80536014834 0)
(0.643162283984 1.72855045838 0)
(0.644457078203 1.65163473405 0)
(0.64555051735 1.57463526474 0)
(0.646462565138 1.49757194716 0)
(0.64721220595 1.42046239663 0)
(0.647817453452 1.34332205781 0)
(0.64829535759 1.26616431484 0)
(0.648662010185 1.18900060144 0)
(0.648932549312 1.11184051067 0)
(0.649121162683 1.0346919048 0)
(0.649241090232 0.957561025296 0)
(0.649304626121 0.880452602913 0)
(0.649323120414 0.803369968346 0)
(0.649306980605 0.726315163439 0)
(0.649265673168 0.649289053559 0)
(0.649207725055 0.572291440961 0)
(0.649140724251 0.495321173982 0)
(0.649071312761 0.418376437816 0)
(0.649005193684 0.341453853935 0)
(0.648945184343 0.264554408619 0)
(0.64885799724 0.187414000875 0)
(0.647505759095 0.114912641596 0)
(0.612429553139 0.0251978405548 0)
(-2.07019809853 0.222202471518 0)
(-2.20251666967 0.345503345855 0)
(-2.18232643572 0.649756551846 0)
(-2.14943123359 0.907250358335 0)