/*--------------------------------*- C++ -*----------------------------------*\
| =========                 |                                                 |
| \\      /  F ield         | OpenFOAM: The Open Source CFD Toolbox           |
|  \\    /   O peration     | Version:  v1906                                 |
|   \\  /    A nd           | Web:      www.OpenFOAM.com                      |
|    \\/     M anipulation  |                                                 |
\*---------------------------------------------------------------------------*/
FoamFile
{
    version     2.0;
    format      ascii;
    class       volScalarField;
    location    "200";
    object      alpha;
}
// * * * * * * * * * * * * * * * * * * * * * * * * * * * * * * * * * * * * * //

dimensions      [0 0 -1 0 0 0 0];


internalField   nonuniform List<scalar> 
9216
(
148.388929075
199.999999578
199.999999613
199.999999613
199.999999613
199.999999639
199.999999639
199.999999639
199.999999639
199.999999639
199.999999639
199.999999604
199.9999996
199.999999504
199.999999504
199.999999504
199.99999956
199.999999587
199.999999605
199.999999605
199.999999584
199.999999484
199.999999484
199.999999484
199.999999484
199.999999484
199.999999456
199.999999387
199.999999343
199.999999307
199.999999286
199.999999179
199.999999291
199.999999337
199.999999338
199.99999943
199.999999432
199.999999432
199.999999432
199.999999432
199.999999432
199.999999406
199.999999379
199.999999338
199.999999342
199.999999348
199.999999348
199.999999348
199.999999348
199.999999331
199.999999348
199.99999937
199.999999395
199.999999421
199.999999432
199.999999426
199.99999939
199.999999328
199.999999264
199.999999131
199.999998966
199.999998811
199.999998676
199.999998545
199.99999827
199.999998059
199.999997984
199.999997734
199.999997419
199.999997212
199.999996782
199.999996125
199.999995639
199.999995464
199.999994956
199.999993731
199.999991737
199.999989141
199.999985125
199.999957112
199.999837021
199.999712027
199.999519045
199.998837554
199.995228856
199.961893007
197.776011922
173.00622308
141.080132579
113.376636265
87.9131428682
66.448682408
47.5620810347
30.1887249776
16.7008779569
2.2239944527
199.999999567
199.99999962
199.999999639
199.999999639
199.999999639
199.999999639
199.999999613
199.999999613
199.999999613
199.999999613
199.999999613
199.999999613
199.999999563
199.999999507
199.999999507
199.999999507
199.999999563
199.999999563
199.999999533
199.999999583
199.999999583
199.9999995
199.9999995
199.999999462
199.999999424
199.999999424
199.999999424
199.999999424
199.999999409
199.99999934
199.999999271
199.999999271
199.999999271
199.999999271
199.999999271
199.999999271
199.999999271
199.999999209
199.999999209
199.999999209
199.999999154
199.999999154
199.999999154
199.999999154
199.99999906
199.99999906
199.99999906
199.99999906
199.99999906
199.99999906
199.99999906
199.99999906
199.999998936
199.999998917
199.999998917
199.999998917
199.999998761
199.999998678
199.999998597
199.999998348
199.999998056
199.999997786
199.999997518
199.99999723
199.999997157
199.999996785
199.999996342
199.999995866
199.999996043
199.999996534
199.999996441
199.999995769
199.99999512
199.999994683
199.999994062
199.999992688
199.999990587
199.999989766
199.999988916
199.999983497
199.999944685
199.999816288
199.999715543
199.999446675
199.99866755
199.9946482
199.91559537
184.042460852
156.248081699
126.059007097
99.4528648225
78.8036650406
60.6251924435
40.2723433204
26.5256856226
18.5652477217
199.999999613
199.999999665
199.999999649
199.999999649
199.999999613
199.999999613
199.999999613
199.999999613
199.999999613
199.999999613
199.999999583
199.999999583
199.999999583
199.999999583
199.9999995
199.9999995
199.9999995
199.9999995
199.9999995
199.9999995
199.9999995
199.9999995
199.9999995
199.999999424
199.999999424
199.99999934
199.999999284
199.999999216
199.999999216
199.999999216
199.999999154
199.999999154
199.99999906
199.99999906
199.99999906
199.99999906
199.99999906
199.99999906
199.99999906
199.99999906
199.99999906
199.99999906
199.999998955
199.999998955
199.999998812
199.999998683
199.999998683
199.999998683
199.999998408
199.999998408
199.999998408
199.999998408
199.999998408
199.999998408
199.999998408
199.999998408
199.999998408
199.999998403
199.999998359
199.999998156
199.999997827
199.999997533
199.999997258
199.9999969
199.999996442
199.999995943
199.999995405
199.999994822
199.999994295
199.999993706
199.999992863
199.999991493
199.999990434
199.999990925
199.999990486
199.999987981
199.999984226
199.999980156
199.99997224
199.999921736
199.999796417
199.999721952
199.999615103
199.999337071
199.998629319
199.994207737
199.640098803
182.086430903
159.412632154
128.486410704
100.67475057
81.8986052021
60.4835046122
46.6413427055
40.6502389698
28.6323409268
199.999999639
199.999999649
199.999999649
199.999999649
199.999999613
199.999999613
199.999999613
199.999999613
199.999999583
199.999999583
199.999999583
199.999999583
199.999999583
199.9999995
199.9999995
199.9999995
199.9999995
199.9999995
199.9999995
199.9999995
199.9999995
199.999999445
199.999999369
199.999999369
199.999999284
199.999999216
199.999999154
199.999999154
199.99999906
199.99999906
199.99999906
199.99999906
199.99999906
199.99999906
199.99999906
199.99999906
199.999998955
199.999998955
199.999998955
199.999998955
199.999998696
199.999998567
199.999998408
199.999998408
199.999998408
199.999998408
199.999998408
199.999998408
199.999998408
199.999998231
199.999998231
199.999998231
199.999998231
199.999998231
199.999998231
199.999998231
199.999998231
199.999998231
199.999998231
199.9999982
199.999997898
199.999997617
199.999997379
199.999997016
199.999996511
199.999996006
199.999995413
199.999994729
199.999994048
199.999993369
199.9999926
199.999991445
199.999989755
199.999988146
199.99998755
199.999984166
199.99997956
199.999973935
199.999953804
199.999873276
199.999743628
199.999580343
199.999309748
199.998966625
199.998007301
199.989990867
199.365199906
181.701532491
153.455464589
131.450023042
108.840739689
81.5480609909
70.197143143
59.5316094123
53.837110522
41.0751530017
199.999999639
199.999999649
199.999999649
199.999999616
199.999999613
199.999999613
199.999999613
199.999999583
199.999999583
199.999999583
199.999999583
199.999999583
199.9999995
199.9999995
199.9999995
199.9999995
199.9999995
199.9999995
199.9999995
199.999999445
199.999999445
199.999999445
199.999999369
199.999999284
199.999999154
199.999999154
199.99999906
199.99999906
199.99999906
199.99999906
199.99999906
199.99999906
199.999998955
199.999998955
199.999998955
199.999998955
199.999998955
199.999998839
199.999998567
199.999998408
199.999998408
199.999998408
199.999998408
199.999998408
199.999998231
199.999998231
199.999998231
199.999998231
199.999998231
199.999998231
199.999998231
199.999998035
199.999998035
199.999998035
199.999998035
199.999998035
199.999998035
199.999997816
199.999997816
199.999997816
199.999997339
199.999996994
199.999996556
199.999995715
199.999995163
199.999994666
199.999994099
199.999993338
199.999992603
199.999992283
199.999991325
199.999989596
199.999988322
199.999987613
199.999985212
199.99998116
199.999976316
199.999974742
199.99995579
199.999871461
199.999736129
199.999589741
199.999329196
199.999068748
199.997454468
199.975820098
196.375772434
171.767392087
158.024608757
135.937107873
114.078643832
95.4128285115
75.8904636556
73.7410644631
70.9171693679
58.0759763119
199.999999639
199.999999649
199.999999649
199.999999613
199.999999613
199.999999613
199.999999583
199.999999583
199.999999583
199.999999583
199.999999583
199.99999955
199.9999995
199.9999995
199.9999995
199.9999995
199.9999995
199.999999445
199.999999445
199.999999445
199.999999445
199.999999369
199.999999284
199.999999154
199.99999906
199.99999906
199.99999906
199.99999906
199.99999906
199.99999906
199.999998955
199.999998955
199.999998955
199.999998955
199.999998955
199.999998839
199.999998567
199.999998408
199.999998408
199.999998408
199.999998408
199.999998231
199.999998231
199.999998231
199.999998231
199.999998231
199.999998231
199.999998035
199.999998035
199.999998035
199.999998035
199.999997816
199.999997816
199.999997816
199.999997573
199.999997573
199.999997304
199.999997304
199.999997304
199.999997004
199.999996512
199.999995636
199.999995152
199.999994456
199.999993822
199.999993822
199.999993771
199.999992875
199.999992426
199.999991776
199.999990751
199.999989425
199.999987912
199.99998661
199.999983564
199.999978285
199.999972133
199.999964581
199.999929437
199.999807922
199.999661798
199.999483776
199.999406342
199.998861168
199.997240322
199.968291869
195.831474338
178.263003487
156.385766127
132.579385353
120.838610636
106.351221275
92.4414847446
88.5256646875
87.8334976875
74.7372866863
199.999999639
199.999999649
199.999999649
199.999999613
199.999999613
199.999999583
199.999999583
199.999999583
199.999999583
199.999999583
199.999999583
199.9999995
199.9999995
199.9999995
199.9999995
199.999999445
199.999999445
199.999999445
199.999999445
199.999999445
199.999999445
199.999999284
199.999999154
199.99999906
199.99999906
199.99999906
199.99999906
199.99999906
199.999998955
199.999998955
199.999998955
199.999998955
199.999998955
199.999998839
199.999998839
199.999998567
199.999998408
199.999998408
199.999998408
199.999998231
199.999998231
199.999998231
199.999998231
199.999998231
199.999998035
199.999998035
199.999998035
199.999998035
199.999997816
199.999997816
199.999997816
199.999997573
199.999997573
199.999997304
199.999997304
199.999997004
199.999997004
199.999997004
199.999997004
199.999994974
199.999993822
199.999993452
199.999992268
199.999992268
199.999992268
199.999992268
199.999991408
199.999991408
199.999991408
199.999991194
199.99999026
199.999989057
199.999987563
199.999985477
199.999982052
199.999976639
199.999969991
199.999960609
199.9999048
199.999765115
199.999634217
199.999513891
199.999308819
199.998445384
199.994607848
199.891020402
197.332139352
180.604323539
160.598902588
142.751622884
126.841209514
118.402133231
112.948927877
104.420454121
104.340540092
91.1755340276
199.999999639
199.999999649
199.999999649
199.999999613
199.999999613
199.99999962
199.99999962
199.999999583
199.999999583
199.999999583
199.999999583
199.9999995
199.9999995
199.999999445
199.999999445
199.999999445
199.999999445
199.999999445
199.999999445
199.999999445
199.999999369
199.999999216
199.99999906
199.99999906
199.99999906
199.99999906
199.99999906
199.999998955
199.999998955
199.999998955
199.999998955
199.999998955
199.999998839
199.99999871
199.999998567
199.999998408
199.999998408
199.999998408
199.999998231
199.999998231
199.999998231
199.999998231
199.999998035
199.999998035
199.999998035
199.999998035
199.999997816
199.999997816
199.999997816
199.999997573
199.999997573
199.999997304
199.999997304
199.999997004
199.999997004
199.999997004
199.999996671
199.999996202
199.999993452
199.999993041
199.999992268
199.999992268
199.999991408
199.999991408
199.999990454
199.999990454
199.999989393
199.999989393
199.999989393
199.999988215
199.999988215
199.999987447
199.99998579
199.999983194
199.999979287
199.999973937
199.999965161
199.999945409
199.999860808
199.999727566
199.999639212
199.999543824
199.999185617
199.998310926
199.99321373
199.949352976
198.583301658
179.35856517
159.210025396
151.670193448
139.208860273
131.064016832
128.758003921
120.294145295
120.701766775
107.78725503
199.999999665
199.999999649
199.999999649
199.999999649
199.99999962
199.99999962
199.99999962
199.999999583
199.999999583
199.999999583
199.999999533
199.9999995
199.999999445
199.999999445
199.999999445
199.999999445
199.999999445
199.999999445
199.999999445
199.999999445
199.999999284
199.999999154
199.99999906
199.99999906
199.99999906
199.99999906
199.999998955
199.999998955
199.999998955
199.999998955
199.999998955
199.999998839
199.99999871
199.999998567
199.999998408
199.999998408
199.999998408
199.999998231
199.999998231
199.999998231
199.999998231
199.999998035
199.999998035
199.999998035
199.999998035
199.999997816
199.999997816
199.999997573
199.999997573
199.999997304
199.999997304
199.999997004
199.999997004
199.999997004
199.999996671
199.999996671
199.999994604
199.999993041
199.999992268
199.999992268
199.999991408
199.999990454
199.999990454
199.999989393
199.999989393
199.999988215
199.999988215
199.999986905
199.999986905
199.999986905
199.99998545
199.999985436
199.999984367
199.999981513
199.999977283
199.999972432
199.99996075
199.999913751
199.99984524
199.999725067
199.999588608
199.999473959
199.999025853
199.998085528
199.994937321
199.968492097
199.375728204
182.442568574
168.586250675
156.401875961
149.184422238
146.839930799
141.203759262
140.259442021
136.870613526
124.556707493
199.999999676
199.999999649
199.999999649
199.999999649
199.99999962
199.99999962
199.99999962
199.999999583
199.999999583
199.999999583
199.999999533
199.9999995
199.999999445
199.999999445
199.999999445
199.999999445
199.999999445
199.999999445
199.999999445
199.999999369
199.999999154
199.99999906
199.99999906
199.99999906
199.99999906
199.999998955
199.999998955
199.999998955
199.999998955
199.999998955
199.999998839
199.99999871
199.999998567
199.999998408
199.999998408
199.999998408
199.999998231
199.999998231
199.999998231
199.999998035
199.999998035
199.999998035
199.999998035
199.999997816
199.999997816
199.999997816
199.999997573
199.999997573
199.999997304
199.999997304
199.999997004
199.999997004
199.999996671
199.999996671
199.999996671
199.999993452
199.999992268
199.999992268
199.999991408
199.999991408
199.999990454
199.999989393
199.999988215
199.999988215
199.999986905
199.999986905
199.99998545
199.99998545
199.999983833
199.999983833
199.999983833
199.999983833
199.999981811
199.999979504
199.99997516
199.999970764
199.999955331
199.999900942
199.999806426
199.999707934
199.999588595
199.99946278
199.999004355
199.998231442
199.99439886
199.966855609
199.580354313
190.99084481
180.859881507
170.028508002
162.018932227
157.67399867
160.606206835
159.24880835
153.632015743
142.079381822
199.999999676
199.999999649
199.999999649
199.999999649
199.99999962
199.99999962
199.99999962
199.999999583
199.999999583
199.999999583
199.999999533
199.999999445
199.999999445
199.999999445
199.999999445
199.999999445
199.999999445
199.999999445
199.999999445
199.999999222
199.999999154
199.99999906
199.99999906
199.99999906
199.999998955
199.999998955
199.999998955
199.999998955
199.999998839
199.999998839
199.99999871
199.999998567
199.999998408
199.999998408
199.999998408
199.999998231
199.999998231
199.999998231
199.999998035
199.999998035
199.999998035
199.999998035
199.999997816
199.999997816
199.999997573
199.999997573
199.999997304
199.999997304
199.999997304
199.999997004
199.999997004
199.999996671
199.999996671
199.999996302
199.999993041
199.999992268
199.999991408
199.999991408
199.999990454
199.999989393
199.999989393
199.999988215
199.999986905
199.99998545
199.99998545
199.999983833
199.999983833
199.999982037
199.999982037
199.999982037
199.999980041
199.999980041
199.999980041
199.999976521
199.999972738
199.999968326
199.999947944
199.9998846
199.999780608
199.999715703
199.999587683
199.99939311
199.999064998
199.998297862
199.994795837
199.979817048
199.880871006
198.914027611
191.05306925
183.292283007
177.494590759
173.353582982
173.276741244
173.912142169
171.092890408
157.623085738
199.999999676
199.999999649
199.999999649
199.999999649
199.99999962
199.99999962
199.99999962
199.999999583
199.999999583
199.999999533
199.9999995
199.999999445
199.999999445
199.999999445
199.999999445
199.999999445
199.999999445
199.999999445
199.999999307
199.999999154
199.99999906
199.99999906
199.99999906
199.999998955
199.999998955
199.999998955
199.999998955
199.999998839
199.999998839
199.999998839
199.999998567
199.999998567
199.999998408
199.999998408
199.999998231
199.999998231
199.999998231
199.999998035
199.999998035
199.999998035
199.999997816
199.999997816
199.999997816
199.999997573
199.999997573
199.999997304
199.999997304
199.999997004
199.999997004
199.999997004
199.999996671
199.999996671
199.999996302
199.999993041
199.999992268
199.999991408
199.999991408
199.999990454
199.999989393
199.999988215
199.999986905
199.999986905
199.99998545
199.999983833
199.999983833
199.999982037
199.999982037
199.999980041
199.999980041
199.999977824
199.999977824
199.99997536
199.999975185
199.999970499
199.999967542
199.99996037
199.99993176
199.999854805
199.999756025
199.999656105
199.999576211
199.999440167
199.999011849
199.998257698
199.99652569
199.989644472
199.95769905
199.816352551
199.136706069
195.577591976
191.771209248
189.161387032
185.173866844
187.278921385
184.513381406
170.770849927
199.999999721
199.999999694
199.999999649
199.999999649
199.99999962
199.99999962
199.99999962
199.999999583
199.999999583
199.999999533
199.9999995
199.999999445
199.999999445
199.999999445
199.999999445
199.999999445
199.999999445
199.999999383
199.999999222
199.999999154
199.99999906
199.99999906
199.99999906
199.999998955
199.999998955
199.999998955
199.999998839
199.999998839
199.999998839
199.99999871
199.999998567
199.999998408
199.999998408
199.999998231
199.999998231
199.999998231
199.999998035
199.999998035
199.999998035
199.999997816
199.999997816
199.999997816
199.999997573
199.999997573
199.999997304
199.999997304
199.999997004
199.999997004
199.999997004
199.999996671
199.999996671
199.999996302
199.999993041
199.999992268
199.999991408
199.999990454
199.999989393
199.999989393
199.999988215
199.999986905
199.99998545
199.999983833
199.999983833
199.999982037
199.999980041
199.999980041
199.999977824
199.999977824
199.99997536
199.99997233
199.999971947
199.999967468
199.999967365
199.999967299
199.99996507
199.999951899
199.999889764
199.999815174
199.999744456
199.999705227
199.99959906
199.999393282
199.998991162
199.998555972
199.996928515
199.993173246
199.981860569
199.954358222
199.869549681
199.652782497
199.43471514
198.818997181
198.052926515
195.688696127
197.294422881
182.33942488
199.999999721
199.999999694
199.999999694
199.999999649
199.99999962
199.99999962
199.99999962
199.999999583
199.999999583
199.999999533
199.9999995
199.999999445
199.999999445
199.999999445
199.999999445
199.999999445
199.999999383
199.999999383
199.999999154
199.999999154
199.99999906
199.99999906
199.999998955
199.999998955
199.999998955
199.999998839
199.999998839
199.999998839
199.99999871
199.999998567
199.999998408
199.999998408
199.999998231
199.999998231
199.999998231
199.999998035
199.999998035
199.999998035
199.999997816
199.999997816
199.999997816
199.999997573
199.999997573
199.999997304
199.999997304
199.999997004
199.999997004
199.999996671
199.999996671
199.999996671
199.999996302
199.999993497
199.999992268
199.999991408
199.999990454
199.999989393
199.999988215
199.999986905
199.999986905
199.99998545
199.999983833
199.999982037
199.99998157
199.999980041
199.999977824
199.99997536
199.999972811
199.999972108
199.99996624
199.999964797
199.999958354
199.999958874
199.999961594
199.999961126
199.999940861
199.999919134
199.999881415
199.999828491
199.999765264
199.999681908
199.999553845
199.999386563
199.999183984
199.998660928
199.997714123
199.995864406
199.992594288
199.983215799
199.962808959
199.928505824
199.899171026
199.855969501
199.789087722
199.688657269
199.78712046
193.138285502
199.999999721
199.999999694
199.999999694
199.999999649
199.99999962
199.99999962
199.99999962
199.999999583
199.999999583
199.999999533
199.9999995
199.999999445
199.999999445
199.999999445
199.999999445
199.999999383
199.999999383
199.999999239
199.999999154
199.99999906
199.99999906
199.99999906
199.999998955
199.999998955
199.999998839
199.999998839
199.999998839
199.99999871
199.999998567
199.999998567
199.999998408
199.999998231
199.999998231
199.999998231
199.999998035
199.999998035
199.999998035
199.999997816
199.999997816
199.999997573
199.999997573
199.999997573
199.999997304
199.999997304
199.999997004
199.999997004
199.999996671
199.999996671
199.999996302
199.999996302
199.999995891
199.999992268
199.999991408
199.999990454
199.999989393
199.999988215
199.999986905
199.99998545
199.999983833
199.999983833
199.999982037
199.999980041
199.999977824
199.99997536
199.999972622
199.99996958
199.999966194
199.999956818
199.99995155
199.999940346
199.999943313
199.999947451
199.9999491
199.999932604
199.999924038
199.999908442
199.999877036
199.999832466
199.999772273
199.999685115
199.999576591
199.99945274
199.999228507
199.998949931
199.998304617
199.997575859
199.995294387
199.992179696
199.986134199
199.978453989
199.969805141
199.960195586
199.948867117
199.935230911
199.937144491
199.300236693
199.999999721
199.999999734
199.999999694
199.999999694
199.999999633
199.99999962
199.99999962
199.99999962
199.999999533
199.9999995
199.9999995
199.999999445
199.999999445
199.999999445
199.999999445
199.999999383
199.999999383
199.999999239
199.999999154
199.99999906
199.99999906
199.999998955
199.999998955
199.999998955
199.999998839
199.999998839
199.99999871
199.999998567
199.999998567
199.999998408
199.999998408
199.999998231
199.999998231
199.999998035
199.999998035
199.999998035
199.999997816
199.999997816
199.999997573
199.999997573
199.999997304
199.999997304
199.999997304
199.999997004
199.999997004
199.999996671
199.999996671
199.999996302
199.999996302
199.999995891
199.999992268
199.999991408
199.999990454
199.999989393
199.999988215
199.999986905
199.99998545
199.999983833
199.999982037
199.999980041
199.999977824
199.99997536
199.999971852
199.99996958
199.9999662
199.999957246
199.999948007
199.999936614
199.999915915
199.999919045
199.999926317
199.999911568
199.999913262
199.999916528
199.999910495
199.999890472
199.999858071
199.999821849
199.999774732
199.999703411
199.999592922
199.999489342
199.999349321
199.999080629
199.998798261
199.998020322
199.997100139
199.995307805
199.993027632
199.991560351
199.987356003
199.983719169
199.981494919
199.978128347
199.975080363
199.855391085
199.999999721
199.999999734
199.999999734
199.999999694
199.999999665
199.99999962
199.99999962
199.99999962
199.999999533
199.9999995
199.9999995
199.999999445
199.999999445
199.999999445
199.999999383
199.999999383
199.999999315
199.999999154
199.999999154
199.99999906
199.99999906
199.999998955
199.999998955
199.999998839
199.999998839
199.99999871
199.999998567
199.999998567
199.999998408
199.999998408
199.999998231
199.999998231
199.999998035
199.999998035
199.999998035
199.999997816
199.999997816
199.999997573
199.999997573
199.999997304
199.999997304
199.999997004
199.999997004
199.999997004
199.999996671
199.999996671
199.999996302
199.999996302
199.999995891
199.999993041
199.999991408
199.999990454
199.999989393
199.999988215
199.99998545
199.999983833
199.999982037
199.999980041
199.999977824
199.999972622
199.9999662
199.999961549
199.999950098
199.999943997
199.999941965
199.999935203
199.999922312
199.999908525
199.999893402
199.999900014
199.999895608
199.999891217
199.999893665
199.999899927
199.999887334
199.999816663
199.999781396
199.999747556
199.999701753
199.999649255
199.99958352
199.999559177
199.999449874
199.999260065
199.998965325
199.998608621
199.997727864
199.997164476
199.996485078
199.995365852
199.993925268
199.992173833
199.991005162
199.990247792
199.988536821
199.954306236
199.999999761
199.999999734
199.999999734
199.999999734
199.999999705
199.999999665
199.99999962
199.99999962
199.999999533
199.9999995
199.999999445
199.999999445
199.999999445
199.999999445
199.999999383
199.999999383
199.999999239
199.999999154
199.99999906
199.99999906
199.999998955
199.999998955
199.999998839
199.999998839
199.99999871
199.99999871
199.999998567
199.999998408
199.999998408
199.999998231
199.999998231
199.999998035
199.999998035
199.999998035
199.999997816
199.999997816
199.999997573
199.999997573
199.999997304
199.999997304
199.999997004
199.999997004
199.999997004
199.999996671
199.999996671
199.999996302
199.999996302
199.999995891
199.999994927
199.999991408
199.999990454
199.999989393
199.999986905
199.99998545
199.999983833
199.999980041
199.999977824
199.999891724
199.999817593
199.999782786
199.999774806
199.999794129
199.999802656
199.999809458
199.99980552
199.999809089
199.999808067
199.999820253
199.999832969
199.999854109
199.999852532
199.999830633
199.999849858
199.999845915
199.999817466
199.999777699
199.999747007
199.999714409
199.999675193
199.999636246
199.999585147
199.999518115
199.999481731
199.999366641
199.999187035
199.998803425
199.998492509
199.998294842
199.997664672
199.997085233
199.996283385
199.995603082
199.99465315
199.994463096
199.993927132
199.98198659
199.999999761
199.999999734
199.999999734
199.999999734
199.999999705
199.999999705
199.99999962
199.999999583
199.9999995
199.9999995
199.999999445
199.999999445
199.999999445
199.999999383
199.999999383
199.999999315
199.999999239
199.999999154
199.99999906
199.99999906
199.999998955
199.999998955
199.999998839
199.99999871
199.99999871
199.999998567
199.999998408
199.999998408
199.999998231
199.999998231
199.999998035
199.999998035
199.999997816
199.999997816
199.999997816
199.999997573
199.999997573
199.999997304
199.999997304
199.999997004
199.999997004
199.999996671
199.999996671
199.999996671
199.999996302
199.999996302
199.999995891
199.999995434
199.999991408
199.999990454
199.999989377
199.999986905
199.99998545
199.999982037
199.999972238
199.999589281
199.999354151
199.99928239
199.99928239
199.99928239
199.999287031
199.999354151
199.999450651
199.999508853
199.999609951
199.999642446
199.999710725
199.999689318
199.9997271
199.999738988
199.999763882
199.999774022
199.999759963
199.999786324
199.999748012
199.999705104
199.99972428
199.999682684
199.999644509
199.999611242
199.999563636
199.99950651
199.999438574
199.999452659
199.999318099
199.999047189
199.998884181
199.998545859
199.998136577
199.997753396
199.997480429
199.997087601
199.996671991
199.996359145
199.996245092
199.991222318
199.999999761
199.999999734
199.999999734
199.999999734
199.999999705
199.999999705
199.999999665
199.999999583
199.9999995
199.9999995
199.999999445
199.999999445
199.999999445
199.999999383
199.999999315
199.999999239
199.999999154
199.999999154
199.99999906
199.999998955
199.999998955
199.999998839
199.999998839
199.99999871
199.999998567
199.999998567
199.999998408
199.999998231
199.999998231
199.999998035
199.999998035
199.999997816
199.999997816
199.999997573
199.999997573
199.999997573
199.999997304
199.999997304
199.999997004
199.999997004
199.999996671
199.999996671
199.999996302
199.999996302
199.999996302
199.999995891
199.999995434
199.999992268
199.999990454
199.999988215
199.999986905
199.999983833
199.999837907
199.999153905
199.998906249
199.998784721
199.998658192
199.998692088
199.998784721
199.998784721
199.998906249
199.998906249
199.999015624
199.999114061
199.999185293
199.999297146
199.999374445
199.999482022
199.999595041
199.999660795
199.999648278
199.999622999
199.999664101
199.99968696
199.999688627
199.999695652
199.999625948
199.999592263
199.999621297
199.999584988
199.999536928
199.999492799
199.999509221
199.999442384
199.999350371
199.999164513
199.999049266
199.998807784
199.998569049
199.998357884
199.998109089
199.997955422
199.997681428
199.997378383
199.997336021
199.994588992
199.999999761
199.999999734
199.999999734
199.999999734
199.999999705
199.999999705
199.999999665
199.999999583
199.9999995
199.9999995
199.999999445
199.999999445
199.999999383
199.999999383
199.999999315
199.999999239
199.999999154
199.99999906
199.99999906
199.999998955
199.999998839
199.999998839
199.99999871
199.999998567
199.999998567
199.999998408
199.999998231
199.999998231
199.999998035
199.999998035
199.999997816
199.999997816
199.999997573
199.999997573
199.999997304
199.999997304
199.999997004
199.999997004
199.999997004
199.999996671
199.999996671
199.999996302
199.999996302
199.999995891
199.999995891
199.999995434
199.999993737
199.999990454
199.999988215
199.99998545
199.999982037
199.998906249
199.998499655
199.99833295
199.99833295
199.99833295
199.99833295
199.99833295
199.99833295
199.99833295
199.998499655
199.998499655
199.99864969
199.99864969
199.998784721
199.998906249
199.999015624
199.9991688
199.999206793
199.999302357
199.999450709
199.999524694
199.999583734
199.999614982
199.999601665
199.99956771
199.999548987
199.999595791
199.999540749
199.999563575
199.999510419
199.999470227
199.999406208
199.999420083
199.999368215
199.999221613
199.999144207
199.998968592
199.998852704
199.998730624
199.99856935
199.998366099
199.998204267
199.998018747
199.997904703
199.996198442
199.999999761
199.999999734
199.999999734
199.999999734
199.999999705
199.999999705
199.999999665
199.99999955
199.9999995
199.9999995
199.999999445
199.999999445
199.999999383
199.999999315
199.999999239
199.999999154
199.999999154
199.99999906
199.999998955
199.999998955
199.999998839
199.99999871
199.999998567
199.999998567
199.999998408
199.999998231
199.999998231
199.999998035
199.999998035
199.999997816
199.999997816
199.999997573
199.999997573
199.999997304
199.999997304
199.999997004
199.999997004
199.999996671
199.999996671
199.999996302
199.999996302
199.999996302
199.999995891
199.999995434
199.999995434
199.999994363
199.999990454
199.999988215
199.99998545
199.999175535
199.99833295
199.998147723
199.998147723
199.998147723
199.998147723
199.998147723
199.998147723
199.998147723
199.998147723
199.998147723
199.998147723
199.99833295
199.99833295
199.99833295
199.99833295
199.998499655
199.99864969
199.99865885
199.998906249
199.999001738
199.999095392
199.999231963
199.999417498
199.999531225
199.999508654
199.999436941
199.999516954
199.999532088
199.999521754
199.999479047
199.999480594
199.99943302
199.999374728
199.99941056
199.999351912
199.999240303
199.9991843
199.999044572
199.999021054
199.998949324
199.998843673
199.998693574