/*--------------------------------*- C++ -*----------------------------------*\
| =========                 |                                                 |
| \\      /  F ield         | OpenFOAM: The Open Source CFD Toolbox           |
|  \\    /   O peration     | Version:  v1906                                 |
|   \\  /    A nd           | Web:      www.OpenFOAM.com                      |
|    \\/     M anipulation  |                                                 |
\*---------------------------------------------------------------------------*/
FoamFile
{
    version     2.0;
    format      ascii;
    class       surfaceScalarField;
    location    "872";
    object      phia;
}
// * * * * * * * * * * * * * * * * * * * * * * * * * * * * * * * * * * * * * //

dimensions      [0 3 -1 0 0 0 0];
oriented        oriented;


internalField   nonuniform List<scalar> 
18240
(
0.00134661703601
-0.00134654205117
0.00282087170889
-0.00147416403868
0.00429405095992
-0.00147310362298
0.00574849242353
-0.0014543478718
0.00717615246047
-0.00142758868727
0.00857031668301
-0.00139406843915
0.00992488748701
-0.00135450385431
0.0112344532206
-0.00130946824743
0.0124940775419
-0.00125956198069
0.0136995373924
-0.00120536118213
0.0148470867224
-0.00114749188406
0.0159337246364
-0.00108653855554
0.0169569006082
-0.00102312356308
0.0179148020722
-0.000957801884454
0.0188060041381
-0.00089115487661
0.019629779165
-0.000823675667555
0.0203856991999
-0.000755878101862
0.0210739718396
-0.000688173930281
0.0216950044421
-0.000620996029478
0.0222497698988
-0.000554667801365
0.0227393404187
-0.000489539261165
0.0231652851635
-0.000425848535899
0.0235291799969
-0.000363868925594
0.0238330368112
-0.000303762415449
0.0240787934154
-0.000245735930294
0.0242687724608
-0.000189886807566
0.024405154497
-0.0001363665744
0.0244904631779
-8.52189241794e-05
0.0245270235977
-3.65499939719e-05
0.024517470533
9.64003304005e-06
0.0244641964005
5.32795924662e-05
0.0243698708632
9.44094389268e-05
0.0242368719319
0.000132999647671
0.0240678359249
0.000169116568339
0.0238650864698
0.000202745537528
0.0236311862281
0.000233977223596
0.0233683583948
0.000262819545618
0.0230790489211
0.000289382654378
0.0227653461282
0.000313690287627
0.0224295486273
0.000335866696686
0.0220735850549
0.000355947151014
0.0216995844783
0.00037406562399
0.0213092989885
0.000390265341331
0.020904673597
0.000404686166486
0.0204872740666
0.000417375984617
0.0200588535068
0.000428476959542
0.019620788095
0.000438038686819
0.0191746376698
0.000446202386387
0.0187215915198
0.000453016593977
0.0182630204266
0.000458618572642
0.0177999348508
0.000463053427191
0.0173335259222
0.000466451920203
0.0168646378153
0.000468853721564
0.0163942953137
0.00047038101701
0.0159231922576
0.000471066683703
0.015452203364
0.000471022977181
0.0149818901198
0.000470275237154
0.0145129947164
0.000468925113507
0.0140459648747
0.000466990450387
0.0135814278853
0.000464562410494
0.0131197354456
0.000461652000577
0.012661416058
0.000458340612261
0.012206741128
0.000454633681319
0.0117561541843
0.000450604082401
0.011309859177
0.00044625325422
0.0108682252971
0.000441647043598
0.0104313985924
0.000436784659324
0.00999968139039
0.000431726511351
0.00957316808452
0.000426471230053
0.00915209845356
0.000421075203757
0.00873651859626
0.000415537932179
0.0083266076198
0.000409912941644
0.00792236442855
0.000404201643915
0.00752390747117
0.000398455452664
0.00713118813574
0.000392678343203
0.00674426334655
0.000386919980824
0.00636303604502
0.000381187099548
0.00598750056062
0.000375527568174
0.00561751065364
0.0003699507168
0.00525299761491
0.000364502250071
0.00489376612371
0.000359193590472
0.00453968509749
0.000354067617109
0.0041905116472
0.000349137086245
0.00384605471364
0.000344441117045
0.00350602739259
0.000339992661114
0.0031701836821
0.000335825543313
0.00283820007422
0.000331950604541
0.00250978720947
0.000328392252067
0.00218460504131
0.000325150726923
0.00186236095135
0.000322221383506
0.00154278738443
0.000319544300214
0.00122580560619
0.000316957957785
0.00091178993375
0.000313990276469
0.000602769800268
0.000308995671305
0.00030746416793
0.0002952775317
0.000307449589432
0.00148874574393
-0.00283520536954
0.00315060341457
-0.00313593012216
0.0048033531318
-0.00312576671679
0.00643230379222
-0.00308320703659
0.0080300196966
-0.00302521963975
0.00958957015715
-0.00295352779709
0.011104348337
-0.00286919914554
0.0125683160835
-0.00277334561325
0.0139760085624
-0.0026671740579
0.0153226689926
-0.0025519323885
0.0166041721268
-0.00242891745336
0.0178171341428
-0.00229941291223
0.0189587896622
-0.00216470468924
0.0200270912602
-0.00202601776046
0.0210205505401
-0.00188454318267
0.0219383349226
-0.00174137659895
0.0227800818942
-0.00159755777151
0.0235460002392
-0.00145401140531
0.024236666083
-0.00131159841926
0.0248531346497
-0.0011710583558
0.025396725311
-0.00103307050398
0.0258691480442
-0.000898196369688
0.0262722825525
-0.000766948163573
0.0266083211449
-0.000639729443005
0.0268795446225
-0.000516908413262
0.0270884810852
-0.000398755241872
0.0272376794734
-0.000285518299438
0.0273298823572
-0.000177357485753
0.0273677970439
-7.44224218798e-05
0.0273542794994
2.32180404447e-05
0.0272921003728
0.000115496565912
0.0271841459505
0.000202420340267
0.027033191892
0.000283987111097
0.0268420961495
0.000360264691536
0.0266135634794
0.000431307204859
0.026350356995
0.00049723191013
0.0260550653558
0.000558135793423
0.0257303172435
0.000614174729215
0.0253785487898
0.000665479043839
0.0250022215776
0.000712233603539
0.0246035916221
0.000754593171047
0.0241849296607
0.000792763004167
0.0237482926134
0.000826914342683
0.0232957448751
0.000857265071655
0.0228291331259
0.000883995691287
0.0223503074488
0.000907329595195
0.0218609003958
0.000927449868461
0.0213625467865
0.000944578819466
0.0208566678322
0.000958896001932
0.0203446885219
0.000970616662697
0.0198278275485
0.000979911379344
0.0193073111541
0.000986983167154
0.0187841694198
0.000991989145732
0.0182594454457
0.000995116046712
0.0177339984746
0.000996504279077
0.0172087072471
0.00099632161455
0.0166842802612
0.000994689989882
0.0161614521937
0.000991757105185
0.015640801569
0.000987626219843
0.0151229391913
0.000982425401055
0.0146083334198
0.000976240512725
0.0140974897054
0.000969181804787
0.0135907837385
0.000961320218085
0.0130886313294
0.000952751017271
0.0125913296989
0.000943533495944
0.01209921715
0.000933751342836
0.0116125228838
0.000923455793714
0.0111315160785
0.000912722466405
0.0106563646245
0.000901598001768
0.0101872734147
0.000890153129036
0.00972435246952
0.000878432836733
0.00926774436124
0.000866505497934
0.00881750216136
0.000854416626313
0.00837370603317
0.000842233933101
0.00793635144298
0.000830004734296
0.00750545499921
0.000817796873722
0.00708095327511
0.000805659856007
0.00666279800853
0.000793661601966
0.0062508658484
0.0007818533855
0.00584504301715
0.000770302423282
0.00544514618464
0.000759060682451
0.00505099668541
0.000748193308219
0.00466235269845
0.000737751349537
0.00427897308716
0.000727795999582
0.00390056100474
0.000718375200311
0.00352681743195
0.000709543520662
0.00315739629663
0.000701342314342
0.00279194748187
0.000693814510088
0.00243008196167
0.000686986857442
0.00207139882545
0.000680877141973
0.00171544055999
0.000675474396958
0.00136163687981
0.000670735069662
0.00100904178818
0.000666558071809
0.000655313270483
0.000662697788636
0.000294450039228
0.000656114451082
0.000601886264511
0.00151505546142
-0.00435017673474
0.00319819676381
-0.00481898158374
0.00487469253643
-0.00480217282842
0.00652727009814
-0.00473569444682
0.00814776252271
-0.00464562368604
0.00972890418318
-0.00453458018913
0.0112639254418
-0.00440413358844
0.0127466506286
-0.00425598287061
0.0141715408242
-0.0040919793481
0.0155337627684
-0.00391406817416
0.0168291795869
-0.00372425167688
0.0180543850691
-0.00352453439196
0.0192066571622
-0.00331689682462
0.0202839695863
-0.00310324868352
0.0212849187862
-0.00288541538549
0.0222087222649
-0.00266510137988
0.0230551284468
-0.00244389016464
0.0238244103123
-0.00222321765334
0.0245172668037
-0.0020043845886
0.0251348190469
-0.00178853830048
0.0256785101737
-0.00157669495809
0.026150109299
-0.00136972673316
0.0265516142423
-0.00116839028273
0.0268852656688
-0.000973315824485
0.0271534543664
-0.000785038257766
0.0273587454525
-0.000603985162297
0.0275037899041
-0.00043050801401
0.0275913572465
-0.000264867667825
0.0276242501472
-0.00010726477059
0.0276053438711
4.21773573316e-05
0.0275375034882
0.000183383216687
0.027423628275
0.000316344392866
0.0272665720939
0.000441085248069
0.0270691923912
0.000557688957319
0.0268342710004
0.000666266184235
0.0265645678967
0.000766975266838
0.0262627442372
0.000859992697825
0.0259314197772
0.00094553511191
0.025573097951
0.00102382976769
0.0251902260298
0.00109513713408
0.0247851222359
0.00115972158839
0.0243600380809
0.0012178744859
0.0239170876727
0.0012698851465
0.0234583117051
0.00131606415095
0.0229856090581
0.00135671462633
0.0225008020177
0.0013921556121
0.0220055704086
0.00142269375153
0.021501517614
0.00144864656939
0.0209901073505
0.00147031468706
0.020472730077
0.0014880049937
0.0199506425536
0.00150200360605
0.0194250341338
0.00151259889956
0.0188969690412
0.00152005541778
0.0183674519988
0.00152463681517
0.0178373731476
0.00152658095128
0.0173075723667
0.00152612271736
0.0167787865761
0.00152347046022
0.0162517121102
0.00151882867178
0.0157269542056
0.00151237584891
0.0152050867863
0.00150428690021
0.0146866038667
0.00149471242839
0.0141719762288
0.00148380069611
0.0136616046292
0.00147167827836
0.0131558729445
0.00145847133216
0.0126551030986
0.00144428748816
0.0121596044387
0.00142923619969
0.0116696304938
0.00141341175441
0.0111854244673
0.00139691244761
0.0107071779738
0.00137982458229
0.0102350726977
0.00136224029256
0.00976924140385
0.00134424245825
0.0093098058782
0.00132592102225
0.00885684049166
0.00130735877132
0.00841040662509
0.00128864608664
0.00797051912382
0.00126986760607
0.0075371774024
0.0012511153713
0.00711033505256
0.00123247640934
0.00668992783336
0.00121404431035
0.0062758466908
0.00119590780288
0.00586796278164
0.0011781607974
0.00546610406275
0.00116089202788
0.00507007746702
0.00114419362216
0.00467964918356
0.00112815187611
0.00429456401933
0.00111285436854
0.00391452935994
0.00109838187948
0.00353923161469
0.0010848140042
0.00316832355115
0.00107222211392
0.00280143690423
0.0010606732868
0.00243817096197
0.00105022424408
0.00207809609546
0.00104092393199
0.00172073135349
0.00103281079323
0.00136551567444
0.00102592371129
0.00101173282561
0.00102031498949
0.000658494261441
0.00101590881093
0.000306555710667
0.00100802539164
0.000908429209928
0.00153839744981
-0.00588848923106
0.00324457319048
-0.00652506557953
0.00494422713277
-0.00650173615886
0.00661928385077
-0.00641066033995
0.00826110919195
-0.00628735928053
0.00986211059229
-0.00613549201514
0.0114152984753
-0.00595723308101
0.0129143359998
-0.00575493235348
0.0143535866572
-0.00553114341882
0.0157281574988
-0.00528855290622
0.0170339065726
-0.00502991636296
0.0182674494848
-0.00475799350597
0.0194261322874
-0.00447549780693
0.0205080111419
-0.00418504639124
0.0215118011527
-0.00388912644589
0.0224368394904
-0.00359006152113
0.0232830204033
-0.00328999528723
0.0240507514479
-0.00299087372058
0.0247408838488
-0.00269444459238
0.0253546700327
-0.00240225295935
0.0258936966295
-0.00211565277771
0.0263598490918
-0.00183581132943
0.0267552517001
-0.00156372790529
0.0270822417774
-0.00130024186847
0.0273433177626
-0.00104605321729
0.0275411225023
-0.000801729851421
0.0276783980154
-0.000567726577851
0.0277579757628
-0.00034438946737
0.0277827361186
-0.00013197236998
0.0277556037495
6.93614684315e-05
0.0276795107354
0.000259524721801
0.027557394814
0.000438507773626
0.0273921664672
0.000606357742067
0.0271867111634
0.000763187374035
0.0269438585118
0.000909158613194
0.0266663883651
0.00104448415302
0.0263570020679
0.00116941437966
0.026018331739
0.00128423980021
0.025652913998
0.00138927852664
0.0252632017447
0.00148487939033
0.0248515400645
0.00157140994838
0.0244201801172
0.00164926012433
0.0239712570654
0.00171883061641
0.0235068057879
0.00178053688223
0.0230287407862
0.00183479786349
0.0225388735411
0.0018820401679
0.022038894392
0.00192268707657
0.0215303913649
0.00195716288536
0.0210148340108
0.00198588228199
0.0204935935161
0.00200925489262
0.0199679284112
0.00202767517886
0.0194390056685
0.00204152732123
0.0189078880863
0.00205117585574
0.0183755559884
0.00205697103772
0.0178428959691
0.00205924040542
0.0173107226959
0.00205829474822
0.0167797686161
0.00205442074065
0.0162507053313
0.0020478875411
0.0157241338357
0.00203894051995
0.0152006049314
0.00202780841966
0.0146806096072
0.00201469810333
0.0141645980581
0.0019998020945
0.0136529699125
0.00198329416282
0.0131460915363
0.00196533699717
0.01264428595
0.00194607840031
0.0121478482668
0.00192565880882
0.0116570352922
0.00190420784311
0.0111720790872
0.00188185140791
0.0106931763733
0.00185870838278
0.0102205003524
0.00183489707962
0.00975419014566
0.00181053190795
0.00929436108045
0.00178572904404
0.00884109444251
0.00176060298628
0.00839444649479
0.00173527136395
0.00795443884168
0.00170985136341
0.00752106643746
0.00168446367981
0.00709428883229
0.00165922885869
0.0066740374065
0.00163427044378
0.00626020772627
0.00160971131455
0.0058526661808
0.00158567611774
0.00545124360222
0.00156228770162
0.00505574142094
0.00153966892708
0.00466592662902
0.00151793929604
0.00428153747387
0.0014972162286
0.00390227970606
0.0014776119657
0.00352783165504
0.00145923438553
0.00315784141447
0.00144218428613
0.00279193059931
0.00142655595432
0.00242969105454
0.00141243528185
0.00207068494815
0.00139990154887
0.00171443848548
0.00138902963323
0.00136043688019
0.0013798982529
0.00100813268099
0.00137259148405
0.000657122733792
0.00136689207561
0.000309074056216
0.00135604729514
0.00121748954483
0.00156836551629
-0.00745676844224
0.00330641310654
-0.00826302186596
0.00503734683711
-0.00823257754312
0.00674245838976
-0.00811568031354
0.00841267142543
-0.00795748117444
0.0100400216547
-0.00776275176236
0.011617232738
-0.00753435448297
0.0131377568486
-0.00727536755132
0.0145958224233
-0.00698912112625
0.0159864659565
-0.00667910952457
0.0173055392654
-0.00634890402029
0.018549702251
-0.00600207196283
0.019716395021
-0.00564210749553
0.0208038016986
-0.00527237126697
0.0218107988247
-0.00489604338743
0.0227369017363
-0.0045160856591
0.0235822005144
-0.00413521705245
0.0243472996826
-0.003755897409
0.0250332518415
-0.00338032316673
0.0256414999003
-0.00301042906524
0.0261738164393
-0.00264789936854
0.0266322549249
-0.00229418159053
0.0270190993784
-0.00195050624163
0.0273368269774
-0.00161790514391
0.0275880683613
-0.0012972324637
0.027775580136
-0.000989181348841
0.0279022131669
-0.000694301591156
0.027970891751
-0.000413011939275
0.0279845868306
-0.000145613649485
0.0279462993592
0.000107700786737
0.0278590369626
0.000346836602585
0.0277257992916
0.000571792946599
0.0275495596479
0.00078264249248
0.0273332531785
0.000979536939891
0.0270797600268
0.00116269244328
0.0267918981885
0.00133238465644
0.026472408875
0.00148893993983
0.0261239522633
0.0016327306439
0.0257490954155
0.00176416719285
0.0253503104063
0.00188369422417
0.0249299643842
0.00199178340886
0.0244903197256
0.00208893025097
0.0240335260274
0.0021756474291
0.0235616220932
0.00225246200613
0.0230765297546
0.00231990909226
0.0225800576136
0.00237852932168
0.0220738966909
0.00242886277119
0.0215596258665
0.00247144667143
0.0210387093105
0.00250680963629
0.0205125035254
0.00253546973281
0.0199822564619
0.00255792921424
0.019449115945
0.00257467315075
0.0189141302129
0.00258616491282
0.0183782573805
0.00259284561749
0.017842367026
0.00259513061581
0.0173072502069
0.00259340994065
0.0167736215899
0.00258804594739
0.0162421294753
0.00257937485375
0.0157133579574
0.00256770555868
0.0151878364136
0.00255332219275
0.0146660412058
0.00253648397714
0.0141484041881
0.00251742858015
0.0136353136018
0.00249637276293
0.0131271212934
0.00247351621984
0.0126241425934
0.0024490426724
0.0121266621194
0.00242312384402
0.0116349326262
0.0023959206598
0.0111491794287
0.00236758700805
0.0106695983428
0.00233827073746
0.0101963589129
0.00230811693801
0.0097296016962
0.00227726851734
0.0092694405598
0.00224586881656
0.00881595960671
0.00221406164195
0.00836921485375
0.00218199314604
0.00792923112488
0.00214981129497
0.00749600340571
0.00211766702523
0.00706949398494
0.0020857132017
0.00664963374578
0.00205410513755
0.0062363197944
0.00202299915475
0.00582941687506
0.00199255258633
0.00542875563757
0.00196292207526
0.00503413429137
0.00193426320015
0.0046453175838
0.0019067286572
0.00426203870558
0.00188046764481
0.00388399892273
0.00185562407399
0.0035108696224
0.00183233587537
0.0031422923909
0.00181073344822
0.00277788080937
0.00179093920952
0.0024172207065
0.00177306694631
0.0020598713946
0.00175722255493
0.00170536657158
0.00174350600366
0.00135322170523
0.00173201588673
0.00100295689536
0.00172283054373
0.000654249201878
0.00171557182638
0.000308705196839
0.00170156315705
0.00152618192712
0.00160625909696
-0.00906294022045
0.0033855075873
-0.0100421760156
0.00515668884403
-0.0100036655775
0.00690032295392
-0.00985922120094
0.00860680990341
-0.00966387573733
0.0102677411212
-0.00942359113654
0.0118754858202
-0.00914200817321
0.0134232361439
-0.00882302767755
0.014905054375
-0.0084708501865
0.0163158979508
-0.00808986495295
0.0176516200308
-0.00768453918364
0.0189089510283
-0.00725931725235
0.0200854616623
-0.0068185338416
0.021179513875
-0.0063663405575
0.0221901997924
-0.00590664796464
0.023117275198
-0.0054430812319
0.0239610870336
-0.00497895078459
0.0247225014363
-0.0045172353357
0.025402831133
-0.00406057824054
0.026003768527
-0.00361129357192
0.0265273222256
-0.00317138214515
0.0269757625732
-0.00274255284053
0.0273515723145
-0.00232624894137
0.0276574067682
-0.0019236744601
0.0278960580125
-0.001535820709
0.0280704266681
-0.0011634889718
0.0281834950278
-0.000807311120038
0.0282383053828
-0.000467765484622
0.0282379375724
-0.000145191288282
0.0281854904833
0.000160200360488
0.0280840624144
0.000448314854106
0.0279367340597
0.000719169379435
0.0277465530705
0.000972869216685
0.0275165199634
0.00120961365574
0.0272495743225
0.00142967933473
0.0269485850603
0.00163341303192
0.026616339317
0.00182122243153
0.0262555355486
0.00199356902892
0.0258687749486
0.00215096005725
0.0254585568119
0.00229394250776
0.0250272720121
0.00242309602521
0.0245772002687
0.00253902772456
0.0241105054369
0.00264236570221
0.0236292345287
0.00273375430935
0.023135314771
0.00281384800635
0.0226305543766
0.00288330688195
0.0221166414044
0.00294279073816
0.0215951463073
0.00299295483601
0.0210675226189
0.00303444429531
0.0205351112475
0.00306789022328
0.0199991429037
0.00309390466858
0.0194607439626
0.00311307743161
0.0189209403827
0.0031259719161
0.018380664782
0.00313312296091
0.0178407614134
0.00313503391344
0.0173019939323
0.00313217576277
0.0167650508615
0.00312498564936
0.0162305534445
0.00311386741283
0.0156990609863
0.00309919155979
0.0151710781867
0.00308129714498
0.0146470598059
0.00306049302078
0.0141274169808
0.00303706077914
0.0136125208023
0.00301125693735
0.0131027072877
0.00298331653931
0.0125982796514
0.00295345584305
0.0120995118122
0.00292187612279
0.0116066493417
0.00288876640524
0.0111199115783
0.00285430704216
0.0106394914152
0.00281867210646
0.0101655562515
0.00278203239129
0.00969824690806
0.00274455718425
0.0092376777397
0.0027064164777
0.00878393503102
0.00266778197564
0.0083370766301
0.00262882843189
0.00789713018108
0.00258973386777
0.00746409261746
0.0025506800729
0.00703792854614
0.00251185211465
0.00661856988488
0.00247343811709
0.00620591464361
0.0024356282078
0.0057998269095
0.00239861374167
0.00540013618531
0.00236258586249
0.00500663783826
0.00232773435776
0.00461909306104
0.00229424602132
0.00423722980954
0.00226230332968
0.00386074335168
0.0022320827979
0.00348929763796
0.00220375368453
0.00312252635577
0.00217747658952
0.00276003470434
0.00215340251811
0.00240140097248
0.00213167207699
0.00204617918273
0.0021124156723
0.00169390354852
0.00209575406791
0.00134409517538
0.00208179711255
0.000996281979705
0.00207061565094
0.000650123438601
0.00206170364648
0.000307098446773
0.00204456129008
0.00183326645521
0.00165290803762
-0.0107157590567
0.00348313871051
-0.0118723125571
0.00530406909994
-0.0118245005189
0.00709521662614
-0.011650274221
0.0088463276203
-0.0114148925772
0.010548449775
-0.0111256199346
0.0121935234198
-0.0107869891992
0.0137744311041
-0.0104038436635
0.0152850438503
-0.00998137221479
0.0167202382799
-0.00952496979095
0.0180758869872
-0.00904009948652
0.0193488264778
-0.0085321696611
0.0205368068606
-0.00800642850553
0.0216384275705
-0.00746787704627
0.0226530627194
-0.00692120041091
0.0235807797373
-0.0063707171956
0.0244222544585
-0.00582034610351
0.0251786860294
-0.00527358928524
0.0258517145431
-0.00473353090336
0.0264433443709
-0.00420284944197
0.0269558752956
-0.00368384098165
0.02739184314
-0.00317845058825
0.0277539702143
-0.00268830787622
0.0280451252438
-0.00221476342294
0.0282682911267
-0.00175892255402
0.0284265387603
-0.00132167471155
0.0285230046316
-0.000903717188572
0.028560870685
-0.000505573935091
0.0285433450905
-0.0001276102314
0.0284736435907
0.000229955069377
0.0283549715466
0.000567037920939
0.0281905081198
0.000883681533865
0.0279833883192
0.00118003552444
0.0277366912548
0.00145635490341
0.0274534267046
0.00171298583002
0.0271365246364
0.00195035471175
0.026788826051
0.00216895838894
0.0264130752807
0.00236935483921
0.0260119132982
0.00255215484896
0.0255878721564
0.00271801414575
0.0251433701844
0.00286762628843
0.0246807081573
0.00300171576105
0.0242020661471
0.00312103155368
0.0237095013362
0.00322634072827
0.0232049465389
0.00331842229634
0.0226902097507
0.00339806098933
0.0221669744668
0.00346604128801
0.0216368010954
0.00352314137418
0.0211011291708
0.00357012740891
0.0205612806794
0.00360774788657
0.0200184641403
0.0036367284835
0.0194737797106
0.00365776721311
0.0189282248797
0.00367153029423
0.0183827009843
0.00367864857675
0.0178380200367
0.00367971487195
0.0172949120635
0.00367528202487
0.0167540324061
0.00366586198773
0.0162159691796
0.00365192570446
0.0156812503342
0.00363390396489
0.0151503505363
0.00361218899712
0.0146236973425
0.00358713686896
0.0141016769343
0.00355907044513
0.0135846389367
0.00352828289611
0.013072900646
0.0034950415041
0.0125667502503
0.00345959171851
0.0120664494357
0.0034221612347
0.0115722350149
0.00338296402635
0.0110843200224
0.00334220415453
0.0106028939597
0.00330007928637
0.0101281226698
0.00325678381473
0.00966014755379
0.00321251152166
0.00919908461715
0.00316745774924
0.00874502307106
0.00312182103721
0.0082980239723
0.00307580425965
0.00785811862182
0.00302961522704
0.00742530718288
0.00298346684546
0.00699955722753
0.00293757679647
0.00658080264445
0.00289216687686
0.00616894260227
0.0028474619491
0.00576384096234
0.00280368867308
0.00536532582641
0.00276107395546
0.00497318957206
0.00271984330699
0.00458718905553
0.00268021902775
0.00420704629799
0.0026424184204
0.00383244932618
0.00260665194447
0.00346305349803
0.00257312152133
0.0030984829816
0.00254201889783
0.00273833271291
0.00251352428784
0.00238217092667
0.00248780531437
0.00202954218255
0.00246501603489
0.00167997133728
0.00244529623426
0.00133297139105
0.0024287696909
0.000988056291509
0.00241550517066
0.000644844443229
0.00240488728463
0.000304720248466
0.00238465703522
0.00213797392403
0.00170912590934
-0.0124247944246
0.0036008537723
-0.013763942427
0.00548172953129
-0.0137052796034
0.00733001340857
-0.0134984613824
0.00913463747417
-0.013219420821
0.0108859893534
-0.0128768765774
0.0125754983151
-0.012476403794
0.0141956889954
-0.0120239408579
0.0157402227683
-0.0115258135646
0.0172039041168
-0.0109885598267
0.0185826558558
-0.0104187611874
0.0198734699704
-0.00982289504304
0.0210743390743
-0.00920721034279
0.0221841740416
-0.00857762621844
0.0232027113002
-0.00793965350478
0.0241304143004
-0.00729833764716
0.0249683719359
-0.00665822296385
0.0257181983695
-0.00602333668285
0.0263819370056
-0.00539719239845
0.0269619730183
-0.00478281015951
0.0274609563914
-0.00418275105979
0.0278817384105
-0.00359916124817
0.0282273210815
-0.00303382127667
0.0285008195175
-0.0024881946021
0.0287054337882
-0.00196347173411
0.0288444281756
-0.00146060608669
0.0289211134586
-0.000980341689247
0.0289388309001
-0.000523232728034
0.0289009352877
-8.96582555656e-05
0.0288107779131
0.000320166623512
0.0286716864912
0.000706181187062
0.0284869543611
0.0010684632811
0.0282598190476
0.00140721807863
0.0279934505207
0.00172276841887
0.0276909388999
0.00201554004473
0.0273552847312
0.00228604921136
0.0269893902695
0.0025348907813
0.0265960527867
0.00276272799363
0.0261779582726
0.002970282646
0.025737676691
0.00315832676821
0.0252776573175
0.00332767433976
0.0248002254688
0.00347917407878
0.0243075792773
0.00361370189457
0.0238017878922
0.00373215410026
0.0232847898322
0.00383544008067
0.0227583928688
0.00392447557568
0.0222242742061
0.00400017538293
0.0216839822941
0.00406344668867
0.0211389390544
0.00411518194237
0.0205904437716
0.00415625251597
0.0200396774135
0.00418750217219
0.0194877085151
0.00420974158436
0.0189354993599
0.00422374300505
0.0183839134608
0.0042302362701
0.0178337230559
0.00422990525959
0.0172856175081
0.00422338589425
0.0167402113429
0.00421126477143
0.016198052733
0.00419407937606
0.0156596312287
0.0041723189401
0.0151253855037
0.00414642674134
0.01459571002
0.00411680289336
0.0140709613707
0.00408380828926
0.0135514633368
0.00404776875915
0.0130375114201
0.00400898000772
0.0125293760351
0.00396771243419
0.012027305123
0.0039242163361
0.0115315255114
0.00387872667785
0.0110422437708
0.00383146788986
0.0105596460198
0.00378265798465
0.0100838973931
0.0037325124366
0.00961514072685
0.00368124723555
0.00915349511716
0.00362908154631
0.00869905398579
0.0035762395094
0.00825188322608
0.00352295159623
0.0078120191249
0.00346945516694
0.00737946653846
0.00341599461316
0.00695419706675
0.00336282083219
0.00653614760478
0.00331019036755
0.00612521905763
0.00325836404515
0.00572127549929
0.00320760538346
0.00532414360178
0.0031581786745
0.00493361252327
0.00311034695296
0.00454943411606
0.00306436980562
0.00417132357557
0.00302050117903
0.00379896041343
0.00297898718172
0.00343198985949
0.00294006398206
0.00307002460247
0.00290395584375
0.0027126470506
0.00287087334296
0.00235941190647
0.00284101169705
0.00200984951653
0.00281454957333
0.00166347057418
0.00279164761132
0.00131976970314
0.00277244332571
0.000978236157329
0.00275701023814
0.000638454365042
0.00274464237502
0.000301736730671
0.00272134783726
0.00243969658105
0.00177586563429
-0.0142005670598
0.00374056697248
-0.0157285457984
0.00569247720358
-0.0156570903451
0.00760830490641
-0.0154141906504
0.00947598645947
-0.0150870042874
0.0112851161135
-0.0146859090127
0.0130265257371
-0.0142177169778
0.0146923371879
-0.0136896568634
0.0162759944905
-0.0131093764612
0.0177722529245
-0.0124847250671
0.0191771334553
-0.0118235497793
0.0204878505038
-0.0111335215729
0.0217027207069
-0.0104219914639
0.0228210577717
-0.00969587580228
0.0238430583988
-0.00896156824362
0.0247696824291
-0.00822487754346
0.0256025315441
-0.00749098966998
0.0263437298214
-0.00676445443582
0.026995811254
-0.00604919514581
0.027561617996
-0.00534854021058
0.0280442141121
-0.00466527241992
0.0284468167565
-0.00400169122514
0.0287727462504
-0.00335968012113
0.0290253924976
-0.00274077236895
0.0292081946785
-0.00214620752313
0.0293246282584
-0.00157697551446
0.0293781951576
-0.00103384658645
0.0293724125087
-0.00051739037507
0.029310799109
-2.79873536164e-05
0.0291968586712
0.000434162208388
0.0290340596696
0.000869033082291
0.0288258242113
0.00127674922747
0.0285755059851
0.00165758450237
0.0282863777803
0.00201194238534
0.0279616203785
0.00234034089914
0.0276043131299
0.00264339746362
0.0272174268486
0.00292181575354
0.0268038175283
0.00317637355761
0.0263662214998
0.00340791261566
0.0259072507536
0.00361732902752
0.0254293893335
0.00380556499743
0.0249349897609
0.00397360049683
0.0244262705577
0.00412244570953
0.0239053139342
0.00425313299714
0.0233740647437
0.00436670936869
0.0228343298168
0.0044642283299
0.0222877787557
0.00454674216578
0.0217359453204
0.00461529365759
0.0211802304246
0.00467090834798
0.0206219058612
0.00471458649325
0.020062119654
0.00474729585942
0.0195019021094
0.00476996461374
0.0189421733078
0.00478347545497
0.0183837510539
0.00478866028315
0.0178273598795
0.00478629645849
0.0172736400909
0.00477710392915
0.0167231573532
0.00476174412657
0.0161764118316
0.00474081985023
0.0156338473345
0.00471487686818
0.015095859561
0.00468440639619
0.0145628038969
0.00464984902586
0.0140350019844
0.00461159923516
0.013512747541
0.00457001092995
0.012996310792
0.00452540316266
0.0124859420321
0.00447806639903
0.0119818738233
0.00442826853834
0.0114843223751
0.00437626101919
0.0109934877385
0.0043222843147
0.0105095533669
0.00426657314099
0.0100326847767
0.00420936080946
0.00956302783368
0.00415088305189
0.00910070646898
0.00409138088485
0.00864582029249
0.00403110284617
0.00819844195709
0.00397030629893
0.00775861465728
0.00390925812335
0.00732634964943
0.0038482346015
0.00690162408394
0.00378752078376
0.00648437906267
0.00372740923031
0.00607451811931
0.00366819836834
0.00567190605756
0.00361019042735
0.00527636826008
0.00355368913745
0.00488769042377
0.00349899720641
0.00450561875852
0.00344641370157
0.00412986063628
0.00339623139097
0.00376008565214
0.00334873411429
0.0033959271677
0.00330419426548
0.0030369842216
0.00326287038939
0.0026828238962
0.00322500498017
0.00233298435356
0.00319082254328
0.00198697796881
0.00316052747652
0.0016442945687
0.00313430207566
0.00130440717712
0.00311230319648
0.000966779374826
0.00309461261559
0.000630958090872
0.00308043520457
0.000298198587866
0.00305407863666
0.00273788243986
0.00185428526921
-0.0160547576389
0.00390465057812
-0.017778808482
0.00593979256882
-0.0176921312298
0.00793453501588
-0.0174088319094
0.00987560512704
-0.0170279741897
0.0117516574491