/*--------------------------------*- C++ -*----------------------------------*\
| =========                 |                                                 |
| \\      /  F ield         | OpenFOAM: The Open Source CFD Toolbox           |
|  \\    /   O peration     | Version:  v1906                                 |
|   \\  /    A nd           | Web:      www.OpenFOAM.com                      |
|    \\/     M anipulation  |                                                 |
\*---------------------------------------------------------------------------*/
FoamFile
{
    version     2.0;
    format      ascii;
    class       volScalarField;
    location    "968";
    object      p;
}
// * * * * * * * * * * * * * * * * * * * * * * * * * * * * * * * * * * * * * //

dimensions      [0 2 -2 0 0 0 0];


internalField   nonuniform List<scalar> 
9216
(
273.605285469
273.685050914
273.850102586
274.101845614
274.43885996
274.85955893
275.361974801
275.943797829
276.602416185
277.334954888
278.138314458
279.009209152
279.944203578
280.939747865
281.992209559
283.097903728
284.253118644
285.454140143
286.697270856
287.97884918
289.295262667
290.642962565
292.018472358
293.418399029
294.839437789
296.278381114
297.732120553
299.197654346
300.672086976
302.152635917
303.636629453
305.121512369
306.604842234
308.084295746
309.557663139
311.022853446
312.477887964
313.920905429
315.350154233
316.763997317
318.160903328
319.539451282
320.898320834
322.236296765
323.552258531
324.84518464
326.114141685
327.35828866
328.576865673
329.769198265
330.934685983
332.072806745
333.183105447
334.265198392
335.318762081
336.343537699
337.339320205
338.305962849
339.24336664
340.15148484
341.030312852
341.879892621
342.700302966
343.491663789
344.254126849
344.9878797
345.693136888
346.370143528
347.019166917
347.640499686
348.234451821
348.801353342
349.341546737
349.85538916
350.343245293
350.805489065
351.242496973
351.654649358
352.042324224
352.405898107
352.745740442
353.06221408
353.355670256
353.626448808
353.874873794
354.101253503
354.305876791
354.489013006
354.650909249
354.791790677
354.911859663
355.011298758
355.090277899
355.148983567
355.187926995
355.205082095
273.525564458
273.605692217
273.771087764
274.023832685
274.362282705
274.784776262
275.289301017
275.873509878
276.534755111
277.270126281
278.0764891
278.95052419
279.888764381
280.887630178
281.943462234
283.052551277
284.211164287
285.415568214
286.662049747
287.946933261
289.266594919
290.617475857
291.996091737
293.399042351
294.823017738
296.264805263
297.721293228
299.189476226
300.666456898
302.149450089
303.635783087
305.122899198
306.608356807
308.089831549
309.565114557
311.032114494
312.488854542
313.933473724
315.364223032
316.779466224
318.177675155
319.557430106
320.917414434
322.256414525
323.573313913
324.867092952
326.136822555
327.381663698
328.60086093
329.793741809
330.959710336
332.098246401
333.20889927
334.291287115
335.345090654
336.370052803
337.365972546
338.332704718
339.270154146
340.178275546
341.057067945
341.906574652
342.726877941
343.518099035
344.280393024
345.013948787
345.718984112
346.395745497
347.04450342
347.665551981
348.259204306
348.825791983
349.365660601
349.879168976
350.366684835
350.82858384
351.26524545
351.677051776
352.064383657
352.427619397
352.767131091
353.083283307
353.376429716
353.646911759
353.895055649
354.12117108
354.325548648
354.508458673
354.670149069
354.810844278
354.930743324
355.030017687
355.108805778
355.167193456
355.205110243
355.222239856
273.359754833
273.441030859
273.607959053
273.863008692
274.204503583
274.630737312
275.13963631
275.72878564
276.395466108
277.136694545
277.949264613
278.829787251
279.774729394
280.780450404
281.843235299
282.959324898
284.124942218
285.336315806
286.589699441
287.881389293
289.207737906
290.565166391
291.950173979
293.359346539
294.789362935
296.237000981
297.699141557
299.172772827
300.654992756
302.143012091
303.634155664
305.125864479
306.615696024
308.101325366
309.580544583
311.051263232
312.511506862
313.959416727
315.393247519
316.811366424
318.21225015
319.59448341
320.956755354
322.297857587
323.616680136
324.912209122
326.183522408
327.42978705
328.650254764
329.844259283
331.011211774
332.150598213
333.26197486
334.344965737
335.39925826
336.424600872
337.42079889
338.387712324
339.325251954
340.233377341
341.112093129
341.961447202
342.781527186
343.572458705
344.334402029
345.067550361
345.77212659
346.448381544
347.096590796
347.717052847
348.310085947
348.876026182
349.4152243
349.9280437
350.414857268
350.876045287
351.311992319
351.72308506
352.109709311
352.472247833
352.811077452
353.126566964
353.419074431
353.688945191
353.936509388
354.16208014
354.365951347
354.548396024
354.709664368
354.849982138
354.969548587
355.068534035
355.147075752
355.20526788
355.243078597
355.261131488
273.104828728
273.187391653
273.356717133
273.615370962
273.961615766
274.393669422
274.909364519
275.506181196
276.181288998
276.931591168
277.753768898
278.644324584
279.599622807
280.615928315
281.689440316
282.816323015
283.992732124
285.21483775
286.478843639
287.781003424
289.117633947
290.485126389
291.879955204
293.298685644
294.737979678
296.194601105
297.665419483
299.147413647
300.637674285
302.133406331
303.631930523
305.130684834
306.627225203
308.119226259
309.604481085
311.080901097
312.546515055
313.999468177
315.43802038
316.860544687
318.26552478
319.651552787
321.017326254
322.361645435
323.683409811
324.981615013
326.255349037
327.503788937
328.726196877
329.921916731
331.090370101
332.231052948
333.343531691
334.427439958
335.482474856
336.508393915
337.505011576
338.472196361
339.409867602
340.317992829
341.196584726
342.045698708
342.865430056
343.655911626
344.417311106
345.149828791
345.853694898
346.529167339
347.176529043
347.796085682
348.388162955
348.953104241
349.491267839
350.003024542
350.488754839
350.948846434
351.383691447
351.793683907
352.179217
352.540680595
352.87845858
353.192926478
353.484448935
353.753377476
354.000048187
354.224779659
354.427870901
354.609599479
354.770219629
354.909960498
355.029024245
355.127584075
355.205781929
355.2637246
355.301405572
355.319618178
272.759705268
272.843916946
273.016531634
273.280138927
273.632908031
274.072946051
274.597953526
275.205264018
275.891892127
276.654583406
277.489863475
278.394085267
279.363473092
280.394162735
281.482237061
282.623757026
283.814788119
285.051422618
286.329797946
287.646111743
288.996634
290.377716897
291.785802626
293.217429767
294.669238359
296.13797414
297.620491933
299.113758566
300.614855181
302.120979237
303.629446002
305.137689657
306.643264108
308.143843608
309.637222508
311.121314939
312.594153924
314.053890256
315.49879084
316.927236829
318.337721258
319.728846535
321.099321483
322.447958312
323.773669206
325.075462915
326.352441044
327.603794417
328.828799213
330.02681325
331.197272104
332.339685447
333.453633267
334.53876236
335.594782745
336.621464377
337.618633822
338.586171217
339.524007217
340.432120209
341.3105335
342.159312746
342.978563326
343.768427924
344.529084021
345.260741544
345.963640404
346.638048143
347.284257449
347.902583751
348.493362665
349.056947506
349.593706656
350.10402099
350.588281177
351.046885047
351.480234859
351.888734654
352.272787541
352.632793087
352.969144684
353.282227039
353.572413671
353.840064559
354.085523829
354.309117595
354.511151877
354.691910656
354.851654015
354.990616392
355.109004893
355.206997827
355.284743441
355.342358209
355.379847617
355.398038201
272.322601968
272.408905089
272.585755204
272.855748901
273.216926356
273.667243773
274.20422511
274.825009561
275.526407531
276.304957935
277.156983742
278.078644427
279.065983959
280.114973516
281.221548546
282.381640196
283.591201386
284.846228059
286.142776165
287.476975076
288.845038043
290.24327031
291.668075413
293.115960106
294.583538284
296.067534178
297.564785004
299.07224324
300.586978537
302.106179369
303.627154363
305.147333177
306.66426731
308.175630705
309.679219378
311.172951021
312.654864105
314.123116623
315.57598439
317.011859007
318.429245428
319.826759248
321.203123653
322.557166162
323.887815122
325.194096058
326.475127867
327.73011895
328.958363264
330.159236393
331.332191601
332.476755987
333.592526673
334.679167143
335.736403666
336.764021902
337.761863614
338.729823575
339.667846585
340.575924667
341.454094355
342.302434138
343.121061952
343.910132785
344.669836292
345.400394469
346.102059301
346.775110419
347.419852702
348.036613861
348.62574194
349.187602795
349.722577485
350.23105964
350.71345276
351.170167505
351.601618941
352.008223803
352.39039775
352.748552659
353.083093953
353.394417996
353.682909552
353.948939346
354.192861713
354.415012365
354.615706281
354.795235715
354.953868347
355.091845574
355.209380961
355.306659012
355.383834294
355.441030072
355.478257714
355.496345022
271.791241865
271.880135582
272.062249582
272.34018078
272.711800403
273.174867433
273.726677046
274.364118477
275.083741378
275.88182271
276.754430509
277.69748288
278.706800732
279.778153508
280.907297692
282.090008399
283.322104583
284.599468706
285.918061686
287.273934049
288.663234073
290.082213698
291.5272328
292.994762361
294.4813869
295.983806489
297.498838477
299.023419085
300.554604852
302.089573973
303.625627394
305.160189604
306.690809421
308.21516057
309.731041203
311.236373473
312.729202587
314.207695435
315.670138795
317.114937146
318.540610091
319.945789448
321.329216031
322.689736174
324.026298028
325.337947697
326.623825232
327.883160556
329.115269329
330.319548832
331.49547387
332.642592766
333.760523437
334.848949623
335.907617243
336.936330937
337.934950769
338.903389123
339.841607753
340.749615022
341.627463266
342.475246303
343.293097035
344.081185133
344.839714763
345.568922338
346.269074265
346.940464658
347.583413009
348.198261799
348.785374031
349.345130698
349.877928172
350.384175527
350.864291807
351.318703243
351.747840445
352.152135583
352.532019563
352.887919243
353.220254674
353.529436414
353.81586291
354.079917981
354.321968395
354.542361579
354.741423449
354.919456387
355.076737375
355.213516291
355.330014417
355.426423293
355.502903838
355.55958477
355.59648155
355.614415952
271.162802678
271.254844582
271.443358114
271.730932957
272.115224086
272.593737815
273.163478175
273.82101862
274.562582024
275.384119914
276.281386594
277.250006119
278.285530575
279.383489022
280.539427235
281.74893886
283.007689024
284.311431541
285.656020977
287.037420698
288.451707984
289.895077095
291.363841018
292.854432473
294.363404596
295.887431552
297.42330926
298.967956255
300.518414679
302.071851347
303.625558564
305.176955106
306.723586937
308.263127624
309.793378002
311.312265652
312.817843895
314.308290324
315.781904885
317.23710751
318.672435363
320.086539707
321.478182458
322.846232461
324.189661537
325.507540364
326.799034227
328.063398685
329.299975222
330.5081869
331.687534071
332.837590191
333.957997751
335.048464375
336.108759093
337.138708817
338.138195022
339.107150641
340.04555716
340.95344191
341.830875528
342.677969563
343.494874203
344.281776077
345.038896114
345.766487406
346.464833062
347.134244014
347.775056758
348.387631006
348.972347252
349.529604234
350.059816307
350.563410723
351.040824838
351.492503264
351.918894969
352.320450367
352.697618402
353.050843656
353.380563496
353.687205284
353.971183668
354.23289797
354.472729687
354.691040122
354.888168149
355.064428144
355.220108076
355.355467792
355.47073751
355.56611663
355.641772786
355.697840042
355.734337922
355.752080682
270.433854486
270.529672561
270.725858168
271.024981915
271.424424076
271.921370163
272.512457005
273.193863033
273.96140611
274.810638579
275.736934234
276.735564839
277.801764592
278.930782239
280.117921406
281.358570389
282.648222977
283.982492029
285.357117468
286.767970204
288.211053307
289.682501499
291.1785798
292.69568196
294.230329091
295.779168756
297.3389746
298.906646522
300.479211265
302.053823303
303.627765496
305.198450315
306.763420623
308.32035001
309.867042554
311.401432286
312.921582125
314.425682306
315.912048301
317.379118269
318.825450058
320.249717829
321.650708318
323.027316828
324.378542968
325.703486238
327.001341469
328.271394213
329.51301611
330.725660283
331.908856816
333.062208355
334.185385865
335.278124573
336.340220144
337.371525077
338.371945366
339.341437397
340.280005101
341.187697319
342.064605385
342.910860863
343.726633424
344.512128811
345.267586849
345.993279463
346.689508662
347.356604458
347.994922693
348.604842748
349.186765139
349.741108978
350.268309313
350.768814362
351.243082643
351.691580031
352.114776761
352.513144402
352.887152821
353.237267172
353.563944919
353.867632936
354.148764677
354.407757465
354.645009889
354.860899354
355.055779764
355.229979389
355.383798901
355.517509612
355.631351915
355.725534056
355.800231049
355.855582667
355.891613271
355.909129098
269.600284084
269.700594523
269.905899368
270.218730923
270.636121067
271.154848891
271.771089679
272.480529989
273.278488838
274.160032841
275.120078979
276.153482205
277.255106514
278.41987967
279.642832976
280.919128144
282.244073678
283.613133152
285.021927637
286.466234193
287.941982026
289.445247551
290.972249326
292.51934346
294.083019964
295.65990019
297.246735396
298.840406307
300.437923463
302.036428093
303.633192773
305.225622998
306.811258283
308.387772347
309.952973097
311.504802092
313.041333442
314.560772108
316.061451649
317.541831442
319.00049341
320.436138334
321.847581787
323.23374977
324.593674106
325.926487652
327.231419401
328.507789521
329.755004398
330.972551733
332.159995735
333.316972478
334.443185441
335.538401289
336.602445909
337.635200735
338.636599373
339.606624522
340.545305184
341.452714148
342.328965704
343.174213565
343.98864893
344.77249865
345.526023435
346.249516065
346.943299535
347.607725114
348.243170274
348.850036477
349.428746793
349.979743359
350.503484685
351.000442814
351.47110036
351.915947454
352.335478619
352.730189602
353.100574203
353.447121112
353.770310794
354.070612448
354.348481049
354.604354511
354.838650973
355.051766241
355.244071388
355.415910533
355.567598811
355.699420549
355.811627644
355.904438246
355.978035596
356.032565948
356.068059315
356.085313326
268.657199804
268.762831383
268.978925398
269.307946558
269.746483372
270.290799199
270.936488939
271.678627433
272.511921125
273.430848658
274.429782738
275.50309029
276.645209991
277.850708345
279.114316892
280.430953841
281.795733626
283.203967692
284.651159429
286.132995634
287.64533639
289.184204776
290.745777388
292.326376351
293.922463151
295.530634418
297.147619532
298.770279793
300.395608764
302.020733416
303.642915027
305.25955128
306.868177948
308.466468906
310.052236443
311.623430786
313.178138935
314.714582841
316.23111694
317.726225093
319.198516988
320.646724085
322.069695152
323.466391495
324.83588192
326.17733754
327.490026455
328.773308398
330.026629401
331.249516531
332.441572764
333.602472049
334.731954596
335.82982246
336.895935423
337.930207231
338.932602182
339.903132078
340.841853518
341.748865524
342.624307441
343.468357071
344.281228986
345.063172944
345.814472349
346.535442688
347.226429892
347.887808557
348.519980008
349.123370161
349.698427176
350.245618912
350.765430169
351.258359767
351.724917466
352.16562077
352.580991645
352.971553187
353.337826277
353.680326249
353.999559609
354.296020829
354.570189242
354.822526054
355.053471512
355.263442218
355.452828629
355.621992743
355.771265985
355.900947307
356.011301497
356.102557805
356.17490868
356.228507608
356.26339124
356.280347807
267.598810155
267.710736184
267.939575268
268.287680027
268.751071579
269.325355757
270.005395516
270.785504052
271.659636351
272.62156176
273.665008598
274.783777867
275.971826202
277.223320864
278.532671203
279.894541628
281.303851077
282.75576342
284.245672507
285.769184703
287.322101076
288.900400719
290.500226225
292.117871895
293.749774971
295.392509838
297.042784945
298.697441934
300.353456404
302.007939679
303.65814037
305.301447189
306.935391528
308.557647273
310.166031607
311.758504588
313.333167949
314.888263104
316.422168426
317.933395852
319.420586894
320.882508138
322.318046323
323.726203071
325.106089372
326.456919893
327.778007188
329.068755885
330.328656907
331.557281805
332.754277252
333.919359765
335.052310706
336.152971618
337.221239946
338.257065154
339.260445286
340.231423951
341.170087736
342.076564003
342.951019023
343.793656396
344.604715662
345.384471038
346.133230195
346.851332982
347.539150041
348.197081245
348.825553907
349.425020738
349.99595754
350.53886063
351.054244022
351.542636382
352.004577802
352.440616431
352.851304999
353.237197288
353.598844583
353.936792136
354.251575694
354.543718101
354.813726022
355.062086795
355.289265446
355.495701873
355.681808228
355.847966497
355.994526296
356.121802889
356.230075429
356.319585492
356.390535782
356.443087963
356.477286149
356.493908192
266.418267897
266.537649312
266.781558587
267.152170342
267.644773364
268.254129726
268.974174799
269.798270936
270.719451061
271.730631154
272.824781239
273.995052722
275.234864158
276.53795096
277.8983862
279.310580041
280.769264713
282.269470864
283.806499811
285.375895012
286.973415003
288.595009333
290.236798348
291.895057348
293.566205211
295.24679731
296.93352218
298.623201217
300.312790461
301.999383474
303.680214134
305.352660669
307.014248976
308.662652581
310.295693975
311.911344274
313.507721935
315.083090564
316.63585586
318.164561822
319.667886274
321.14463585
322.593740508
324.014247697
325.405316269
326.766210226
328.096292378
329.395018008
330.661928592
331.896645659
333.098864843
334.268350216
335.404928942
336.508486336
337.578961371
338.616342675
339.620665047
340.592006506
341.530485834
342.43626061
343.309525636
344.150511707
344.959484613
345.736744277
346.482623917
347.197489145
347.881736891
348.535794095
349.160116101
349.755184722
350.321505969
350.859607434
351.370035372
351.853351513
352.310129639
352.740952004
353.146405626
353.527078512
353.883555871
354.216416344
354.526228301
354.813546236
355.078907283
355.322827893
355.545800678
355.748291452
355.930736474
356.093539923
356.237071588
356.361664803
356.467614609
356.555176248
356.62456378
356.67594788
356.709381099
356.725629795
265.107468213
265.235711502
265.497497769
265.89472518
266.421727957
267.072176403
267.83882326
268.713839482
269.68912572
270.756573935
271.90826791
273.136622372
274.434466466
275.795081263
277.212202607
278.680000164
280.193042134
281.746252988
283.334869592
284.954399249
286.600581901
288.269357688
289.956840585
291.659298345
293.373138731
295.094901617
296.821256182
298.549002023
300.27507293
301.996541102
303.710622913
305.414684103
307.106243065
308.78297237
310.44270015
312.083409858
313.703238883
315.300476058
316.873558212
318.421065855
319.941718142
321.434367216
322.897992077
324.331692079
325.734680177
327.106276028
328.44589903
329.753061386
331.027361254
332.268476066
333.476156081
334.65021825
335.790540473
336.897056319
337.969750286
339.008653643
340.01384091
340.985426964
341.923564779
342.828443729
343.700288402
344.539357808
345.345944873
346.120376079
346.863011123
347.574242463
348.254494638
348.904223266
349.523913657
350.114079002
350.675258121
351.20801279
351.712924687
352.190592003
352.641625788
353.066646091
353.466277977
353.841147458
354.191877424
354.519083598
354.823370574
355.105327964
355.365526697
355.604515483
355.822817476
356.020927152
356.199307411
356.358386923
356.498557717
356.620173033
356.723545409
356.80894509
356.87659863
356.926686713
356.959271147
356.975105558
263.656784719
263.795622249
264.078727172
264.50757482
265.075240176
265.773967627
266.594991548
267.528983954
268.566454034
269.698069167
270.914886342
272.208497932
273.571103632
274.995524942
276.475179349
278.004029725
279.576521358
281.187515693
282.832226648
284.506162976
286.20507835
287.924929885
289.661845298
291.412098717
293.172094899
294.938361332
296.707547032
298.476426415
300.241906284
302.001032575
303.750999737
305.489157656
307.213014961
308.92024226
310.608673539
312.276305991
313.921298403
315.541968288
317.136787892
318.704379271
320.243508538
321.753079473
323.232126598
324.679807907
326.095397343
327.478277168
328.827930293
330.143932672
331.425945815
332.673709488
333.88703469
335.065796982
336.209930262
337.319421083
338.394303611
339.434655283
340.440593227
341.41227146
342.349878848
343.253637778
344.123803438
344.96066359
345.764538684
346.53578213
347.274780584
347.981954049
348.657755688
349.302671191
349.91721765
350.501941876
351.057418161
351.584245508
352.083044387
352.554453094
352.999123779
353.417718266
353.810903707
354.179348185
354.523716299
354.84466481
355.142838374
355.418865424
355.673354203
355.906889016
356.120026678
356.313293217
356.487180826
356.642145073
356.77860239
356.896927822
356.997453051
357.080464766
357.146203195
357.194859895
357.226506924
357.241883835
262.054720223
262.206322437
262.515036111
262.981693152
263.597685587
264.35337602
265.238034984
266.24044088
267.349392818
268.55410117
269.844447634
271.211126627
272.645690144
274.140522526
275.688770823
277.284252124
278.921353845
280.594937376
282.300251037
284.032854852
285.78855774
287.563366703
289.35344753
291.15509668
292.964724133
294.778846583
296.594089502
298.407195639
300.215037048
302.014626204
303.803129169
305.577875313
307.336360682
309.076252525
310.795390857
312.49178819
314.163627575
315.80925916
317.427195535
319.016106015
320.574810057
322.10226996
323.597583035
325.059973411
326.488783642
327.88346624
329.24357523
330.568757791
331.858746063
333.113349157
334.332445464
335.515975354
336.663934383
337.77636712
338.853361728
339.895045386
340.901580636
341.873162685
342.810017648
343.712401664
344.580600785
345.414931453
346.215741399
346.983410724
347.718352957
348.421015876
349.091881904
349.731467944
350.340324552
350.919034389
351.468209973
351.988490759
352.480539639
352.945038946
353.382686107
353.794189031
354.180261352
354.541617614
354.878968474
355.193015977
355.484448964
355.75393863
356.002134294
356.229659383
356.437107674
356.625039793
356.793980007
356.944413301
357.076782749
357.191487184
357.28887916
357.369263234
357.432894505
357.47997644
357.510592196
357.52546579
260.287438054
260.454574841
260.794337505
261.306579656
261.98041082
262.803683096
263.763107967
264.845063187
266.036248967
267.324155918
268.697344074
270.14555923
271.659725287
273.231854438
274.854912506
276.522668315
278.229546525
279.970495069
281.74087184
283.53635114
285.352848144
287.18645922
289.033416495
290.890056152
292.752800585
294.618154222
296.482711164
298.343171181
300.196359332
302.039243774
303.868953767
305.682792168
307.478238772
309.25295585
311.004789682
312.731770037
314.432107622
316.10418987
317.746575385
319.357987313
320.93730572
322.483559233
323.995916111
325.473674994
326.916255496
328.323188818
329.694108434
331.028740944
332.326897085
333.588462981
334.813391691
336.001695168
337.153436764
338.268724467
339.347704992
340.39055891
341.397496878
342.368757068
343.304603745
344.205326961
345.071243186
345.902696701
346.700061482
347.46374331
348.194181811
348.891852166
349.557266252
350.190973022
350.793558034
351.365642042
351.907878688
352.420951362
352.905569329
353.362463295
353.792380541
354.196079799
354.574325976
354.927884863
355.257517881
355.56397695
355.847999514
356.110303765
356.351584097
356.572506822
356.773706161
356.955780552
357.119289254
357.264749294
357.392632727
357.50336422
357.597318943
357.674820849
357.736141135
357.781496075
357.810980945
357.825302665
258.338123229
258.524399748
258.902238101
259.469995896
260.213638526
261.117631273
262.165327747
263.340055018
264.62594655
266.008488327
267.474793849
269.013658816
270.615460757
272.271968129
273.976112013
275.721757794
277.503499054
279.316483584
281.156272925
283.018731778
284.899941744
286.79613424
288.703639561
290.618851637
292.538209958
294.458199851
296.37536911
298.286355826
300.187918943
302.076967078
303.950582396
305.806033367
307.640779518
309.452476474
311.238977289
312.998331474
314.728781563
316.428757767
318.096871343
319.731906828
321.332813243
322.898694421
324.428798795
325.922508885
327.379330754
328.798883579
330.180889447
331.525163338
332.831603328
334.100180986
335.33093205
336.523947502
337.679365236
338.797362519
339.878149484
340.921963835
341.929066934
342.899741342
343.834289827
344.733035759
345.596324699
346.424526941
347.218040663
347.977295343
348.702755051
349.394921274
350.054334977
350.681577658
351.277271275
351.842076964
352.376692613
352.881849372
353.358307289
353.806850261
354.228280527
354.623412877
354.993068776
355.338070486
355.659235317
355.957370025
356.233265426
356.487691242
356.721391225
356.935078563
357.129431627
357.305090038
357.462651114
357.602666659
357.725640125
357.832024119
357.922218257
357.996567368
358.055359989
358.098826254
358.127074446
358.140792673
256.186095266
256.396307522
256.82147748
257.457653
258.28639578
259.287553014
260.440046447
261.723324909
263.118405432
264.608483211
266.17915627
267.818356625
269.51609485
271.264115943
273.055539847
274.884532635
276.746030665
278.635523044
280.548886925
282.48226497
284.431973106
286.394429031
288.366096337
290.343444753
292.322931127
294.301006268
296.274145469
298.238895047
300.191919571
302.130047485
304.050300747
305.949905116
307.826296014
309.677121019
311.500240932
313.293728358
315.055862887
316.785124126
318.480183711
320.139896365
321.763289659
323.349552808
324.898024879
326.408182799
327.879629475
329.312082291
330.705361943
332.059381606
333.374136276
334.649692265
335.886176869
337.083768394
338.242686755
339.363184971
340.445541846
341.490056122
342.497042318
343.466828396
344.399755281
345.296178125
346.156469119
346.981021494
347.770254307
348.524617518
349.24459688
349.930718184
350.583550453
351.203707823
351.791849913
352.348680654
352.874945621
353.371428048
353.838943759
354.278335312
354.690465639
355.076211452
355.436456609
355.772085594
356.083977183
356.372998349
356.639998419
356.885803524
357.111211346
357.316986213
357.50385455
357.672500734
357.823563335
357.957631781
358.075243418
358.176880953
358.262970265
358.333878632
358.389913181
358.431318807
358.458217846
358.471277767
253.805550188
254.046235628
254.531193844
255.252853299
256.186502435
257.30563143
258.583290664
259.994011417
261.515074005
263.127138066
264.814331871
266.563958117
268.365988797
270.212495086
272.097109991
274.014575215
275.960388935
277.930548876
279.921373191
281.929377021
283.951183447
285.983452439
288.022819957
290.065849815
292.109009989
294.148688003
296.18124285
298.203081241
300.210733444
302.200919231
304.170584992
306.11690822
308.037297442
309.929391263
311.791059804
313.620403372
315.415745396
317.175622831
318.898776708
320.584142105
322.230836293
323.838145575
325.405511595
326.932517508
328.418874591
329.864409589
331.269052689
332.632825915
333.955831687
335.238241348
336.480283688
337.682233657
338.844401638
339.967123655
341.050752987
342.095653539
343.102195322
344.070752209
345.001702058
345.89542908
346.752328185
347.572810873
348.357312105
349.106297542
349.820270471
350.499777845
351.145414914
351.757828083
352.337715801
352.885827415
353.402960121
353.889954234
354.347687147
354.777066375
355.179022093
355.554499526
355.904451428
356.22983082
356.531584037
356.810644092
357.067924377
357.304312665
357.520665475
357.717802804
357.896503287
358.057499794
358.201475495
358.329060382
358.440828253
358.537294109
358.618911963
358.686073045
358.739104304
358.778266438
358.803696742
358.816040032
251.163732142
251.444055654
252.00596451
252.836108115
253.900686834
255.164380662
256.592458066
258.15325823
259.81967244
261.569701117
263.386259991
265.256496451
267.170893089
269.122373723
271.105534286
273.116046036
275.150230181
277.204777464
279.276575457
281.362604666
283.45986827
285.565329119
287.675841563
289.788084823
291.8985232
294.003431822
296.098981687
298.181364948
300.246917692
302.29221638
304.314118935
306.309754362
308.276504763
310.211999166
312.114118848
313.980998397
315.811014197
317.602770102
319.355086764
321.066991417
322.737704039
324.366621634
325.953302136
327.497448269
328.998892348
330.457582563
331.873570244
333.246997752
334.578086396
335.867123985
337.114452003
338.320452701
339.485536606
340.610131062
341.694670369
342.739588089
343.745311944
344.71226163
345.640849634
346.531484982
347.384579541
348.200556348
348.979859191
349.722962631
350.430381569
351.102679575
351.740475311
352.34444658
352.915331773
353.453928655
353.961090685
354.437721214
354.884766063
355.303205084
355.694043249
356.058301773
356.397009553
356.711195092
357.001878905
357.27006636
357.516740886
357.742857534
357.949336908
358.137059516
358.306860591
358.459525435
358.595785288
358.716313739
358.821723637
358.912564489
358.989320272
359.052407708
359.10217479
359.138898881
359.162733268
359.174297962
248.218199243
248.551437892
249.214567677
250.184794655
251.414951564
252.857487211
254.467404289
256.205346738
258.039219627
259.944501253
261.903519942
263.904118792
265.938158862
268.000175818
270.086326149
272.19364259
274.31955875
276.461640258
278.617456182
280.784528649
282.960306764
285.142123174
287.327112286
289.512102003
291.69352816
293.867472888
296.029802021
298.176372738
300.303241017
302.40680029
304.483816237
306.531385161
308.54686899
310.527884545
312.472324691
314.378368285
316.244457856
318.069275278
319.851731735
321.590960226
323.286298888
324.937271394
326.543567945
328.10502592
329.621612493
331.093410106
332.520603479
333.903467466
335.242354724
336.537682288
337.789917138
338.999561171
340.167136404
341.293171226
342.378188566
343.422696668
344.427183145
345.392112712
346.317928835
347.205059171
348.053924401
348.864949697
349.638577861
350.375282965
351.075583351
351.740052888
352.369329653
352.964121417
353.52520768
354.053438227
354.549728471
355.015052082
355.45043163
355.856928091
356.23563005
356.587643225
356.914080726
357.216054135
357.494665319
357.750998786
357.986114441