/*--------------------------------*- C++ -*----------------------------------*\
| =========                 |                                                 |
| \\      /  F ield         | OpenFOAM: The Open Source CFD Toolbox           |
|  \\    /   O peration     | Version:  v1906                                 |
|   \\  /    A nd           | Web:      www.OpenFOAM.com                      |
|    \\/     M anipulation  |                                                 |
\*---------------------------------------------------------------------------*/
FoamFile
{
    version     2.0;
    format      ascii;
    class       surfaceScalarField;
    location    "616";
    object      phi;
}
// * * * * * * * * * * * * * * * * * * * * * * * * * * * * * * * * * * * * * //

dimensions      [0 3 -1 0 0 0 0];
oriented        oriented;


internalField   nonuniform List<scalar> 
18240
(
-0.000352166001969
0.000352157291114
-0.000737776791027
0.000385599513015
-0.00112303584497
0.000385250547702
-0.00150333639816
0.000380288754603
-0.00187659222975
0.00037324810687
-0.00224107726576
0.000364472824148
-0.0025952571204
0.000354172932374
-0.00293779297915
0.000342523320935
-0.00326749975916
0.000329700700679
-0.00358338717847
0.000315874648581
-0.00388461119063
0.000301218829644
-0.00417051776332
0.000285893657663
-0.00444058073494
0.00027005871361
-0.00469444767054
0.000253853961961
-0.00493186665834
0.000237415689417
-0.00515273675382
0.000220857144978
-0.00535702698682
0.00020428790205
-0.00554483356518
0.000187793731078
-0.00571629367506
0.000171458765468
-0.00587165059103
0.000155344247111
-0.00601116380897
0.000139512850173
-0.00613518220884
0.000124005981518
-0.00624405129581
0.000108869699611
-0.0063381938322
9.41304340192e-05
-0.00641801438582
7.98221205217e-05
-0.00648398644957
6.59603387839e-05
-0.00653655433755
5.25703992596e-05
-0.00657622569142
3.96600602835e-05
-0.00660347073097
2.72484559167e-05
-0.00661881924031
1.53376968613e-05
-0.00662275786209
3.94292307506e-06
-0.00661582853676
-6.93961378131e-06
-0.00659852164313
-1.7301755765e-05
-0.00657138110131
-2.71502654479e-05
-0.00653489728061
-3.6477872997e-05
-0.00648961132581
-4.52950796081e-05
-0.00643600599393
-5.35986285056e-05
-0.00637461193973
-6.14025495137e-05
-0.00630589782279
-6.87066897581e-05
-0.00623037763557
-7.55280287856e-05
-0.0061485004708
-8.18690715108e-05
-0.00606075840774
-8.77492293878e-05
-0.00596757648013
-9.31732027997e-05
-0.00586942067432
-9.81622811046e-05
-0.00576668854561
-0.000102722831101
-0.00565981689898
-0.000106877417145
-0.00554917352729
-0.000110633536666
-0.00543516414228
-0.000114014441959
-0.0053181255987
-0.000117028229202
-0.00519843165492
-0.000119698279759
-0.00507638806916
-0.000122032827178
-0.00495233676731
-0.000124054913644
-0.00482655309545
-0.000125772525341
-0.00469934798866
-0.000127207991901
-0.00457096769211
-0.000128368796537
-0.00444169352872
-0.000129276322698
-0.00431174431608
-0.00012993741303
-0.00418137335586
-0.000130372394657
-0.00405077381504
-0.000130587475117
-0.00392017257529
-0.000130601952668
-0.00378973878632
-0.000130421508181
-0.00365967425029
-0.000130064529928
-0.00353012541172
-0.000129536374718
-0.00340126997716
-0.00012885471318
-0.00327323256637
-0.000128024810962
-0.00314616730904
-0.000127063822534
-0.00302017744236
-0.000125977160512
-0.00289539364905
-0.000124781647247
-0.00277189785279
-0.000123483026241
-0.00264979709309
-0.000122097902764
-0.00252915181706
-0.000120632470319
-0.00241004509439
-0.000119103157074
-0.00229251566287
-0.000117516631602
-0.00217662230167
-0.000115889091428
-0.00206238191387
-0.000114227628261
-0.00194982886985
-0.000112548082278
-0.0018389583633
-0.000110857839365
-0.00172978054178
-0.000109172189288
-0.00162226938422
-0.000107498636673
-0.00151641142694
-0.000105851689131
-0.00141216037019
-0.000104238754541
-0.00130948021862
-0.000102673292622
-0.00120830584019
-0.000101162368436
-0.00110858035741
-9.97180802042e-05
-0.00101022189948
-9.83468062239e-05
-0.000913155207587
-9.70587695397e-05
-0.000817285065857
-9.58588717858e-05
-0.000722522710302
-9.47539134617e-05
-0.0006287678286
-9.37440147158e-05
-0.000535934309874
-9.28246777579e-05
-0.000443952815497
-9.19712289587e-05
-0.000352827969729
-9.11158927683e-05
-0.000262751884705
-9.00669281452e-05
-0.000174588361601
-8.81549423062e-05
-9.17561378373e-05
-8.28222287425e-05
-9.17506746257e-05
-0.000389269646475
0.000741417181289
-0.000823873587201
0.000820192341467
-0.0012560048886
0.000817371664187
-0.00168183461273
0.000806107401646
-0.00209943323669
0.00079083684769
-0.00250702371729
0.000772052289067
-0.00290294421976
0.000750083920884
-0.00328570665438
0.000725274860757
-0.00365400138553
0.000697986364944
-0.00400672056911
0.000668583137004
-0.00434293923248
0.000637428937391
-0.00466192838229
0.000604872386241
-0.00496312378915
0.000571246138322
-0.005246135135
0.000536855229394
-0.00551070747816
0.000501980670652
-0.00575673048155
0.00046687047518
-0.00598419637045
0.000431747096909
-0.00619321214778
0.000396800298575
-0.00638395664599
0.000362197270441
-0.0065566973291
0.000328076235014
-0.00671174779662
0.000294558059161
-0.00684948961879
0.000261739669222
-0.00697033068087
0.00022970625643
-0.0070747316901
0.000198523907936
-0.00716316515359
0.000168251851653
-0.00723614577799
0.000138934060031
-0.00729418963237
0.000110611298943
-0.00733784753409
8.33117164093e-05
-0.00736766391175
5.70626631323e-05
-0.00738421220315
3.18804210467e-05
-0.00738805238843
7.78171565148e-06
-0.00737977015355
-1.52267232446e-05
-0.00735993590351
-3.71366238646e-05
-0.0073291406216
-5.7949717575e-05
-0.00728795249434
-7.76658584124e-05
-0.00723695673192
-9.62943021877e-05
-0.00717671245916
-0.00011384201057
-0.00710779259014
-0.00013032516603
-0.0070307403926
-0.000145757269612
-0.00694610982362
-0.000160160634919
-0.00685442213581
-0.000173554431983
-0.00675620657404
-0.000185966122536
-0.00665195726669
-0.00019741949986
-0.00654217414326
-0.000207946038687
-0.00642732030988
-0.000217572992909
-0.00630786303831
-0.000226334635662
-0.00618423180115
-0.000234260470656
-0.00605685916382
-0.000241386352191
-0.00592613961359
-0.000247742869119
-0.00579247017778
-0.000253366328365
-0.00565621015947
-0.000258287359261
-0.00551772128955
-0.000262541752636
-0.00537732844576
-0.000266159333057
-0.00523535914354
-0.000269174636059
-0.00509210530277
-0.000271616083131
-0.00494786187525
-0.000273516483413
-0.00480288970004
-0.000274902542789
-0.00465745307456
-0.00027580516271
-0.00451178374406
-0.000276249300253
-0.00436611723219
-0.000276264035655
-0.0042206580068
-0.00027587279494
-0.00407561441159
-0.000275103143001
-0.00393116507518
-0.000273977368976
-0.00378749230945
-0.000272521961799
-0.00364474984123
-0.000270758558497
-0.00350309457731
-0.000268713050817
-0.00336265577005
-0.000266406895117
-0.00322356507306
-0.000263865805783
-0.00308592726276
-0.000261111434322
-0.0029498485329
-0.000258169605523
-0.00281540891467
-0.000255062380769
-0.00268268876686
-0.000251815804307
-0.00255174303096
-0.000248452377898
-0.00242262587913
-0.000244998287127
-0.0022953669434
-0.000241476322431
-0.00216999407585
-0.000237912563424
-0.00204651167103
-0.000234329788225
-0.00192492148662
-0.000230753592355
-0.00180520317183
-0.000227206330546
-0.00168733308535
-0.000223712647616
-0.00157126712149
-0.000220293994623
-0.00145695745831
-0.000216973540835
-0.00134433777219
-0.000213771297118
-0.00123333784973
-0.000210708361446
-0.00112387127427
-0.000207802648474
-0.00101584785052
-0.000205072358948
-0.000909163832744
-0.000202532195826
-0.000803712000401
-0.000200195723679
-0.00069937388422
-0.000198071497984
-0.000596025197536
-0.000196163240677
-0.000493521946857
-0.00019446422174
-0.000391674032826
-0.000192953997717
-0.000290140466821
-0.000191590727209
-0.000187993064615
-0.000190293012445
-8.25759725152e-05
-0.000188230207841
-0.000174322109316
-0.000396227656055
0.00113763483157
-0.000836474588418
0.00126042854059
-0.00127486226831
0.00125574866777
-0.00170687625107
0.00123811061629
-0.00213038616131
0.00121433631046
-0.0025435242408
0.00118517975089
-0.00294458600292
0.00115113551031
-0.0033320538556
0.00111273232828
-0.00370460694322
0.00107052961784
-0.00406113105546
0.00102509717489
-0.00440071112712
0.000976999585116
-0.00472262889304
0.000926780459009
-0.00502634470278
0.000874952995157
-0.0053114889542
0.000821990233085
-0.00557783867353
0.000768321968631
-0.00582530743972
0.000714330495931
-0.00605392083248
0.000660352646725
-0.00626380809476
0.000606679369952
-0.006455179017
0.000553560976524
-0.00662831903325
0.000501208659345
-0.00678356865684
0.000449801126705
-0.00692132243983
0.000399486498564
-0.00704201104386
0.000350388999501
-0.00714610366813
0.000302610247534
-0.00723409223167
0.000256235268364
-0.00730649649192
0.000211332730257
-0.00736384962534
0.000167960021176
-0.00740670519255
0.000126162405504
-0.00743562343912
8.59772400604e-05
-0.00745117941242
4.74322416995e-05
-0.00745394962412
1.05490095307e-05
-0.00744452084201
-2.46589262086e-05
-0.00742347677105
-5.81828649033e-05
-0.00739140722619
-9.00219469812e-05
-0.00734889466553
-0.000120179839945
-0.00729652367819
-0.00014866724032
-0.00723486755652
-0.000175498816512
-0.00716449810579
-0.000200695838169
-0.00708597231064
-0.00022428301886
-0.00699984240598
-0.000246291041595
-0.00690664274672
-0.000266753334355
-0.00680690015966
-0.000285708503111
-0.00670112113178
-0.000303197072103
-0.00658980243678
-0.000319263834328
-0.00647341871035
-0.000333954588806
-0.00635243332954
-0.000347318439943
-0.00622728643428
-0.000359404576872
-0.00609840600828
-0.000370264544095
-0.00596619636035
-0.000379949096388
-0.00583104934139
-0.000388510474619
-0.00569333329266
-0.000395999374858
-0.00555340430897
-0.000402467247166
-0.00541159562115
-0.000407963403814
-0.00526822880753
-0.000412537365039
-0.0051236035794
-0.000416236131059
-0.00497800882704
-0.000419106579204
-0.00483171274971
-0.000421192905922
-0.0046849736275
-0.000422539078336
-0.00453803025483
-0.000423186446239
-0.00439111233128
-0.000423176226431
-0.00424443115185
-0.000422547263715
-0.00409818953506
-0.000421338522397
-0.00395257276005
-0.000419586970253
-0.00380775797038
-0.000417330031946
-0.00366390536026
-0.000414603558108
-0.00352116702805
-0.000411444200845
-0.00337967845697
-0.000407887437556
-0.0032395668137
-0.000403969823841
-0.00310094277859
-0.00039972704557
-0.00296390831047
-0.000395196022344
-0.00282854890935
-0.000390412979915
-0.00269494087256
-0.000385415382525
-0.00256314406508
-0.000380240028728
-0.00243320869699
-0.000374924809988
-0.00230516868267
-0.000369506849553
-0.00217904795604
-0.000364024086978
-0.00205485447823
-0.000358513484877
-0.00193258609906
-0.000353012448633
-0.00181222526811
-0.000347557131461
-0.00169374443271
-0.000342183692167
-0.00157710148467
-0.000336926724353
-0.0014622446763
-0.000331820352997
-0.00134910882743
-0.000326896805784
-0.00123761972106
-0.000322187330456
-0.00112769105961
-0.00031772090305
-0.00101922825591
-0.000313524918387
-0.000912126008492
-0.000309623984106
-0.000806271092913
-0.000306040285696
-0.000701539690406
-0.000302792421345
-0.000597797032936
-0.000299895569053
-0.000494889588241
-0.000297361351114
-0.0003926319494
-0.000295201685572
-0.000290776487752
-0.00029343663594
-0.000188992436211
-0.000292067431648
-8.74045926605e-05
-0.000289808589943
-0.000261722240177
-0.000402431301964
0.0015400560363
-0.000848795322988
0.00170678155155
-0.00129328447867
0.00170022703917
-0.0017311568026
0.00167597211654
-0.00216014674902
0.00164331562312
-0.00257829518403
0.00160331757748
-0.00298384114166
0.00155667106753
-0.00337523367979
0.00150411452317
-0.00375114056793
0.00144642641949
-0.00411045155847
0.0013843981592
-0.00445227180653
0.00131881013211
-0.00477591226577
0.00125041131805
-0.00508087288316
0.00117990436477
-0.00536682628102
0.00110793449995
-0.00563359674067
0.00103508369069
-0.0058811425365
0.000961867686419
-0.00610953523055
0.000888737168408
-0.00631894417481
0.000816080285494
-0.00650961867738
0.00074422791618
-0.00668187629823
0.000673458871888
-0.00683608875997
0.000604006676964
-0.00697267424023
0.000536065228492
-0.0070920867706
0.000469795300098
-0.00719481189182
0.000405329306194
-0.00728135872349
0.00034277657988
-0.00735225802266
0.000282226678239
-0.00740805597159
0.000223753176023
-0.00744931370321
0.000167415513541
-0.0074766020046
0.000113261488175
-0.00749050161735
6.1327970068e-05
-0.00749159838863
1.16424736379e-05
-0.00748048364098
-3.57768138018e-05
-0.00745774946124
-8.09196007564e-05
-0.00742398946383
-0.00012378433754
-0.00737979406152
-0.000164377051422
-0.00732575124778
-0.000202711704115
-0.00726244185233
-0.000238809278244
-0.00719044053068
-0.000272698073532
-0.00711031118901
-0.000304412696064
-0.00702260819092
-0.000333994228044
-0.0069278720315
-0.000361489109471
-0.00682663082165
-0.000386949189136
-0.00671939628357
-0.000410430523947
-0.0066066655496
-0.000431993348856
-0.00648891752556
-0.000451700840758
-0.00636661501672
-0.000469619051633
-0.00624020147469
-0.000485815682969
-0.0061101034333
-0.000500360031095
-0.00597672762872
-0.000513321820855
-0.00584046370756
-0.000524771205226
-0.00570168168549
-0.000534777697176
-0.00556073486535
-0.000543410263492
-0.00541795757966
-0.000550736391957
-0.00527366824208
-0.00055682230845
-0.00512816730234
-0.000561732201278
-0.00498174033862
-0.000565528582541
-0.00483465614412
-0.000568271681865
-0.00468716976742
-0.000570019952107
-0.00453952064991
-0.000570829622145
-0.00439193552516
-0.000570755329921
-0.00424462653999
-0.00056984980713
-0.00409779394576
-0.000568164600176
-0.00395162415974
-0.000565749839061
-0.00380629220754
-0.000562654995273
-0.0036619597129
-0.000558928681295
-0.00351877708567
-0.000554619387596
-0.00337688146121
-0.00054977525805
-0.00323639865594
-0.000544444756806
-0.00309744110377
-0.000538676379668
-0.00296010962518
-0.00053251921492
-0.00282449142492
-0.000526022567399
-0.00269066172795
-0.000519236398667
-0.00255868190574
-0.0005122108631
-0.00242860103207
-0.000504996629679
-0.00230045419952
-0.000497644344901
-0.00217426403521
-0.000490204853081
-0.00205003925427
-0.000482728612894
-0.00192777616149
-0.000475265838072
-0.00180745747367
-0.000467865896779
-0.0016890538147
-0.000460577394892
-0.00157252282055
-0.000453447585242
-0.0014578106192
-0.000446522408995
-0.0013448512139
-0.000439845933896
-0.00123356791444
-0.00043346036004
-0.00112387295407
-0.000427405496846
-0.00101566877947
-0.000421718733115
-0.000908847745914
-0.000416434572728
-0.000803292960502
-0.000411584626359
-0.000698877497155
-0.000407197384948
-0.000595463840482
-0.000403298776164
-0.000492901503161
-0.000399913475988
-0.000391024700927
-0.000397068493076
-0.000289655243
-0.000394796149995
-0.000188662122926
-0.000393051027826
-8.85461586988e-05
-0.000389915181971
-0.000350263716249
-0.000410429859724
0.00195047562857
-0.000865282754407
0.00216162359872
-0.00131803612217
0.00215296939242
-0.00176375544678
0.00212168056311
-0.00220004066994
0.00207959004132
-0.00262482697429
0.00202809318721
-0.00303628067933
0.00196811421603
-0.00343280858853
0.0019006320043
-0.00381306467256
0.0018266722579
-0.0041759486417
0.00174727204335
-0.00452059609113
0.00166344771887
-0.0048463631731
0.0015761687286
-0.00515280636825
0.00148633814521
-0.00543966059807
0.00139477953546
-0.00570681575946
0.00130222994676
-0.00595429453314
0.00120933780026
-0.00618223075169
0.00111666504363
-0.00639085066966
0.00102469212912
-0.00658045569017
0.000933825204412
-0.00675140850629
0.000844404243567
-0.00690412069151
0.000756711780074
-0.00703904351095
0.000670981270657
-0.00715665968128
0.000587405073575
-0.00725747782271
0.000506141367575
-0.00734202718748
0.000427320257726
-0.00741085449022
0.000351048621236
-0.00746452039049
0.000277414120428
-0.0075035975863
0.000206488086093
-0.00752866809948
0.000138327787935
-0.00754032186553
7.29778604386e-05
-0.00753915428681
1.04714339956e-05
-0.0075257646348
-4.91695883867e-05
-0.00750075381421
-0.00010593312825
-0.0074647228226
-0.000159817696966
-0.007418270258
-0.000210831568491
-0.00736199089034
-0.000258992688742
-0.00729647311277
-0.000304328261595
-0.00722229763127
-0.000346874428763
-0.00714003508045
-0.000386675713848
-0.00705024492185
-0.000423784528367
-0.00695347331966
-0.000458260454351
-0.00685025233356
-0.000490169599002
-0.00674109813169
-0.000519583758183
-0.00662651053159
-0.000546579671675
-0.00650697158814
-0.000571238125986
-0.00638294550413
-0.00059364317619
-0.00625487760385
-0.000613881252861
-0.00612319460311
-0.000632040411147
-0.00598830394561
-0.000648209499051
-0.00585059439839
-0.000662477492576
-0.0057104357094
-0.000674932779226
-0.0055681794699
-0.000685662627282
-0.0054241590249
-0.000694752627599
-0.00527869052635
-0.000702286339266
-0.00513207301432
-0.000708344924351
-0.00498458956758
-0.000713006994008
-0.00483650745802
-0.000716348448835
-0.00468807930001
-0.000718442531663
-0.00453954318468
-0.000719359864497
-0.00439112373485
-0.000719168682607
-0.00424303213501
-0.000717935029056
-0.00409546702154
-0.000715723121427
-0.00394861435665
-0.000712595643325
-0.00380264811482
-0.000708614172685
-0.00365772998142
-0.000703839494627
-0.00351400983615
-0.000698332017358
-0.00337162529928
-0.000692152034903
-0.00323070204616
-0.000685360063076
-0.00309135325057
-0.000678016995226
-0.00295367979042
-0.000670184315054
-0.00281776965925
-0.000661924115966
-0.00268369813125
-0.000653299172275
-0.0025515272109
-0.000644372818946
-0.00242130582281
-0.000635208890575
-0.00229306936325
-0.000625871482195
-0.00216683996402
-0.000616424781162
-0.00204262618916
-0.000606932742027
-0.00192042340462
-0.000597458846639
-0.00180021364683
-0.000588065730648
-0.00168196610839
-0.000578814904987
-0.00156563718322
-0.000569766367524
-0.00145117106095
-0.000560978314554
-0.00133849993462
-0.000552506765055
-0.00122754467115
-0.000544405283588
-0.00111821513284
-0.000536724641683
-0.00101041085434
-0.000529512582769
-0.000904021375464
-0.00052281357345
-0.000798926765894
-0.000516668711315
-0.000694997831168
-0.000511115794103
-0.000592096384075
-0.000506189760309
-0.000490075650712
-0.00050192378998
-0.000388782789743
-0.000498351276923
-0.000288067781719
-0.000495501548462
-0.00018783397344
-0.000493275002855
-8.85582570978e-05
-0.000489181194028
-0.000438817438257
-0.000420600049126
0.00237106532826
-0.000886479285245
0.00262749154294
-0.00134991138946
0.00261639042679
-0.00180572133333
0.00257747943385
-0.00225134574977
0.00252520352607
-0.00268459198688
0.00246132858153
-0.00310353763344
0.00238704915804
-0.00350654016241
0.0023036239654
-0.00389224103864
0.00221236273743
-0.00425955932906
0.00211458011178
-0.00460767611753
0.0020115544927
-0.00493601246811
0.00190449527328
-0.00524420306865
0.00179451918192
-0.00553206819101
0.00168263533249
-0.00579958546649
0.00156973816978
-0.0060468633285
0.00145660687571
-0.00627411667029
0.00134390990033
-0.00648164574456
0.00123221300766
-0.00666981805918
0.00112198964893
-0.0068390537321
0.00101363235659
-0.0069898135738
0.000907464408966
-0.00712259008695
0.000803750897645
-0.00723790043161
0.000702708895818
-0.00733628148574
0.000604516239628
-0.00741828600448
0.000509318972122
-0.00748448007292
0.000417237235082
-0.00753544091334
0.000328369893339
-0.00757175537576
0.000242797837707
-0.0075940182799
0.00016058637553
-0.00760283108386
8.178670882e-05
-0.00759880027651
6.43706912457e-06
-0.00758253548453
-6.54375750902e-05
-0.00755464787786
-0.000133823528968
-0.00751574827699
-0.00019871972979
-0.00746644500333
-0.000260136874948
-0.0074073420038
-0.000318097361448
-0.00733903665764
-0.000372634884418
-0.00726211796604
-0.000423794042403
-0.00717716450209
-0.000471629708892
-0.00708474281336
-0.00051620639936
-0.00698540564644
-0.000557597418874
-0.00687969067072
-0.000595884031434
-0.00676811906326
-0.000631154446487
-0.00665119461622
-0.000663502867098
-0.00652940272546
-0.000693028398441
-0.00640320990405
-0.000719834056955
-0.00627306317953
-0.00074402568123
-0.0061393900021
-0.000765710980308
-0.00600259802718
-0.000784998521353
-0.00586307538119
-0.000801996885305
-0.00572119078002
-0.000816813795431
-0.00557729409108
-0.000829555441826
-0.00543171671661
-0.00084032580827
-0.00528477236874
-0.000849226215943
-0.0051367576246
-0.00085635489124
-0.004987952812
-0.000861806763551
-0.00483862262818
-0.0008656732963
-0.00468901702563
-0.000868042544099
-0.00453937178389
-0.000868999236231
-0.00438990928937
-0.00086862506472
-0.00424083896557
-0.000866998973073
-0.00409235786603
-0.00086419761019
-0.00394465089978
-0.000860295744055
-0.00379789119505
-0.000855366791239
-0.00365224010128
-0.000849483258863
-0.00350784732759
-0.000842717250703
-0.00336485074749
-0.000835140842297
-0.00322337635734
-0.000826826478368
-0.00308353794605
-0.000817847209064
-0.00294543694772
-0.00080827692215
-0.00280916205783
-0.000798190402016
-0.00267478906339
-0.000787663377623
-0.00254238048808
-0.000776772403304
-0.00241198547647
-0.000765594736694
-0.00228363953654
-0.00075420806876
-0.0021573645347
-0.000742690269664
-0.00203316858173
-0.000731119012505
-0.00191104617242
-0.000719571433918
-0.00179097823753
-0.000708123699642
-0.0016729324382
-0.000696850625926
-0.00155686338526
-0.000685825229992
-0.00144271307841
-0.000675118351021
-0.00133041127454
-0.000664798221032
-0.0012198760426
-0.00065493011827
-0.00111101424071
-0.00064557599282
-0.00100372214191
-0.000636794191937
-0.000897885972284
-0.000628639199389
-0.000793382582912
-0.000621161524998
-0.000690080077573
-0.000614407685956
-0.000587838740327
-0.0006084205095
-0.000486512601727
-0.000603239621622
-0.000385952212221
-0.000598901548076
-0.000286011982625
-0.000595431646797
-0.000186588850592
-0.000592688481958
-8.81101856153e-05
-0.00058765034017
-0.000526922837357
-0.000433205853536
0.00280426060226
-0.00091281610659
0.00310709066473
-0.00138952058577
0.00309308355562
-0.00185782849705
0.00304577615955
-0.00231496934643
0.00298233324224
-0.00275859303738
0.00290494126871
-0.00318667148438
0.00281511672133
-0.0035975079733
0.00271444971899
-0.00398973745167
0.00260458164354
-0.00436231335606
0.00248714562742
-0.00471448379589
0.00236371474427
-0.00504576055618
0.00223576206392
-0.00535588419919
0.00210463308881
-0.00564478819247
0.00197152984108
-0.00591256429107
0.00183750504742
-0.00615943082941
0.00170346447399
-0.00638570486889
0.00157017528993
-0.00659177869741
0.00143827849375
-0.00677810068856
0.00130830361133
-0.00694516030092
0.00118068427012
-0.00709347674835
0.00105577349052
-0.00722359081835
0.000933857950791
-0.00733605922996
0.000815170639605
-0.00743145096052
0.000699901666263
-0.00751034497889
0.000588207047421
-0.00757332890357
0.000480215592276
-0.00762099816862
0.000376033960695
-0.00765395537206
0.000275750226602
-0.00767280957233
0.000179436136505
-0.007678175356
8.7148442506e-05
-0.00767067194404
-1.07001381163e-06
-0.00765092131865
-8.51914795505e-05
-0.00761954661478
-0.000165201132098
-0.0075771705561
-0.000241098294935
-0.00752441315819
-0.000312896400957
-0.00746188962574
-0.000380622631605
-0.00739020822948
-0.000444317644048
-0.00730996820301
-0.000504035045697
-0.00722175775276
-0.000559840766831
-0.00712615217897
-0.000611812200439
-0.00702371218687
-0.000660037276481
-0.00691498236331
-0.000704613347424
-0.0068004898882
-0.000745646060443
-0.00668074343708
-0.000783248093272
-0.00655623233543
-0.000817537931566
-0.00642742590844
-0.000848638561648
-0.00629477308045
-0.000876676253775
-0.00615870215751
-0.000901779305574
-0.00601962084207
-0.000924076917666
-0.00587791640758
-0.000943698070214
-0.00573395607576
-0.00096077056793
-0.00558808751809
-0.000975420122487
-0.00544063951704
-0.000987769635091
-0.00529192270431
-0.000997938549382
-0.00514223040352
-0.00100604242773
-0.00499183949107
-0.00101219261987
-0.00484101129632
-0.00101649616256
-0.00468999245722
-0.00101905577567
-0.00453901574992
-0.00101997007573
-0.00438830081574
-0.00101933386506
-0.00423805480708
-0.00101723859977
-0.00408847289033
-0.00101377289109
-0.00393973863482
-0.00100902312684
-0.00379202424317
-0.00100307406815
-0.00364549066219
-0.000996009498949
-0.00350028754885
-0.000987912791757
-0.00335655313844
-0.000978867463791
-0.00321441400456
-0.000968957601923
-0.00307398476225
-0.000958268233375
-0.002935367714
-0.000946885540045
-0.00279865248813
-0.000934896998372
-0.00266391567221
-0.000922391361311
-0.00253122048423
-0.000909458569741
-0.0024006164829
-0.00089618952505
-0.00227213935046
-0.000882675811616
-0.00214581074328
-0.000869009311333
-0.00202163823528
-0.000855281796244
-0.00189961534306
-0.000841584447001
-0.00177972165127
-0.000828007377841
-0.00166192301962
-0.000814639117092
-0.00154617188725
-0.000801566118491
-0.00143240764879
-0.00078887225219
-0.00132055711707
-0.000776638345961
-0.001210535041
-0.000764941725796
-0.00110224469308
-0.000753855825002
-0.000995578504288
-0.000743449815409
-0.000890418763002
-0.000733788330252
-0.000786638375148
-0.000724931241561
-0.000684101812007
-0.0007169335849
-0.000582666214218
-0.000709845506075
-0.000482182931265
-0.000703712313703
-0.000382500195476
-0.000698574051305
-0.000283467840897
-0.000694454296461
-0.000184968196999
-0.000691178102164
-8.73927118726e-05
-0.000685215921245
-0.0006143109521
-0.000448525420075
0.00325277533872
-0.000944829652478
0.00360338320878
-0.00143763590277
0.00358587837471
-0.00192105045804
0.00352917926776
-0.0023920412415
0.00345331272427
-0.00284806593598
0.00336095475123
-0.00328697339726
0.0032540131063
-0.00370701153556
0.00313447692168
-0.00410682121574
0.00300438055536
-0.00448541331522
0.00286572713952
-0.00484213322446
0.0027204242703
-0.00517661771465
0.00257023638766
-0.00548874857168
0.00241675401888
-0.00577860672336
0.00226137831456
-0.00604642951075
0.00210531842817
-0.00629257292923
0.0019495987636
-0.006517479669
0.00179507320148
-0.00672165326925
0.00164244356885
-0.00690563803576
0.00149228017845
-0.00707000424734
0.00134504260723
-0.00721533779788
0.00120109951388
-0.00734223356904
0.00106074653742
-0.00745129159489
0.000924221845486
-0.00754311536965
0.00079171897789
-0.00761831146502
0.000663397058041
-0.0076774899876
0.000539388397213
-0.00772126523869
0.000419803882289
-0.0077502563534
0.000304736386084
-0.00776508751868
0.000194262741605
-0.00776638779536
8.84445383208e-05
-0.00775479009294
-1.2671497282e-05
-0.0077309305461
-0.000109054426018
-0.00769544646262
-0.000200688213026
-0.00764897442631
-0.000287572947576
-0.00759214816987
-0.0003697248726
-0.00752559633025
-0.000447176307967
-0.0074499400925
-0.000519975320315
-0.00736579097279
-0.000588185230168
-0.00727374861193
-0.000651883799401
-0.00717439881739
-0.0007111622991
-0.00706831169977
-0.000766124311833
-0.00695604012307
-0.000816884482265
-0.00683811829289
-0.000863567071083
-0.00671506068688
-0.000906304529316
-0.0065873611374
-0.000945235943259
-0.00645549225814
-0.000980505563306
-0.00631990501659
-0.00101226126129
-0.0061810286354
-0.0010406531242
-0.0060392706208
-0.00106583202529
-0.0058950170925
-0.00108794837518
-0.0057486332108
-0.00110715089484
-0.00560046386528
-0.00112358560919
-0.005450834418
-0.0011373949052
-0.0053000516525
-0.00114871684646
-0.00514840471878
-0.00115768458822
-0.00499616621356
-0.00116442607321
-0.00484359318591
-0.00116906384688
-0.00469092819845
-0.00117171515381
-0.00453840024165
-0.00117249214521
-0.00438622562854
-0.00117150233705
-0.00423460868279
-0.00116884913924
-0.00408374235191
-0.00116463257373
-0.00393380858044
-0.00115894999733
-0.00378497858465
-0.00115189693193
-0.00363741288875
-0.00114356782147
-0.0034912612743
-0.00113405681191
-0.00334666252583
-0.00112345838707
-0.00320374413103
-0.00111186795959
-0.00306262183534
-0.00109938227047
-0.00292339920878
-0.00108609970449
-0.00278616713333
-0.00107212039945
-0.00265100336097
-0.00105754626445
-0.00251797205231
-0.00104248080703
-0.00238712343216
-0.0010270288897
-0.00225849346886
-0.00101129633037
-0.00213210369916
-0.000995389467078
-0.00200796110069
-0.000979414609736
-0.0018860581203
-0.000963477493681
-0.00176637275734
-0.000947682660695
-0.00164886879883
-0.000932132874337
-0.00153349610538
-0.000916928495647
-0.00142019103552
-0.000902166917936
-0.00130887690953
-0.000887941987
-0.00119946459479
-0.000874343499052
-0.00109185311714
-0.000861456704052
-0.000985930387233
-0.000849361901429
-0.00088157395385
-0.000838134061175
-0.000778651908099
-0.000827842549795
-0.000677023843021
-0.000818550865909
-0.000576542060794
-0.000810316520844
-0.000477053132945
-0.000803190787858
-0.00037839942675
-0.000797217471952
-0.000280422566278
-0.000792420794985
-0.000182992254078
-0.000788598612412
-8.64746017592e-05
-0.000781723906741
-0.000700780657288
-0.000466897728527
0.00371966208298
-0.000983202015456
0.0041196759738
-0.00149524642968
0.00409791100611
-0.00199663009883
0.00403055133389
-0.0024839952998
0.00394066636589
-0.00295456777188
0.00383151579682
-0.00340605720048
0.00370549122596
-0.00383666087312
0.00356506943534
-0.00424504748784
0.00341275617354
-0.00463031976791
0.00325098860901
-0.00499196254878
0.00308205644168
-0.0053297831127
0.00290804656509
-0.00564384974955
0.00273081050502
-0.00593443314527
0.00255195181727
-0.00620195379844
0.0023728294556
-0.00644693722857
0.00219457285711
-0.00666997768333
0.00201810461478
-0.00687171011658
0.00184416727767
-0.00705278976387
0.00167335142076
-0.00721387821642
0.00150612299568
-0.00735563490613
0.00134284847912
-0.00747871276458
0.00118381703213
-0.00758375704423
0.00102925911743
-0.00767140621725
0.000879361519776
-0.00774229417149
0.000734278749538
-0.00779705286195
0.000594141213696
-0.00783631493853
0.000459060462337
-0.00786071581646
0.000329132164434
-0.00787089505337
0.00020443726209
-0.00786749679816
8.50419703226e-05
-0.00785116916952
-2.90030513426e-05
-0.00782256398736
-0.000137663126386
-0.00778233445675
-0.000240920873531
-0.00773113320959
-0.00033877691647
-0.00766961000365
-0.000431250413574
-0.00759840916632
-0.000518379074057
-0.00751816708425
-0.000600218948253