/*--------------------------------*- C++ -*----------------------------------*\
| =========                 |                                                 |
| \\      /  F ield         | OpenFOAM: The Open Source CFD Toolbox           |
|  \\    /   O peration     | Version:  v1906                                 |
|   \\  /    A nd           | Web:      www.OpenFOAM.com                      |
|    \\/     M anipulation  |                                                 |
\*---------------------------------------------------------------------------*/
FoamFile
{
    version     2.0;
    format      ascii;
    class       volVectorField;
    location    "911";
    object      U;
}
// * * * * * * * * * * * * * * * * * * * * * * * * * * * * * * * * * * * * * //

dimensions      [0 1 -1 0 0 0 0];


internalField   nonuniform List<vector> 
9216
(
(0.00270969988021 -0.00271206996321 0)
(0.00285696606119 -0.0087522190719 1.17186881634e-27)
(0.00284880268422 -0.0148864110371 1.84076858665e-31)
(0.00281151866486 -0.0210209772448 0)
(0.00275975874243 -0.0270527345457 0)
(0.00269498430041 -0.032957415708 0)
(0.00261888011641 -0.0387091803306 0)
(0.00253279079171 -0.0442850477128 0)
(0.00243801665154 -0.0496648261156 0)
(0.00233583017925 -0.0548311077156 0)
(0.00222749636833 -0.0597692268038 0)
(0.0021142193902 -0.064467204443 0)
(0.00199715776696 -0.0689156175586 0)
(0.00187736677046 -0.0731074523576 0)
(0.00175583197175 -0.0770378979051 0)
(0.00163341319713 -0.0807041507426 0)
(0.00151089814145 -0.0841051800875 0)
(0.0013889447768 -0.0872415277505 0)
(0.00126815250581 -0.0901150830071 0)
(0.00114899847371 -0.0927289075232 0)
(0.00103192338015 -0.0950870415857 0)
(0.000917257534962 -0.0971943674185 0)
(0.000805318990084 -0.0990564540546 0)
(0.000696326601924 -0.100679460111 0)
(0.000590509284889 -0.102070014497 0)
(0.000488004554877 -0.103235152111 0)
(0.000388978400865 -0.104182222911 0)
(0.000293509173491 -0.104918851499 0)
(0.000201718513485 -0.105452866243 0)
(0.000113642213046 -0.105792275739 0)
(2.93747400254e-05 -0.105945198229 0)
(-5.10957787038e-05 -0.105919915556 0)
(-0.00012772951223 -0.105724662505 0)
(-0.000200560398953 -0.105367710351 0)
(-0.00026954850375 -0.104857346039 0)
(-0.000334756616395 -0.104201828942 0)
(-0.00039617375091 -0.103409352693 0)
(-0.00045389109079 -0.102488031581 0)
(-0.000507918941196 -0.101445861936 0)
(-0.000558372063951 -0.100290711316 0)
(-0.000605278716692 -0.0990302856438 0)
(-0.000648773278645 -0.0976721199223 0)
(-0.000688898661615 -0.0962235517642 0)
(-0.000725804636793 -0.0946917140988 0)
(-0.000759545009869 -0.0930835154141 0)
(-0.000790280320346 -0.0914056344855 0)
(-0.000818071505489 -0.0896645077808 0)
(-0.000843085350945 -0.0878663263114 0)
(-0.000865386192413 -0.0860170298647 0)
(-0.000885142719273 -0.0841223054849 0)
(-0.000902419485316 -0.0821875882673 0)
(-0.000917383410126 -0.080218061044 0)
(-0.000930096635516 -0.0782186607486 0)
(-0.000940721325732 -0.0761940783735 0)
(-0.000949315549907 -0.0741487700777 0)
(-0.000956034777412 -0.0720869566568 0)
(-0.000960932185646 -0.0700126380115 0)
(-0.000964155525385 -0.0679295910587 0)
(-0.000965753317881 -0.0658413865328 0)
(-0.000965865614496 -0.0637513846367 0)
(-0.000964537235836 -0.0616627528758 0)
(-0.000961901248926 -0.0595784587169 0)
(-0.00095800040774 -0.057501287738 0)
(-0.000952962090438 -0.0554338331301 0)
(-0.00094682879683 -0.0533785134352 0)
(-0.000939723614918 -0.0513375588797 0)
(-0.000931690614573 -0.0493130286398 0)
(-0.000922849908499 -0.0473067945651 0)
(-0.000913248516152 -0.0453205579382 0)
(-0.00090300442417 -0.0433558312426 0)
(-0.00089216847095 -0.0414139548859 0)
(-0.00088085685603 -0.0394960779904 0)
(-0.000869124372041 -0.0376031754188 0)
(-0.000857085121917 -0.0357360284469 0)
(-0.000844797387597 -0.0338952426485 0)
(-0.000832372361149 -0.032081229347 0)
(-0.00081987074967 -0.0302942246375 0)
(-0.000807399564471 -0.0285342722379 0)
(-0.00079502050888 -0.0268012439691 0)
(-0.00078283488827 -0.0250948245274 0)
(-0.000770903673349 -0.0234145334797 0)
(-0.000759320733618 -0.0217597122457 0)
(-0.000748144392445 -0.0201295477633 0)
(-0.000737459114293 -0.0185230620407 0)
(-0.00072731813682 -0.016939137833 0)
(-0.000717793488553 -0.0153765117588 0)
(-0.000708928441899 -0.013833804131 0)
(-0.000700773689381 -0.0123095207282 0)
(-0.00069334304374 -0.010802098885 0)
(-0.000686619081806 -0.00930994896436 0)
(-0.000680464988415 -0.00783159102349 0)
(-0.000674476436723 -0.00636596555759 0)
(-0.00066749705129 -0.0049133710675 0)
(-0.000654494304308 -0.00348291986138 0)
(-0.000630988039128 -0.00200835862424 0)
(-0.000797460697552 -0.000797251179969 0)
(0.00877237672722 -0.00288709223685 0)
(0.00969980708572 -0.00976996650158 0)
(0.00967738124103 -0.016640042504 -1.23059830789e-27)
(0.00954792393434 -0.0235154905182 0)
(0.00936877563572 -0.0302664186758 0)
(0.00914729121761 -0.0368710701786 0)
(0.00888786895145 -0.0433020136217 0)
(0.00859472207419 -0.0495340016753 0)
(0.00827215658617 -0.0555446200163 0)
(0.00792449315788 -0.061314520283 0)
(0.00755602094739 -0.0668274450256 0)
(0.00717086034742 -0.0720701742908 0)
(0.00677293641874 -0.0770323823302 0)
(0.00636586088419 -0.0817064559442 0)
(0.00595295735366 -0.0860872601476 0)
(0.00553716938623 -0.090171900293 0)
(0.00512113571564 -0.0939594595668 0)
(0.00470711360149 -0.0974507587664 0)
(0.00429709294327 -0.10064810976 0)
(0.00389272030897 -0.103555106473 0)
(0.00349544014899 -0.10617641796 0)
(0.00310640677948 -0.108517624805 0)
(0.00272664370851 -0.110585058404 0)
(0.00235693503437 -0.112385682708 0)
(0.00199799783133 -0.113926975159 0)
(0.00165034864741 -0.115216845595 0)
(0.00131448714073 -0.116263549039 0)
(0.000990736982596 -0.117075630684 0)
(0.000679441436852 -0.117661859524 0)
(0.000380780721936 -0.118031187446 0)
(9.49830731793e-05 -0.118192702116 0)
(-0.000177899251804 -0.118155539061 0)
(-0.000437762546226 -0.117928974158 0)
(-0.000684648651973 -0.117522315715 0)
(-0.00091852186195 -0.116944833181 0)
(-0.00113951759633 -0.116205760591 0)
(-0.00134768766319 -0.115314256739 0)
(-0.00154325453961 -0.114279384328 0)
(-0.00172634505134 -0.1131100765 0)
(-0.00189725736389 -0.111815116747 0)
(-0.00205618273379 -0.110403109829 0)
(-0.00220348277 -0.108882464555 0)
(-0.00233940118636 -0.107261370317 0)
(-0.00246434924418 -0.105547783458 0)
(-0.00257860974661 -0.103749409972 0)
(-0.00268262875789 -0.101873695774 0)
(-0.0027767144027 -0.0999278158524 0)
(-0.00286133275573 -0.0979186684467 0)
(-0.00293680393435 -0.0958528704083 0)
(-0.0030036001549 -0.0937367549028 0)
(-0.00306204174519 -0.0915763725029 0)
(-0.00311259518061 -0.0893774917711 0)
(-0.00315557144618 -0.0871456051511 0)
(-0.00319142200602 -0.0848859314738 0)
(-0.00322044196196 -0.0826034255973 0)
(-0.00324306176936 -0.0803027817659 0)
(-0.00325955733558 -0.0779884456582 0)
(-0.00327033545675 -0.0756646174099 0)
(-0.00327565289341 -0.0733352648451 0)
(-0.0032758934054 -0.0710041251222 0)
(-0.00327129746178 -0.0686747179264 0)
(-0.0032622289558 -0.0663503448721 0)
(-0.00324891704191 -0.0640341018474 0)
(-0.0032317106192 -0.0617288757313 0)
(-0.00321083343173 -0.0594373553426 0)
(-0.00318662472101 -0.0571620253957 0)
(-0.00315930860173 -0.0549051760477 0)
(-0.00312921943989 -0.0526688944923 0)
(-0.00309658625541 -0.050455073357 0)
(-0.00306174179378 -0.048265400601 0)
(-0.00302492264146 -0.0461013673878 0)
(-0.00298646120201 -0.0439642571944 0)
(-0.00294660201457 -0.0418551538006 0)
(-0.00290567624627 -0.0397749304969 0)
(-0.002863934636 -0.0377242589086 0)
(-0.00282170432208 -0.0357035991425 0)
(-0.00277923864019 -0.0337132099509 0)
(-0.00273685639084 -0.0317531404332 0)
(-0.00269480861017 -0.0298232419524 0)
(-0.00265340048028 -0.0279231618372 0)
(-0.00261287498695 -0.0260523572188 0)
(-0.00257351779104 -0.0242100909566 0)
(-0.00253555750361 -0.0223954475102 0)
(-0.00249925370016 -0.020607331247 0)
(-0.00246481308093 -0.0188444844009 0)
(-0.00243246016691 -0.0171054878982 0)
(-0.00240236699001 -0.0153887814544 0)
(-0.00237470249607 -0.0136926664491 0)
(-0.00234956516855 -0.0120153249808 0)
(-0.00232698762387 -0.0103548120408 0)
(-0.00230681298474 -0.00870902658462 0)
(-0.00228851722644 -0.00707553901117 0)
(-0.00227061782983 -0.00545089359509 0)
(-0.00224865695813 -0.00382787029527 0)
(-0.00219610468982 -0.00219123731578 0)
(-0.00200699598122 -0.000628902395807 0)
(0.0150176004252 -0.00293296944807 0)
(0.0166281611782 -0.00993076177114 0)
(0.0165674299046 -0.0168910961283 -1.2285592172e-27)
(0.0163364259159 -0.0238671939724 0)
(0.0160246911481 -0.0307151073715 0)
(0.0156419967416 -0.0374115690963 0)
(0.0151948472013 -0.0439281100402 0)
(0.014690177848 -0.0502389305011 0)
(0.0141353142061 -0.0563212927405 0)
(0.0135377112885 -0.0621557111062 0)
(0.0129047647066 -0.0677259581068 0)
(0.0122436004439 -0.0730189830412 0)
(0.0115609626397 -0.078024745338 0)
(0.0108630734244 -0.0827359983715 0)
(0.0101556050596 -0.087148031256 0)
(0.00944360529323 -0.0912583996801 0)
(0.00873154087264 -0.0950666468863 0)
(0.00802326764913 -0.0985740404289 0)
(0.0073221222779 -0.101783318842 0)
(0.00663091215546 -0.104698468302 0)
(0.00595203257253 -0.107324517395 0)
(0.00528745558122 -0.109667365832 0)
(0.00463885583907 -0.111733631219 0)
(0.004007584827 -0.11353052707 0)
(0.00339479591672 -0.115065754136 0)
(0.00280139755829 -0.116347417112 0)
(0.00222817429781 -0.117383948485 0)
(0.00167571810887 -0.11818405129 0)
(0.00114454617312 -0.118756643327 0)
(0.00063501241291 -0.119110814709 0)
(0.000147422901177 -0.119255785443 0)
(-0.000318058626165 -0.119200868173 0)
(-0.000761292470105 -0.118955432059 0)
(-0.00118228757897 -0.118528872508 0)
(-0.00158107008328 -0.117930572616 0)
(-0.00195780308574 -0.117169875167 0)
(-0.00231265537891 -0.116256048281 0)
(-0.00264593114943 -0.115198258495 0)
(-0.00295793027186 -0.114005540676 0)
(-0.00324908245113 -0.112686773628 0)
(-0.00351980120638 -0.111250653948 0)
(-0.00377062186385 -0.109705675304 0)
(-0.00400205046498 -0.10806010732 0)
(-0.00421470487341 -0.106321979375 0)
(-0.00440915999269 -0.104499065055 0)
(-0.00458609136833 -0.102598870817 0)
(-0.00474611825015 -0.100628626318 0)
(-0.0048899490164 -0.0985952779959 0)
(-0.00501822359714 -0.0965054849886 0)
(-0.00513166006369 -0.0943656172025 0)
(-0.00523089793147 -0.0921817563598 0)
(-0.00531664515427 -0.0899596978856 0)
(-0.00538952370557 -0.0877049561007 0)
(-0.00545021621112 -0.0854227688918 0)
(-0.00549931511824 -0.0831181059972 0)
(-0.00553746806555 -0.0807956753058 0)
(-0.00556523172543 -0.0784599328445 0)
(-0.00558321495693 -0.0761150893878 0)
(-0.0055919382083 -0.0737651209141 0)
(-0.00559197333091 -0.0714137743584 0)
(-0.00558380913288 -0.0690645772853 0)
(-0.00556798668658 -0.0667208417852 0)
(-0.00554497142021 -0.0643856725861 0)
(-0.00551528267212 -0.0620619685502 0)
(-0.00547937249497 -0.0597524287193 0)
(-0.00543774831792 -0.0574595512635 0)
(-0.00539085858045 -0.055185637566 0)
(-0.0053392074851 -0.0529327889851 0)
(-0.00528324754494 -0.0507029093543 0)
(-0.00522348569452 -0.048497700214 0)
(-0.00516038292146 -0.0463186625089 0)
(-0.00509445124965 -0.0441670911908 0)
(-0.0050261606754 -0.042044076894 0)
(-0.0049560268436 -0.0399505007917 0)
(-0.00488452558796 -0.0378870370934 0)
(-0.00481217131063 -0.0358541489689 0)
(-0.0047394394117 -0.0338520924589 0)
(-0.00466683555928 -0.031880914045 0)
(-0.00459482626615 -0.029940456442 0)
(-0.00452389928165 -0.0280303581927 0)
(-0.00445450245571 -0.0261500615163 0)
(-0.00438709549008 -0.0242988140624 0)
(-0.00432209707411 -0.0224756788554 0)
(-0.00425992805911 -0.0206795381444 0)
(-0.00420096648081 -0.0189091051692 0)
(-0.0041455817313 -0.0171629295718 0)
(-0.00409409616301 -0.0154394098093 0)
(-0.00404680837376 -0.0137367974223 0)
(-0.00400395797929 -0.0120532036215 0)
(-0.00396573453798 -0.0103865872638 0)
(-0.00393224634473 -0.00873472272595 0)
(-0.0039035453145 -0.00709509434498 0)
(-0.0038796797214 -0.00546461617529 0)
(-0.00386037118101 -0.00383795703305 0)
(-0.00382876085268 -0.00223114036899 0)
(-0.00347397335252 -0.000648689367382 0)
(0.021410649029 -0.00297831497345 0)
(0.023725054844 -0.0100811960121 0)
(0.0236353079844 -0.0171370812755 1.22798875595e-27)
(0.0233007049828 -0.0242094442835 0)
(0.022850023765 -0.0311482726023 0)
(0.022297715736 -0.0379288056392 0)
(0.0216532255626 -0.0445213968056 0)
(0.0209266429733 -0.0508995411938 0)
(0.0201286280669 -0.0570401487665 0)
(0.019270035062 -0.0629236799433 0)
(0.0183615934125 -0.0685341058835 0)
(0.0174136217437 -0.0738587770719 0)
(0.016435830394 -0.0788882089549 0)
(0.015437156615 -0.0836158146646 0)
(0.0144256905991 -0.088037603702 0)
(0.0134086180937 -0.0921518710631 0)
(0.012392244147 -0.0959588883926 0)
(0.011382008942 -0.0994606139098 0)
(0.0103825716725 -0.102660424598 0)
(0.00939786177111 -0.105562880251 0)
(0.00843118815744 -0.10817351646 0)
(0.00748529547834 -0.110498671099 0)
(0.00656247406268 -0.112545337431 0)
(0.00566460219711 -0.114321045676 0)
(0.00479324345753 -0.115833764429 0)
(0.00394966666715 -0.117091822885 0)
(0.00313492656064 -0.118103845159 0)
(0.0023498609905 -0.118878697928 0)
(0.0015951570006 -0.119425443702 0)
(0.000871329246433 -0.119753301873 0)
(0.000178775871522 -0.119871609299 0)
(-0.000482252094441 -0.119789799519 0)
(-0.00111159693077 -0.119517336969 0)
(-0.00170924426052 -0.119063714297 0)
(-0.00227526616818 -0.118438410165 0)
(-0.00280986550773 -0.11765085794 0)
(-0.00331332140934 -0.11671041373 0)
(-0.0037860364895 -0.115626326977 0)
(-0.00422847855989 -0.114407711119 0)
(-0.0046412281734 -0.113063517178 0)
(-0.00502491692333 -0.111602508241 0)
(-0.00538027519581 -0.110033237185 0)
(-0.00570806779304 -0.108364026053 0)
(-0.00600914197026 -0.106602948792 0)
(-0.00628436132642 -0.104757816205 0)
(-0.00653465439932 -0.102836164153 0)
(-0.00676094788799 -0.100845244315 0)
(-0.00696421602595 -0.0987920178526 0)
(-0.00714541415321 -0.0966831517476 0)
(-0.00730552910631 -0.0945250175311 0)
(-0.00744551412717 -0.0923236926325 0)
(-0.00756634036734 -0.0900849634006 0)
(-0.00766893398936 -0.0878143305167 0)
(-0.00775422884448 -0.0855170152525 0)
(-0.00782310650347 -0.0831979677617 0)
(-0.00787644995007 -0.0808618752735 0)
(-0.00791508703109 -0.0785131718607 0)
(-0.00793984485759 -0.0761560471695 0)
(-0.00795149691416 -0.0737944562697 0)
(-0.00795081755027 -0.0714321275771 0)
(-0.00793853265754 -0.0690725715111 0)
(-0.00791537345728 -0.0667190865302 0)
(-0.00788203041852 -0.0643747657075 0)
(-0.00783920533884 -0.0620425002235 0)
(-0.00778756799243 -0.0597249834151 0)
(-0.00772780553237 -0.057424711589 0)
(-0.00766058136419 -0.055143985663 0)
(-0.00758658097665 -0.0528849096688 0)
(-0.00750647263463 -0.0506493905228 0)
(-0.00742094903814 -0.048439134973 0)
(-0.00733068965891 -0.0462556483772 0)
(-0.00723639789131 -0.0441002310573 0)
(-0.00713876507374 -0.0419739770336 0)
(-0.00703850312379 -0.03987777076 0)
(-0.00693631049381 -0.0378122867262 0)
(-0.00683290046878 -0.0357779874058 0)
(-0.00672896940122 -0.0337751244098 0)
(-0.00662522100284 -0.0318037382394 0)
(-0.00652233723357 -0.0298636614512 0)
(-0.00642099891736 -0.0279545205469 0)
(-0.00632185958747 -0.0260757413232 0)
(-0.00622556272224 -0.0242265529673 0)
(-0.00613271872556 -0.0224059955336 0)
(-0.00604391892045 -0.020612926038 0)
(-0.00595971563115 -0.0188460276233 0)
(-0.00588063287769 -0.0171038168754 0)
(-0.00580714934386 -0.0153846532802 0)
(-0.00573970582971 -0.013686745214 0)
(-0.0056786920563 -0.0120081549896 0)
(-0.00562445538687 -0.0103467953627 0)
(-0.00557730537173 -0.00870042058294 0)
(-0.0055375599389 -0.00706659634783 0)
(-0.00550558276184 -0.00544266164147 0)
(-0.00548071687402 -0.00382428661409 0)
(-0.00543651411468 -0.00223375660986 0)
(-0.00488662389574 -0.00065598442125 0)
(0.0279105378523 -0.00303786044407 0)
(0.030930673806 -0.0102789936866 0)
(0.0308093031046 -0.0174674304875 0)
(0.030365764597 -0.0246691830509 0)
(0.0297688562676 -0.0317293845514 0)
(0.0290381586563 -0.0386215632388 0)
(0.0281865483966 -0.0453146402637 0)
(0.0272277027376 -0.0517811957611 0)
(0.0261759990494 -0.0579976968771 0)
(0.0250460161086 -0.0639445803784 0)
(0.0238520885034 -0.0696061486061 0)
(0.0226079334928 -0.0749703654446 0)
(0.0213263772227 -0.0800285683237 0)
(0.0200191586627 -0.0847751283922 0)
(0.018696827431 -0.0892070848695 0)
(0.0173686996353 -0.0933237779831 0)
(0.0160428852276 -0.0971264967 0)
(0.0147263437154 -0.100618155174 0)
(0.013424985667 -0.103803004004 0)
(0.0121437745555 -0.106686381359 0)
(0.0108868540281 -0.109274502736 0)
(0.00965765487147 -0.11157428882 0)
(0.00845901538371 -0.113593226245 0)
(0.00729326911441 -0.115339258097 0)
(0.00616234175764 -0.116820697607 0)
(0.00506780996839 -0.118046161406 0)
(0.0040109708439 -0.119024516179 0)
(0.00299287256474 -0.119764835909 0)
(0.00201436061066 -0.12027636493 0)
(0.00107608676295 -0.120568485489 0)
(0.000178539795452 -0.120650682758 0)
(-0.000677960071572 -0.120532535736 0)
(-0.00149323088848 -0.120223635685 0)
(-0.00226725091952 -0.119733607894 0)
(-0.00300013166708 -0.119072055315 0)
(-0.0036921311876 -0.118248530982 0)
(-0.00434363184365 -0.117272505978 0)
(-0.00495515201606 -0.116153338695 0)
(-0.00552732125436 -0.114900245048 0)
(-0.00606089032604 -0.113522270697 0)
(-0.00655670358001 -0.112028265059 0)
(-0.00701570745157 -0.110426857951 0)
(-0.00743892068187 -0.108726438703 0)
(-0.00782744186593 -0.106935138271 0)
(-0.00818241847893 -0.105060814185 0)
(-0.00850505422721 -0.103111038604 0)
(-0.00879657789634 -0.101093089356 0)
(-0.00905825124511 -0.0990139439302 0)
(-0.00929133864784 -0.0968802763446 0)
(-0.00949711621172 -0.0946984566238 0)
(-0.00967684309254 -0.0924745528834 0)
(-0.00983177240129 -0.0902143354896 0)
(-0.00996312495636 -0.087923283347 0)
(-0.0100721024253 -0.0856065915806 0)
(-0.0101598640985 -0.0832691807589 0)
(-0.0102275424872 -0.0809157066949 0)
(-0.0102762234377 -0.0785505710642 0)
(-0.0103069641192 -0.0761779317554 0)
(-0.0103207764412 -0.0738017133415 0)
(-0.0103186469812 -0.0714256164798 0)
(-0.0103015232742 -0.0690531268082 0)
(-0.0102703348887 -0.0666875221574 0)
(-0.0102259818228 -0.0643318788872 0)
(-0.0101693556678 -0.0619890761825 0)
(-0.0101013291577 -0.059661799356 0)
(-0.0100227763073 -0.0573525410858 0)
(-0.00993456217863 -0.0550636018686 0)
(-0.00983756100594 -0.0527970886594 0)
(-0.00973264545157 -0.0505549131444 0)
(-0.00962070205259 -0.0483387886679 0)
(-0.00950261957892 -0.0461502273728 0)
(-0.00937930151149 -0.043990536533 0)
(-0.00925165347913 -0.0418608156698 0)
(-0.00912059285543 -0.0397619533825 0)
(-0.00898703555429 -0.0376946254708 0)
(-0.00885190308418 -0.035659293172 0)
(-0.00871610915823 -0.033656203035 0)
(-0.00858056468483 -0.0316853871728 0)
(-0.00844616469903 -0.0297466653544 0)
(-0.00831379176584 -0.0278396475795 0)
(-0.00818430368308 -0.0259637385287 0)
(-0.00805853570648 -0.0241181424717 0)
(-0.00793728936607 -0.0223018699568 0)
(-0.0078213338054 -0.020513744778 0)
(-0.00771139595574 -0.0187524124343 0)
(-0.00760816128497 -0.0170163484396 0)
(-0.00751226578592 -0.0153038674922 0)
(-0.00742429715942 -0.0136131315911 0)
(-0.00734479096741 -0.0119421579154 0)
(-0.0072742376414 -0.010288824827 0)
(-0.00721309385596 -0.00865088192667 0)
(-0.00716181156314 -0.00702595897593 0)
(-0.00712079301068 -0.00541159923849 0)
(-0.00708865161757 -0.00380375205653 0)
(-0.00702976924309 -0.00222561794029 0)
(-0.00630695487779 -0.000655281070708 0)
(0.0345551734609 -0.00311331062243 0)
(0.0382920028504 -0.0105321981533 0)
(0.0381343983549 -0.0178926979099 0)
(0.0375739038847 -0.0252611943909 0)
(0.0368203967106 -0.0324771218573 0)
(0.0358990832917 -0.0395119139457 0)
(0.0348268349655 -0.0463327524781 0)
(0.0336214733351 -0.052911115985 0)
(0.0323016087868 -0.0592229832056 0)
(0.0308859916079 -0.0652488552982 0)
(0.0293929295064 -0.0709735645451 0)
(0.0278398160425 -0.0763859696231 0)
(0.0262427862911 -0.0814785640986 0)
(0.0246164900245 -0.0862470375085 0)
(0.0229739783533 -0.09068982216 0)
(0.0213266788028 -0.0948076526934 0)
(0.0196844478352 -0.0986031573892 0)
(0.0180556715589 -0.102080493908 0)
(0.0164474059582 -0.10524503537 0)
(0.0148655299205 -0.108103108607 0)
(0.0133149090821 -0.110661782046 0)
(0.0117995484824 -0.112928699062 0)
(0.0103227393227 -0.114911950337 0)
(0.00888718201299 -0.11661997887 0)
(0.00749509692753 -0.118061510351 0)
(0.00614830781349 -0.119245502758 0)
(0.00484831384836 -0.120181108888 0)
(0.0035963365191 -0.120877647233 0)
(0.00239336029639 -0.121344576892 0)
(0.00124015298742 -0.121591473912 0)
(0.000137287552865 -0.121628002729 0)
(-0.000914859721671 -0.12146392022 0)
(-0.00191608198516 -0.121108972675 0)
(-0.00286635980514 -0.120572951439 0)
(-0.0037658439536 -0.119865614939 0)
(-0.00461485819236 -0.11899666758 0)
(-0.0054138885058 -0.117975725975 0)
(-0.00616358165295 -0.116812286938 0)
(-0.00686473127419 -0.115515696467 0)
(-0.00751827339042 -0.114095120562 0)
(-0.00812526926187 -0.112559518146 0)
(-0.00868689828177 -0.110917616657 0)
(-0.00920443844789 -0.109177890455 0)
(-0.00967925763103 -0.107348542386 0)
(-0.0101127928232 -0.105437488509 0)
(-0.0105065409211 -0.103452346148 0)
(-0.0108620379489 -0.101400425171 0)
(-0.011180850425 -0.0992887224684 0)
(-0.011464555654 -0.0971239194953 0)
(-0.011714734651 -0.0949123826946 0)
(-0.0119329544869 -0.0926601666119 0)
(-0.0121207636047 -0.0903730193783 0)
(-0.0122796770604 -0.0880563903325 0)
(-0.01241117493 -0.0857154393275 0)
(-0.0125166911003 -0.0833550474507 0)
(-0.0125976151914 -0.080979828586 0)
(-0.0126552852151 -0.0785941415445 0)
(-0.0126909930679 -0.0762021021246 0)
(-0.0127059809271 -0.0738075948752 0)
(-0.0127014498526 -0.0714142839178 0)
(-0.0126785592674 -0.0690256227249 0)
(-0.012638437732 -0.0666448622891 0)
(-0.0125821844181 -0.0642750577607 0)
(-0.0125108807451 -0.0619190731188 0)
(-0.0124255925041 -0.0595795841705 0)
(-0.0123273809595 -0.0572590796048 0)
(-0.012217304318 -0.0549598605986 0)
(-0.0120964270632 -0.0526840388294 0)
(-0.0119658197601 -0.0504335335489 0)
(-0.0118265658148 -0.0482100676504 0)
(-0.0116797590829 -0.04601516346 0)
(-0.0115265077454 -0.043850138188 0)
(-0.01136792969 -0.0417160997644 0)
(-0.0112051536832 -0.0396139429491 0)
(-0.0110393129033 -0.037544346376 0)
(-0.010871543908 -0.0355077703301 0)
(-0.0107029789278 -0.0335044558244 0)
(-0.0105347432874 -0.0315344246857 0)
(-0.0103679471299 -0.0295974811214 0)
(-0.0102036819313 -0.0276932143916 0)
(-0.0100430122563 -0.0258210029705 0)
(-0.00988697191566 -0.0239800197651 0)
(-0.00973655623847 -0.0221692386978 0)
(-0.00959271830935 -0.0203874421659 0)
(-0.00945636217989 -0.0186332296101 0)
(-0.00932833967743 -0.0169050266513 0)
(-0.00920944523872 -0.0152010949768 0)
(-0.00910041442527 -0.0135195425013 0)
(-0.00900192236971 -0.011858334256 0)
(-0.00891458742639 -0.0102153044658 0)
(-0.00883897809417 -0.00858817566865 0)
(-0.00877562063819 -0.00697457770799 0)
(-0.0087248862417 -0.00537208339951 0)
(-0.00868473313686 -0.00377662495032 0)
(-0.00861098154878 -0.0022111744832 0)
(-0.00772156003308 -0.000651611247563 0)
(0.0413816196628 -0.00320676851623 0)
(0.0458510323923 -0.0108465206147 0)
(0.0456507557318 -0.0184212015112 1.21841798903e-27)
(0.0449624475214 -0.0259965984655 0)
(0.0440385424681 -0.0334050010154 0)
(0.0429105436026 -0.0406152115246 0)
(0.0416000336623 -0.0475923032911 0)
(0.040129699497 -0.0543064796126 0)
(0.0385230553292 -0.0607332427768 0)
(0.0368036030092 -0.0668533301861 0)
(0.0349940918829 -0.0726524007979 0)
(0.0331159377084 -0.0781205911153 0)
(0.0311888124612 -0.0832519823464 0)
(0.0292303950112 -0.0880440295873 0)
(0.0272562657638 -0.0924969942911 0)
(0.0252799170286 -0.0966134113174 0)
(0.0233128536073 -0.100397611042 0)
(0.0213647532773 -0.103855308087 0)
(0.0194436656068 -0.106993260273 0)
(0.0175562252338 -0.109818996113 0)
(0.0157078668098 -0.112340604962 0)
(0.0139030260134 -0.114566581942 0)
(0.0121453223115 -0.116505718329 0)
(0.0104377146443 -0.118167028043 0)
(0.00878263213062 -0.119559700992 0)
(0.00718207559472 -0.120693075014 0)
(0.00563769631315 -0.121576619068 0)
(0.00415085038926 -0.122219921854 0)
(0.00272263743644 -0.122632681385 0)
(0.00135392246766 -0.122824691188 0)
(4.53558606674e-05 -0.122805823613 0)
(-0.00120264005691 -0.122586038252 0)
(-0.00238983703865 -0.122175268514 0)
(-0.00351622184458 -0.121583502072 0)
(-0.00458198745381 -0.120820685177 0)
(-0.00558753093643 -0.119896706093 0)
(-0.00653344668092 -0.118821358911 0)
(-0.00742052039399 -0.11760430969 0)
(-0.00824971765176 -0.116255063617 0)
(-0.00902217340512 -0.114782933985 0)
(-0.00973917632689 -0.113197013591 0)
(-0.010402154756 -0.111506149 0)
(-0.0110126581105 -0.109718918029 0)
(-0.0115723406989 -0.107843610638 0)
(-0.0120829417208 -0.10588821339 0)
(-0.0125462684408 -0.103860397488 0)
(-0.0129641762373 -0.101767510386 0)
(-0.0133385525 -0.0996165708644 0)
(-0.0136712980237 -0.097414267443 0)
(-0.0139643128257 -0.0951669599216 0)
(-0.0142194800289 -0.0928806838485 0)
(-0.0144386546561 -0.0905611575828 0)
(-0.0146236510151 -0.0882137916665 0)
(-0.0147762353772 -0.085843700063 0)
(-0.0148981176643 -0.0834557128877 0)
(-0.0149909486286 -0.081054390086 0)
(-0.0150563162602 -0.0786440356126 0)
(-0.0150957476015 -0.0762287115281 0)
(-0.0151107097141 -0.0738122515708 0)
(-0.015102615612 -0.0713982736498 0)
(-0.0150728289513 -0.0689901909054 0)
(-0.0150226729139 -0.0665912209222 0)
(-0.0149534371856 -0.0642043929208 0)
(-0.0148663881372 -0.0618325527101 0)
(-0.0147627763319 -0.0594783654488 0)
(-0.0146438462084 -0.057144316235 0)
(-0.0145108424049 -0.0548327087857 0)
(-0.0143650173863 -0.0525456624179 0)
(-0.0142076352818 -0.0502851077409 0)
(-0.0140399764486 -0.0480527813927 0)
(-0.0138633381572 -0.0458502202915 0)
(-0.0136790357611 -0.0436787557458 0)
(-0.013488400235 -0.0415395078626 0)
(-0.01329277624 -0.0394333805336 0)
(-0.0130935170453 -0.0373610573494 0)
(-0.0128919801896 -0.035322998601 0)
(-0.0126895206017 -0.0333194396036 0)
(-0.0124874847244 -0.0313503903833 0)
(-0.0122872027027 -0.0294156368597 0)
(-0.0120899817963 -0.0275147434543 0)
(-0.0118970984009 -0.0256470571811 0)
(-0.0117097914374 -0.0238117130739 0)
(-0.0115292548198 -0.0220076409531 0)
(-0.011356631369 -0.0202335733346 0)
(-0.0111930062454 -0.0184880544581 0)
(-0.0110394019318 -0.0167694502214 0)
(-0.0108967732765 -0.015075959055 0)
(-0.0107660043989 -0.0134056236538 0)
(-0.0106479065018 -0.0117563440152 0)
(-0.0105432180987 -0.0101258923444 0)
(-0.01045260622 -0.00851193447699 0)
(-0.0103766600703 -0.00691204806207 0)
(-0.0103157350252 -0.00532374577318 0)
(-0.0102672580236 -0.00374285178297 0)
(-0.0101788446534 -0.00219190255797 0)
(-0.00912587001243 -0.000646127071892 0)
(0.0484310001048 -0.00332034712526 0)
(0.0536529652884 -0.0112285942727 0)
(0.0534016587919 -0.0190634493038 -1.21776929909e-27)
(0.0525714568173 -0.0268894354282 0)
(0.051459341725 -0.0345299367585 0)
(0.0501040567773 -0.0419504753639 0)
(0.0485328540344 -0.0491136002582 0)
(0.0467742311891 -0.055988094974 0)
(0.0448574723139 -0.0625490799873 0)
(0.0428115669942 -0.0687778189201 0)
(0.0406642850113 -0.0746612300308 0)
(0.0384414763214 -0.0801912493608 0)
(0.0361666027776 -0.0853641073542 0)
(0.0338604836411 -0.0901795850971 0)
(0.0315412239813 -0.0946403014345 0)
(0.0292242868206 -0.0987510665866 0)
(0.0269226698258 -0.102518323346 0)
(0.0246471487728 -0.105949684589 0)
(0.0224065566758 -0.109053566565 0)
(0.0202080722786 -0.11183891101 0)
(0.0180574995219 -0.114314985306 0)
(0.0159595237137 -0.116491248009 0)
(0.0139179367712 -0.11837726654 0)
(0.0119358261276 -0.119982674242 0)
(0.0100157270515 -0.121317154925 0)
(0.00815973874325 -0.122390444409 0)
(0.00636960864566 -0.123212340212 0)
(0.00464678863551 -0.123792712491 0)
(0.00299246975491 -0.124141511438 0)
(0.00140759962112 -0.124268762482 0)
(-0.000107104208589 -0.124184580382 0)
(-0.00155117134963 -0.12389911971 0)
(-0.00292435679008 -0.123422561134 0)
(-0.00422665638947 -0.122765108467 0)
(-0.00545830801911 -0.121936930566 0)
(-0.00661978804395 -0.120948133252 0)
(-0.00771180615213 -0.119808721776 0)
(-0.0087352975279 -0.118528564142 0)
(-0.00969141102603 -0.117117355592 0)
(-0.0105814952025 -0.115584585225 0)
(-0.0114070810302 -0.113939505352 0)
(-0.0121698633746 -0.112191104159 0)
(-0.0128716801015 -0.110348081977 0)
(-0.0135144909507 -0.108418831431 0)
(-0.0141003550025 -0.10641142154 0)
(-0.0146314088416 -0.104333585807 0)
(-0.0151098441592 -0.102192714224 0)
(-0.0155378868393 -0.0999958491003 0)
(-0.0159177762047 -0.0977496845179 0)
(-0.016251746425 -0.0954605692487 0)
(-0.0165420087315 -0.0931345128435 0)
(-0.0167907364067 -0.0907771946191 0)
(-0.0170000511797 -0.0883939751625 0)
(-0.0171720129335 -0.0859899099416 0)
(-0.0173086113017 -0.0835697645239 0)
(-0.017411760923 -0.0811380308623 0)
(-0.0174832988168 -0.0786989440579 0)
(-0.0175249854312 -0.0762564989807 0)
(-0.017538507651 -0.0738144661509 0)
(-0.0175254850492 -0.0713764062852 0)
(-0.0174874774966 -0.0689456830233 0)
(-0.017425995162 -0.0665254733882 0)
(-0.0173425089041 -0.0641187757187 0)
(-0.0172384619151 -0.0617284148718 0)
(-0.0171152806356 -0.0593570447222 0)
(-0.0169743857454 -0.0570071480344 0)
(-0.0168172014063 -0.0546810340111 0)
(-0.0166451636217 -0.0523808338215 0)
(-0.0164597261615 -0.0501084946091 0)
(-0.0162623650456 -0.0478657724091 0)
(-0.0160545803542 -0.045654224544 0)
(-0.015837896486 -0.043475201928 0)
(-0.0156138599341 -0.0413298417989 0)
(-0.0153840357714 -0.0392190612112 0)
(-0.0151500021399 -0.0371435516762 0)
(-0.0149133439196 -0.0351037751388 0)
(-0.0146756450136 -0.0330999615157 0)
(-0.0144384803274 -0.03113210785 0)
(-0.0142034069563 -0.0291999791659 0)
(-0.0139719555117 -0.0273031109739 0)
(-0.0137456211509 -0.0254408134097 0)
(-0.0135258550828 -0.0236121768983 0)
(-0.0133140561619 -0.0218160792619 0)
(-0.0131115632028 -0.020051194144 0)
(-0.0129196476953 -0.0183160006472 0)
(-0.0127395074491 -0.01660879408 0)
(-0.0125722609402 -0.0149276977665 0)
(-0.0124189428003 -0.0132706759773 0)
(-0.0122805002551 -0.0116355481704 0)
(-0.0121577906036 -0.0100200049635 0)
(-0.0120515784279 -0.00842162942313 0)
(-0.0119625219365 -0.00683791133742 0)