/*--------------------------------*- C++ -*----------------------------------*\
| =========                 |                                                 |
| \\      /  F ield         | OpenFOAM: The Open Source CFD Toolbox           |
|  \\    /   O peration     | Version:  v1906                                 |
|   \\  /    A nd           | Web:      www.OpenFOAM.com                      |
|    \\/     M anipulation  |                                                 |
\*---------------------------------------------------------------------------*/
FoamFile
{
    version     2.0;
    format      ascii;
    class       surfaceScalarField;
    location    "876";
    object      phia;
}
// * * * * * * * * * * * * * * * * * * * * * * * * * * * * * * * * * * * * * //

dimensions      [0 3 -1 0 0 0 0];
oriented        oriented;


internalField   nonuniform List<scalar> 
18240
(
0.00134670937062
-0.00134676969851
0.00282102227312
-0.00147438801507
0.00429428225812
-0.00147331988134
0.00574877097018
-0.0014545666249
0.00717651466144
-0.00142779916916
0.00857071730675
-0.00139428257946
0.00992537347883
-0.00135470713535
0.0112349681357
-0.00130967603182
0.0124946783865
-0.00125975649496
0.0137001572093
-0.00120556103212
0.0148477921978
-0.00114767625211
0.0159344388997
-0.00108672918369
0.016957699489
-0.00102329677401
0.0179155995649
-0.000957982309662
0.018806884741
-0.000891316167974
0.0196306484295
-0.000823845201573
0.0203866496439
-0.000756027058948
0.0210749014329
-0.000688332141876
0.0216960131488
-0.00062113241356
0.0222507488269
-0.00055481447949
0.0227403962262
-0.000489663105713
0.0231663029788
-0.000425983646358
0.0235302725244
-0.00036398035281
0.0238340839102
-0.000303886066859
0.0240799130236
-0.00024583526239
0.0242698400436
-0.000189999217243
0.0244062925474
-0.000136454155153
0.0244915434534
-8.53203971106e-05
0.0245281723198
-3.66263189198e-05
0.0245185566031
9.5491242065e-06
0.0244653490941
5.32140527084e-05
0.0243709568835
9.43286696958e-05
0.024238022791
0.000132944303687
0.0240689168502
0.000169045588965
0.0238662304486
0.000202700058444
0.0236322576401
0.00023391574582
0.0233694909697
0.000262783431563
0.023080106989
0.000289330286786
0.0227664635613
0.000313663058835
0.022430590271
0.000335823010027
0.0220746841937
0.000355928234561
0.021700607181
0.000374030173584
0.0213103773985
0.000390254230814
0.020905675497
0.000404658500687
0.0204883297948
0.000417372107141
0.020059833187
0.000428456628778
0.0196218197739
0.000438041547465
0.0191755942267
0.000446188947208
0.018722598126
0.000453025648192
0.0182639532576
0.000458611595095
0.0178009157897
0.000463068215478
0.0173344347768
0.000466450992746
0.0168655926801
0.000468873752987
0.0163951800791
0.000470385755231
0.015924120889
0.000471091561304
0.0154530640932
0.000471033030417
0.0149827923643
0.000470304553599
0.0145138314118
0.000468940173387
0.0140468406197
0.000467023900372
0.0135822405082
0.000464582215689
0.0131205843887
0.000461689285384
0.012662204327
0.000458364952057
0.0122075628071
0.000454674602474
0.0117569175903
0.000450632794845
0.0113106527815
0.000446297623535
0.0108689629494
0.000441680010637
0.0104321630186
0.000436832370752
0.0100003920652
0.000431763649037
0.00957390181466
0.000426522175649
0.00915278050598
0.00042111645012
0.00873721978611
0.000415592054141
0.00832725905979
0.000409958242278
0.00792303083196
0.000404258860841
0.0075245259043
0.000398504746392
0.00713181717479
0.000392738587508
0.00674484602067
0.000386973186216
0.00636362472282
0.000381250259403
0.00598804428635
0.000375584572054
0.00561805557239
0.000370016663389
0.00525349877227
0.000364562899577
0.00489426340617
0.000359262139632
0.00454013960401
0.000354131714666
0.00419095704205
0.000349208017497
0.00384645823405
0.000344508419362
0.00350641659298
0.000340065704937
0.00317053214553
0.000335895775984
0.00283852941327
0.000332025498667
0.00251007737451
0.00032846521436
0.00218487155901
0.000325227405301
0.00186258908408
0.000322297269308
0.00154298515154
0.000319623926331
0.00122596129131
0.000317039616079
0.000911899111119
0.000314079310335
0.00060281172207
0.000309104065924
0.0003073866885
0.000295444576128
0.000307396756901
0.00148882856999
-0.00283566515128
0.0031507375264
-0.00313637216124
0.00480354716875
-0.00312619949788
0.00643254342587
-0.00308363772987
0.00803031885482
-0.0030256427772
0.00958990974748
-0.00295394775455
0.0111047457649
-0.00286960910938
0.0125687476972
-0.00277375129984
0.0139764954169
-0.0026675674867
0.0153231831922
-0.00255232071009
0.0166047383125
-0.00242929159131
0.0178177204932
-0.00229978139381
0.0189594242947
-0.0021650574135
0.0200277387827
-0.00202636456974
0.0210212424012
-0.00188487302143
0.0219390325165
-0.00174170050791
0.022780819836
-0.00159786380792
0.0235467370807
-0.00145431171797
0.0242374394013
-0.00131188024736
0.0248539004971
-0.00117133482295
0.0253975239967
-0.00103332810312
0.0258699334716
-0.000898449102901
0.0262730975037
-0.000767181852988
0.0266091176878
-0.000639958835574
0.0268803677374
-0.000517118740168
0.027089281331
-0.000398961903176
0.0272385037411
-0.000285706017899
0.0273306799847
-0.000177542189476
0.0273686165425
-7.4588414113e-05
0.0273550693048
2.30543816621e-05
0.0272929103569
0.000115351259096
0.027184923864
0.000202276742785
0.0270339884958
0.000283861622528
0.02684285875
0.00036014045501
0.0266143435484
0.000431200749168
0.0263511016815
0.000497126222866
0.026055826535
0.000558047468571
0.0257310421754
0.000614086681051
0.0253792894822
0.000665407861731
0.0250029256251
0.000712162237805
0.0246043108946
0.000754538131767
0.0241856123295
0.000792707345729
0.0237489901588
0.000826874425903
0.0232964062362
0.000857224148831
0.0228298091444
0.000883969903431
0.0223509480422
0.000907302449957
0.0218615555427
0.000927437224355
0.0213631675423
0.000944564521179
0.0208573030923
0.000958895563815
0.020345290658
0.00097061431555
0.0198284441792
0.000979922241104
0.0193078960942
0.000986991925627
0.0187847688197
0.00099201047169
0.0182600147079
0.000995135126643
0.0177345821164
0.000996535295273
0.0172092623517
0.000996350312129
0.0166848495493
0.000994730021813
0.0161619945398
0.000991794808541
0.0156413577602
0.000987674685394
0.0151234699576
0.000982471605028
0.0146088774804
0.000976296949463
0.0140980097301
0.000969236112793
0.0135913162743
0.000961384267335
0.0130891410319
0.000952813141509
0.0125918508439
0.000943604910338
0.0120997164484
0.000933821088843
0.0116130322742
0.000923534406933
0.011132004365
0.000912799715574
0.0106568613483
0.000901683715925
0.010187749533
0.000890237808083
0.00972483509407
0.000878525582419
0.00926820663018
0.000866597550636
0.00881796872318
0.000854516338764
0.00837415224731
0.000842333285219
0.00793679947831
0.000830111315112
0.00750588244242
0.00081790340586
0.0070813797896
0.000805773150023
0.0066632034246
0.000793775121694
0.00625126731392
0.000781973155493
0.00584542260052
0.000770422649692
0.00544551850794
0.000759186595684
0.00505134608888
0.000748319858742
0.00466269132607
0.000737882971179
0.00427928764369
0.000727928392081
0.00390086129861
0.000718512001588
0.00352709275257
0.000709681200997
0.00315765432859
0.000701483745702
0.00279218016362
0.00069395697485
0.00243029478501
0.000687132594252
0.00207158598434
0.000681024339102
0.00171560420922
0.000675624606315
0.00136177334285
0.000670888210714
0.00100915504719
0.000666716128095
0.000655415779519
0.000662861327643
0.000294591543934
0.000656286964807
0.000601997656397
0.00151513536041
-0.00435086903006
0.00319833240275
-0.00481964243939
0.00487488292616
-0.00480282305321
0.00652751060089
-0.00473633882229
0.00814805608401
-0.00464625984612
0.00972924400878
-0.00453520806057
0.0112643151912
-0.00440475012703
0.0127470817476
-0.00425658867917
0.0141720177593
-0.00409257119132
0.0155342755203
-0.00391464725736
0.0168297334607
-0.00372481465507
0.0180549687992
-0.00352508307374
0.0192072769482
-0.00331742778294
0.0202846131041
-0.0031037642759
0.0212855931825
-0.00288591211121
0.0222094143168
-0.00266558212059
0.0230558462569
-0.00244435133933
0.0238251399528
-0.00222366258636
0.0245180173452
-0.00200480961276
0.0251355759789
-0.00178894714807
0.0256792834926
-0.00157708386557
0.0261508840696
-0.00137009975555
0.0265524013532
-0.00116874355932
0.0268860498429
-0.000973653704982
0.0271542473026
-0.000785356782311
0.0273595316616
-0.000604288897749
0.0275045818335
-0.000430792911545
0.0275921392502
-0.000265138496081
0.0276250353194
-0.000107517402032
0.0276061165238
4.19380147423e-05
0.0275382772827
0.000183161346575
0.0274243874729
0.000316135064392
0.0272673307507
0.000440892852943
0.0270699348197
0.000557508511872
0.0268350116066
0.000666102054821
0.0265652910898
0.000766822385548
0.0262634646663
0.000859855427464
0.0259321220428
0.000945408368558
0.0255737968719
0.00102371789807
0.0251909064194
0.00109503504506
0.0247857989756
0.0011596336021
0.0243606962797
0.00121779555646
0.0239177422024
0.0012698195531
0.0234589479802
0.00131600689398
0.0229862418391
0.00135666993078
0.0225014170955
0.0013921185734
0.0220061823663
0.00142266852198
0.0215021126209
0.00144862833571
0.0209906997194
0.00147030751935
0.0204733064158
0.00148800421451
0.0199512168462
0.00150201318842
0.0194255934205
0.00151261429861
0.0188975268923
0.00152008050422
0.0183679959338
0.00152466721841
0.0178379162692
0.00152662042924
0.0173081026574
0.00152616707102
0.0167793165926
0.00152352333225
0.016252230331
0.00151888607121
0.0157274725922
0.00151244129387
0.0152055942891
0.00150435660225
0.0146871117837
0.00149478977701
0.0141724740074
0.00148388213231
0.0136621028652
0.00147176705054
0.0131563615607
0.00145856409898
0.0126555919385
0.00144438734786
0.0121600839276
0.00142934004382
0.011670109704
0.00141352251391
0.0111858943156
0.00139702722902
0.0107076467351
0.00137994613573
0.0102355318136
0.00136236594515
0.00976969835043
0.00134437476003
0.00931025261881
0.00132605750076
0.0088572836916
0.00130750176244
0.00841083879593
0.00128879331904
0.00797094612056
0.00127002118458
0.007537592275
0.00125127320852
0.00711074283242
0.00123264036894
0.00669032212097
0.00121421248975
0.00627623169036
0.0011960818137
0.00586833263277
0.00117833891163
0.00546646214034
0.0011610756009
0.00507041848211
0.00114438110454
0.00467997573429
0.00112834436361
0.00429487148014
0.00111305049162
0.00391481971326
0.00109858248184
0.00353950113115
0.00108501791452
0.00316857381938
0.00107242994816
0.00280166525279
0.00106088412673
0.00243837847619
0.00105043849235
0.00207828061173
0.00104114097341
0.00172089310139
0.00103303117486
0.00136565277416
0.00102614661681
0.00101184608131
0.00102054012529
0.000658589868336
0.00101613646521
0.000306641898412
0.00100825415181
0.000908648365754
0.0015384786669
-0.00588941708111
0.00324471200475
-0.00652595111715
0.00494442156664
-0.0065026065743
0.00661953110902
-0.00641152250927
0.00826140918394
-0.00628821087888
0.00986246001885
-0.00613633160251
0.0114156967678
-0.00595805828165
0.0129147791122
-0.00575574196484
0.0143540738898
-0.00553193531734
0.0157286841989
-0.0052893262991
0.0170344720649
-0.00503066938286
0.0182680486549
-0.00475872578607
0.0194267646067
-0.00447620773295
0.0205086711727
-0.00418573401469
0.0215124886045
-0.00388979038826
0.0224375487366
-0.00359070220041
0.0232837514817
-0.00329061152416
0.0240514986536
-0.00299146625823
0.0247416475961
-0.00269501241335
0.0253554446279
-0.00240279706556
0.0258944829047
-0.00211617227181
0.0263606414294
-0.00183630743177
0.0267560513524
-0.00156419980687
0.0270830432509
-0.00130069095073
0.0273441227326
-0.00104647872902
0.027541925632
-0.000802133308036
0.0276792013769
-0.000568107267884
0.027758774196
-0.000344748998133
0.0277835320729
-0.000132310055264
0.0277563922592
6.90439411115e-05
0.0276802945799
0.000259228021946
0.027558169167
0.000438230324001
0.0273929343532
0.000606100372611
0.0271874679423
0.000762948429805
0.026944607459
0.000908938849345
0.0266671250346
0.00104428187495
0.0263577299555
0.00116923031822
0.026019046597
0.0012840722344
0.0256536194974
0.00138912817008
0.0252638938323
0.00148474452516
0.024852222554
0.00157129127884
0.0244208491487
0.00164915594062
0.0239719165487
0.00171874161342
0.0235074520476
0.00178046137954
0.0230293777947
0.00183473654931
0.0225394978028
0.00188199139168
0.0220395098983
0.00192265151754
0.0215309947884
0.00195713894065
0.0210154293303
0.00198587062434
0.0204941775664
0.00200925396784
0.0199685051178
0.00202768565335
0.0194395720135
0.00204154770781
0.0189084479104
0.00205120682018
0.01837610641
0.00205701116381
0.0178434407031
0.00205929036193
0.0173112589759
0.00205835320828
0.0167802999967
0.00205448838308
0.0162512291437
0.0020479631321
0.0157246534329
0.0020390247509
0.015201117716
0.0020279001629
0.0146811186966
0.00201479806503
0.0141651009088
0.00199990925051
0.0136534693715
0.0019834092294
0.0131465850924
0.00196545905617
0.0126447761564
0.00194620817086
0.012148332637
0.00192579546671
0.0116575160676
0.00190435209647
0.0111725537986
0.00188200251812
0.0106936469443
0.00185886703145
0.0102209643382
0.00183506259495
0.00975464915057
0.00181070492586
0.00929481268708
0.00178590894544
0.0088415399388
0.00176079034338
0.00839488349965
0.00173546559138
0.00795486832654
0.00171005295209
0.00752148605548
0.00168467206526
0.00709469923548
0.00165944443681
0.0066744362835
0.00163449265822
0.00626059540568
0.00160994045558
0.00585304038277
0.00158591163025
0.00545160433697
0.00156252976447
0.00505608646624
0.00153991698333
0.00466625573275
0.00151819341247
0.00428184857136
0.00149747584918
0.00390257245358
0.00147787705133
0.00352810438563
0.001459504397
0.0031580939442
0.00144245909993
0.00279216178112
0.00142683505729
0.00242990078093
0.00141271855575
0.00207087233746
0.00140018850083
0.00171460225608
0.00138931966849
0.00136057556835
0.00138019137375
0.00100824722547
0.00137288728473
0.000657213964292
0.00136718786795
0.000309141626423
0.0013563449384
0.00121779961734
0.00156844835552
-0.00745793624163
0.00330655721943
-0.00826413472899
0.00503754761706
-0.0082336727773
0.00674271471372
-0.00811676450718
0.00841298177208
-0.00795855234409
0.0100403838413
-0.00776380730099
0.011617644821
-0.0075353919823
0.0131382159503
-0.00727638490416
0.0145963262693
-0.0069901162656
0.0159870112605
-0.00668008080234
0.017306123565
-0.00634984978858
0.0185503220133
-0.00600299103653
0.0197170477236
-0.0056429986507
0.0208044837067
-0.00527323375013
0.0218115076829
-0.00489687636482
0.0227376338247
-0.00451688876865
0.0235829535421
-0.00413598979604
0.0243480701477
-0.00375663974656
0.025034037697
-0.00338103487407
0.0256422978251
-0.00301111036957
0.0261746246731
-0.00264855025964
0.0266330703797
-0.00229480249561
0.0270199206117
-0.00195109731219
0.0273376511531
-0.00161846696595
0.027588894358
-0.00129776530618
0.0277764053888
-0.000989685905737
0.0279030368761
-0.000694778214935
0.0279717116134
-0.000413461409565
0.0279854023498
-0.000146036376632
0.0279471085007
0.000107303969499
0.0278598395135
0.0003464652548
0.0277265933784
0.000571446427913
0.027550345247
0.000782320499795
0.0273340286622
0.000979238692769
0.0270805256187
0.00116241755193
0.0267926524779
0.00133213229657
0.0264731523008
0.0014887096938
0.0261246836247
0.0016325216712
0.0257498153462
0.00176397906257
0.0253510178878
0.00188352608533
0.0249306602131
0.00199163482974
0.0244910030552
0.00208880039049
0.0240341977947
0.00217553586196
0.023562281593
0.00225236790012
0.0230771780323
0.00231983203495
0.0225806940943
0.00237846850464
0.0220745225066
0.00242881779845
0.0215602405442
0.00247141675569
0.0210393140386
0.00250679440408
0.0205130979224
0.00253546843321
0.0199828417521
0.00255794150216
0.0194496918091
0.002574698313
0.0189146978804
0.00258620264272
0.0183788165802
0.00259289525824
0.017842918968
0.00259519190876
0.0173077946342
0.00259348229021
0.0167741596575
0.00258812915434
0.0162426609196
0.00257946840122
0.0157138838482
0.00256780931409
0.0151883564432
0.00255343571882
0.0146665563221
0.0025366072125
0.0141489140173
0.00251756117482
0.0136358189428
0.00249651472343
0.013127621675
0.00247366727306
0.0126246386387
0.00244920288447
0.0121271532491
0.00242329301226
0.0116354192751
0.00239609889358
0.0111496608949
0.00236777415299
0.0106700748647
0.00233846692671
0.0101968296716
0.0023083220484
0.00973006673732
0.00227748268179
0.00926989894711
0.00224609191613
0.00881641119492
0.00221429378655
0.00836965859934
0.00218223420204
0.0079296666963
0.00215006132676
0.00749642964959
0.00211792586206
0.00706991038147
0.00208598084521
0.00665003903519
0.00205438136734
0.00623671326798
0.00202328389586
0.0058297971644
0.00199284555699
0.00542912185254
0.00196322311734
0.00503448498377
0.0019345719684
0.00464565174106
0.00190704490801
0.00426235490371
0.00188079097122
0.00388429620677
0.00185595415437
0.00351114683847
0.00183267225119
0.00314254887926
0.00181107573215
0.00277811588776
0.00179128692664
0.00241743382885
0.0017734195839
0.00206006160689
0.00175757961111
0.00170553311835
0.00174386725692
0.00135336268772
0.00173237999153
0.00100307078156
0.00172319627618
0.000654338029681
0.00171593982261
0.000308767378938
0.00170193519511
0.00152657581536
0.00160634552432
-0.00906435360827
0.00338565699871
-0.0100435242807
0.00515689841482
-0.0100049908599
0.00690059052232
-0.00986053325393
0.00860713403635
-0.00966517152983
0.0102681194828
-0.00942486778259
0.0118759161101
-0.00914326266814
0.0134237155282
-0.00882425743401
0.0149055800939
-0.00847205274763
0.0163164668157
-0.00809103825872
0.0176522290371
-0.00768568132739
0.0189095967924
-0.00726042673388
0.0200861410989
-0.00681960928899
0.0211802235513
-0.00636738100616
0.0221909366762
-0.00590765252975
0.0231180359368
-0.00544404941627
0.0239618687608
-0.00497988211793
0.0247233009746
-0.00451812971258
0.0254036458545
-0.00406143552677
0.0260045954962
-0.00361211396882
0.0265281591044
-0.00317216577864
0.0269766067046
-0.00274330015059
0.0273524216707
-0.00232696024966
0.0276582589916
-0.00192435037926
0.0278969113967
-0.00153646170136
0.0280712791566
-0.00116409577704
0.0281843452257
-0.000807884299016
0.0282391515271
-0.000468305860657
0.028238778569
-0.000145699488839
0.0281863248581
0.000159723449876
0.0280848893492
0.000447868580175
0.0279375522103
0.000718753188759
0.027747361802
0.000972482540907
0.0275173182242
0.00120925566253
0.0272503617196
0.00142934940309
0.0269493607774
0.00163311029024
0.0266171031867
0.00182094622923
0.0262562869689
0.00199331847343
0.0258695139501
0.00215073448489
0.0254592829845
0.00229374102521
0.0250279855611
0.00242291796912
0.0245779009514
0.00253887220898
0.0241111936032
0.00264223207209
0.0236299100798
0.00273364169839
0.0231359781782
0.00281375577464
0.0226312056614
0.00288323418562
0.0221172811329
0.00294273695662
0.0215957745999
0.00299291915755
0.0210681401163
0.0030344261254
0.0205357181489
0.00306788878706
0.0199997398997
0.00309391940557
0.0194613313096
0.00311310761784
0.0189215187998
0.00312601703772
0.0183812345594
0.00313318235565
0.0178413232694
0.00313510712767
0.0173025481628
0.00313226221354
0.0167655981554
0.00312508495818
0.0162310940717
0.00311397908697
0.0156995955705
0.00309931530683
0.0151716069372
0.0030814325737
0.0146475832477
0.00306063993108
0.0141279352297
0.00303721888114
0.0136130342511
0.00301142612056
0.0131032159289
0.00298349661054
0.0125987837206
0.00295364677096
0.0121000111582
0.00292207779391
0.011607144025
0.00288897884786
0.0111204012919
0.00285453020148
0.0106399760388
0.00281890604536
0.0101660353208
0.00278227708477
0.00969872012297
0.0027448127005
0.00923814448238
0.00270668279303
0.00878439482748
0.00266805913447
0.00833752871543
0.00262911638237
0.00789757391203
0.00259003260346
0.00746452708485
0.00255098948975
0.00703835294011
0.00251217213365
0.00661898315424
0.00247376856245
0.00620631581332
0.00243596891237
0.00580021478937
0.00239896444598
0.00540050964707
0.00236294630302
0.00500699558148
0.00232810418599
0.0046194338671
0.00229462487625
0.00423755237763
0.00226269077558
0.00386104655534
0.00223247838146
0.00348958042374
0.00220415689436
0.00312278794927
0.00217788689276
0.00276027440497
0.00215381931354
0.00240161821965
0.00213209483713
0.00204637331176
0.00211284368392
0.00169407266722
0.00209618619846
0.00134423748669
0.00208223324421
0.000996397619371
0.0020710552264
0.00065021157651
0.0020621439685
0.00030715777029
0.0020450074535
0.0018337433526
0.00165299761163
-0.0107174250582
0.00348329623047
-0.0118739005907
0.00530428926243
-0.0118260629451
0.0070954983956
-0.0116518203299
0.00884666882059
-0.0114164194779
0.0105488481866
-0.011127123729
0.0121939763164
-0.0107884665092
0.0137749355526
-0.0104052912878
0.0152855966828
-0.00998278735029
0.0167208361901
-0.00952634991339
0.0180765265495
-0.00904144246633
0.0193495042189
-0.00853347364921
0.0205375192694
-0.00800769203987
0.0216391711755
-0.00746909890624
0.0226538340777
-0.00692237973628
0.0235815755128
-0.00637185331389
0.0244230713925
-0.00582143866077
0.0251795210176
-0.00527463805464
0.0258525645906
-0.00473453593417
0.0264442066633
-0.00420381085732
0.0269567471448
-0.00368475913991
0.0273927220539
-0.00317932587361
0.0277548538343
-0.00268914087592
0.0280460114096
-0.00221555471318
0.028269177811
-0.00175967288531
0.0284274241326
-0.00132238479094
0.0285238869874
-0.000904387877284
0.0285617485042
-0.000506206028677
0.02854421697
-0.000128204660451
0.0284745082998
0.000229397462441
0.028355827961
0.000566516176982
0.0281913551763
0.000883195241742
0.0279842250513
0.00117958380922
0.0277375168717
0.00145593694873
0.0274542405121
0.00171260069218
0.0271373260929
0.00195000154051
0.0267896146973
0.00216863621511
0.0264138507983
0.00236906279601
0.0260126754386
0.00255189195889
0.0255886207948
0.00271777953776
0.0251441052543
0.00286741899102
0.0246814297022
0.00300153491305
0.0242027742571
0.00312087619994
0.0237101961938
0.00322621002251
0.0232056283638
0.00331831530692
0.0226908788416
0.00339797689289
0.0221676311519
0.00346597918227
0.0216374457656
0.00352310046177
0.0211017622404
0.00357010682433
0.0205619026136
0.00360774686933
0.0200190754214
0.00363674621562
0.0194743808554
0.0036578029814
0.0189288164152
0.00367158334354
0.0183832834574
0.00367871826032
0.0178385939944
0.00367980051561
0.017295478052
0.00367538306504
0.0167545909594
0.00366597784993
0.0162165208115
0.0036520559277
0.0156817955305
0.00363404808918
0.0151508897387
0.00361234667406
0.014624230949
0.00358730776086
0.0141022052788
0.00355925432104
0.0135851622937
0.00352847953801
0.0130734192061
0.00349525078905
0.0125672641338
0.0034598135348
0.0120669586663
0.00342239555021
0.0115727395391
0.00338321081165
0.0110848196814
0.0033424634389
0.0106033885165
0.00330035109119
0.0101286117815
0.00325706819776
0.0096606308016
0.00321280851891
0.00919956147696
0.00316776740928
0.00874549294828
0.00312214337447
0.00829848617034
0.00307613927956
0.00785857237783
0.0030299628892
0.00742575163312
0.00298382708137
0.00699999144579
0.00293794948444
0.00658122560599
0.00289255185267
0.00616935322254
0.00284785899078
0.00576423806253
0.00280409750608
0.00536570817847
0.0027614942476
0.00497355587601
0.00272027466863
0.00458753800561
0.00268066101448
0.00420737658629
0.0026428705304
0.00383275975796
0.00260711362852
0.00346334300619
0.00257359217247
0.00309875071445
0.00254249786979
0.00273857804821
0.00251401090394
0.00238239311336
0.00248829874322
0.00202974013444
0.00246551552841
0.00168014416426
0.00244580138341
0.0013331168647
0.00242927876791
0.000988172185813
0.00241601675777
0.000644932811523
0.00240540270473
0.000304779913008
0.0023851801582
0.00213853201942
0.00170922080347
-0.0124267210884
0.00360101942787
-0.013765781168
0.00548196294844
-0.0137070867523
0.00733031203627
-0.0135002497163
0.00913499944754
-0.0132211861292
0.0108864119135
-0.0128786147332
0.0125759785617
-0.0124781106501
0.0141962236123
-0.0120256127827
0.0157408083127
-0.0115274472238
0.0172045369041
-0.010990152373
0.0185833321825
-0.0104203101091
0.0198741859931
-0.00982439831464
0.0210750910414
-0.00920866624261
0.0221849581382
-0.0085790334869
0.0232035238952
-0.00794101112179
0.0241312517558
-0.00729964500656
0.0249692308633
-0.00665947962478
0.025719075405
-0.00602454256395
0.0263828290763
-0.00539834751169
0.0269628770901
-0.00478391482396
0.027461869744
-0.00418380562764
0.0278826583638
-0.0036001663365
0.0282282452794
-0.00303477748546
0.0285017456393
-0.00248910276029
0.0287063598396
-0.00196433261386
0.0288453521848
-0.00146142066206
0.0289220337745
-0.000981110845075
0.0289397458796
-0.000523957528597
0.0289018436024
-9.03396547688e-05
0.0288116782428
0.000319527506705
0.0286725777064
0.000705583489044
0.0284878352615
0.00106790638163
0.0282606887553
0.00140670106019
0.0279943081332
0.00172229018591
0.0276917838043
0.00201509962764
0.0273561162825
0.00228564548
0.0269902080991
0.00253452274096
0.0265968564813
0.00276239449886
0.0261787476786
0.00296998269424
0.0257384515997
0.00315805921706
0.0252784177616
0.00332743819295
0.0248009714144
0.00347896820858
0.0243083109127
0.00361352532035
0.0238025053313
0.00373200571886
0.0232854933923
0.00383531893316
0.0227590827865
0.0039243805881
0.0222249509041
0.00400010562259
0.0216846461115
0.00406340111814
0.0211395905006
0.00411515966238
0.0205910832702
0.00415625253445
0.0200403055417
0.00418752363527
0.019488325763
0.00420978356198
0.0189361063531
0.00422380470726
0.0183845107335
0.00423031684906
0.0178343112559
0.00423000401201
0.0172861971845
0.00422350207937
0.0167407831338
0.00421139779658
0.0161986171659
0.00419422862892
0.0156601888918
0.00417248395809
0.0151259368612
0.00414660705674
0.0145962555676
0.0041169981843
0.0140715014663
0.00408401823615
0.0135519983411
0.00404799317852
0.0130380415451
0.00400921871937
0.012529901472
0.00396796537698
0.0120278259078
0.00392448344558
0.0115320416409
0.00387900798602
0.011042755087
0.00383176341396
0.0105601523143
0.00378296781116
0.0100843983089
0.00373283662195
0.00961563585072
0.00368158587662
0.00915398389768
0.00362943469437
0.00869953581272
0.00357660722771
0.00825235736317
0.00352333388807
0.00781248477511
0.00346985202231
0.00737992279032
0.0034164059516
0.00695464294606
0.00336324653908
0.00653658203379
0.00331063025154
0.00612564089435
0.00325881786552
0.00572168351132
0.00320807282163
0.00532453649945
0.00315865935315
0.00493398895512
0.00311084042038
0.00454979271539
0.00306487554775
0.00417166298968
0.00302101861425
0.00379927938679
0.00297951566571
0.00343228728736
0.00294060281609
0.00307029960038
0.00290450426744
0.00271289884214
0.002871430522
0.00235963981831
0.0028415768672
0.00201005280527
0.00281512176235
0.00166364704094
0.00279222534447
0.00131991740843
0.00277302645664
0.000978355314247
0.00275759818873
0.00063854386315
0.00274523215748
0.000301795772518
0.00272194660241
0.00244033766288
0.00177596520464
-0.0142027641611
0.00374074409181
-0.0157306417971
0.0056927259295
-0.0156591519312
0.00760862390307
-0.0154162297678
0.00947637298369
-0.0150890168536
0.0112855673974
-0.0146878897396
0.0130270383706
-0.0142196612717
0.0146929075667
-0.013691560416
0.0162766186912
-0.0131112355404
0.0177729269362
-0.0124865363511
0.0191778530937
-0.0118253105205
0.0204886116307
-0.0111352294252
0.0217035191133
-0.0104236446354
0.0228218894119
-0.00969747283764
0.0238439192318
-0.00896310818695
0.0247705686597
-0.00822635968604
0.0256034394277
-0.00749241373083
0.0263446559084
-0.00676582028936
0.0269967521666
-0.00605050302545
0.027562570674
-0.00534979042696
0.0280451755715
-0.00466646558539
0.0284477843402
-0.00400282796622
0.0287737173729
-0.00336076132128
0.0290263648999
-0.00274179887612
0.0292091661624
-0.00214718040565
0.0293255969449
-0.00157789576376
0.0293791592125
-0.00103471538669
0.0293733704012
-0.000518208803898
0.029311749337
-2.87566603744e-05
0.0291978000325
0.000433440900997
0.0290349908461
0.000868358750921
0.0288267441222
0.00127612130253
0.028576413571
0.0016570017499
0.0282872722682
0.00201140369688
0.0279625009925
0.0023398449964
0.0276051793653
0.002642943205
0.0272182781839
0.00292140183857
0.0268046536985
0.0031759988313
0.0263670422098
0.00340757577453
0.0259080559467
0.0036170289189
0.0254301789095
0.00380530033064
0.0249357638393
0.00397337013445
0.0244270292032
0.00412224838456
0.023906057411
0.00425296759379
0.0233747932536
0.00436657464977
0.0228350437439
0.00446412320582
0.0222884784172
0.00454666543387
0.0217366312
0.0046152442585
0.0211809029383
0.00467088512113
0.0206225655769
0.00471458842029
0.0200627670719
0.00474732183628
0.0195025378657
0.00477001368056
0.0189427979694
0.00478354658677
0.018384365305
0.00478875260519
0.0178279643292
0.00478640905367
0.0172742354416
0.00477723603753
0.0167237442219
0.00476189496908
0.0161769909002
0.00474098881096
0.0156344191843
0.00471506333117
0.0150964248064
0.00468460990933
0.0145633630339
0.00465006915002
0.0140355555105
0.00461183568896
0.0135132958185
0.00457026344891
0.012996854155
0.00452567162497
0.0124864806666
0.00447835069527
0.0119824078644
0.00442856867888
0.0114848518028
0.00437657701408
0.0109940124665
0.00432261626409
0.0105100731549
0.00426692112706
0.0100331993103
0.00420972497131
0.00956353665192
0.00415126349033
0.00910120903439
0.00409177772358
0.00864631593307
0.00403151615143
0.00819892992492
0.00397073612849
0.00775909408313
0.00390970446159
0.00732681958909
0.00384869739757
0.00690208348494
0.00378799990299
0.00648482679905
0.00372790448259
0.00607495296983
0.0036687094751
0.00567232673205
0.00361071704146
0.00527677339326
0.00355423082492
0.00488807860261
0.00349955345839
0.00450598854768
0.00344698392844
0.00413021062091
0.00339681492823
0.00376041452129
0.00334933022775
0.00339623375529
0.00330480214566
0.0030372675678
0.00326348917008
0.00268308329475
0.00322563375553
0.00233321892603
0.00319146021583
0.0019871864663
0.00316117306262
0.00164447611151
0.0031349550337
0.00130455939612
0.00311296142762
0.000966899745555
0.00309527445259
0.000631049051043
0.00308110234322
0.000298259267544
0.00305475634235
0.00273860560202
0.00185439209098
-0.0160572359105
0.00390483924086
-0.0177811758923
0.0059400597657
-0.017694457468
0.00793487757621
-0.0174111326357
0.00987602060394
-0.0170302437509