/*--------------------------------*- C++ -*----------------------------------*\
| =========                 |                                                 |
| \\      /  F ield         | OpenFOAM: The Open Source CFD Toolbox           |
|  \\    /   O peration     | Version:  v1906                                 |
|   \\  /    A nd           | Web:      www.OpenFOAM.com                      |
|    \\/     M anipulation  |                                                 |
\*---------------------------------------------------------------------------*/
FoamFile
{
    version     2.0;
    format      ascii;
    class       volVectorField;
    location    "814";
    object      Ua;
}
// * * * * * * * * * * * * * * * * * * * * * * * * * * * * * * * * * * * * * //

dimensions      [0 1 -1 0 0 0 0];


internalField   nonuniform List<vector> 
9216
(
(-0.0103647647316 0.0103718725985 0)
(-0.0109379203136 0.0334735617857 3.91497923493e-27)
(-0.0109339693103 0.0569315618895 -7.07879266193e-31)
(-0.0108313903428 0.080396685356 0)
(-0.010685219823 0.103471875078 0)
(-0.0104996265267 0.126062777902 0)
(-0.0102791597728 0.14806799195 0)
(-0.0100271097496 0.169395394107 0)
(-0.00974635897645 0.189962223065 0)
(-0.0094399423999 0.209695105148 0)
(-0.00911075051378 0.228530327174 0)
(-0.00876187924105 0.246413842123 0)
(-0.00839618967775 0.263301307575 0)
(-0.00801669537153 0.279157782768 0)
(-0.00762606707593 0.293957462472 0)
(-0.00722708591845 0.307683116811 0)
(-0.00682210804138 0.320325609812 0)
(-0.00641358597566 0.331883185902 0)
(-0.00600349727188 0.342360878177 0)
(-0.00559392978768 0.35176974264 0)
(-0.00518647405166 0.360126248968 0)
(-0.00478286580472 0.3674515432 0)
(-0.00438434047145 0.373770885328 0)
(-0.00399232410244 0.379112989096 0)
(-0.00360774723889 0.38350953973 0)
(-0.00323177663333 0.386994629664 0)
(-0.00286508834014 0.389604360925 0)
(-0.00250863421096 0.391376372692 0)
(-0.00216287690623 0.39234951995 0)
(-0.00182859229171 0.392563488384 0)
(-0.00150607983852 0.392058487345 0)
(-0.00119588821797 0.390875182164 0)
(-0.000898063496356 0.389053908532 0)
(-0.000613080272934 0.386634742121 0)
(-0.000340913714673 0.383657437662 0)
(-8.18905388878e-05 0.380161091265 0)
(0.000164176014421 0.376184020554 0)
(0.000397089630874 0.371763587058 0)
(0.000617162324584 0.366936088228 0)
(0.000824307689388 0.361736628854 0)
(0.00101894521063 0.3561990422 0)
(0.0012010836518 0.350355801694 0)
(0.00137123244446 0.344237965188 0)
(0.00152947971767 0.337875122627 0)
(0.00167640649072 0.331295361353 0)
(0.00181216332625 0.324525247961 0)
(0.0019373825104 0.317589811662 0)
(0.00205225835874 0.310512557475 0)
(0.00215745352708 0.303315466488 0)
(0.00225318721197 0.296019038586 0)
(0.00234013122397 0.28864230629 0)
(0.0024185111811 0.281202903052 0)
(0.00248898886543 0.273717088121 0)
(0.00255178055507 0.266199836594 0)
(0.00260752164116 0.258664870093 0)
(0.00265640681113 0.251124762453 0)
(0.00269903362719 0.243590971769 0)
(0.00273556814277 0.236073956131 0)
(0.00276656357437 0.228583200756 0)
(0.0027921552615 0.221127337014 0)
(0.00281285119723 0.213714160241 0)
(0.00282875908793 0.206350747026 0)
(0.00284034506139 0.199043458942 0)
(0.0028476958382 0.191798053322 0)
(0.00285124261717 0.184619671036 0)
(0.00285106036525 0.17751293859 0)
(0.00284755367071 0.170481938571 0)
(0.00284079544456 0.163530301775 0)
(0.00283117229932 0.15666116185 0)
(0.00281876415378 0.149877238575 0)
(0.00280394670528 0.143180778529 0)
(0.00278681372613 0.13657363109 0)
(0.00276773496963 0.130057178984 0)
(0.0027468222987 0.123632409992 0)
(0.00272444148184 0.117299840702 0)
(0.0027007235299 0.111059586601 0)
(0.00267602948311 0.104911283204 0)
(0.00265050778126 0.0988541575903 0)
(0.00262451124197 0.0928869499134 0)
(0.00259820142359 0.0870079886299 0)
(0.00257191739273 0.0812151155147 0)
(0.00254582754547 0.0755057668111 0)
(0.0025202496694 0.0698769038589 0)
(0.00249535053481 0.0643251022295 0)
(0.00247141633556 0.0588464913226 0)
(0.00244859875865 0.0534368562306 0)
(0.00242713168184 0.0480915956614 0)
(0.00240711435103 0.0428058565027 0)
(0.00238864939127 0.0375745598581 0)
(0.00237159545537 0.03239268943 0)
(0.00235544341951 0.0272556817021 0)
(0.00233854408572 0.0221607847809 0)
(0.00231634334607 0.0171106165723 0)
(0.00226866941761 0.012143926275 0)
(0.00217928905239 0.00698652273507 0)
(0.00286952954371 0.00286925526512 0)
(-0.0335526780183 0.0110312312749 0)
(-0.0370896762867 0.0373765933218 0)
(-0.0370021974629 0.0636492489738 -4.10979283697e-27)
(-0.0364995182102 0.0899540520016 0)
(-0.035801121754 0.115787208525 0)
(-0.0349337787606 0.141063802033 0)
(-0.0339122880815 0.165676058723 0)
(-0.0327510480941 0.189522584908 0)
(-0.0314647933314 0.212511225501 0)
(-0.030069050594 0.234560109267 0)
(-0.0285794169115 0.255598168444 0)
(-0.0270118312582 0.27556529355 0)
(-0.025381701418 0.29441232871 0)
(-0.0237042855409 0.312100778804 0)
(-0.0219937992457 0.328602429393 0)
(-0.0202639602084 0.343898750149 0)
(-0.0185271037098 0.357980272812 0)
(-0.0167948931112 0.37084582164 0)
(-0.0150774438029 0.382501775592 0)
(-0.0133841827997 0.392961244292 0)
(-0.0117229668433 0.402243321098 0)
(-0.0101010642519 0.410372296168 0)
(-0.00852424609312 0.417376974059 0)
(-0.00699785885816 0.423289978541 0)
(-0.00552586738386 0.428147169917 0)
(-0.00411199128623 0.43198705905 0)
(-0.00275868670603 0.434850326666 0)
(-0.00146832910942 0.436779337959 0)
(-0.000242132345305 0.43781774748 0)
(0.000918627131808 0.438010089618 0)
(0.00201373735995 0.437401482975 0)
(0.00304285428316 0.436037069902 0)
(0.00400669710506 0.433962253183 0)
(0.0049056473809 0.431222163799 0)
(0.00574101610476 0.427861306729 0)
(0.00651376208072 0.423923442926 0)
(0.00722574698611 0.41945141339 0)
(0.0078783903305 0.414486973523 0)
(0.00847395924368 0.409070663255 0)
(0.00901420944197 0.403241679349 0)
(0.00950169703166 0.39703777864 0)
(0.00993840885458 0.390495188918 0)
(0.0103270879611 0.383648542388 0)
(0.0106698591366 0.376530821949 0)
(0.0109695609515 0.369173322178 0)
(0.0112283722018 0.361605628471 0)
(0.0114491433349 0.353855603159 0)
(0.0116340305474 0.345949395242 0)
(0.0117858204979 0.337911449681 0)
(0.01190657861 0.329764545238 0)
(0.0119989609834 0.321529823999 0)
(0.012064884205 0.313226853779 0)
(0.0121068193174 0.3048736742 0)
(0.0121264897907 0.296486878916 0)
(0.0121261420844 0.288081672909 0)
(0.0121072785399 0.279671968451 0)
(0.0120718995423 0.271270447634 0)
(0.0120212768576 0.262888665326 0)
(0.0119571617474 0.254537110195 0)
(0.0118806039019 0.246225307757 0)
(0.0117931201251 0.237961873926 0)
(0.0116955626319 0.229754612175 0)
(0.0115892424127 0.221610554485 0)
(0.0114748503316 0.213536047996 0)
(0.0113535298144 0.205536780336 0)
(0.011225853139 0.197617853221 0)
(0.011092838085 0.189783790835 0)
(0.0109549818181 0.182038599715 0)
(0.010813217089 0.174385761165 0)
(0.0106680055081 0.166828278725 0)
(0.0105202293245 0.15936865689 0)
(0.0103703461408 0.152008938704 0)
(0.0102192134379 0.144750674457 0)
(0.0100673063985 0.137594952901 0)
(0.00991547291155 0.130542363808 0)
(0.00976421640355 0.123593026421 0)
(0.00961438002359 0.116746550011 0)
(0.0094664959939 0.110002063105 0)
(0.00932139805634 0.103358175463 0)
(0.00917963888731 0.0968130109801 0)
(0.00904203040927 0.0903641740815 0)
(0.00890913025889 0.0840087886973 0)
(0.00878170937033 0.0777434711899 0)
(0.00866030784324 0.0715643771959 0)
(0.0085456280807 0.0654671830404 0)
(0.00843815730157 0.0594471420666 0)
(0.00833847834135 0.0534990756086 0)
(0.00824694189686 0.0476174370197 0)
(0.00816385522849 0.0417963008844 0)
(0.00808910815019 0.0360293838928 0)
(0.00802200938075 0.0303098434707 0)
(0.00796031816327 0.0246296524767 0)
(0.00789811232285 0.0189767676265 0)
(0.0078179602316 0.0133251485906 0)
(0.00762001535576 0.00760296587969 0)
(0.00698227188987 0.00217347227834 0)
(-0.0574420397741 0.0111784357998 0)
(-0.0635926581668 0.037993341804 0)
(-0.0633740683929 0.0645980550698 -4.11353749914e-27)
(-0.0625024637404 0.0912861791987 0)
(-0.0613202472027 0.117491431055 0)
(-0.0598615049879 0.14312352989 0)
(-0.0581469229472 0.168070849198 0)
(-0.0561989647669 0.192229702307 0)
(-0.05404185998 0.215506230865 0)
(-0.0517012082753 0.237817379193 0)
(-0.0492031588051 0.259091358616 0)
(-0.0465741083577 0.2792678091 0)
(-0.043839933184 0.298297730735 0)
(-0.0410258416653 0.316143167799 0)
(-0.038155705807 0.332776744932 0)
(-0.0352520991398 0.348181034478 0)
(-0.0323357461358 0.362347848326 0)
(-0.0294257448663 0.375277433481 0)
(-0.026539124841 0.386977656921 0)
(-0.0236912300445 0.397463156852 0)
(-0.0208953553914 0.406754534843 0)
(-0.0181632487425 0.41487755998 0)
(-0.0155047835318 0.421862444957 0)
(-0.0129285310743 0.427743157931 0)
(-0.0104414266093 0.432556815568 0)
(-0.00804937033752 0.436343115202 0)
(-0.0057568580976 0.439143840224 0)
(-0.00356758779784 0.441002396444 0)
(-0.00148404569137 0.441963407859 0)
(0.000491888205679 0.44207233292 0)
(0.00235940100468 0.441375144039 0)
(0.00411812749552 0.439917983129 0)
(0.00576857214249 0.437746898327 0)
(0.00731157739402 0.434907611104 0)
(0.00874880737805 0.431445263888 0)
(0.0100820992227 0.427404214127 0)
(0.011313990201 0.422827854688 0)
(0.0124470872652 0.417758452495 0)
(0.0134846044996 0.412237012631 0)
(0.0144297288323 0.406303157173 0)
(0.0152861694578 0.399995025447 0)
(0.0160575228997 0.393349189284 0)
(0.0167478305611 0.386400585301 0)
(0.0173609448945 0.379182463057 0)
(0.0179010910993 0.371726346972 0)
(0.0183722363408 0.364062015249 0)
(0.0187786521668 0.356217489113 0)
(0.0191242896357 0.348219040446 0)
(0.0194133400265 0.340091206833 0)
(0.0196496193752 0.331856825882 0)
(0.0198371257766 0.323537073126 0)
(0.0199794375228 0.315151519564 0)
(0.0200802659082 0.306718188871 0)
(0.0201428711023 0.298253633573 0)
(0.0201706093059 0.289773005819 0)
(0.0201663701994 0.281290145848 0)
(0.0201331169708 0.272817660065 0)
(0.0200733481437 0.264367014877 0)
(0.0199896281428 0.255948614657 0)
(0.0198840753229 0.247571893678 0)
(0.0197588800105 0.239245387592 0)
(0.0196158192994 0.230976817329 0)
(0.0194567587354 0.222773148411 0)
(0.0192831937095 0.214640662038 0)
(0.0190967307124 0.206584999043 0)
(0.0188986545088 0.198611215754 0)
(0.0186903848699 0.190723811038 0)
(0.0184730687224 0.182926766475 0)
(0.0182480088126 0.175223557571 0)
(0.0180162801206 0.167617179943 0)
(0.0177791275637 0.160110147008 0)
(0.0175376065121 0.152704505108 0)
(0.0172929476015 0.145401821564 0)
(0.0170462215851 0.138203192687 0)
(0.0167986701213 0.131109226146 0)
(0.0165513957478 0.124120045851 0)
(0.0163056583295 0.117235272905 0)
(0.0160625911629 0.110454031173 0)
(0.0158234632329 0.103774930222 0)
(0.0155894226619 0.0971960746272 0)
(0.0153617252445 0.090715051825 0)
(0.0151415062317 0.084328947471 0)
(0.0149299753872 0.0780343399036 0)
(0.0147282175134 0.0718273227336 0)
(0.0145373532508 0.0657035065297 0)
(0.014358366629 0.0596580476714 0)
(0.0141922273297 0.0536856533043 0)
(0.014039737681 0.0477806062519 0)
(0.0139016041015 0.0419367479566 0)
(0.0137782888277 0.0361474392088 0)
(0.0136700362723 0.0304053907072 0)
(0.0135768494325 0.0247022554467 0)
(0.0134988188996 0.0190274972767 0)
(0.0134352916331 0.0133625940716 0)
(0.0133290520187 0.00775963659076 0)
(0.0121148087395 0.00225349397529 0)
(-0.0818898114695 0.0113082002103 0)
(-0.0907289136769 0.0385736178918 0)
(-0.0904081231201 0.0655248816949 4.11162727595e-27)
(-0.0891492903219 0.0925804053627 0)
(-0.0874446589243 0.11913691425 0)
(-0.0853443181675 0.145099111925 0)
(-0.0828780304029 0.170351036778 0)
(-0.0800780967257 0.194786012426 0)
(-0.0769795954073 0.218308116558 0)
(-0.0736195246865 0.240833050128 0)
(-0.0700357989477 0.26228850804 0)
(-0.0662665052001 0.282614278899 0)
(-0.0623490615276 0.301762086328 0)
(-0.0583196881912 0.319695194986 0)
(-0.0542127708374 0.336387843616 0)
(-0.0500605727055 0.3518245271 0)
(-0.045892814361 0.365999186279 0)
(-0.0417366210546 0.378914325257 0)
(-0.0376162991834 0.390580108931 0)
(-0.0335534830369 0.401013455163 0)
(-0.0295670606388 0.410237164381 0)
(-0.025673459753 0.418279091513 0)
(-0.0218866563924 0.425171389157 0)
(-0.0182185281684 0.430949814586 0)
(-0.0146788777314 0.435653114806 0)
(-0.0112757928423 0.439322472254 0)
(-0.00801563943821 0.442001015806 0)
(-0.00490339759341 0.443733376719 0)
(-0.00194261123658 0.444565292144 0)
(0.000864301633346 0.444543239372 0)
(0.00351613608539 0.443714108572 0)
(0.00601261152627 0.442124923423 0)
(0.00835440789439 0.439822457376 0)
(0.0105429654815 0.436853111871 0)
(0.0125805717503 0.433262638462 0)
(0.0144700662287 0.429095936747 0)
(0.0162149735468 0.424396879086 0)
(0.0178192216786 0.419208153308 0)
(0.0192872854074 0.413571128053 0)
(0.0206239100349 0.407525736196 0)
(0.0218342645521 0.401110376824 0)
(0.0229236706502 0.394361833562 0)
(0.0238977627306 0.387315208794 0)
(0.0247622214329 0.380003873548 0)
(0.0255229377509 0.372459431431 0)
(0.0261857506324 0.364711698094 0)
(0.026756613349 0.356788693372 0)
(0.0272413361814 0.348716649066 0)
(0.0276457546524 0.340520027948 0)
(0.0279754793224 0.332221558093 0)
(0.0282360665628 0.323842276471 0)
(0.028432778648 0.315401586882 0)
(0.0285707585549 0.306917324369 0)
(0.0286548035486 0.298405831928 0)
(0.0286895453202 0.289882040065 0)
(0.0286792399715 0.281359555852 0)
(0.0286279541255 0.272850750552 0)
(0.0285393727891 0.264366853395 0)
(0.0284169906595 0.2559180395 0)
(0.0282639380468 0.247513520693 0)
(0.0280831752712 0.239161626474 0)
(0.0278773351353 0.230869885103 0)
(0.027648917015 0.222645091683 0)
(0.0274001434794 0.214493374649 0)
(0.0271331500726 0.206420247285 0)
(0.0268498529484 0.198430657016 0)
(0.0265521301572 0.190529019048 0)
(0.0262416974124 0.182719248347 0)
(0.0259202772485 0.175004776465 0)
(0.025589480424 0.167388568181 0)
(0.025250960126 0.159873124347 0)
(0.0249062975537 0.152460486695 0)
(0.0245571395011 0.145152230809 0)
(0.0242050874826 0.137949463403 0)
(0.0238518180397 0.130852809878 0)
(0.0234989757838 0.123862408536 0)
(0.0231482767172 0.116977897092 0)
(0.0228014060924 0.110198407856 0)
(0.0224601056068 0.103522556853 0)
(0.0221260774468 0.0969484432012 0)
(0.0218010565415 0.0904736436392 0)
(0.0214867220976 0.0840952182834 0)
(0.0211847559714 0.0778097121118 0)
(0.0208967627394 0.0716131678838 0)
(0.020624314739 0.0655011344329 0)
(0.0203688809148 0.0594686848945 0)
(0.0201318584636 0.0535104270655 0)
(0.0199145111967 0.0476205172496 0)
(0.0197179925953 0.0417926545133 0)
(0.0195433115011 0.0360200584759 0)
(0.0193914030367 0.030295405718 0)
(0.0192632689349 0.0246107104178 0)
(0.0191601989014 0.0189571764757 0)
(0.0190802382766 0.0133202796475 0)
(0.0189321674347 0.00777640223762 0)
(0.0170242754193 0.00228665879378 0)
(-0.106738297704 0.0114750798088 0)
(-0.118273508381 0.0393346098395 0)
(-0.117844150588 0.0667653060516 0)
(-0.11618275671 0.0943135146517 0)
(-0.113933972637 0.121338404247 0)
(-0.111165103817 0.14773916888 0)
(-0.10791628304 0.173394585707 0)
(-0.104230793379 0.198194019957 0)
(-0.100155541619 0.222038785865 0)
(-0.0957398510832 0.244842951497 0)
(-0.091034193232 0.266533607332 0)
(-0.086089090953 0.287050861518 0)
(-0.0809540917582 0.306347557083 0)
(-0.0756769611764 0.324388751657 0)
(-0.0703029576265 0.341151012722 0)
(-0.06487434511 0.356621568373 0)
(-0.0594299770726 0.370797363748 0)
(-0.0540051155288 0.383684059451 0)
(-0.0486312933899 0.395295016499 0)
(-0.0433363911138 0.405650297639 0)
(-0.0381447114811 0.414775719664 0)
(-0.0330772308167 0.422701974386 0)
(-0.0281517912331 0.429463836929 0)
(-0.0233834249603 0.435099462273 0)
(-0.0187845663641 0.439649771268 0)
(-0.0143653640032 0.443157912911 0)
(-0.0101338487422 0.445668793667 0)
(-0.00609619475587 0.447228656985 0)
(-0.0022568305333 0.447884704661 0)
(0.00138134531698 0.44768474859 0)
(0.00481689255251 0.446676890252 0)
(0.00804966681439 0.44490927191 0)
(0.0110806539237 0.442429632534 0)
(0.0139119180588 0.439285288515 0)
(0.0165465054628 0.435522790693 0)
(0.0189882735237 0.431187747897 0)
(0.0212418599592 0.426324655845 0)
(0.0233125194274 0.420976745663 0)
(0.0252061058631 0.415185853563 0)
(0.0269289200264 0.408992309159 0)
(0.0284877028774 0.402434841179 0)
(0.0298894919003 0.395550499322 0)
(0.0311416222122 0.38837459124 0)
(0.0322515890008 0.380940634562 0)
(0.0332270533744 0.373280323077 0)
(0.0340757092616 0.365423507682 0)
(0.0348052925718 0.357398190916 0)
(0.0354234527194 0.349230536235 0)
(0.035937765527 0.340944890388 0)
(0.0363556113208 0.332563820065 0)
(0.0366841937008 0.324108160322 0)
(0.0369304275321 0.315597075947 0)
(0.0371009666319 0.307048132391 0)
(0.0372021053601 0.298477377088 0)
(0.0372398181855 0.289899426856 0)
(0.0372196779233 0.281327562156 0)
(0.0371469089515 0.272773823258 0)
(0.0370263234781 0.264249109116 0)
(0.0368623883104 0.255763273591 0)
(0.0366591784915 0.247325220322 0)
(0.0364204554525 0.238942990949 0)
(0.0361496353336 0.230623848561 0)
(0.0358498746458 0.222374351333 0)
(0.0355240491943 0.21420041917 0)
(0.0351748423514 0.20610738884 0)
(0.0348047298195 0.19810006121 0)
(0.0344160654488 0.190182736575 0)
(0.0340110673047 0.182359242577 0)
(0.0335918965626 0.174632951191 0)
(0.0331606411785 0.167006789847 0)
(0.0327193845608 0.159483243409 0)
(0.0322701844733 0.152064352587 0)
(0.0318151296097 0.144751705627 0)
(0.0313563127254 0.137546428962 0)
(0.0308958746369 0.130449173577 0)
(0.0304359718631 0.123460102839 0)
(0.0299788087131 0.116578878329 0)
(0.0295266006147 0.109804649228 0)
(0.0290815957216 0.103136041496 0)
(0.0286460356835 0.0965711521951 0)
(0.0282221685903 0.0901075448717 0)
(0.0278122090891 0.0837422510055 0)
(0.0274183445206 0.0774717730424 0)
(0.0270426962433 0.0712920936318 0)
(0.0266873207551 0.0651986861188 0)
(0.026354174218 0.0591865299919 0)
(0.0260451113067 0.0532501253831 0)
(0.0257618578877 0.0473835094029 0)
(0.0255060178637 0.0415802665031 0)
(0.0252790760681 0.0358335380408 0)
(0.025082458102 0.030136043592 0)
(0.024917631011 0.0244801051016 0)
(0.0247859894719 0.0188577846793 0)
(0.0246828735911 0.0132557174442 0)
(0.024484681709 0.0077531774692 0)
(0.0219705926335 0.00228933563225 0)
(-0.132127668946 0.0116834157626 0)
(-0.146401497908 0.0403040161834 0)
(-0.145851061247 0.0683541729629 0)
(-0.143763538692 0.0965349112508 0)
(-0.140939408116 0.124159186911 0)
(-0.137464347879 0.151119613635 0)
(-0.133390198718 0.177288586374 0)
(-0.128772606078 0.202550568922 0)
(-0.123671622542 0.22680346801 0)
(-0.118150143453 0.24995940235 0)
(-0.112272310738 0.27194485568 0)
(-0.106102082938 0.292700529556 0)
(-0.0997019669194 0.312180895091 0)
(-0.0931319719663 0.330353497973 0)
(-0.0864487458347 0.347198072599 0)
(-0.0797049424118 0.3627055153 0)
(-0.0729487630111 0.376876767607 0)
(-0.0662237162544 0.389721654814 0)
(-0.0595685233078 0.401257725572 0)
(-0.0530172071043 0.411509131184 0)
(-0.0465992754356 0.420505580194 0)
(-0.0403400296415 0.428281392489 0)
(-0.0342608961456 0.434874669058 0)
(-0.0283798144268 0.44032657901 0)
(-0.0227115802301 0.444680756767 0)
(-0.0172681947127 0.447982791581 0)
(-0.0120591335781 0.45027978958 0)
(-0.00709161067926 0.451619986795 0)
(-0.00237076454405 0.452052397813 0)
(0.00210014366152 0.451626487687 0)
(0.00631958809385 0.45039186522 0)
(0.010287658001 0.44839806695 0)
(0.0140057788843 0.445694032723 0)
(0.017476729086 0.442328221254 0)
(0.0207044439533 0.438348176662 0)
(0.0236938758836 0.433800390254 0)
(0.0264508925188 0.428730131937 0)
(0.0289821396141 0.42318130598 0)
(0.0312949558428 0.417196327374 0)
(0.0333972510266 0.410816016235 0)
(0.0352974348254 0.404079508634 0)
(0.0370043063843 0.397024182593 0)
(0.0385269921701 0.389685598489 0)
(0.039874842693 0.382097453613 0)
(0.0410573755975 0.374291550635 0)
(0.0420841767503 0.366297780317 0)
(0.0429648469129 0.358144118341 0)
(0.0437089070851 0.349856636769 0)
(0.0443257497244 0.341459529689 0)
(0.0448245506603 0.332975153344 0)
(0.045214228059 0.324424079693 0)
(0.0455033651635 0.315825163188 0)
(0.0457001815551 0.307195618853 0)
(0.0458124715093 0.298551110812 0)
(0.0458475919249 0.289905848542 0)
(0.0458124202348 0.28127268952 0)
(0.0457133617909 0.272663244932 0)
(0.0455563289986 0.264087986933 0)
(0.045346768327 0.255556353994 0)
(0.0450896596068 0.247076853041 0)
(0.0447895600754 0.238657155151 0)
(0.0444506200764 0.230304184093 0)
(0.0440766392206 0.22202419506 0)
(0.0436710929252 0.21382284371 0)
(0.0432371944642 0.205705243574 0)
(0.0427779259328 0.19767601284 0)
(0.0422960997258 0.189739309342 0)
(0.0417943878937 0.181898855569 0)
(0.0412753774339 0.174157953142 0)
(0.0407415931642 0.166519489186 0)
(0.0401955427407 0.158985934455 0)
(0.0396397299826 0.151559336004 0)
(0.0390766874246 0.144241304424 0)
(0.0385089788482 0.137032998525 0)
(0.0379392189631 0.129935107427 0)
(0.0373700655851 0.122947832845 0)
(0.0368042275018 0.11607087131 0)
(0.036244447889 0.109303398857 0)
(0.0356935023622 0.10264405761 0)
(0.0351541759689 0.0960909464753 0)
(0.0346292539206 0.0896416150439 0)
(0.0341214947444 0.0832930625212 0)
(0.0336336163216 0.077041740436 0)
(0.0331682678767 0.0708835605349 0)
(0.0327280140771 0.0648139062872 0)
(0.0323153089303 0.0588276488309 0)
(0.0319324818403 0.0529191654972 0)
(0.0315817190834 0.0470823616479 0)
(0.0312650609259 0.0413106952243 0)
(0.0309844051105 0.0355972087005 0)
(0.0307415354395 0.0299345839369 0)
(0.0305381481456 0.0243152122406 0)
(0.0303754717442 0.0187313465384 0)
(0.0302464367813 0.0131696096739 0)
(0.029997439149 0.00770742887022 0)
(0.0269014584799 0.00228168164144 0)
(-0.158192134636 0.0119383961798 0)
(-0.175265878044 0.0414997609596 0)
(-0.174576850577 0.0703161299682 4.13515060314e-27)
(-0.172031587152 0.0992779081991 0)
(-0.168591148901 0.127640539085 0)
(-0.164361078978 0.155288484758 0)
(-0.159406529694 0.182086386158 0)
(-0.153797211772 0.207912813919 0)
(-0.147608001035 0.232661671664 0)
(-0.14091694973 0.256242917202 0)
(-0.13380329939 0.278582563966 0)
(-0.126345701142 0.299622341865 0)
(-0.118620673428 0.319319031178 0)
(-0.110701325856 0.337643538842 0)
(-0.102656338578 0.354579780665 0)
(-0.094549208547 0.370123427033 0)
(-0.0864377389404 0.384280566952 0)
(-0.0783737757601 0.397066342153 0)
(-0.0704031560376 0.408503602158 0)
(-0.0625658593591 0.418621627156 0)
(-0.0548963086286 0.427454960306 0)
(-0.0474237953692 0.435042379778 0)
(-0.0401729601883 0.441426027407 0)
(-0.0331642996393 0.446650693305 0)
(-0.0264146359612 0.450763240555 0)
(-0.0199375419046 0.453812141482 0)
(-0.0137436853186 0.455847092512 0)
(-0.00784111834394 0.456918676299 0)
(-0.00223550139038 0.457078048652 0)
(0.00306969805731 0.456376632489 0)
(0.00807302129013 0.454865833467 0)
(0.0127749329585 0.452596847009 0)
(0.0171774497943 0.449620055826 0)
(0.0212841836516 0.445985274279 0)
(0.0251000992722 0.441741230788 0)
(0.0286313596149 0.436935466136 0)
(0.0318851855427 0.431614168775 0)
(0.0348697129561 0.425822040193 0)
(0.0375938733169 0.41960218002 0)
(0.0400672708465 0.412995988215 0)
(0.0423000805081 0.406043082239 0)
(0.0443029392046 0.39878122804 0)
(0.0460868542764 0.391246284134 0)
(0.0476631022183 0.383472158871 0)
(0.0490431423191 0.375490781008 0)
(0.050238519149 0.367332084213 0)
(0.0512607792572 0.359024005889 0)
(0.0521213771426 0.35059250097 0)
(0.0528315963746 0.342061570896 0)
(0.0534024620965 0.333453307978 0)
(0.0538446709962 0.324787954679 0)
(0.0541685159297 0.31608397725 0)
(0.0543838309609 0.307358152294 0)
(0.0544999345621 0.29862566473 0)
(0.0545255957851 0.289900214763 0)
(0.0544690012725 0.281194131569 0)
(0.0543377464298 0.2725184907 0)
(0.0541388285215 0.263883232551 0)
(0.0538786632628 0.25529727876 0)
(0.0535631025664 0.246768644082 0)
(0.0531974732627 0.238304541027 0)
(0.0527866146177 0.229911475392 0)
(0.0523349329176 0.221595330752 0)
(0.0518464514963 0.213361440968 0)
(0.0513248732236 0.205214649753 0)
(0.0507736348201 0.197159357323 0)
(0.050195969091 0.189199554118 0)
(0.0495949558074 0.181338842533 0)
(0.0489735766436 0.173580447422 0)
(0.0483347565416 0.165927216939 0)
(0.0476814063634 0.158381614984 0)
(0.0470164509707 0.15094570714 0)
(0.0463428570343 0.143621141578 0)
(0.0456636464689 0.136409126844 0)
(0.0449819091351 0.129310407872 0)
(0.0443008023524 0.122325241999 0)
(0.0436235500157 0.11545337605 0)
(0.0429534303663 0.108694025904 0)
(0.042293764198 0.102045859261 0)
(0.0416478939143 0.0955069826432 0)
(0.0410191640597 0.0890749329444 0)
(0.0404108950106 0.0827466741838 0)
(0.0398263592191 0.0765185993822 0)
(0.0392687529487 0.0703865378589 0)
(0.0387411716838 0.0643457676354 0)
(0.0382465835413 0.0583910328381 0)
(0.0377878079146 0.0525165657799 0)
(0.037367495434 0.0467161143586 0)
(0.0369881157966 0.0409829745136 0)
(0.0366519511588 0.0353100326919 0)
(0.0363610970855 0.0296898353324 0)
(0.0361174351272 0.0241146489062 0)
(0.0359220926139 0.0185765577028 0)
(0.0357660836288 0.0130618421709 0)
(0.0354671590018 0.00764508591811 0)
(0.0318004442207 0.00226826389963 0)
(-0.185078145658 0.0122442713602 0)
(-0.205028631368 0.0429417574072 0)
(-0.204178827196 0.0726815222124 -4.13294894133e-27)
(-0.201135618267 0.102583576699 0)
(-0.197026969144 0.131832941519 0)
(-0.191980386937 0.160304031621 0)
(-0.186076425695 0.187852159002 0)
(-0.179401027877 0.214348967034 0)
(-0.172046011234 0.239683826909 0)
(-0.164106564234 0.263764464951 0)
(-0.155678801205 0.286516747666 0)
(-0.14685760264 0.307884082044 0)
(-0.137734776674 0.327826464844 0)
(-0.128397553869 0.346319267138 0)
(-0.118927406422 0.363351826734 0)
(-0.109399187271 0.378925911552 0)
(-0.0998805733098 0.393054112319 0)
(-0.0904318044492 0.405758221798 0)
(-0.0811056937865 0.41706765873 0)
(-0.0719478843832 0.427017993779 0)
(-0.0629973030735 0.435649629618 0)
(-0.0542867589246 0.443006674708 0)
(-0.0458436121379 0.449136031037 0)
(-0.0376904496981 0.454086691558 0)
(-0.0298457015028 0.45790921925 0)
(-0.0223241634081 0.460655361719 0)
(-0.0151374066167 0.462377748875 0)
(-0.00829409015987 0.463129626596 0)
(-0.001800196027 0.462964595636 0)
(0.00434077730161 0.461936320992 0)
(0.0101276387119 0.460098342864 0)
(0.0155613260201 0.457503629255 0)
(0.0206446661383 0.454204382148 0)
(0.0253822514516 0.450251932779 0)
(0.0297802335814 0.445696383512 0)
(0.0338461300397 0.440586481502 0)
(0.0375886541311 0.434969468825 0)
(0.0410175552707 0.428890959527 0)
(0.0441434771681 0.422394836105 0)
(0.0469778244937 0.415523161385 0)
(0.0495326430057 0.408316103373 0)
(0.0518205027986 0.400811871768 0)
(0.0538543899138 0.393046665899 0)
(0.0556475968856 0.385054634422 0)
(0.0572136185591 0.376867847573 0)
(0.0585660449761 0.368516282923 0)
(0.0597184587556 0.360027825714 0)
(0.0606843299881 0.351428284733 0)
(0.0614769170423 0.3427414245 0)
(0.0621091674495 0.333989014242 0)
(0.0625936280134 0.325190893583 0)
(0.0629423591131 0.316365054382 0)
(0.0631668624929 0.307527737392 0)
(0.0632780176348 0.298693541903 0)
(0.063286035408 0.289875545812 0)
(0.0632004235505 0.281085433248 0)
(0.063029971446 0.272333626369 0)
(0.062782747791 0.263629418016 0)
(0.062466117145 0.254981101714 0)
(0.0620867679809 0.246396095913 0)
(0.0616507568384 0.237881059455 0)
(0.0611635604913 0.229441995962 0)
(0.0606301397084 0.221084345073 0)
(0.0600550062852 0.212813059374 0)
(0.0594422963393 0.204632666093 0)
(0.058795841815 0.196547313621 0)
(0.0581192430715 0.188560803062 0)
(0.057415935221 0.180676605946 0)
(0.0566892513067 0.172897869188 0)
(0.0559424760097 0.165227409175 0)
(0.055178893393 0.157667696611 0)
(0.0544018235237 0.150220834345 0)
(0.0536146518901 0.14288852997 0)
(0.0528208475473 0.135672065402 0)
(0.0520239741866 0.128572265053 0)
(0.0512276909849 0.12158946454 0)
(0.0504357474816 0.114723481167 0)
(0.0496519700472 0.107973587709 0)
(0.0488802440483 0.101338490287 0)
(0.0481244898014 0.0948163113956 0)
(0.0473886361086 0.0884045784359 0)
(0.0466765898641 0.0821002183654 0)
(0.0459922051294 0.0758995584541 0)
(0.045339250501 0.0697983333447 0)
(0.0447213777473 0.0637916982354 0)
(0.0441420908834 0.0578742480608 0)
(0.0436047182853 0.0520400425655 0)
(0.0431123873265 0.0462826373331 0)
(0.0426680035366 0.0405951218619 0)
(0.0422742328196 0.0349701663374 0)
(0.0419334840201 0.0294000855628 0)
(0.0416478537115 0.023876893478 0)
(0.0414184805865 0.0183923641915 0)
(0.0412347734426 0.0129323620282 0)
(0.0408865550927 0.00756832333924 0)
(0.0366565580563 0.00225068984014 0)
(-0.212946124066 0.0126056824374 0)
(-0.235865238326 0.0446541295235 0)
(-0.234826869646 0.0754882518878 0)
(-0.231235544329 0.106503318562 0)
(-0.226394082779 0.136799358498 0)
(-0.220454788067 0.166238553795 0)
(-0.213516353789 0.194665153146 0)
(-0.205683719246 0.221942833164 0)
(-0.197068299893 0.24795602183 0)
(-0.187784858449 0.272610346421 0)
(-0.177948534594 0.295832103957 0)
(-0.167672274063 0.317567307072 0)
(-0.157064682572 0.337780364982 0)
(-0.146228295632 0.356452503584 0)
(-0.135258244083 0.373580004246 0)
(-0.124241298451 0.38917232571 0)
(-0.113255277928 0.403250167826 0)
(-0.102368814011 0.415843537927 0)
(-0.0916414511202 0.426989887186 0)
(-0.0811240547602 0.436732388791 0)
(-0.0708594734187 0.4451184276 0)
(-0.0608833791001 0.452198356284 0)
(-0.0512251897039 0.458024546223 0)
(-0.0419089740117 0.462650724522 0)
(-0.0329542503898 0.466131551132 0)
(-0.0243766251922 0.468522361814 0)
(-0.0161882556954 0.469878993587 0)
(-0.00839816472596 0.47025762111 0)
(-0.00101245486678 0.469714561317 0)
(0.00596552495577 0.468306002925 0)
(0.0125350445604 0.466087880464 0)
(0.0186977027796 0.463115243719 0)
(0.0244573026113 0.459442293754 0)
(0.0298196244481 0.45512210844 0)
(0.0347921899404 0.450206337422 0)
(0.0393840417096 0.444745082169 0)
(0.0436055440246 0.438786762129 0)
(0.0474682031021 0.432378008268 0)
(0.0509845076245 0.425563574544 0)
(0.05416778428 0.418386262069 0)
(0.057032065713 0.410886852874 0)
(0.0595919650949 0.403104052388 0)
(0.0618625557278 0.395074440828 0)
(0.063859251602 0.386832434674 0)
(0.0655976890796 0.378410259587 0)
(0.0670936072476 0.369837936488 0)
(0.068362728531 0.361143282389 0)
(0.0694206385184 0.352351927621 0)
(0.070282667942 0.34348735081 0)
(0.0709637771507 0.33457093254 0)