/*--------------------------------*- C++ -*----------------------------------*\
| =========                 |                                                 |
| \\      /  F ield         | OpenFOAM: The Open Source CFD Toolbox           |
|  \\    /   O peration     | Version:  v1906                                 |
|   \\  /    A nd           | Web:      www.OpenFOAM.com                      |
|    \\/     M anipulation  |                                                 |
\*---------------------------------------------------------------------------*/
FoamFile
{
    version     2.0;
    format      ascii;
    class       surfaceScalarField;
    location    "229";
    object      phi;
}
// * * * * * * * * * * * * * * * * * * * * * * * * * * * * * * * * * * * * * //

dimensions      [0 3 -1 0 0 0 0];
oriented        oriented;


internalField   nonuniform List<scalar> 
18240
(
0.011944854864
-0.0119448565203
0.0244857025046
-0.0125408498611
0.0369774296626
-0.0124917286321
0.0493302383748
-0.0123528109757
0.0614914984072
-0.0121612612821
0.0734144762506
-0.011922980154
0.0850563500272
-0.0116418748132
0.0963779038042
-0.0113215561185
0.107343622805
-0.0109657198349
0.117921830991
-0.0105782105417
0.128084814714
-0.0101629843627
0.137808862559
-0.00972405020391
0.147074259363
-0.0092653972628
0.155865191859
-0.00879093484709
0.164169622427
-0.00830443085956
0.171979089315
-0.00780946922077
0.17928849665
-0.00730940747488
0.186095848819
-0.00680735447699
0.192401995667
-0.00630614684882
0.198210338002
-0.00580834461062
0.203526561153
-0.00531622302921
0.208358340857
-0.00483178193888
0.212715089583
-0.00435674849266
0.216607682929
-0.00389259553699
0.220048234194
-0.00344055093399
0.223049852978
-0.00300162092516
0.225626455921
-0.00257660252356
0.227792562693
-0.00216610885902
0.229563145658
-0.00177058246952
0.230953465232
-0.0013903216014
0.231978961799
-0.00102549600293
0.232655142605
-0.000676182771377
0.232997557293
-0.000342414064978
0.233021952032
-2.43966350558e-05
0.232743430704
0.000278522007749
0.232176256371
0.000567172507771
0.231334643714
0.000841613379226
0.23023259315
0.00110204881038
0.228883774411
0.00134881949885
0.227301452543
0.00158232018676
0.225498474514
0.0018029788173
0.22348723504
0.00201123786662
0.221279683165
0.00220755268794
0.21888730129
0.0023923803443
0.216321120497
0.00256618162362
0.213591706887
0.00272941215528
0.210709182002
0.0028825257312
0.207683213975
0.00302596664987
0.204523041057
0.00316017377206
0.201237466006
0.0032855737513
0.197834881315
0.00340258555122
0.194323265726
0.00351161436808
0.190710210163
0.00361305642317
0.187002915586
0.00370729343369
0.183208218909
0.00379469753486
0.17933259165
0.0038756261945
0.175382165345
0.00395042715555
0.171362730644
0.00401943371364
0.167279761892
0.0040829695937
0.163138416446
0.00414134453495
0.158943558235
0.00419485903905
0.15469975718
0.0042438002207
0.150411311613
0.00428844637858
0.146082247768
0.0043290630862
0.141716341008
0.00436590755207
0.137317115391
0.00439922493259
0.132887863706
0.00442925245565
0.128431647148
0.00445621594764
0.12395131419
0.00448033370411
0.119449500428
0.00450181322608
0.114928646323
0.00452085482521
0.110390997289
0.00453764857081
0.105838620358
0.00455237762258
0.101273404578
0.00456521539057
0.0966970766501
0.00457632858972
0.0921112017129
0.00458587461853
0.0875171980096
0.00459400433286
0.0829163381131
0.00460085964784
0.0783097626797
0.00460657602762
0.0736984821827
0.00461128031579
0.069083389801
0.00461509293649
0.064465263733
0.00461812595179
0.0598447792866
0.00462048495847
0.0552225118837
0.00462226735005
0.0505989485059
0.00462356384584
0.0459744916902
0.00462445682858
0.041349470925
0.00462502119235
0.0367241489962
0.00462532201278
0.0320987365749
0.00462541281224
0.0274734091733
0.00462532755257
0.0228483472863
0.00462506223092
0.0182238248665
0.00462452262329
0.013600481817
0.00462334331419
0.00897998741453
0.00462049469249
0.00437520287792
0.00460478484683
0.0043752030331
0.0126155676247
-0.0245604260064
0.0260058099528
-0.0259310942823
0.0393018096151
-0.0257877301178
0.0524371723174
-0.0254881756816
0.0653636558896
-0.0250877465601
0.0780342738053
-0.0245936000116
0.0904043482792
-0.0240119508736
0.102432460626
-0.0233496703416
0.114080955335
-0.0226142160094
0.125316226977
-0.0218134839894
0.136108887888
-0.0209556466195
0.14643382973
-0.0200489937779
0.156270209891
-0.019101778653
0.165601355803
-0.0181220824153
0.174414616984
-0.017117693159
0.182701156323
-0.0160960101417
0.190455712377
-0.0150639645422
0.19767632221
-0.0140279658162
0.204364036737
-0.0129938622919
0.210522614961
-0.011966924268
0.216158227975
-0.0109518368654
0.22127915556
-0.0099527108849
0.225895504712
-0.00897309838046
0.230018929582
-0.00801602169793
0.233662380676
-0.00708400268299
0.23683986006
-0.00617910153069
0.239566209212
-0.00530295225413
0.241856904201
-0.00445680500093
0.2437278838
-0.00364156257621
0.245195383146
-0.00285782203364
0.24627579552
-0.00210590881701
0.246985525139
-0.00138591341242
0.247340822545
-0.000697711846579
0.24735734951
-4.09245485051e-05
0.247051011873
0.000584859344237
0.246438084081
0.00118009942448
0.245534161074
0.00174553614103
0.244354277983
0.00228193108551
0.242913004552
0.00279009273595
0.241224445702
0.00327087827988
0.239302239431
0.00372518494163
0.237159541209
0.0041539353897
0.234809023483
0.00455807031226
0.232262866199
0.00493853698464
0.22953276295
0.00529628481292
0.226629917864
0.0056322566522
0.223565056955
0.00594738661845
0.220348429602
0.0062425934688
0.216989823325
0.00651878006384
0.213498568305
0.00677682828844
0.209883554203
0.00701759970085
0.206153236541
0.00724193159853
0.202315654547
0.00745063849699
0.198378438561
0.00764450903659
0.194348828189
0.00782430801499
0.190233680146
0.00799077390155
0.186039486226
0.00814462121137
0.181772381198
0.0082865384518
0.177438160273
0.00841719067832
0.173042286819
0.00853721774273
0.168589909127
0.00864723691243
0.164085867817
0.0087478413268
0.159534711803
0.00883960259395
0.154940705337
0.0089230693895
0.150307843137
0.00899876997028
0.145639857074
0.00906721087178
0.140940230467
0.00912887929746
0.136212204442
0.00918424188731
0.131458791438
0.00923374695592
0.126682781299
0.0092778233171
0.12188675403
0.00931688235438
0.117073085693
0.00935131689537
0.112243960482
0.00938150310615
0.10740137648
0.00940779941506
0.102547157123
0.00943054822787
0.0976829568929
0.00945007490462
0.0928102722196
0.00946668929532
0.087930447179
0.00948068477556
0.0830446838972
0.00949233960336
0.0781540483104
0.00950191601813
0.073259480126
0.00950966141602
0.0683617987088
0.00951580750968
0.0634617126558
0.00952057130467
0.0585598258806
0.00952415428927
0.0536566468774
0.00952674313968
0.0487525950939
0.00952850880142
0.0438480099416
0.00952960663687
0.0389431573365
0.0095301748373
0.0340382375316
0.00953033291573
0.0291333878788
0.00953017745701
0.0242286745919
0.00952977579828
0.0193240400259
0.00952915743795
0.0144190884505
0.00952829518273
0.00951273409651
0.00952684934236
0.00460768239654
0.00950983687419
0.00898288563653
0.0127557627238
-0.0373161906682
0.0262518124993
-0.0394271460881
0.0396671717876
-0.0392030913594
0.0529211131061
-0.0387421189503
0.0659615450117
-0.0381281803156
0.0787398606587
-0.0373719175256
0.0912104442687
-0.0364825362307
0.10333120088
-0.0354704287305
0.11506397634
-0.034346993113
0.126374835481
-0.0331243448149
0.137234223444
-0.0318150361217
0.147617021449
-0.0304317933739
0.157502515972
-0.0289872746126
0.166874288157
-0.0274938560986
0.17572004228
-0.0259634486188
0.184031379581
-0.0244073488499
0.191803536462
-0.0228361226651
0.199035091838
-0.0212595225117
0.20572766126
-0.0196864328639
0.211885579891
-0.0181248441349
0.217515589626
-0.0165818476635
0.222626529289
-0.0150636517026
0.227229040717
-0.0135756107885
0.231335286755
-0.0121222688125
0.234958691794
-0.0107074086238
0.238113698556
-0.00933410929519
0.240815550091
-0.00800480461497
0.243080088987
-0.00672134482759
0.244923581573
-0.00548505591723
0.246362557836
-0.00429679915752
0.247413673889
-0.00315702555618
0.248093587401
-0.00206582771897
0.248418856251
-0.00102298131646
0.248405913455
-2.79824669981e-05
0.24807087747
0.000919894799858
0.2474295411
0.00182143515738
0.246497381938
0.0026776948314
0.245289470099
0.00348984234517
0.24382043344
0.00425912897891
0.242104435498
0.00498687569684
0.240155162657
0.00567445741819
0.237985811895
0.00632328568054
0.235609086743
0.00693479514904
0.23303719312
0.00751043018849
0.230281842346
0.00805163531851
0.227354253134
0.0085598454945
0.224265159655
0.00903647987486
0.221024817776
0.00948293502485
0.217643016476
0.00990058118333
0.214129086798
0.0102907576892
0.210491915273
0.0106547710875
0.206739954459
0.010993892179
0.202881237404
0.0113093554514
0.19892338896
0.0116023572896
0.194873640587
0.011874056324
0.19073884189
0.0121255724473
0.186525475303
0.0123579877685
0.182239667474
0.0125723461676
0.177887203536
0.0127696546197
0.173473538112
0.0129508830899
0.169003809002
0.0131169660547
0.164482847694
0.0132688025925
0.159915192371
0.0134072579782
0.155305097883
0.0135331638674
0.150656548062
0.0136473198791
0.145973265149
0.0137504938044
0.141258721441
0.0138434231183
0.136516148208
0.0139268151701
0.131748546711
0.0140013485883
0.126958696679
0.014067673427
0.122149166749
0.0141264124421
0.117322322566
0.0141781611832
0.112480336718
0.0142234891322
0.107625196528
0.0142629397363
0.102758713545
0.0142970314083
0.0978825310995
0.0143262575045
0.0929981334203
0.0143510871897
0.088106853006
0.0143719653662
0.0832098794307
0.0143893134085
0.0783082665935
0.0144035290505
0.0734029412588
0.0144149869918
0.0684947102358
0.0144240387433
0.0635842686933
0.0144310130965
0.0586722072985
0.0144362159082
0.0537590203056
0.0144399303896
0.0488451125897
0.014442416757
0.0439308072754
0.0144439122203
0.0390163520332
0.0144446303408
0.0341019246368
0.014444760596
0.0291876346272
0.0144444677439
0.0242735178512
0.0144438928686
0.0193595155682
0.0144431599915
0.0144454307852
0.0144423802257
0.00953114915168
0.0144411313072
0.00462405100866
0.0144169353805
0.013606936809
0.0129136013306
-0.0502297939609
0.0265633955572
-0.0530769423985
0.0401323532667
-0.0527720510479
0.0535354812629
-0.0521452489057
0.0667180518163
-0.051310752759
0.079629591476
-0.0502834590477
0.0922231065657
-0.0490760531148
0.104455477971
-0.0477028019022
0.116287829543
-0.0461793463789
0.127685784492
-0.0445223014328
0.138619607525
-0.0427488607469
0.149064239569
-0.0408764269881
0.158999239012
-0.0389222755476
0.168408641378
-0.0369032599371
0.177280753865
-0.034835562501
0.185607897205
-0.0327344935689
0.19338611078
-0.0306143375402
0.200614831634
-0.028488244653
0.207296560941
-0.0263681633814
0.213436525437
-0.0242648098308
0.219042344163
-0.0221876675141
0.224123704673
-0.0201450133285
0.228692055937
-0.0181439630941
0.232760319108
-0.0161905330199
0.236342620879
-0.0142897113578
0.239454048309
-0.0124455376851
0.242110428052
-0.0106611852461
0.244328127317
-0.00893904497803
0.246123878329
-0.00728080774529
0.247514622744
-0.00568754438773
0.248517377308
-0.00415978086704
0.249149117761
-0.00269756891949
0.249426682412
-0.00130054664532
0.249366734691
3.19645946182e-05
0.248985585618
0.00130104329767
0.248299174985
0.00250784521171
0.247323078678
0.00365379062263
0.246072452312
0.00474046819091
0.244561994032
0.00576958679781
0.242805921703
0.00674294755963
0.24081795929
0.00766241942226
0.238611327696
0.00852991686054
0.236198741293
0.00934738119393
0.233592407045
0.0101167640717
0.230804027918
0.0108400141359
0.227844807727
0.0115190653681
0.224725459265
0.0121558280727
0.221456212985
0.0127521810336
0.218046828146
0.013309965803
0.214506603882
0.0138309817256
0.210844392116
0.014316982675
0.207068609943
0.0147696741671
0.203187253387
0.0151907118693
0.199207910337
0.015581700195
0.195137774534
0.0159441920265
0.19098365853
0.0162796883441
0.186752007481
0.0165896387536
0.182448911796
0.0168754417821
0.178080120474
0.0171384459106
0.173651053254
0.017379950273
0.169166813342
0.017601205968
0.164632198959
0.0178034169716
0.160051715401
0.0179877415677
0.155429585954
0.0181552933393
0.150769763286
0.0183071426073
0.146075939734
0.0184443174104
0.141351558061
0.0185678048776
0.136599821173
0.0186785521395
0.131823702283
0.0187774675895
0.127025954124
0.0188654216925
0.122209118592
0.0189432481101
0.117375535515
0.0190117443916
0.112527351853
0.0190716729526
0.1076665301
0.0191237616447
0.102794857099
0.0191687045885
0.0979139521551
0.0192071626258
0.0930252755304
0.0192397640132
0.0881301363261
0.0192671047673
0.0832297007225
0.0192897492276
0.0783249996815
0.0193082303049
0.0734169369792
0.0193230499231
0.0685062967711
0.0193346791779
0.0635937514443
0.0193435586627
0.0586798690545
0.0193500985356
0.0537651209636
0.0193546787299
0.0488498890408
0.0193576489308
0.0439344728382
0.0193593286872
0.0390190960308
0.0193600074173
0.0341039121273
0.0193599447827
0.0291890084498
0.0193593717108
0.0242744081287
0.0193584934647
0.0193600716167
0.019357496776
0.0144459123278
0.0193565398258
0.00953209510962
0.0193549488301
0.00462666328181
0.019322367542
0.0182336002838
0.0131210165485
-0.0633508125055
0.0269842966822
-0.0669402245848
0.0407626135478
-0.0665503699411
0.0543676428926
-0.0657502802207
0.0677420294775
-0.0646851412704
0.0808330602915
-0.0633744917396
0.0935919306212
-0.0618349252715
0.105974135101
-0.0600850081622
0.117939822283
-0.0581450352871
0.12945403274
-0.0560365135693
0.140486815225
-0.0537816448562
0.151013228088
-0.0514028414289
0.161013239731
-0.0489222887138
0.17047154359
-0.0463615652749
0.17937730519
-0.0437413255258
0.187723857554
-0.0410810473143
0.19550836137
-0.0383988426871
0.202731443584
-0.0357113281556
0.209396827333
-0.0330335483688
0.215510962902
-0.0303789465989
0.221082668558
-0.027759374322
0.226122786917
-0.0251851328012
0.230643862039
-0.0226650392836
0.234659839667
-0.0202065116809
0.238185793008
-0.0178156656862
0.241237674133
-0.0154974197652
0.243832091575
-0.0132556035989
0.245986112729
-0.0110930670116
0.247717090598
-0.0090117864527
0.249042512757
-0.00701296735542
0.249979871732
-0.00509714060949
0.25054655488
-0.00326425280703
0.250759751661
-0.00151374412227
0.250636380855
0.000155334758487
0.250192999508
0.00174442406418
0.249445774972
0.00325506919062
0.2484104448
0.00468912027298
0.247102287341
0.00604862514982
0.245536093948
0.00733577972482
0.24372615068
0.00855289038174
0.241686227514
0.00970234217427
0.239429572586
0.0107865713938
0.236968911076
0.0118080423405
0.234316447292
0.0127692275105
0.231483869952
0.0136725911605
0.228482359482
0.0145205755401
0.225322597494
0.0153155897912
0.222014777424
0.0160600008505
0.2185686166
0.0167561264018
0.21499336884
0.0174062292756
0.21129783794
0.0180125133911
0.207490391238
0.0185771207002
0.203578973691
0.0191021292734
0.199571121727
0.0195895520297
0.195473977328
0.0200413363205
0.191294301711
0.0204593638691
0.187038489069
0.0208454513267
0.182712579784
0.0212013510102
0.178322273604
0.0215287520553
0.173872942236
0.0218292816181
0.169369641841
0.02210450636
0.16481712494
0.0223559338804
0.160219852197
0.022585014338
0.155582003621
0.0227931419527
0.150907489654
0.0229816566303
0.146199961706
0.0231518454241
0.141462822591
0.0233049440751
0.136699236457
0.0234421383652
0.131912138635
0.0235645655194
0.127104245033
0.0236733154119
0.122278061474
0.0237694318016
0.117435892633
0.0238539133733
0.112579850944
0.0239277147979
0.107711865148
0.0239917476042
0.102833688847
0.0240468810671
0.0979469087402
0.0240939429174
0.0930529528839
0.0241337200669
0.0881530986838
0.0241669591712
0.0832484809234
0.0241943672026
0.0783400995609
0.0242166118871
0.0734288275715
0.0242343221409
0.0685154185929
0.0242480883888
0.0636005146032
0.0242584628916
0.0586846534159
0.0242659599656
0.0537682761732
0.0242710562225
0.0488517346186
0.0242741907408
0.043935298257
0.0242757653136
0.039019161179
0.0242761447702
0.0341034486072
0.0242756576369
0.0291882231834
0.0242745974197
0.0242734918565
0.024273225091
0.0193592161992
0.0242717727122
0.0144453392383
0.0242704170438
0.0095320601554
0.0242682282516
0.00462740518671
0.0242270228823
0.0228610056365
0.0133834905266
-0.0767343050522
0.0275208545049
-0.0810775907073
0.041567137926
-0.0805966554031
0.0554298667666
-0.079613011072
0.0690485381827
-0.0783038146381
0.0823677043961
-0.0766936598607
0.095336302712
-0.0748035254414
0.107908088639
-0.0726567958963
0.120041998835
-0.070278947234
0.131702374353
-0.0676968907906
0.142859044112
-0.0649383162637
0.153487280107
-0.0620310790234
0.163567641784
-0.0590026519352
0.173085729401
-0.0558796543903
0.182031867289
-0.052687464858
0.190400736899
-0.0494499183239
0.198190978196
-0.0461890853318
0.205404775257
-0.0429251265205
0.21204743974
-0.0396762141061
0.218127002827
-0.0364585108989
0.223653824113
-0.0332861967724
0.228640223211
-0.0301715330254
0.23310013828
-0.0271249554334
0.237048813569
-0.024155188013
0.240502517174
-0.0212693702892
0.243478288712
-0.0184731922678
0.245993716294
-0.0157710321013
0.248066741129
-0.0131660927344
0.249715488252
-0.0106605344219
0.250958121161
-0.00825560107952
0.251812718521
-0.00595173874524
0.25229717067
-0.00374870569997
0.252429091559
-0.00164566571093
0.252225730769
0.000358694913628
0.251703952756
0.00226620150326
0.250880174851
0.00407884654845
0.249770330515
0.0057989640939
0.248389847594
0.00742910758064
0.246753628956
0.00897199790285
0.244876040146
0.0104304787554
0.242770903134
0.0118074787787
0.240451494714
0.0131059794281
0.237930548879
0.0143289878174
0.235220262222
0.0154795138314
0.232332301949
0.0165605511234
0.229277815784
0.0175750614151
0.226067443519
0.0185259617918
0.222711329638
0.0194161144864
0.219219136904
0.0202483189153
0.215600060439
0.0210253055388
0.211862842279
0.0217497313718
0.208015786028
0.02242417679
0.204066771647
0.0230511435147
0.200023270072
0.0236330534826
0.195892357769
0.0241722485213
0.191680730934
0.0246709906195
0.187394719488
0.0251314627064
0.183040300657
0.0255557697911
0.178623112248
0.0259459404321
0.174148465475
0.0263039283738
0.16962135746
0.0266316143748
0.165046483272
0.0269308080823
0.160428247646
0.0272032499942
0.155770776257
0.0274506133851
0.151077926697
0.0276745062488
0.146353299039
0.0278764731524
0.141600246138
0.0280579970607
0.136821883559
0.0282205010408
0.132021099279
0.0283653499099
0.127200563065
0.0284938517475
0.122362735664
0.0286072593376
0.117509877713
0.0287067714698
0.112644058501
0.0287935341673
0.107767164496
0.0288686417779
0.102880907754
0.0289331379879
0.0979868341394
0.0289880167212
0.0930863314514
0.0290342229541
0.0881806374027
0.0290726534275
0.0832708475262
0.0291041572956
0.078357922964
0.0291295366726
0.0734426982035
0.0291495471317
0.0685258887117
0.0291648981162
0.0636080985291
0.0291762533153
0.0586898277673
0.0291842309733
0.0537714800561
0.0291894041855
0.0488533698842
0.0291923011711
0.0439357298707
0.0291934055945
0.0390187179419
0.0291931569749
0.0341024245501
0.029191951316
0.0291868801983
0.0291901420679
0.0242720640511
0.0291880415137
0.0193579155091
0.0291859215316
0.0144443574767
0.0291839754001
0.00953154550406
0.0291810405295
0.00462739700492
0.0291311717143
0.0274884028403
0.0137055539358
-0.0904398610537
0.0281803457883
-0.0955523846734
0.0425562929289
-0.0949726046433
0.056735549113
-0.0937922692895
0.0706536816379
-0.0922219491558
0.0842518810386
-0.0902918611987
0.0974763260591
-0.0880279723505
0.110278668135
-0.0854591398059
0.122616408579
-0.0826166894623
0.134453103473
-0.0795335874117
0.145758403036
-0.0762436175045
0.15650794394
-0.0727806215485
0.166683118172
-0.0691778277385
0.176270744394
-0.065467282129
0.185262667729
-0.0616793896608
0.193655312242
-0.0578425642525
0.201449207674
-0.0539829821323
0.208648508599
-0.050124428764
0.215260520679
-0.046288227459
0.221295245215
-0.0424932366599
0.226764950124
-0.0387559028629
0.23168377265
-0.0350903566877
0.236067356979
-0.031508540858
0.239932527981
-0.0280203600658
0.243297000999
-0.0246338443198
0.246179126539
-0.0213553187776
0.248597668008
-0.0181895745035
0.250571610209
-0.0151400358281
0.252119996046
-0.012208921116
0.253261788809
-0.0093973946612
0.254015757416
-0.00670570813765
0.254400381937
-0.00413333096758
0.254433774188
-0.00167905866347
0.254133565288
0.000658903187287
0.25351698392
0.00288278230364
0.252600727169
0.00499510276321
0.251400948058
0.0069987426971
0.24993324247
0.00889681268918
0.248212637034
0.0106926028857
0.246253583293
0.0123895320698
0.244069956999
0.0139911046715
0.241675061462
0.0155008745887
0.239081634224
0.0169224147035
0.23630185633
0.0182592913983
0.233347363668
0.0195150434807
0.230229259856
0.0206931649462
0.226958130301
0.0217970910879
0.223544057068
0.0228301874827
0.219996634309
0.0237957414583
0.216324983989
0.0246969556641
0.212537771753
0.0255369434334
0.20864322275
0.0263187256394
0.204649137323
0.0270452288071
0.200562906441
0.0277192842484
0.196391526831
0.0283436280344
0.192141615714
0.0289209016569
0.187819425162
0.0294536531972
0.18343085599
0.029944338919
0.178981471228
0.0303953251659
0.174476509121
0.0308088904687
0.169920895695
0.0311872278047
0.165319256867
0.0315324469289
0.16067593015
0.0318465767453
0.155994975924
0.0321315676582
0.151280188348
0.0323892938872
0.146535105872
0.032621555703
0.141763021441
0.0328300815801
0.136966992348
0.033016530235
0.132149849817
0.0331824925546
0.127314208297
0.0333294933927
0.122462474526
0.0334589932464
0.117596856355
0.0335723897893
0.112719371385
0.0336710192985
0.107831855406
0.0337561579276
0.102935970697
0.0338290228795
0.0980332141616
0.0338907734488
0.0931249253566
0.0339425119609
0.0882122943954
0.0339852845993
0.0832963697683
0.0340200821417
0.0783780660675
0.0340478405996
0.0734581716501
0.0340694417818
0.0685373562256
0.034085713779
0.0636161783947
0.0340974313898
0.0586950931261
0.0341053164903
0.0537744591921
0.0341100383736
0.0488545465557
0.0341122140683
0.0439355437432
0.0341124086763
0.039017565241
0.0341111357576
0.0341006590393
0.0341088578042
0.0291848145659
0.0341059868299
0.0242699714577
0.0341028849292
0.019356029914
0.03409986336
0.0144428693839
0.0340971361844
0.00953058478803
0.0340933254716
0.00462700154155
0.0340347553403
0.0321154045481
0.0140919373295
-0.10453180048
0.0289717979077
-0.110432247482
0.0437432247154
-0.109744033569
0.0583016310988
-0.108350677761
0.0725777210678
-0.106498041149
0.0865085876402
-0.104222729749
0.100037092018
-0.10155647865
0.113112400183
-0.0985344498419
0.125690371375
-0.0951946624677
0.13773373354
-0.0915769513372
0.149212060516
-0.0877219461835
0.160101578388
-0.0836701410712
0.170384833615
-0.0794610845597
0.180050256909
-0.0751327069666
0.189091655675
-0.0707207899133
0.197507664571
-0.0662585745878
0.205301179573
-0.0617764985199
0.212478795999
-0.0573020465279
0.219050266333
-0.0528596990804
0.225027989172
-0.0484709607416
0.230426536836
-0.044154451721
0.235262225954
-0.0399260469575
0.239552732798
-0.0357990488068
0.243316753179
-0.0317843815124
0.246573705383
-0.0278907975444
0.249343473568
-0.0241250879449
0.251646188589
-0.0204922904635
0.253502042791
-0.0169958909333
0.254931135369
-0.0136380145567
0.25595334486
-0.01041960498
0.256588225726
-0.00734058979319
0.256854925835
-0.00440003182987
0.256772121146
-0.00159625467208
0.256357863958
0.00107315975684
0.255629794237
0.00361085146796
0.254604912866
0.00601998360678
0.253299609517
0.00830404554818
0.251729659482
0.0104667622523
0.249910218997
0.0125120429276
0.247855826526
0.0144439241222
0.245580408458
0.0162665223473
0.243097288135
0.0179839945428
0.240419197537
0.0196005049586
0.237558290964
0.0211201976514
0.234526160225
0.0225471739235
0.231333850874
0.0238854740233
0.227991879156
0.0251390625539
0.224510249366
0.0263118170425
0.220898471385
0.0274075192307
0.217165578207
0.0284298486538
0.213320143308
0.0293823781656
0.209370297727
0.0302685710721
0.205323746793
0.0310917796127
0.201187786402
0.0318552445292
0.196969318816
0.0325620955291
0.192674867954
0.0332153524451
0.188310594144
0.0338179269511
0.183882308337
0.0343726246867
0.179395485789
0.0348821476905
0.174855279216
0.0353490970352
0.170266531433
0.035775975596
0.16563378751
0.0361651908749
0.160961306456
0.0365190578377
0.156253072456
0.03683980171
0.151512805704
0.0371295607048
0.146743972839
0.0373903886478
0.141949797024
0.0376242574868
0.137133267702
0.0378330596613
0.132297150042
0.0380186103322
0.127443994114
0.0381826494497
0.122576143816
0.0383268436854
0.117695745572
0.0384527881854
0.112804756845
0.0385620081893
0.107904954456
0.0386559604911
0.10299794276
0.0387360347614
0.0980851616749
0.0388035547288
0.0931678946043
0.0388597792362
0.088247276244
0.0389059031731
0.0833243003096
0.0389430582977
0.0783998271837
0.0389723139544
0.0734745915009
0.0389946776999
0.0685492096769
0.039011095844
0.0636241873925
0.0390224539202
0.0586999270384
0.0390295770953
0.0537767351367
0.0390332305318
0.0488548297427
0.0390341197257
0.0439343478678
0.0390328908232
0.0390153529602
0.0390301309455
0.0340978425387
0.0390263685182
0.0291817561045
0.0390220735663
0.0242669834904
0.03901765782
0.0193533740091
0.0390134731224
0.0144407522211
0.0390097583084
0.00952914897946
0.0390049290189
0.00462631394257
0.0389375907092
0.0367417186959
0.0145482050244
-0.11908000766
0.0299063238704
-0.125790368526
0.0451442565896
-0.124981968479
0.0601491377521
-0.123355561041
0.0748457316785
-0.121194637152
0.0891661914117
-0.118543191498
0.103049442023
-0.115439731226
0.116441769624
-0.111926779348
0.129297212083
-0.108050106779
0.141577685961
-0.103857427006
0.153252874477
-0.0993971364364
0.164299916271
-0.0947171845428
0.174702939539
-0.0898641094516
0.184452486305
-0.0848822552984
0.193544868296
-0.0798131734185
0.201981490535
-0.0746951982845
0.209768172232
-0.0695631816256
0.216914487909
-0.0644483635588
0.223433145288
-0.0593783577668
0.229339410975
-0.0543772276844
0.23465059022
-0.0494656321775
0.239385563429
-0.0446610213287
0.243564379227
-0.0399778657261
0.247207901973
-0.0354279053318
0.250337510197
-0.0310204068029
0.252974841768
-0.0267624205045
0.255141581078
-0.0226590307245
0.256859283596
-0.0187135943597
0.258149233162
-0.0149279649956
0.259032327853
-0.0113027005023
0.25952899091
-0.00783725364804
0.259659103129
-0.00453014480462
0.2594419639
-0.00137911613687
0.258896081232
0.00161904182046
0.258039535702
0.00446739644902
0.256889645938
0.00716987285473
0.255463048067
0.00973064292975
0.253775700779
0.0121541090804
0.251842888717
0.0144448545536
0.249679231851
0.0166075805802
0.247298698376
0.0186470554378
0.244714620172
0.0205680723881
0.241939710121
0.0223754146745
0.238986080732
0.0240738267292
0.235865263609
0.0256679907573
0.232588229396
0.0271625079712
0.2291654079
0.0285618838055
0.225606708175
0.0298705165456
0.221921538362
0.0310926888415
0.218118825167
0.0322325616683
0.214207032846
0.0332941703248
0.210194181646
0.0342814221307
0.206087865622
0.0351980955146
0.201895269813
0.036047840235
0.197623186753
0.036834178503
0.193278032312
0.0375605068182
0.188865860869
0.0382300983439
0.184392379832
0.038846105689
0.179862963537
0.039411563968
0.175282666524
0.0399293940463
0.17065623625
0.0404024058829
0.165988125251
0.040833301903
0.161282502786
0.0412246803451
0.156543266016
0.0415790385361
0.15177405073
0.0418987760607
0.146978241665
0.0421861977964
0.142158982454
0.042443516794
0.137319185232
0.0426728569911
0.132461539939
0.0428762557464
0.127588523329
0.0430556661927
0.122702407754
0.043212959405
0.117805269708
0.0433499263875
0.112898998184
0.0434682798803
0.107985302858
0.0435696559952
0.103065722122
0.0436556156848
0.0981416309943
0.0437276460552
0.0932142489067
0.0437871615315
0.0882846474113
0.0438355048851
0.0833537577991
0.0438739481344
0.0784223786562
0.043903693329
0.0734911833648
0.0439258732293
0.0685607275609
0.0439415518915
0.0636314565583
0.0439517251713
0.0587037127496
0.0439573211575
0.0537777429928
0.0439592005476
0.0488537060062
0.0439581569779
0.043931679786
0.0439549173173
0.0390116690879
0.0439501419291
0.03409361301
0.0439444248867
0.0291773927479
0.0439382941202
0.0242628395527
0.0439322113303
0.019349742925
0.04392657004
0.0144378650695
0.0439216364149
0.00952717060224
0.0439156238399
0.00462533850521
0.0438394231935
0.0413670573678
0.0150810779595
-0.134161087815
0.0309975114957
-0.141706804405
0.0467794008939
-0.140763860093
0.0623038212869
-0.138879983621
0.0774883490567
-0.136379167039
0.0922592350695
-0.133314079578
0.106550787914
-0.129731286075
0.120306014815
-0.125682008199
0.133476998879
-0.12122109273
0.146024947975
-0.116405377934
0.15791995472
-0.111292144949
0.169140524226
-0.105937755761
0.179672930585
-0.100396517461
0.18951046076
-0.0947197870688
0.198652598285
-0.0889553124795
0.207104190436
-0.0831467919193
0.214874633093
-0.0773336257088
0.221977098212
-0.0715508300546
0.228427820624
-0.065829081501
0.234245453842
-0.0601948621779
0.239450499126
-0.0546706786846
0.244064807817
-0.0492753311989
0.248111154118
-0.0440242131575
0.25161287348
-0.0389296257821
0.254593560732
-0.034001095096
0.257076821494
-0.0292456822686
0.259086070429
-0.0246682806163
0.260644369993
-0.0202718948424
0.261774303864
-0.0160578997427
0.262497879598
-0.0120262770768
0.262836456492
-0.00817583134293
0.262810691397
-0.00450438047152
0.262440562188
-0.00100898761142
0.261745082622
0.00231452079589
0.2607427578
0.00546972073579
0.259451228399
0.00846140174833
0.257887380872
0.0112944899793
0.256067353421
0.0139741360796
0.254006550139
0.0165056574116
0.251719659918
0.0188944704015
0.249220677536
0.021146037446
0.246522926262
0.0232658233123
0.243639081407
0.0252592592036
0.240581194345
0.0271317134877
0.237360716637
0.0288884681861
0.233988523971
0.0305347003791
0.230474939714
0.0320754678269
0.22682975789
0.0335156981544
0.22306226548
0.0348601810577
0.219181263944
0.03611356303
0.215195089922
0.0372803441933
0.211111635065
0.0383648768529
0.206938365
0.0393713654641
0.202682337415
0.0403038677233
0.198350219284
0.041166296555
0.193948303259
0.0419624227807
0.189482523252
0.0426958783063
0.184958469242
0.0433701596709
0.180381401354