/*--------------------------------*- C++ -*----------------------------------*\
| =========                 |                                                 |
| \\      /  F ield         | OpenFOAM: The Open Source CFD Toolbox           |
|  \\    /   O peration     | Version:  v1906                                 |
|   \\  /    A nd           | Web:      www.OpenFOAM.com                      |
|    \\/     M anipulation  |                                                 |
\*---------------------------------------------------------------------------*/
FoamFile
{
    version     2.0;
    format      ascii;
    class       volScalarField;
    location    "478";
    object      pa;
}
// * * * * * * * * * * * * * * * * * * * * * * * * * * * * * * * * * * * * * //

dimensions      [0 2 -2 0 0 0 0];


internalField   nonuniform List<scalar> 
9216
(
915.837928563
915.533112767
914.902531523
913.940687047
912.652973301
911.045406584
909.125507058
906.902122313
904.385351851
901.586352967
898.517276321
895.191056074
891.621353081
887.822336846
883.808643952
879.595161515
875.197006878
870.629319726
865.907266096
861.045843369
856.059908887
850.963999357
845.772382141
840.498888789
835.156985829
829.759621096
824.319310428
818.847995257
813.357141901
807.857608976
802.359756106
796.873321898
791.407540079
785.971021586
780.571877332
775.217610494
769.915241541
764.671206236
759.491482785
754.381495887
749.346244296
744.390210357
739.517486632
734.731690491
730.036088616
725.433516229
720.926498353
716.517173338
712.20740987
707.998734433
703.892443143
699.889532862
695.990807066
692.196810362
688.507927742
684.924322362
681.446027749
678.072888783
674.804646612
671.640882909
668.581097495
665.624656023
662.77086047
660.018900494
657.367917149
654.816958162
652.365035305
650.011083857
647.754014141
645.592675353
643.525901765
641.552481033
639.671195558
637.88079524
636.180034432
634.567649017
633.042389318
631.603001246
630.248255463
628.976932273
627.78784725
626.679839473
625.651793761
624.702631791
623.831330986
623.036917953
622.318483836
621.675179118
621.106224287
620.610902841
620.188560525
619.838580887
619.560330985
619.352951307
619.212858871
619.157219254
916.141781276
915.835245462
915.203026086
914.236847982
912.942957221
911.32766073
909.398638536
907.164889614
904.636644341
901.825213426
898.742881394
895.402739784
891.818579734
888.004722756
883.975923339
879.747207178
875.333790966
870.750934556
866.013881793
861.137729907
856.137392248
851.027485506
845.82231296
840.535768242
835.181336382
829.772011951
824.320314801
818.838220329
813.337187101
807.828097356
802.321294453
796.826530819
791.353013283
785.909360834
780.503654513
775.143399899
769.83558254
764.586636186
759.402501182
754.288597118
749.249883184
744.290834506
739.415503421
734.627498816
729.930047368
725.325975266
720.81776854
716.407556585
712.097170769
707.888129224
703.781692995
699.778851624
695.880376194
692.086805321
688.398494586
684.815602652
681.338136749
677.965938772
674.698726668
671.536080524
668.47747988
665.522289957
662.669795091
659.919185352
657.269586422
654.720046922
652.269565132
649.917077359
647.661481925
645.501628868
643.436341618
641.464408252
639.584601204
637.795670219
636.096360371
634.485406745
632.961550955
631.52353749
630.17012884
628.900103347
627.712268983
626.605462481
625.578561728
624.630485911
623.760206425
622.966747709
622.24919651
621.606703048
621.038488507
620.543846642
620.122151465
619.772867676
619.495584948
619.290143747
619.157076079
619.101533487
916.773876385
916.462631482
915.824680165
914.849844776
913.54446724
911.914993115
909.969292247
907.716586056
905.167337103
902.333108286
899.226433407
895.860664292
892.2498384
888.408526901
884.351711195
880.094641981
875.652732429
871.041434438
866.276152547
861.37214015
856.344435053
851.207775525
845.976555991
840.664760919
835.285937794
829.85314601
824.378943999
818.875350418
813.35384274
807.82532858
802.300153684
796.78808129
791.29830818
785.839451607
780.419570865
775.046159986
769.726174442
764.466028675
759.271626426
754.148362035
749.101153369
744.134446012
739.252247872
734.458135497
729.755289505
725.146502322
720.634213653
716.220518972
711.907204313
707.695754888
703.587388512
699.583063797
695.68351163
691.88924247
688.200575407
684.617644224
681.140423747
677.768734478
674.502266107
671.340580718
668.28313351
665.329274732
662.478267824
659.729290354
657.081449928
654.533784472
652.085276308
649.734852177
647.481395885
645.32374843
643.260719583
641.291088418
639.413614141
637.627037209
635.93008963
634.321496773
632.799987249
631.364295424
630.013170903
628.74538166
627.559723092
626.455021605
625.430143135
624.483997006
623.615543773
622.823799172
622.10784119
621.46681406
620.899934859
620.406498511
619.985886618
619.637579765
619.3611821
619.156483293
619.023745512
618.961538409
917.745610189
917.428945456
916.782038093
915.793677355
914.47039796
912.818876579
910.847274345
908.565149382
905.983328767
903.113762752
899.969379628
896.563930908
892.911844124
889.028071827
884.927954687
880.627084549
876.141185842
871.485998769
866.677183038
861.730223475
856.660356592
851.482497802
846.211188731
840.860543207
835.444211867
829.975343388
824.466562886
818.929945285
813.377004719
807.818677779
802.265321958
796.726707084
791.212021719
785.729870851
780.288288331
774.894741018
769.556145839
764.27887837
759.068793696
753.931238456
748.871074466
743.892693332
739.000041961
734.196638953
729.48560121
724.869661369
720.351194768
715.932237236
711.614511704
707.39944568
703.288196846
699.281669621
695.380539145
691.585266414
687.896120191
684.313190333
680.836407324
677.4655536
674.200280578
671.040117977
667.984488419
665.032714905
662.184033247
659.437598004
656.792493102
654.24773664
651.802290124
649.45506257
647.204918786
645.050683171
642.991147427
641.025074388
639.151205459
637.368264703
635.674966207
634.070018546
632.552132169
631.12002426
629.772426133
628.508088427
627.325788431
626.224335476
625.202578054
624.259409247
623.393773491
622.604671898
621.891168604
621.252396014
620.687561034
620.195950975
619.776941209
619.430004215
619.154721452
618.950802191
618.818337518
618.754745436
919.060993808
918.737358942
918.078210275
917.071326787
915.723540251
914.041862763
912.03486213
909.712560742
907.086290608
904.168534885
900.972767153
897.513286755
893.805058384
889.863554556
885.704608433
881.344273971
876.79870016
872.084014769
867.216223721
862.211120173
857.084208887
851.850638895
846.525149815
841.122024176
835.655051259
830.13749464
824.582069399
819.000921327
813.40561458
807.807120285
802.215812848
796.641466545
791.093259822
785.57977713
780.109019482
774.68841329
769.324824979
764.024574104
758.793451699
753.63673667
748.559216874
743.565207897
738.65857603
733.84275866
729.120788392
724.495314323
719.968626593
715.542677845
711.219107492
706.999262677
702.88422157
698.874813185
694.971639093
691.175091538
687.485373069
683.902512543
680.426382367
677.056712161
673.7931035
670.63504124
667.581905848
664.632982602
661.787471792
659.04449614
656.403109295
653.862301927
651.421008992
649.078114981
646.832460428
644.682846763
642.628042467
640.666787895
638.797801395
637.019784335
635.331427387
633.731415893
632.218436378
630.791182273
629.448360638
628.188698159
627.010947977
625.91389582
624.896366777
623.957231398
623.09541225
622.309889828
621.599708801
620.963983712
620.401904984
619.912744676
619.495862626
619.15071194
618.87684365
618.673910414
618.541929227
618.478115006
920.726640743
920.394188339
919.719360848
918.68871481
917.309489164
915.589147856
913.536795962
911.163063659
908.479942108
905.500606848
902.239238889
898.710844902
894.93108212
890.916089838
886.682331861
882.246450234
877.625133475
872.834998249
867.892486672
862.813776968
857.614708744
852.310719695
846.916794432
841.447421822
835.91656153
830.337616304
824.723411178
819.086176626
813.437537355
807.788504189
802.149471027
796.530214383
790.939898324
785.387078361
779.879712933
774.425174792
769.030265757
763.701232368
758.443784222
753.263112703
748.16391193
743.150399724
738.226340377
733.395067113
728.65950598
724.022199105
719.485329002
715.050741923
710.719971866
706.494263302
702.374594174
698.361697304
694.456081716
690.658052122
686.96772803
683.385060853
679.909850452
676.54175964
673.280328044
670.124984016
667.075055945
664.129781807
661.288318266
658.549748293
655.913088525
653.377295475
650.941271704
648.603871167
646.363904731
644.220145149
642.171332379
640.216178588
638.353373601
636.581590192
634.899489863
633.30572855
631.798962793
630.377855858
629.041084251
627.787344159
626.615358176
625.523881901
624.511710694
623.577686228
622.720703082
621.939715074
621.233741517
620.601873195
620.043278191
619.557207349
619.142999351
618.800084627
618.527987164
618.3263258
618.19508836
618.131514667
922.750947138
922.407629392
921.713447572
920.653454818
919.235414211
917.467370284
915.359113133
912.92204296
910.168982442
907.113976547
903.772091304
900.159214337
896.291862183
892.186997606
887.861860121
883.333811349
878.620196952
873.738225409
868.704864086
863.536751582
858.250125646
852.860764593
847.383940796
841.834383731
836.226251223
830.573106727
824.887902066
819.182964244
813.469986575
807.760023262
802.063488169
796.390156685
790.749172138
785.149051609
779.597699417
774.102420398
768.669936034
763.306401985
758.017427557
752.808096091
747.682986864
742.646197543
737.701367799
732.85170316
728.099999681
723.448668542
718.899761093
714.454993491
710.115771396
705.883213896
701.758177088
697.741276538
693.832909027
690.033272862
686.342387181
682.76010961
679.286152746
675.920098897
672.661413626
669.509457608
666.46349739
663.522714669
660.686214673
657.953033349
655.322143942
652.792462709
650.362854325
648.03213675
645.799086079
643.662441125
641.620908215
639.673165925
637.817870181
636.053659427
634.379160223
632.79299297
631.293778049
629.880142082
628.550724544
627.304184425
626.139207154
625.054511468
624.048856422
623.121048243
622.269947183
621.494474125
620.793617057
620.166437196
619.612074828
619.129754632
618.718790393
618.378588186
618.108648281
617.908567862
617.778320191
617.715227041
925.144247354
924.787817318
924.070301317
922.974933146
921.51013138
919.684668794
917.509190223
914.99605177
912.159103145
909.01345771
905.57526378
901.861480824
897.889665825
893.677773343
889.243972362
884.606481587
879.783424736
874.792706005
869.651905822
864.378195632
858.988270364
853.498296068
847.92387036
842.279992682
836.581042132
830.840760611
825.072240143
819.287913513
813.499548184
807.718243418
801.954431634
796.217881711
790.517707686
784.862377351
779.259727327
773.716978799
768.240755421
762.837102848
757.511509704
752.268929694
747.113804763
742.050089084
737.081273801
732.210412315
727.440146033
722.77273035
718.210060752
713.75369879
709.404897794
705.164628041
701.033601254
697.012294134
693.10097082
689.299704021
685.608394747
682.026790454
678.554501606
675.191016553
671.935714792
668.787878626
665.746703347
662.811306033
659.980733149
657.253967082
654.629931836
652.107498044
649.685487491
647.362677346
645.13780422
643.00956825
640.976637274
639.037651247
637.191226917
635.435962871
633.770444911
632.19325183
630.702961513
629.298157397
627.977435187
626.739409833
625.582722652
624.506048588
623.508103477
622.587651308
621.743511354
620.974565151
620.2797632
619.658131371
619.108776858
618.63089359
618.223766913
617.886777161
617.619401831
617.421219869
617.292192782
617.229740298
927.918992901
927.546970733
926.801762491
925.664431979
924.144208541
922.250766665
919.995804901
917.392851138
914.457006857
911.204679932
907.653322359
903.821177217
899.727040243
895.390039857
890.829438271
886.064455565
881.114117727
875.997129078
870.731768551
865.335808577
859.826454234
854.220299675
848.533298164
842.780741987
836.977248855
831.136752204
825.2724939
819.397018812
813.522171593
807.659096106
801.818239285
796.009356259
790.241521331
784.523139574
778.861964339
773.265115445
767.739099426
762.289831112
756.922656528
751.642376684
746.453272365
741.359129583
736.363265801
731.468556604
726.677462882
721.992058188
717.414056264
712.944838384
708.58548045
704.33677947
700.19927931
696.173295368
692.258938049
688.45613473
684.764650165
681.184105056
677.713992861
674.353694656
671.102492204
667.959579189
664.924070823
661.995011896
659.171383536
656.4521088
653.836057415
651.322049775
648.908860547
646.59522195
644.379827043
642.261333027
640.238364855
638.309519111
636.473368354
634.728465874
633.073350977
631.506554692
630.026605992
628.632038369
627.321396825
626.093245107
624.946173213
623.878804987
622.889805834
621.977890345
621.141829882
620.380459907
619.692687085
619.077495979
618.533955304
618.06122359
617.658554193
617.325299023
617.060911799
616.864953584
616.737371011
616.6756904
931.089960643
930.699583732
929.921855811
928.735283711
927.150093922
925.177071781
922.829206373
920.121451655
917.070422077
913.69407935
910.011429668
906.042236077
901.80675152
897.325475943
892.618939968
887.707516492
882.611261273
877.349782608
871.942139606
866.406767227
860.761425238
855.023166831
849.208321978
843.332490191
837.410538083
831.456598297
825.484068147
819.505607964
813.533140181
807.577850608
801.65019433
795.759903282
789.915998709
784.12680719
778.399980676
772.742517712
767.160786243
761.660547644
756.246981608
750.92471188
745.697832667
740.569935784
735.544138359
730.623111139
725.809107158
721.103990738
716.509266548
712.026108612
707.655388939
703.397705615
699.253409986
695.222632748
691.305308591
687.50119923
683.809914537
680.230931704
676.76361225
673.407216922
670.160918439
667.023812247
663.994925338
661.073223432
658.257616629
655.546963903
652.940076589
650.43572124
648.03262201
645.729462902
643.524890007
641.417514012
639.405913023
637.488635931
635.664206288
633.93112684
632.287884626
630.732956747
629.264816629
627.881940883
626.582816529
625.365948661
624.229868314
623.173140586
622.194372771
621.292222551
620.465406006
619.712705479
619.032977086
618.425157866
617.888272411
617.421438903
617.023874464
616.694899663
616.433941978
616.240541896
616.114628264
616.053842386
934.674506252
934.26266131
933.447006554
932.203057776
930.54226907
928.476792279
926.021193555
923.192155751
920.008112713
916.48887948
912.655301332
908.528926221
904.131705571
899.485726142
894.612974549
889.535135582
884.273424988
878.848457156
873.280146973
867.587644064
861.7892955
855.90263156
849.944367393
843.930413202
837.875886217
831.795119923
825.701668813
819.608309516
813.527040945
807.469086205
801.444899919
795.464178586
789.535874149
783.668215845
777.868733292
772.14428112
766.50106494
760.944667879
755.480077771
750.111714739
744.843459443
739.678681821
734.620270527
729.670662823
724.831875028
720.105533199
715.492904055
710.994925759
706.61223846
702.345214151
698.193985672
694.15847438
690.238416301
686.433386329
682.742820351
679.166034987
675.702244941
672.350577815
669.110086527
665.97975936
662.958527899
660.045273018
657.238829282
654.53798797
651.941499156
649.448073053
647.056381045
644.765056579
642.572696283
640.477861409
638.479079878
636.57484894
634.763638642
633.043896021
631.414050142
629.872517837
628.417710207
627.048039688
625.761927731
624.557812847
623.434159069
622.389464554
621.422270377
620.531169245
619.714814163
618.971926814
618.301305668
617.701833603
617.172485043
616.712332467
616.320552279
615.996429516
615.739362245
615.548868091
615.424853534
615.365084008
938.692876432
938.256015152
937.396305744
936.085787668
934.337429893
932.165069513
929.585200341
926.616598588
923.279879381
919.59705846
915.591144966
911.285768945
906.704847026
901.872287199
896.811733132
891.546348301
886.098640849
880.490329779
874.742252545
868.874312069
862.905458794
856.85370027
850.736128405
844.568953402
838.367534571
832.146401651
825.9192649
819.69901681
813.497730537
807.326660583
801.196250153
795.116144942
789.095207686
783.141547897
777.262548389
771.464894302
765.754602453
760.13705079
754.617007719
749.198661692
743.885651083
738.6810947
733.587622829
728.607408974
723.742202055
718.993359102
714.361878111
709.848430996
705.453396196
701.176890754
697.018801339
692.97881394
689.056441705
685.251050669
681.561882954
677.988077308
674.528686734
671.182693276
667.949019911
664.8265398
661.814083015
658.910441161
656.114370104
653.424591327
650.839792166
648.358625446
645.979708768
643.701623906
641.52291648
639.44209628
637.457638296
635.567984709
633.771547795
632.066713897
630.451848305
628.925301149
627.485414073
626.130527742
624.858989924
623.669164181
622.559438871
621.528236508
620.574023176
619.695318022
618.890702549
618.158829747
617.498432777
616.908333264
616.387448966
615.934800819
615.549519248
615.230849706
614.978157003
614.790931908
614.669055688
614.610427324
943.168596923
942.702624317
941.791835366
940.404242978
938.554698858
936.259127391
933.536384857
930.407782719
926.896546817
923.027296981
918.825576024
914.317428684
909.529030774
904.486366413
899.214951504
893.739603061
888.084255362
882.271825043
876.324126255
870.261835112
864.104498277
857.870576044
851.577505595
845.241768041
838.878944225
832.503749785
826.130048325
819.770848848
813.438297637
807.143674274
800.897397936
794.709043307
788.587359962
782.540310615
776.575102771
770.698222886
764.915469819
759.231987008
753.652294032
748.180317772
742.819423983
737.572449288
732.44173404
727.429155785
722.536163522
717.763812401
713.112798912
708.583496123
704.175988855
699.890108203
695.725465122
691.681482407
687.757424715
683.952426011
680.265514189
676.695632434
673.241657292
669.902413263
666.676684124
663.563221056
660.560747975
657.667964328
654.883545903
652.206143995
649.634383535
647.166860535
644.802139407
642.538750452
640.375187972
638.309909166
636.341334135
634.467847006
632.687798375
630.999508932
629.401274378
627.891371403
626.468064767
625.129615222
623.874288258
622.700363413
621.606144113
620.589967752
619.650216023
618.785325155
617.993796122
617.274204471
616.625209847
616.045564914
615.534123716
615.089849315
614.711820712
614.399238537
614.151430269
613.967857018
613.848370288
613.791012089
948.128956392
947.629088125
946.659065224
945.182255614
943.215869766
940.778435902
937.891717028
934.580099387
930.869929762
926.78889945
922.365503743
917.628571733
912.606860478
907.328706109
901.821726929
896.112576754
890.226750849
884.188448712
878.020498267
871.744342699
865.380085339
858.946579896
852.461545411
845.941680569
839.402753353
832.859651318
826.326392159
819.816107852
813.341020844
806.912431709
800.54071937
794.235361288
788.004964988
781.85731316
775.799404188
769.837492815
763.977127717
758.223186451
752.579908486
747.050927746
741.639305299
736.347562931
731.177717563
726.131316721
721.209474766
716.412909965
711.741982064
707.19673031
702.776911407
698.482037109
694.31141071
690.264161959
686.339279584
682.53564098
678.852038408
675.287201489
671.839815625
668.508536457
665.292000308
662.188831014
659.197643378
656.317043837
653.545628758
650.881981075
648.324665709
645.872224503
643.52317105
641.275986064
639.129113517
637.080958034
635.129883614
633.274213945
631.512234241
629.842194702
628.262315395
626.770792573
625.365806143
624.045528275
622.808132828
621.651805566
620.574754839
619.575222706
618.651496149
617.801918393
617.024899975
616.318929581
615.682584358
615.114539701
614.61357831
614.178598481
613.808621531
613.502798389
613.260414624
613.080897175
612.9640651
612.908112518
953.605616566
953.066184406
952.027340397
950.447106986
948.345686519
945.74488304
942.670055458
939.1493257
935.212766801
930.89167897
926.217979025
921.223686158
915.940487538
910.399368085
904.630294434
898.661950517
892.521529077
886.234588519
879.824985199
873.314887815
866.72487111
860.074073191
853.380386262
846.660640517
839.930741478
833.205735779
826.499807656
819.82623244
813.19732212
806.624395409
800.117771512
793.686797925
787.339901207
781.084642639
774.927771543
768.875273409
762.932411914
757.103765466
751.393260963
745.804206553
740.339325221
735.000789464
729.790257508
724.708910606
719.757491594
714.936344276
710.245453829
705.684487754
701.252837264
696.94965834
692.773911922
688.724402236
684.799812568
680.998737536
677.31971139
673.761231686
670.32177827
666.999827343
663.793860921
660.702371876
657.723865168
654.856855733
652.099863825
649.451408391
646.909999364
644.474129403
642.142265907
639.912843705
637.784259066
635.754865217
633.822969782
631.986834103
630.24467462
628.594666107
627.034946768
625.563624895
624.178787032
622.878507291
621.660857778
620.52391975
619.465795469
618.484620371
617.578575532
616.745900033
615.984903239
615.29397661
614.671605085
614.116377705
613.626997522
613.202290607
612.841214185
612.54286335
612.306477049
612.131444947
612.017548892
611.963143835
959.635388783
959.049579724
957.930479777
956.229987595
953.972152402
951.182944625
947.892198233
944.132581904
939.938607766
935.345794345
930.389995107
925.106855443
919.531364167
913.697471252
907.637755303
901.383137155
894.962648605
888.403273879
881.729884774
874.965285932
868.130373388
861.24438814
854.325220609
847.389701031
840.453806872
833.532742722
826.640898947
819.791742972
812.997707989
806.27013129
799.619246709
793.05422616
786.583261576
780.213640598
773.951815644
767.803461152
761.773518774
755.8662339
750.085187735
744.433329202
738.913008433
733.526012683
728.273604136
723.156559455
718.175210504
713.32948643
708.618956881
704.042876467
699.600229928
695.289777547
691.110099683
687.059639508
683.136742642
679.339692809
675.666742524
672.116138385
668.686140495
665.375036151
662.181147843
659.10283618
656.138498182
653.286561854
650.545477725
647.913708399
645.389716855
642.971954513
640.658849698
638.44879735
636.340150375
634.331213209
632.420237692
630.60542151
628.884909044
627.256794635
625.719127924
624.269921183
622.90715822
621.628804781
620.432820004
619.317168903
618.279835417
617.318836023
616.432233447
615.618150474
614.874783415
614.200415235
613.593427972
613.052314463
612.575689106
612.16229766
611.81102594
611.520907538
611.291129546
611.12103935
611.010378782
610.957671649
966.26123802
965.620724167
964.407517463
962.566535014
960.126861864
957.119831467
953.580883687
949.548225352
945.061635577
940.161524999
934.888231324
929.281479332
923.379944813
917.220876299
910.839749306
904.269949821
897.542503544
890.685882843
883.725930035
876.685932142
869.586863337
862.447777613
855.286288402
848.119028383
840.96196683
833.830497572
826.739313089
819.702174037
812.73169714
805.839244016
799.034920163
792.327652588
785.725324327
779.234881316
772.862422303
766.613264887
760.491991615
754.502481931
748.64793929
742.930919695
737.353364801
731.916638839
726.621568687
721.468485642
716.457268695
711.587389076
706.85795665
702.267768028
697.815356372
693.499041877
689.316981915
685.267219102
681.34772599
677.556444752
673.891321025
670.350330938
666.931501194
663.632921999
660.452753343
657.389225038
654.440631488
651.605321957
648.881687593
646.268146094
643.763125333
641.3650468
639.07231
636.883278462
634.796268188
632.809538842
630.921288105
629.129649107
627.432691008
625.828422336
624.314796955
622.889722168
621.551068778
620.29668264
619.124397585
618.032049257
617.017489803
616.07860295
615.213319411
614.41963213
613.695611362
613.039419088
612.449322821
611.923708382
611.461091716
611.060129518
610.719628742
610.438554429
610.21603647
610.051376508
609.9442712
609.893420698
973.533601956
972.828016466
971.503622934
969.497457873
966.845331867
963.585578584
959.760702081
955.415647584
950.596397331
945.348967769
939.718731363
933.74993751
927.485333025
920.965812333
914.230062012
907.31419824
900.251426641
893.071778142
885.801988771
878.465590688
871.083258392
863.673402917
856.252927183
848.837967435
841.444394881
834.087898221
826.783677813
819.545983028
812.387725428
805.320294986
798.353587378
791.49617607
784.755526811
778.138155203
771.649739687
765.295194068
759.078708001
753.003766843
747.073167031
741.289038863
735.652878698
730.165588162
724.827517088
719.638508348
714.597943381
709.704789253
704.957647906
700.354808446
695.894302137
691.573959378
687.391466697
683.344421871
679.430384807
675.646922547
671.991646783
668.462243185
665.056491964
661.772279914
658.607604228
655.560569038
652.629375546
649.812307127
647.107710548
644.513974852
642.029509081
639.65272031
637.381992994
635.215670785
633.152041456
631.189325603
629.325669247
627.559140502
625.887729934
624.309354431
622.821863953
621.423050905
620.110661487
618.882408881
617.735987704
616.669089685
615.679420037
614.764714483
613.92275639
613.151393945
612.448556839
611.812272408
611.240680777
610.73204901
610.284783956
609.897443798
609.568748173
609.297587077
609.0830273
608.924319206
608.821111228
608.772286507
981.512160533
980.728320594
979.271253509
977.069236506
974.167288626
970.613013642
966.457858211
961.754926416
956.557413128
950.917639278
944.88651106
938.513197635
931.844875937
924.926444203
917.800158311
910.505195116
903.077191306
895.547843748
887.944683551
880.291145407
872.607030524
864.909389982
857.21372261
849.535202693
841.889516832
834.292911262
826.761510458
819.310413633
811.953008603
804.70069152
797.562993682
790.547949616
783.662448563
776.912461842
770.30317372
763.839051243
757.523868431
751.360698711
745.351908387
739.499170181
733.803496837
728.265284812
722.884362508
717.660038686
712.591150195
707.676110476
702.912961443
698.2994298
693.832988429
689.51092127
685.330389455
681.288495318
677.382341521
673.60908254
669.965966971
666.45036935
663.059811339
659.791972251
656.644689811
653.615951997
650.703881526
647.906714286
645.222773602
642.65044178
640.188130849
637.834253834
635.587198244
633.445302747
631.406838204
629.469993457
627.632866321
625.893459514
624.249681309
622.699350194
621.240203024
619.869905914
618.586067438
617.38625358
616.268004225
615.228850738
614.266334536
613.37802613
612.561544532
611.814576413
611.134894908
610.520377485
609.969022846
609.478966393
609.048494328
608.67605613
608.360275546
608.099959564
607.894105892
607.741909793
607.642965884
607.596346317
990.268262418
989.389009835
987.771601539
985.334872902
982.136817627
978.237498936
973.699691348
968.586266936
962.958625116
956.875970878
950.395099643
943.570379835
936.453718919
929.094385728
921.538635121
913.829149849
906.004375212
898.097875664
890.137889255
882.147287506
874.144140871
866.143005154
858.156835389
850.199084523
842.285198142
834.432569001
826.659060301
818.981269428
811.413327269
803.966538617
796.649759242
789.470156197
782.433813316
775.546021057
768.811395863
762.233930658
755.81698512
749.563223628
743.47456838
737.552202888
731.796613792
726.207645314
720.784556195
715.526073302
710.430439839
705.495463655
700.718570131
696.096862613
691.627191104
687.306227741
683.130544758
679.096690576
675.20125938
671.440951118
667.812619433
664.313306603
660.940264966
657.690965473
654.563094152
651.55453814
648.663362782
645.887781989
643.226123642
640.676792368
638.238231508
635.908886419
633.687170697
631.57143697
629.559953257
627.650885758
625.842288146
624.132097277
622.518134521
620.998112003
619.569642612
618.23025312
616.977399497
615.808484175
614.720874663
613.71192355
612.778989343
611.919458119
611.130765303
610.410417423
609.756013109
609.165263216
608.636009459
608.166241566
607.754112577
607.397952335
607.096279085
606.84780951
606.651465743
606.506381942
606.412095641
606.367873114
999.888334987
998.890752856
997.076426455
994.3545972
990.802203963
986.496267443
981.51381345
975.929143771
969.812647672
963.230693807
956.246035315
948.918308897
941.30434971
933.458176428
925.430590127
917.268420593
909.013529471
900.701751483
892.362031278
884.016091356
875.679011159
867.36103547
859.070642623
850.818243747
842.619073185
834.492937456
826.461008341
818.542513712
810.752698261
803.10245563
795.599319348
788.249020298
781.056528008
774.02631335
767.162370095
760.468223162
753.946868186
747.60060013
741.430895314
735.438410749
729.623055271
723.984065235
718.520076759
713.22918562
708.108992327
703.156645542
698.368893662
693.742148201
689.272561784
684.956117602
680.788723963
676.766306369
672.884891142
669.140675891
665.530084546
662.049805495
658.696813098
655.468373067
652.362033464
649.37560296
646.507118886
643.754807229
641.117037359
638.592273762
636.179027538
633.875809772
631.681089214
629.593255874
627.610592183
625.73125238
623.953250489
622.274456273
620.69259823
619.205272187
617.80995417
616.504016275
615.284744773
614.149359831
613.095036749
612.118928407
611.218188951
610.389998172
609.631586369
608.940258849
608.313419809
607.748594757
607.24345141
606.795818438
606.403702211
606.065301251
605.779018656
605.543472041
605.357501503
605.220176056
605.130970227
605.089348885
1010.47879038
1009.33146616
1007.27038136
1004.19631882
1000.21512687
995.427058755
989.926663417
983.801038532
977.129788115
969.986136051
962.438366412
954.551116162
946.386189126
938.002759484
929.45691308
920.800589273
912.080071344
903.33425589
894.593046598
885.876375763
877.19452913
868.550516612
859.944949084
851.382724757
842.879090824
834.458979712
826.149875021
817.975580249
809.952858438
802.091344459
794.395920541
786.869896876
779.516784582
772.340166205
765.343406262
758.529625841
751.901600697
745.461361457
739.209945821
733.147425525
727.273059189
721.585405323
716.08241786
710.76151436
705.61960712
700.653133272
695.858100234
691.230150434
686.764650834
682.45680281
678.30175983
674.29474196
670.431137595
666.706587378
663.117047242
659.658830145
656.328626642
653.123505944
650.040899286
647.078568468
644.23456217
641.507163353
638.894830521
636.396136183
634.00970528
631.734156697
629.568050365
627.509842449
625.557850297
623.710228385
621.964955291
620.319831013
618.772482809
617.320377628
615.96083886
614.691065978
613.508155777
612.409125034
611.39093429
610.450513198
609.584787098
608.790704871
608.065267129