/*--------------------------------*- C++ -*----------------------------------*\
| =========                 |                                                 |
| \\      /  F ield         | OpenFOAM: The Open Source CFD Toolbox           |
|  \\    /   O peration     | Version:  v1906                                 |
|   \\  /    A nd           | Web:      www.OpenFOAM.com                      |
|    \\/     M anipulation  |                                                 |
\*---------------------------------------------------------------------------*/
FoamFile
{
    version     2.0;
    format      ascii;
    class       surfaceScalarField;
    location    "413";
    object      phia;
}
// * * * * * * * * * * * * * * * * * * * * * * * * * * * * * * * * * * * * * //

dimensions      [0 3 -1 0 0 0 0];
oriented        oriented;


internalField   nonuniform List<scalar> 
18240
(
0.00134880932368
-0.00134855284255
0.00282547965897
-0.00147636529516
0.00430106780511
-0.00147532572033
0.00575794356236
-0.00145656136739
0.00718799867296
-0.00142980319306
0.00858458821645
-0.00139626691309
0.00994153206489
-0.00135670302995
0.0112535106471
-0.00131164812452
0.0125154849825
-0.00126174517913
0.0137233469798
-0.00120752435778
0.0148732271599
-0.00114966360036
0.0159622631326
-0.00108869193695
0.0169877595957
-0.00102529313398
0.0179480662186
-0.000959957128502
0.0188415914713
-0.00089333615269
0.0196677938323
-0.000825848474323
0.0204260564161
-0.000758088351412
0.0211167963841
-0.000690382900569
0.0217402095755
-0.000623254778798
0.0222975014758
-0.000556932944742
0.0227895100587
-0.00049186649251
0.0232180590892
-0.000428189562015
0.0235844675449
-0.000366283498487
0.0238910230599
-0.000306196911333
0.0241393841536
-0.000248253539425
0.024332168917
-0.000192428417386
0.0244712566538
-0.000138998177501
0.0245594849949
-8.78755804573e-05
0.0245988563898
-3.92998295966e-05
0.0245923363111
6.86795894151e-06
0.0245419733083
5.04162145266e-05
0.0244507847912
9.15303153101e-05
0.0243207870891
0.000130032810382
0.0241549764016
0.000166145215752
0.0239552949363
0.000199698309091
0.0237246786785
0.000230942429443
0.0234649523543
0.000259725362073
0.0231789464249
0.000286322684118
0.0228683349818
0.000310592683524
0.0225358112114
0.000332830127509
0.0221828753629
0.000352899909201
0.0218120595985
0.000371110740253
0.0214246753479
0.000387331265573
0.0210230783159
0.000401879695432
0.0206083834251
0.00041462559624
0.0201827606633
0.000425892154424
0.0197471276036
0.000435547701055
0.0193034663429
0.000443916463067
0.0188525024527
0.000450863316467
0.018396033004
0.000456709508427
0.0179346026024
0.000461314989341
0.0174698318928
0.000464994721151
0.0170021002149
0.000467602410262
0.0165328636542
0.000469443603802
0.0160623556202
0.000470365459066
0.0155918828917
0.00047066195848
0.0151215543313
0.000470173827761
0.0146525431635
0.000469181761852
0.0141848557129
0.000467521319136
0.0137195477214
0.00046545924265
0.0132565439055
0.000462827618036
0.012796796211
0.000459878960433
0.0123401664282
0.000456444496607
0.0118875141897
0.000452763028709
0.0114386536732
0.000448667630277
0.0109943596381
0.000444383960609
0.0105544102553
0.000439750052944
0.0101194997934
0.000434979313091
0.00968937814227
0.000429917456928
0.00926465965908
0.000424766190858
0.00884507036151
0.000419381522625
0.00843114315124
0.000413953930627
0.00802258185384
0.000408351589516
0.00761983427917
0.000402753681425
0.00722258207737
0.000397042017828
0.00683118408101
0.000391384174298
0.00644529895853
0.000385676280602
0.00606519268365
0.000380073509672
0.00569050036104
0.000374486575965
0.00532139270661
0.000369057263873
0.00495748157364
0.000363710524015
0.00459884163214
0.000358573445142
0.00424506349865
0.000353584520195
0.00389612776095
0.000348854577824
0.00355160840049
0.000344334191233
0.0032113980134
0.00034011534328
0.00287506465642
0.000336156931101
0.00254243121756
0.000332524588533
0.00221309395834
0.000329169525239
0.0018868802198
0.000326093392107
0.00156358191588
0.00032314255247
0.00124344882412
0.000320006533759
0.000927566905374
0.000315747103545
0.000620279521147
0.000307163753581
0.000337501586495
0.000282623390597
0.000337414466292
0.00149117148251
-0.00283944380447
0.00315574436833
-0.00314063025695
0.00481120599893
-0.00313049065659
0.00644287294741
-0.00308791785005
0.00804328267814
-0.00302991974737
0.00960553322558
-0.0029582059556
0.0111229832281
-0.00287386387048
0.0125896326843
-0.0027779854993
0.0139999745712
-0.00267180262736
0.0153493003921
-0.00255653823399
0.0166334350773
-0.00243351930445
0.0178490534928
-0.00230399937858
0.0189933325785
-0.00216929964776
0.0200642940612
-0.00203060956257
0.0210603836956
-0.00188916049772
0.0219808483403
-0.00174600702905
0.0228252510907
-0.00160223416577
0.0235938901017
-0.00145871990723
0.0242872582076
-0.00131637523635
0.0249065093986
-0.00117588736748
0.0254528705017
-0.0010379903156
0.025928158994
-0.00090318769897
0.0263341525115
-0.000772050971951
0.0266731588303
-0.000644920415219
0.0269473469408
-0.000522227805199
0.0271593675513
-0.000404174846049
0.0273116479523
-0.00029107763014
0.0274070596265
-0.000183022696774
0.0274481784029
-8.02313199545e-05
0.0274379947851
1.73055835592e-05
0.0273791389965
0.000109445141729
0.0272746352936
0.000196276664813
0.0271271070447
0.000277719478227
0.0269395559855
0.000353926794604
0.0267145269985
0.000424870702242
0.0264549292958
0.00049075788271
0.026163182632
0.0005516000369
0.0258420642997
0.00060764540173
0.0254938333282
0.000658936140689
0.0251211020128
0.000705751951632
0.0247259418473
0.000748156786242
0.0243107760191
0.000786452707502
0.0238774705102
0.000820717685298
0.0234282437125
0.000851267828323
0.0229647461256
0.000878188135137
0.0224889832869
0.000901801089252
0.022002387776
0.000922192250881
0.0215067514224
0.000939683287375
0.021003293311
0.000954354476175
0.0204935971621
0.000966520116235
0.0199786792843
0.000976250047762
0.0194599266784
0.000983845446535
0.0189381688029
0.000989361628221
0.0184146118125
0.000993082067516
0.0178899182494
0.000995044763655
0.0173651324825
0.000995512330796
0.016840772345
0.000994504293632
0.0163177407677
0.000992260909431
0.0157964336803
0.000988783724235
0.0152776326333
0.000984290773696
0.0147616332016
0.000978767752479
0.0142491135026
0.000972412091796
0.0137402876618
0.000965197028015
0.0132357451483
0.000957302092422
0.0127356337415
0.000948692337475
0.0122404649142
0.000939532728379
0.0117503309735
0.000929784704917
0.0112656719312
0.000919602098737
0.0107865312136
0.000908947132373
0.010313279913
0.00089796556894
0.00984591549014
0.00088662414371
0.00938473964592
0.000875062883542
0.00892970393048
0.000863255823644
0.00848103800385
0.000851338624762
0.00803864585816
0.000839294277742
0.00760268164621
0.00082725443175
0.00717299952447
0.000815211574474
0.00674967476257
0.00080329272613
0.00633250986575
0.000791499395118
0.00592149907784
0.000779952564335
0.00551639270847
0.000768661454001
0.00511710360203
0.000757738934522
0.00472333127835
0.000747199916722
0.00433490930831
0.000737146454203
0.0039514902929
0.000727596193394
0.00357283359293
0.000718636326632
0.00319855187851
0.000710281810343
0.00282833869373
0.000702596499622
0.00246177346701
0.000695578184653
0.0020984789145
0.00068924238137
0.00173794540388
0.000683525863401
0.00137948445872
0.000678325705541
0.00102166141717
0.000673426037969
0.000660186591935
0.000668501155426
0.000281853599849
0.000660822824764
0.000619200444838
0.00151750799119
-0.00435666796055
0.00320337744395
-0.00482619487515
0.00488260784782
-0.00480941808868
0.00653791761089
-0.00474292165607
0.00816112788427
-0.00465282865251
0.00974498244927
-0.00454175535153
0.0112826987667
-0.00441128098168
0.0127681145951
-0.00426309742902
0.0141956763206
-0.00409906785989
0.0155605685026
-0.00392112850167
0.0168586378744
-0.00373129573338
0.0180865006167
-0.00353156303601
0.019241416501
-0.00332392697476
0.0203213860902
-0.00311028385587
0.0213249856486
-0.00289247692762
0.0222514637634
-0.00267219466605
0.0231005463351
-0.00245104001597
0.0238725412211
-0.00223043024276
0.0245681221043
-0.00201168696268
0.0251884483318
-0.00179593608486
0.0257349345978
-0.0015842159936
0.0262093909436
-0.00137737470155
0.0266137831501
-0.00117619229061
0.026950394963
-0.000981272106351
0.0272215811095
-0.000793173658366
0.0274299512448
-0.000612295093089
0.0275781159181
-0.000439013590858
0.0276688901197
-0.000273558132084
0.0277050314162
-0.000116156183563
0.0276894608172
3.31030005927e-05
0.0276249933301
0.00017411599015
0.027514573926
0.000306910246453
0.0273610013005
0.000431481887894
0.0271671777556
0.000547951222973
0.026935825088
0.000656398971818
0.0266697472515
0.000757022807772
0.0263715403633
0.00084996804029
0.0260438668658
0.000935491723709
0.025689160416
0.00101378877073
0.0253099096819
0.00108516087868
0.0249083587397
0.00114983879435
0.0244867991568
0.00120815548525
0.0240472671159
0.00126036532339
0.0235918423312
0.00130682052205
0.0231223427146
0.00134778777593
0.022640628823
0.00138362729702
0.0221482974674
0.00141460776492
0.0216469902183
0.00144108702555
0.0211380868833
0.00146332605701
0.0206230166572
0.00148167075095
0.0201029528899
0.00149636592408
0.0195791251864
0.00150773731096
0.0190525163367
0.00151600648274
0.0185241736721
0.00152147247972
0.0179949094828
0.00152432874136
0.0174656096432
0.0015248434536
0.0169369383199
0.00152317935285
0.0164096419479
0.00151957208291
0.0158842595311
0.00151415388627
0.0153614198727
0.00150712887995
0.0148415583573
0.00149860137392
0.0143252055564
0.00148874717678
0.0138127119416
0.00147764739554
0.0133045259514
0.00146545455458
0.0128009277611
0.00145223249458
0.0123022952354
0.00143811633956
0.0118088484094
0.00142315923651
0.0113209018033
0.00140748499178
0.0108386209446
0.00139114221987
0.0103622598901
0.00137424878497
0.00989193150872
0.0013568540526
0.00942782911613
0.00133907416775
0.00897001183949
0.00132096297163
0.00851860959914
0.00130263748568
0.00807362507401
0.00128415814584
0.00763512128793
0.00126564382081
0.00720304123271
0.00124716189373
0.0067773775752
0.00122883244345
0.00635801104174
0.00121072872966
0.00594486173908
0.0011929701333
0.0055377469524
0.00117563346938
0.00513651375271
0.00115883448418
0.00474091681494
0.00114265036459
0.0043507319185
0.00112718949756
0.003965653942
0.00111252535108
0.00358539085627
0.00109875420074
0.00320958154551
0.00108594028024
0.00283786841092
0.00107416092574
0.00246983116181
0.00106346299105
0.00210502782858
0.00105389590076
0.00174291924681
0.00104548343629
0.00138283402119
0.00103826655507
0.00102379449962
0.00103232697345
0.000664385907184
0.00102776589457
0.000304736543935
0.00102033042923
0.00092387109521
0.00154086063196
-0.00589724398597
0.00324976919492
-0.00653479906658
0.00495216580506
-0.00651151012209
0.0066299590673
-0.00642040988453
0.00827450884952
-0.00629707494651
0.00987822439237
-0.00614516705537
0.0114341110917
-0.00596686579258
0.0129358362927
-0.00576452041879
0.0143777587746
-0.00554069066738
0.0157549922925
-0.00529806212985
0.017063390677
-0.00503939740843
0.0182995788065
-0.00476745444368
0.0194608989551
-0.00448495432914
0.0205454190204
-0.00419451133361
0.0215518505478
-0.00389862054585
0.0224795446044
-0.00359960131649
0.0233283917361
-0.00329960524957
0.02409881516
-0.0030005725598
0.0247916618179
-0.00270425881251
0.0254082010412
-0.00241220163026
0.0259500140961
-0.00212576249862
0.0264190040446
-0.00184609952602
0.0268172882225
-0.00157421921469
0.0271472216742
-0.00131095004817
0.0274112938069
-0.00105699889829
0.0276121647512
-0.000812921136345
0.027752564959
-0.000579178142615
0.0278353421881
-0.000356101950642
0.0278633622914
-0.000143952737014
0.0278395647566
5.71216569667e-05
0.0277668637687
0.000247027751455
0.027648210147
0.000425772024323
0.0274864930965
0.00059339624826
0.0272846087565
0.0007500301392
0.0270453616924
0.000895829415569
0.0267715400444
0.00103102497883
0.0264658163733
0.00115586068225
0.0261308285224
0.00127064562734
0.0257690806647
0.00137569088241
0.0253830288591
0.00147136392437
0.0249749823008
0.00155802452694
0.0245471929308
0.00163608096556
0.024101756997
0.00170592512897
0.0236407081195
0.00176799011187
0.0231659194457
0.00182268472148
0.0226791997154
0.00187045207958
0.0221821962967
0.0019117036812
0.0216764937284
0.00194687876459
0.0211635179764
0.00197637828559
0.0206446369447
0.00200062485869
0.020121066189
0.00201999701408
0.0195939707001
0.00203488962181
0.0190643722548
0.0020456489511
0.0185332517127
0.00205263346119
0.0180014580476
0.002056150094
0.0174698102002
0.00205651531254
0.0169390077874
0.00205399308662
0.0164097315532
0.00204885592087
0.0158825557146
0.00204132481677
0.0153580459785
0.00203162994781
0.014836673549
0.00201995283848
0.0143189098208
0.00200648619507
0.0138051421736
0.00199137837358
0.0132957645202
0.00197479182046
0.012791095162
0.00195684989271
0.0122914626072
0.00193769329935
0.0117971259235
0.0019174292559
0.0113083553635
0.00189618535624
0.0108253557742
0.0018740611051
0.0103483417947
0.00185117869108
0.009877464996
0.00182763694573
0.00941288349541
0.00180355859964
0.00895469351408
0.00177904681275
0.00850299339717
0.00175422859255
0.00805782028419
0.00172921407716
0.00761920852501
0.00170413591581
0.00718713205204
0.00167911155576
0.00676155723359
0.00165427847503
0.00634239146405
0.00162975973634
0.00592953043706
0.00160569503719
0.00552281328249
0.00158220979332
0.00512206422353
0.001559442011
0.00472705445954
0.00153751512485
0.00433753805367
0.00151656069823
0.00395322045079
0.00149669517291
0.00357378822596
0.00147803840653
0.00319888366669
0.00146069452905
0.00282812714616
0.00144476667568
0.00246109495747
0.00143034259628
0.00209732972648
0.00141750874522
0.00173631768303
0.00140634737755
0.00137748049624
0.0013969588245
0.0010201782073
0.00138948217163
0.000663970013153
0.00138383299348
0.000310790221802
0.00137337070802
0.00123459060611
0.00157083933567
-0.00746779827118
0.00331162903182
-0.00827528443999
0.00504531402434
-0.00824488985289
0.00675316895827
-0.00812795969252
0.00842611247162
-0.00796971413291
0.010056179561
-0.00777493018237
0.0116360911037
-0.00754647444246
0.0131593002885
-0.00728742723064
0.0146200340282
-0.00700112347794
0.0160133318069
-0.00669105980848
0.0173350452806
-0.0063608127149
0.0185818393878
-0.00601395159177
0.019751155382
-0.00565397582087
0.0208411843016
-0.00528424742367
0.0218508049008
-0.0049079513664
0.022779540993
-0.00452804979659
0.0236274855592
-0.00414726585148
0.0243952526931
-0.00376805844409
0.0250838981015
-0.00339262725608
0.0256948748426
-0.00302290465061
0.0262299582721
-0.00266057708933
0.026691211994
-0.00230708819694
0.0270809219176
-0.00196366957056
0.0274015747867
-0.00163134761896
0.0276558016918
-0.00131097651467
0.0278463676542
-0.00100324254759
0.0279761220431
-0.000708694497498
0.0280479959287
-0.000427742919184
0.0280649563488
-0.000160687175045
0.0280300089056
9.22895983951e-05
0.0279461544361
0.000331095386402
0.0278163947679
0.000555739094227
0.0276436934799
0.000766297279939
0.0274309850241
0.000962932306973
0.0271811363672
0.00114586384098
0.0268969618274
0.0013153790815
0.0265811860016
0.00147180792102
0.0262364622739
0.00161553437947
0.0258653376645
0.00174697215497
0.0254702744059
0.0018665773362
0.0250536163364
0.00197482424001
0.0246176131132
0.00207221917348
0.0241643881001
0.00215927644998
0.0236959649201
0.00223653283973
0.0232142367846
0.00230452361435
0.0227209952157
0.00236379750653
0.0222179009908
0.00241489283711
0.0217065148552
0.00245835283736
0.0211882700886
0.00249470197814
0.0206645050049
0.00252446174459
0.0201364372181
0.00254812749289
0.019605197564
0.00256618476672
0.0190718058543
0.00257908700397
0.0185372057421
0.0025872726174
0.0180022417551
0.00259114394205
0.0174676944484
0.00259108515224
0.016934258251
0.00258744267523
0.0164025762101
0.00258054399635
0.0158732182949
0.00257067968861
0.0153467150002
0.0025581228996
0.0148235356509
0.00254311291896
0.0143041202686
0.00252587508416
0.0137888576848
0.00250660572803
0.0132781151823
0.00248549203704
0.0127722162604
0.00246269807311
0.0122714678022
0.00243838415473
0.0117761376519
0.00241269367295
0.0112864792068
0.00238577149503
0.0108027090123
0.00235775127728
0.0103250288932
0.00232877254234
0.00985360401486
0.00229896831293
0.00938858274398
0.00226848054859
0.00893007558158
0.00223744798858
0.00847817305649
0.00220601983162
0.00803292604076
0.00217434381759
0.00759436194372
0.00214257809224
0.00716246677899
0.00211087962229
0.00673719993391
0.00207941434409
0.00631847835136
0.00204834609658
0.00590619002837
0.00201784516359
0.00550018048412
0.00198807792465
0.00510026507641
0.00195921397002
0.00470621783699
0.0019314166869
0.00431778252054
0.00190484908576
0.00393466362875
0.00187966553331
0.0035565359779
0.0018560165142
0.00318303760628
0.00183404185074
0.00281377704689
0.00181387487393
0.00244832811607
0.00179563856869
0.00208623403943
0.00177945063021
0.00172700349542
0.00176542542638
0.00137012702011
0.00175368906992
0.00101510833759
0.0017443620086
0.000661668188508
0.00173712563296
0.000311638593382
0.00172325379749
0.00154616212035
0.00160874652077
-0.00907625940033
0.00339074935088
-0.0100569825997
0.00516469409077
-0.0100185288447
0.00691108112943
-0.0098740412439
0.00862030636139
-0.00967863438932
0.0102839588097
-0.00943827821774
0.0118944056958
-0.00915661758269
0.0134448386724
-0.0088375572502
0.0149293196542
-0.00848530248649
0.016342807586
-0.0081042469091
0.0176811570803
-0.00769886278352
0.0189411020744
-0.00727359875315
0.0201202164876
-0.00683279432643
0.0212168676272
-0.00638060474691
0.0222301522826
-0.00592094469509
0.0231598330733
-0.00545744190853
0.0240062626289
-0.00499340984081
0.0247703149126
-0.00453182837482
0.0254533088301
-0.00407534255209
0.0260569450241
-0.00362626601895
0.0265832381829
-0.00318659978327
0.0270344667091
-0.00275805060093
0.0274131187298
-0.00234206040801
0.027721856825
-0.00193982940133
0.0279634771688
-0.00155234603631
0.0281408862747
-0.00118040616353
0.0282570687031
-0.000824637397612
0.0283150707343
-0.000485511175806
0.0283179721723
-0.000163361229925
0.0282688735961
0.00014160944293
0.0281708704886
0.000429313021734
0.0280270419687
0.000699775703578
0.0278404303151
0.000953109946742
0.0276140317354
0.00118952521051
0.0273507765852
0.00140930600994
0.0270535262206
0.00161280956333
0.0267250551037
0.00180045163811
0.0263680507544
0.00197270426516
0.0259850981965
0.00213008257243
0.0255786824241
0.00227314374624
0.0251511747656
0.0024024746952
0.0247048374783
0.00251869191027
0.0242418117997
0.00262242960779
0.0237641244966
0.00271434014092
0.0232736776078
0.00279508238525
0.0227722569332
0.00286532247197
0.0222615235154
0.00292572231129
0.0217430240665
0.0029769406307
0.0212181842562
0.00301962176453
0.020688321025
0.00305439714528
0.0201546376007
0.00308187461785
0.0196182374739
0.00310264069222
0.0190801209256
0.00311725078059
0.0185412002664
0.00312623254632
0.0180022974377
0.00313007741832
0.0174641599195
0.00312924532127
0.0169274588542
0.00312415773962
0.0163928049452
0.00311520392564
0.0158607464795
0.00310273556217
0.0153317845166
0.00308707434828
0.0148063702661
0.00306850812537
0.0142849189891
0.00304729952058
0.0137678063157
0.00302368319419
0.0132553804424
0.00299787508322
0.0127479571958
0.00297007034424
0.0122458303465
0.00294045265763
0.0117492654386
0.00290919238866
0.0112585082383
0.00287645543839
0.0107737775608
0.00284240121928
0.0102952720708
0.00280719061591
0.00982316248513
0.00277098346577
0.00935759704636
0.00273394533403
0.00889869356789
0.00269624435268
0.00844654397066
0.00265805666041
0.0080012066492
0.00261956259284
0.00756271043672
0.00258095078841
0.00713104771457
0.00254241386444
0.00670617812303
0.00250415130229
0.00628802274329
0.00246636483042
0.00587646775903
0.00242926028152
0.00547135989791
0.00239304295008
0.00507251013851
0.00235791865253
0.00467969044728
0.00232408933014
0.0042926374976
0.00229175355556
0.00391105056622
0.00226110265451
0.00353459515972
0.00223232094032
0.00316290196433
0.00220558274318
0.0027955705256
0.00218105296616
0.00243216922063
0.00215888537827
0.00207223985177
0.00213922532985
0.00171530473318
0.00212221132414
0.00136087402121
0.00210797322353
0.00100847627354
0.00209660986095
0.000657817063015
0.00208764205951
0.000310497969644
0.00207043138405
0.00185658800949
0.00165541213233
-0.0107313857648
0.00348841481819
-0.011889680226
0.00531212375535
-0.0118419316638
0.00710603742217
-0.0116676489296
0.00885989669556
-0.0114321881699
0.0105647464689
-0.0111428229047
0.0122125246027
-0.0108040912731
0.0137961127068
-0.0104208415042
0.0153093813957
-0.00999826827896
0.0167472085407
-0.00954177210553
0.0181054684978
-0.00905682218548
0.0193810012535
-0.00854883236714
0.0205715607491
-0.00802305658261
0.021675751895
-0.00748450062202
0.0226929543817
-0.00693785438707
0.0236232426823
-0.00638743999004
0.0244672994712
-0.00583717948451
0.025226331945
-0.00529057692139
0.0259019877095
-0.00475071808073
0.0264962795717
-0.00422028149911
0.0270115148629
-0.00370156297625
0.0274502375709
-0.00319650568371
0.0278151769393
-0.00270673700523
0.0281092089483
-0.00223360367851
0.0283353221863
-0.00177820690587
0.0284965932806
-0.00134143044517
0.0285961625788
-0.000923965708458
0.028637215686
-0.000526329287049
0.0286229622896
-0.000148879054545
0.028556619364
0.000208174762606
0.0284413915503
0.000544756664464
0.0282804545051
0.000860921866991
0.0280769401553
0.00115682655091
0.0278339222531
0.00143273838884
0.0275544026336
0.00168901381348
0.027241302607
0.00192609059959
0.0268974516645
0.00214447632074
0.0265255818553
0.00234474046515
0.0261283189685
0.00252750441537
0.02570817915
0.00269343502858
0.0252675619556
0.00284323578345
0.0248087487884
0.00297764133582
0.0243338976248
0.00309740932048
0.0238450431819
0.00320331536969
0.02334409334
0.00329614518277
0.0228328311237
0.00337668974139
0.0223129129911
0.00344573753632
0.0217858727428
0.00350406994134
0.0212531217811
0.00355245371614
0.0207159549784
0.00359163677224
0.020175552914
0.00362234132116
0.0196329895377
0.00364526042868
0.0190892361213
0.00366105228946
0.0185451703141
0.00367033806446
0.0180015813356
0.00367369777482
0.0174591797904
0.00367166980478
0.016918603398
0.00366474872253
0.0163804268119
0.00365338663884
0.0158451671537
0.00363799302396
0.0153132930747
0.00361893781028
0.0147852293838
0.00359655296748
0.0142613647283
0.00357113700295
0.0137420548204
0.00354295784316
0.0132276283236
0.00351225817164
0.0127183883897
0.00347925900582
0.0122146166099
0.0034441652535
0.011716572875
0.00340716936016
0.011224497495
0.00336845646579
0.0107386095966
0.00332820755235
0.0102591077335
0.00328660372245
0.00978616724061
0.00324382843501
0.00931993978241
0.00320007058054
0.00886055014056
0.00315552556621
0.00840809521669
0.0031103970827
0.00796264075918
0.0030648969975
0.00752422030286
0.00301924587662
0.00709283224744
0.00297367180112
0.00666843914369
0.00292840986789
0.00625096544283
0.00288370016963
0.00584029739696
0.00283978657055
0.00543628163585
0.00279691414892
0.00503872581059
0.0027553275857
0.00464739801976
0.00271526839188
0.00426202818523
0.00267697322345
0.00388230821177
0.00264067121162
0.00350789410117
0.00260658253906
0.00313840693345
0.00257491621262
0.00277343565173
0.00254586918502
0.00241254032938
0.00251962545047
0.00205525617156
0.00249635527307
0.00170109785702
0.00247621460982
0.00134957534808
0.00245934742649
0.00100020633697
0.00244583924714
0.000652624246947
0.00243507425605
0.00030827957942
0.00241462718678
0.00216480016263
0.00171165194998
-0.012442751717
0.00360617300225
-0.0137838961977
0.00548984783476
-0.0137252999746
0.00734091465296
-0.0135184094573
0.00914830033603
-0.0132392677821
0.0109023883598
-0.0128966053029
0.0125946053754
-0.0124960030102
0.0142174743083
-0.0120434057934
0.0157646562262
-0.0115451461865
0.0172309564509
-0.0110077693234
0.0186123000344
-0.0104378638301
0.0199056823375
-0.00984191422459
0.0211091006179
-0.00922617603415
0.0222214713858
-0.00859657461884
0.0232425377184
-0.00795862618414
0.0241727704687
-0.00731738088209
0.0250132666115
-0.00667738667218
0.0257656488607
-0.00604267352873
0.0264319694691
-0.00541675662198
0.0270146226191
-0.00480265653043
0.0275162672065
-0.00420293367965
0.0279397632794
-0.00361973242098
0.028288121117
-0.00305483035297
0.028564463651
-0.00250968682887
0.0287719979135
-0.0019854871895
0.0289139944118
-0.00148317856175
0.028993768954
-0.00100349775336
0.0290146668197
-0.000546990680214
0.0289800452625
-0.000114027323242
0.0288932565078
0.000295187292916
0.0287576298168
0.000680600484601
0.0285764559491
0.00104230614182
0.028352967873
0.00138051807783
0.028090330698
0.00169557205113
0.0277916273468
0.00198790648491
0.0274598494513
0.00225805066016
0.0270978881601
0.00250661243024
0.0267085279288
0.00273426820373
0.0262944397095
0.00294175264749
0.0258581767363
0.00312985056007
0.0254021693677
0.00329938807264
0.0249287224155
0.00345122562628
0.024440011442
0.00358624986228
0.0239380816474
0.00370536701944
0.0234248457753
0.00380949499738
0.0229020847905
0.00389955683035
0.0223714476386
0.00397647273993
0.021834453975
0.00404115368684
0.0212924960071
0.00409449356439
0.0207468434324
0.00413736313599
0.0201986473997
0.00417060280324
0.0196489475692
0.00419501750118
0.019098677952
0.00421137067855
0.0185486756802
0.00422038081152
0.0179996881469
0.0042227172162
0.0174523827722
0.00421899872988
0.0169073546379
0.00420979177692
0.0163651363632
0.00419561146429
0.0158262053303
0.00417692197263
0.0152909927773
0.0041541399489
0.0147598898044
0.0041276369437
0.0142332549498
0.00409774463617
0.01371141838
0.00406475873636
0.0131946874769
0.00402894534326
0.012683348924
0.00399054556973
0.0121776721504
0.00394978222806
0.0116779093395
0.00390686439619
0.0111842968713
0.00386199366701
0.0106970535662
0.00381536797982
0.0102163805097
0.00376718681451
0.00974245804
0.00371765379813
0.0092754444802
0.00366698044796
0.00881547248792
0.00361538730789
0.00836264727011
0.00356310608464
0.00791704290544
0.00351037931214
0.00747870057241
0.00345746094834
0.00704762537057
0.00340461477873
0.00662378498335
0.00335211371414
0.00620710737693
0.00330023728473
0.0057974801651
0.00324926998743
0.00539474938481
0.00319949828724
0.00499871967463
0.00315120840366
0.00460915414444
0.00310468322937
0.00422577536094
0.00306019993348
0.00384826621476
0.00301802716017
0.00347627171597
0.00297842277166
0.00310940091149
0.00294163164649
0.00274722995404
0.00290788392832
0.00238930507767
0.00287739310207
0.00203514738211
0.0028503556384
0.00168426121758
0.0028269497664
0.00133613389297
0.00280732610559
0.000990249059801
0.00279157110193
0.000646199809797
0.0027789794243
0.000305326435891
0.00275535811117
0.00247005362685
0.00177841852493
-0.0142208841331
0.0037459418316
-0.0157511139482
0.00570067602173
-0.0156797276403
0.00761930870038
-0.015436735465
0.00948976880382
-0.0151094215235
0.0113016461312
-0.01470817638
0.0130457688537
-0.0142398198541
0.0147142568877
-0.0137115882203
0.0163005534315
-0.0131311377867
0.0177994147749
-0.0125063263576
0.0192068640372
-0.0118450099069
0.0205201195977
-0.0111548677514
0.0217375030369
-0.0104432591262
0.0228583346009
-0.00971710761421
0.0238828182477
-0.0089828135826
0.02481192234
-0.00824619119361
0.0256472574751
-0.0075124310116
0.0263909575126
-0.00678608595318
0.0270455662747
-0.00607108142721
0.0276139361901
-0.00537074637422
0.0280991412943
-0.00468786301029
0.0285044087342
-0.00402472863922
0.0288330681783
-0.00338322347186
0.0290885184953
-0.00276487597827
0.0292742068658
-0.00217091982105
0.0293936160018
-0.00160233765145
0.0294502538188
-0.00105989141748
0.0294476423719
-0.000544141218278
0.0293893038748
-5.54570950954e-05
0.0292787441479
0.000405972223605
0.0291194317266
0.000840131484314
0.0289147882989
0.00124716129052
0.0286681638173
0.00162734737262
0.0283828261829
0.00198110740147
0.0280619492276
0.0023089740479
0.0277086034539
0.00261157976468
0.0273257486362
0.00288964331083
0.026916227757
0.00314395771588
0.0264827618953
0.00337537973135
0.0260279458037
0.00358482030959
0.0255542440644
0.00377323593034
0.0250639878134
0.00394162029829
0.0245593720793
0.00409099634646
0.0240424538255
0.00422240819122
0.0235151507936
0.0043369131452
0.0229792412518
0.00443557350899
0.0224363647794
0.00451944840675
0.0218880241298
0.00458958539852
0.0213355883379
0.00464701233718
0.0207802969775
0.00469272918417
0.0202232657687
0.00472770048051
0.0196654932017
0.00475284809081
0.0191078684259
0.00476904513762
0.0185511797866
0.00477711055074
0.0179961243534
0.00477780531321
0.0174433175276
0.00477182953492
0.0168933032317
0.00475982156172
0.0163465635293
0.00474235791492
0.0158035283897
0.00471995536401
0.0152645842648
0.00469307359174
0.0147300824357
0.00466211985162
0.0142003456958
0.00462745379476
0.0136756745685
0.00458939396507
0.0131563515795
0.00454822392515
0.0126426449956
0.00450419962774
0.0121348105525
0.00445755586626
0.0116330927624
0.00440851353857
0.0111377243227
0.00435728549884
0.0106489253619
0.00430408285663
0.0101669010372
0.00424911951049
0.00969183932511
0.00419261687255
0.00922390748347
0.0041348066413
0.00876324908689
0.00407593363487
0.00830998008372
0.00401625667901
0.00786418576006
0.00395604952957
0.00742591706077
0.00389560003218
0.00699518803785
0.00383520935941
0.00657197296724
0.00377518981924
0.00615620465974
0.0037158628047
0.00574777270797
0.00365755574292
0.00534652283169
0.0036005992346
0.00495225638778
0.00354532366094
0.00456473073794
0.00349205598887
0.00418365999774
0.00344111648776
0.00380871629122
0.00339281560752
0.00343953174076
0.00334745116886
0.00307570067733
0.00330530559077
0.00271678267576
0.00326664363653
0.00236230701509
0.00323171062112
0.00201177632295
0.0032007295974
0.00166466921385
0.00317389887772
0.00132045215482
0.00315139239443
0.00097858083447
0.00313330157172
0.000638588221751
0.00311881992778
0.000301748905344
0.00309204679216
0.00277173491679
0.00185687286335
-0.0160774710145
0.00391009423901
-0.0178040305929
0.00594809306779
-0.0177174198004
0.00794566791234
-0.017434003763
0.0098895386389
-0.0170529855471