/*--------------------------------*- C++ -*----------------------------------*\
| =========                 |                                                 |
| \\      /  F ield         | OpenFOAM: The Open Source CFD Toolbox           |
|  \\    /   O peration     | Version:  v1906                                 |
|   \\  /    A nd           | Web:      www.OpenFOAM.com                      |
|    \\/     M anipulation  |                                                 |
\*---------------------------------------------------------------------------*/
FoamFile
{
    version     2.0;
    format      ascii;
    class       volVectorField;
    location    "260";
    object      U;
}
// * * * * * * * * * * * * * * * * * * * * * * * * * * * * * * * * * * * * * //

dimensions      [0 1 -1 0 0 0 0];


internalField   nonuniform List<vector> 
9216
(
(-0.0937712275967 0.0938353001327 0)
(-0.0964340446129 0.291976058202 4.51344029177e-26)
(-0.0959830266595 0.491545185416 -6.50439243936e-30)
(-0.0948955642136 0.690495715032 0)
(-0.0934090903887 0.886693444764 0)
(-0.0915606340144 1.07944664973 0)
(-0.0893827593323 1.26804202821 0)
(-0.0869041789526 1.45182244042 0)
(-0.0841537671506 1.63018935708 0)
(-0.0811613690261 1.80260460227 0)
(-0.0779575981611 1.96859249505 0)
(-0.0745734189547 2.12774119636 0)
(-0.0710395946259 2.27970299426 0)
(-0.0673862342609 2.42419349733 0)
(-0.0636423176327 2.56098986425 0)
(-0.0598353766946 2.68992818061 0)
(-0.0559911677491 2.81090016778 0)
(-0.0521335099094 2.92384935939 0)
(-0.048284102562 3.02876692289 0)
(-0.0444625026162 3.12568724694 0)
(-0.0406860602246 3.21468343998 0)
(-0.0369700009854 3.29586283041 0)
(-0.0333274449848 3.36936257326 0)
(-0.0297695579474 3.43534542043 0)
(-0.0263056198906 3.49399572069 0)
(-0.0229432137639 3.54551567759 0)
(-0.019688316812 3.59012189937 0)
(-0.0165455037565 3.62804224844 0)
(-0.0135180449425 3.6595130035 0)
(-0.0106081183577 3.68477633551 0)
(-0.00781693373507 3.70407811952 0)
(-0.00514503941448 3.71766612746 0)
(-0.00259281894628 3.72578929673 0)
(-0.000162307393493 3.7286910405 0)
(0.00215223064087 3.72663872008 0)
(0.00435860056484 3.71984893555 0)
(0.00645723549423 3.70855375659 0)
(0.00844926851868 3.69297989195 0)
(0.0103371091058 3.67334879817 0)
(0.0121236991256 3.64987606531 0)
(0.0138122773894 3.62277067252 0)
(0.0154062049676 3.59223461067 0)
(0.0169089497423 3.55846267118 0)
(0.0183239917911 3.52164233573 0)
(0.0196548436773 3.48195373256 0)
(0.0209049762563 3.4395696521 0)
(0.0220778498331 3.39465560143 0)
(0.0231768498035 3.34736989882 0)
(0.0242053234091 3.29786379106 0)
(0.0251665223096 3.24628159856 0)
(0.026063642727 3.19276087193 0)
(0.0268997734422 3.13743256755 0)
(0.0276779378906 3.08042122663 0)
(0.0284010464907 3.02184516697 0)
(0.029071939567 2.96181667242 0)
(0.0296933432285 2.90044219091 0)
(0.0302679122805 2.83782252603 0)
(0.0307981890448 2.77405303456 0)
(0.0312866455887 2.70922381482 0)
(0.0317356450765 2.64341989931 0)
(0.0321474828332 2.57672143652 0)
(0.0325243499154 2.50920387621 0)
(0.0328683726243 2.44093814292 0)
(0.0331815781144 2.37199081254 0)
(0.0334659320944 2.30242427688 0)
(0.0337233063407 2.23229691132 0)
(0.0339555143771 2.16166323035 0)
(0.034164280844 2.09057404658 0)
(0.0343512750253 2.01907661784 0)
(0.034518082043 1.94721479818 0)
(0.0346662341238 1.87502917732 0)
(0.0347971836411 1.80255722456 0)
(0.0349123320606 1.72983342149 0)
(0.0350130048537 1.65688939979 0)
(0.0351004780677 1.58375406821 0)
(0.0351759551643 1.51045374524 0)
(0.0352405911875 1.43701228139 0)
(0.0352954715684 1.36345118761 0)
(0.0353416338562 1.28978975386 0)
(0.0353800485376 1.21604517421 0)
(0.0354116382843 1.14223266257 0)
(0.0354372607828 1.06836557556 0)
(0.0354577253592 0.994455526414 0)
(0.0354737776382 0.92051250693 0)
(0.0354861130095 0.846545001716 0)
(0.0354953620228 0.77256011266 0)
(0.0355020979819 0.698563680209 0)
(0.0355068165487 0.624560424939 0)
(0.0355099203983 0.550554109962 0)
(0.0355116474645 0.476547781401 0)
(0.035511900113 0.402544219614 0)
(0.0355097623637 0.328546714298 0)
(0.0355015317779 0.254563045429 0)
(0.035482341447 0.180571244264 0)
(0.0353795576594 0.107054143281 0)
(0.0343259308916 0.034326090177 0)
(-0.292338173163 0.0970775907046 0)
(-0.308635284683 0.310103297133 0)
(-0.307122210462 0.522294626315 -4.56922881517e-26)
(-0.303605623697 0.733970670474 0)
(-0.298850634266 0.942555570985 0)
(-0.292969519326 1.14741981324 0)
(-0.286044504181 1.34783118957 0)
(-0.27815995862 1.54309881483 0)
(-0.269405297731 1.73258893372 0)
(-0.259874492889 1.91573061621 0)
(-0.249664556937 2.09201926277 0)
(-0.238873846695 2.26101842749 0)
(-0.227600266077 2.42236019513 0)
(-0.215939715863 2.57574429539 0)
(-0.203984635888 2.72093614148 0)
(-0.191822904342 2.85776395897 0)
(-0.179536861831 2.9861151969 0)
(-0.167202706339 3.10593238813 0)
(-0.154889984075 3.21720863619 0)
(-0.14266141979 3.31998287225 0)
(-0.130572787882 3.41433502446 0)
(-0.118673073922 3.50038120655 0)
(-0.107004614605 3.57826902603 0)
(-0.0956034775513 3.64817308007 0)
(-0.0844997635064 3.71029069998 0)
(-0.0737181053606 3.76483797885 0)
(-0.063278045931 3.81204611119 0)
(-0.0531945816969 3.85215805329 0)
(-0.0434785577267 3.88542550824 0)
(-0.0341372158008 3.91210622133 0)
(-0.0251745956589 3.93246155045 0)
(-0.0165921340482 3.94675421897 0)
(-0.00838922525296 3.955245603 0)
(-0.000564825121887 3.95819751897 0)
(0.00688949967496 3.95584527979 0)
(0.0139844802579 3.94846180231 0)
(0.0207264668224 3.9362988956 0)
(0.0271230593102 3.919600895 0)
(0.0331834123677 3.89860468533 0)
(0.0389175545844 3.87353971436 0)
(0.0443361236949 3.84462797992 0)
(0.0494500834832 3.81208388141 0)
(0.0542706486876 3.776114084 0)
(0.0588090986482 3.73691743896 0)
(0.0630767599341 3.69468495684 0)
(0.0670848622865 3.64959983381 0)
(0.070844550601 3.60183751781 0)
(0.0743667676104 3.55156581308 0)
(0.0776622850617 3.49894501033 0)
(0.0807416059551 3.44412804286 0)
(0.0836150088978 3.38726065702 0)
(0.0862924651328 3.32848159945 0)
(0.0887836916845 3.2679228105 0)
(0.0910980795818 3.20570962769 0)
(0.0932447524075 3.14196098962 0)
(0.0952325030073 3.07678964525 0)
(0.0970698548643 3.01030235979 0)
(0.0987650052415 2.9426001228 0)
(0.100325887404 2.87377835038 0)
(0.101760118709 2.80392708771 0)
(0.103075062222 2.73313120414 0)
(0.104277778675 2.66147058759 0)
(0.105375086388 2.58902033067 0)
(0.106373516372 2.51585091579 0)
(0.107279369806 2.44202839165 0)
(0.108098675782 2.36761454867 0)
(0.108837245796 2.29266708605 0)
(0.109500633866 2.21723977786 0)
(0.110094187674 2.14138263114 0)
(0.110623010916 2.06514204347 0)
(0.111092010845 1.988560953 0)
(0.111505862826 1.91167898842 0)
(0.111869054159 1.83453261198 0)
(0.112185850848 1.75715526286 0)
(0.112460337631 1.67957749421 0)
(0.112696387047 1.60182711111 0)
(0.112897695647 1.5239293026 0)
(0.11306775544 1.44590677519 0)
(0.113209886259 1.36777988095 0)
(0.113327209677 1.2895667475 0)
(0.113422677453 1.21128340311 0)
(0.113499047883 1.13294390409 0)
(0.113558910038 1.05456045783 0)
(0.113604662102 0.976143548669 0)
(0.113638530223 0.897702060036 0)
(0.113662546515 0.819243400142 0)
(0.113678557268 0.740773624509 0)
(0.113688189087 0.662297561427 0)
(0.11369281969 0.583818928536 0)
(0.11369346897 0.505340422254 0)
(0.113690576115 0.426863740926 0)
(0.113683442487 0.348388899986 0)
(0.113668526494 0.269914557253 0)
(0.113632192117 0.191375232669 0)
(0.113355917177 0.113400531628 0)
(0.107078894633 0.0354027823578 0)
(-0.494481651931 0.0980981654214 0)
(-0.522280933691 0.313233178652 0)
(-0.519329689338 0.527177275637 -4.54001929092e-26)
(-0.513253020121 0.740777758361 0)
(-0.505154866135 0.951227890457 0)
(-0.49517395849 1.15786892999 0)
(-0.48343217788 1.35994872762 0)
(-0.470066774168 1.55676376352 0)
(-0.455227885067 1.74767093177 0)
(-0.439074931073 1.93209268131 0)
(-0.421773058983 2.10952045114 0)
(-0.403489780707 2.27951640496 0)
(-0.38439181656 2.44171362074 0)
(-0.3646423167 2.59581494455 0)
(-0.344398432361 2.7415907164 0)
(-0.323809364049 2.87887556805 0)
(-0.303014795416 3.00756449813 0)
(-0.282143799593 3.12760841423 0)
(-0.261314083514 3.23900932385 0)
(-0.240631636755 3.34181533101 0)
(-0.220190627619 3.43611557942 0)
(-0.200073609188 3.52203525511 0)
(-0.180351871965 3.59973074361 0)
(-0.16108601242 3.66938501154 0)
(-0.142326557519 3.73120326644 0)
(-0.12411472663 3.78540892876 0)
(-0.106483178769 3.83223993759 0)
(-0.0894568395943 3.87194539743 0)
(-0.0730536647574 3.90478256423 0)
(-0.0572854440131 3.93101415843 0)
(-0.0421585042234 3.95090598481 0)
(-0.0276743989388 3.96472484055 0)
(-0.0138303543864 3.97273663693 0)
(-0.000619033822685 3.97520549255 0)
(0.0119679027897 3.97239347539 0)
(0.0239396433379 3.96455419131 0)
(0.035310595757 3.95193818742 0)
(0.0460964137599 3.93479002148 0)
(0.0563136603652 3.91334738743 0)
(0.065979776709 3.88784069735 0)
(0.0751129335869 3.85849281716 0)
(0.0837317927211 3.8255188681 0)
(0.0918553437239 3.78912609671 0)
(0.0995027075974 3.74951381038 0)
(0.106693024307 3.70687336931 0)
(0.11344530644 3.66138822776 0)
(0.119778370829 3.61323401564 0)
(0.125710732015 3.56257865411 0)
(0.131260567136 3.50958249758 0)
(0.136445639367 3.45439849767 0)
(0.141283287125 3.39717238277 0)
(0.145790369639 3.3380428506 0)
(0.149983273433 3.27714176858 0)
(0.153877873911 3.21459438069 0)
(0.157489553642 3.15051951671 0)
(0.160833175257 3.08502980341 0)
(0.163923107339 3.01823187448 0)
(0.16677320508 2.95022657949 0)
(0.169396840621 2.88110918917 0)
(0.171806888827 2.81096959799 0)
(0.174015759751 2.73989252164 0)
(0.176035387626 2.66795769092 0)
(0.177877263757 2.59524003973 0)
(0.179552427398 2.52180988929 0)
(0.181071497906 2.44773312616 0)
(0.182444666583 2.3730713765 0)
(0.183681727305 2.29788217446 0)
(0.18479206876 2.22221912691 0)
(0.185784703038 2.14613207275 0)
(0.186668257947 2.06966723905 0)
(0.187451003267 1.99286739222 0)
(0.188140842988 1.91577198648 0)
(0.188745339091 1.83841730798 0)
(0.189271703688 1.76083661679 0)
(0.189726820286 1.68306028493 0)
(0.190117235881 1.60511593299 0)
(0.190449179738 1.52702856322 0)
(0.190728555526 1.4488206917 0)
(0.190960957661 1.3705124775 0)
(0.191151663575 1.29212185131 0)
(0.191305647606 1.2136646416 0)
(0.191427573378 1.1351547005 0)
(0.191521805023 1.0566040276 0)
(0.191592399245 0.978022893768 0)
(0.191643112916 0.899419962842 0)
(0.191677393069 0.820802412902 0)
(0.191698377546 0.742176053715 0)
(0.191708877149 0.663545439134 0)
(0.191711360074 0.584913963977 0)
(0.191707915228 0.506283922731 0)
(0.191700221042 0.427656535642 0)
(0.191689574014 0.349031409925 0)
(0.191676940824 0.270408745664 0)
(0.191657248642 0.191726615847 0)
(0.191334006247 0.113693893738 0)
(0.180645185446 0.0355088946756 0)
(-0.699856749635 0.0992967613617 0)
(-0.739477203261 0.316999679951 0)
(-0.735250749286 0.533394648665 4.505804545e-26)
(-0.726562598635 0.749429375703 0)
(-0.714995396816 0.962215015029 0)
(-0.700752514253 1.17106333798 0)
(-0.684008191768 1.37519590098 0)
(-0.664958836357 1.5738900602 0)
(-0.643819905137 1.76648877631 0)
(-0.620820399965 1.95240520999 0)
(-0.596197478632 2.13112585557 0)
(-0.570191413904 2.30221195984 0)
(-0.543040984124 2.46529931757 0)
(-0.514979422502 2.62009666016 0)
(-0.486230963011 2.76638286719 0)
(-0.457008047618 2.90400323287 0)
(-0.427509161071 3.03286501665 0)
(-0.397917298611 3.15293249132 0)
(-0.368398981848 3.2642216836 0)
(-0.33910379498 3.36679497607 0)
(-0.310164333248 3.46075571405 0)
(-0.281696527043 3.54624293345 0)
(-0.253800231433 3.62342630072 0)
(-0.226560051868 3.69250133192 0)
(-0.200046306022 3.75368493798 0)
(-0.174316107605 3.80721132456 0)
(-0.149414487001 3.85332826093 0)
(-0.125375551033 3.89229371935 0)
(-0.102223611115 3.9243728779 0)
(-0.079974295366 3.94983547171 0)
(-0.0586355826673 3.96895347346 0)
(-0.0382087800093 3.98199909946 0)
(-0.018689344924 3.98924301504 0)
(-6.80412168652e-05 3.99095292614 0)
(0.0176690340063 3.98739663555 0)
(0.0345374266494 3.97882773806 0)
(0.0505569040155 3.96549954091 0)
(0.0657494694843 3.94765809228 0)
(0.0801387667311 3.92554230858 0)
(0.0937497444264 3.89938360338 0)
(0.106608329865 3.86940557954 0)
(0.118741111265 3.83582384896 0)
(0.13017507932 3.79884593437 0)
(0.14093738811 3.75867123633 0)
(0.151055171095 3.71549105471 0)
(0.160555370585 3.66948865621 0)
(0.169464614664 3.62083937921 0)
(0.177809100591 3.56971076929 0)
(0.185614518276 3.51626273883 0)
(0.192905974315 3.46064774557 0)
(0.199707949873 3.40301098516 0)
(0.206044254503 3.34349059411 0)
(0.21193800876 3.28221785954 0)
(0.21741161924 3.2193174332 0)
(0.222486778355 3.15490754716 0)
(0.227184454018 3.08910022982 0)
(0.231524900801 3.02200152013 0)
(0.235527659261 2.9537116794 0)
(0.239211574146 2.88432539943 0)
(0.242594799661 2.81393200649 0)
(0.245694821548 2.74261566051 0)
(0.248528465602 2.6704555494 0)
(0.25111192133 2.59752607798 0)
(0.253460751849 2.52389705188 0)
(0.255589917533 2.44963385596 0)
(0.257513786015 2.3747976279 0)
(0.259246154763 2.29944542646 0)
(0.260800260378 2.2236303954 0)
(0.262188799442 2.14740192244 0)
(0.263423936634 2.07080579434 0)
(0.264517323495 1.99388434772 0)
(0.265480105126 1.91667661637 0)
(0.266322936721 1.83921847499 0)
(0.267055988801 1.76154277999 0)
(0.267688961492 1.68367950722 0)
(0.268231088361 1.60565588737 0)
(0.268691148528 1.52749653886 0)
(0.269077469211 1.44922359882 0)
(0.269397935794 1.37085685205 0)
(0.269659993219 1.29241385857 0)
(0.269870654088 1.21391007948 0)
(0.270036498975 1.13535900176 0)
(0.270163682514 1.05677226161 0)
(0.270257932472 0.978159766784 0)
(0.270324553463 0.899529817233 0)
(0.270368424214 0.820889224011 0)
(0.270393998218 0.742243424479 0)
(0.270405299087 0.663596591775 0)
(0.270405920803 0.584951733114 0)
(0.270399033409 0.506310764345 0)
(0.27038742203 0.427674607231 0)
(0.270373609681 0.349042842888 0)
(0.270359830771 0.270416772529 0)
(0.270337396674 0.19173601919 0)
(0.269883650292 0.113724564301 0)
(0.25469278532 0.0355262421048 0)
(-0.908038885108 0.100881324401 0)
(-0.959466927929 0.322033407283 0)
(-0.953914821073 0.541811583028 0)
(-0.942516616878 0.761147582974 0)
(-0.927343838422 0.977088615025 0)
(-0.908671059623 1.18891277242 0)
(-0.886731580717 1.3958085908 0)
(-0.861787042076 1.59702780309 0)
(-0.834123860717 1.79189447341 0)
(-0.804045939475 1.97980931557 0)
(-0.77186740637 2.16025247812 0)
(-0.737905812445 2.33278448706 0)
(-0.702475969572 2.49704544372 0)
(-0.665884571791 2.65275272354 0)
(-0.628425673706 2.7996974437 0)
(-0.590377067671 2.9377399725 0)
(-0.551997536318 3.06680474384 0)
(-0.513524941227 3.18687461864 0)
(-0.475175061029 3.29798500718 0)
(-0.437141097209 3.40021793345 0)
(-0.399593735448 3.49369619028 0)
(-0.362681671604 3.57857770108 0)
(-0.326532492428 3.65505017527 0)
(-0.29125383191 3.72332611759 0)
(-0.256934710542 3.78363822965 0)
(-0.223646999474 3.83623522305 0)
(-0.191446938832 3.88137804901 0)
(-0.160376674264 3.91933653753 0)
(-0.130465761374 3.95038643087 0)
(-0.101732620512 3.97480679058 0)
(-0.0741859066783 3.99287775195 0)
(-0.0478257949416 4.00487864298 0)
(-0.0226450909394 4.01108590668 0)
(0.00136892864938 4.01177323343 0)
(0.0242358201281 4.00721147695 0)
(0.0459773146341 3.99765796743 0)
(0.0666194941378 3.98336917992 0)
(0.0861913829598 3.964593458 0)
(0.104724169158 3.94157142791 0)
(0.122250671153 3.91453578845 0)
(0.138804884678 3.88371105273 0)
(0.154421584506 3.84931341503 0)
(0.169135988526 3.81155069898 0)
(0.182983467061 3.77062236707 0)
(0.195999304044 3.72671958107 0)
(0.20821849353 3.68002530391 0)
(0.219675578082 3.63071443514 0)
(0.230404513152 3.57895397277 0)
(0.240438564378 3.52490319592 0)
(0.249810222929 3.46871386289 0)
(0.258551146364 3.41053042055 0)
(0.266692111152 3.35049022138 0)
(0.274262984815 3.28872374511 0)
(0.281292704761 3.22535482256 0)
(0.287809272123 3.16050085953 0)
(0.293839748545 3.09427305925 0)
(0.299410264403 3.02677664198 0)
(0.304546027227 2.95811106094 0)
(0.309271338844 2.88837021351 0)
(0.313609610747 2.81764264764 0)
(0.317583386166 2.74601176261 0)
(0.321214359005 2.6735560044 0)
(0.324523397993 2.60034905519 0)
(0.327530566812 2.52646001739 0)
(0.330255148364 2.45195359194 0)
(0.332715664497 2.37689025137 0)
(0.334929899081 2.30132640756 0)
(0.336914916327 2.22531457471 0)
(0.338687081884 2.14890352751 0)
(0.340262079152 2.07213845517 0)
(0.341654927985 1.99506111125 0)
(0.342879998733 1.91770995981 0)
(0.343951028381 1.8401203182 0)
(0.344881132262 1.76232449668 0)
(0.345682817667 1.68435193522 0)
(0.346367993312 1.6062293378 0)
(0.346947980544 1.52798080439 0)
(0.347433520754 1.44962796096 0)
(0.347834784361 1.37119008759 0)
(0.348161376382 1.29268424513 0)
(0.348422343394 1.21412540028 0)
(0.348626177454 1.13552654948 0)
(0.348780821217 1.05689884153 0)
(0.348893670369 0.978251698986 0)
(0.34897157712 0.899592938118 0)
(0.349020851583 0.820928887105 0)
(0.349047264698 0.742264501622 0)
(0.349056051285 0.663603476828 0)
(0.349051918999 0.584948354667 0)
(0.34903906828 0.506300621705 0)
(0.349021239094 0.427660862976 0)
(0.34900179904 0.349028511431 0)
(0.348983448426 0.270405223228 0)
(0.348953339821 0.191730603027 0)
(0.34836308461 0.11372887082 0)
(0.328726796577 0.0355311975815 0)
(-1.11997107484 0.102886238025 0)
(-1.18335373039 0.328435977596 0)
(-1.17639413857 0.552550040229 0)
(-1.16214485591 0.776104390378 0)
(-1.14317973382 0.996068198913 0)
(-1.11985069578 1.21167825144 0)
(-1.09245720404 1.42208247681 0)
(-1.06133360744 1.62650051694 0)
(-1.02684473919 1.82423279515 0)
(-0.989376602136 2.01466474787 0)
(-0.949327032364 2.19726922539 0)
(-0.907096967259 2.3716067953 0)
(-0.863082595741 2.53732411295 0)
(-0.817668572809 2.69415066942 0)
(-0.771222393482 2.84189424708 0)
(-0.724089954943 2.98043541227 0)
(-0.676592269552 3.10972135449 0)
(-0.629023251779 3.22975934927 0)
(-0.581648464215 3.34061008175 0)
(-0.534704695935 3.44238102565 0)
(-0.488400232582 3.53522003008 0)
(-0.442915685676 3.61930922814 0)
(-0.398405249582 3.69485934657 0)
(-0.354998273436 3.76210446636 0)
(-0.312801042644 3.82129726016 0)
(-0.271898686803 3.87270471317 0)
(-0.232357138945 3.91660431947 0)
(-0.194225092179 3.95328073548 0)
(-0.157535905512 3.98302286429 0)
(-0.122309428918 4.00612134155 0)
(-0.0885537194658 4.02286638517 0)
(-0.0562666425831 4.03354605668 0)
(-0.025437242978 4.03844376376 0)
(0.0039521329161 4.03784090022 0)
(0.0319270434282 4.0320117147 0)
(0.058515966951 4.02121822739 0)
(0.0837522860268 4.00572061043 0)
(0.107672733824 3.98576995037 0)
(0.130316578761 3.96160894657 0)
(0.151724964951 3.9334718182 0)
(0.171940353269 3.90158412404 0)
(0.191006043942 3.86616269807 0)
(0.208965772646 3.82741565862 0)
(0.225863368356 3.78554247245 0)
(0.241742469162 3.74073406341 0)
(0.256646286062 3.69317295717 0)
(0.270617411885 3.6430334539 0)
(0.283697666385 3.59048182272 0)
(0.295927975599 3.53567651224 0)
(0.307348277593 3.47876837267 0)
(0.317997453628 3.41990088556 0)
(0.327913277917 3.35921039801 0)
(0.337132385784 3.29682635871 0)
(0.345690254345 3.23287155366 0)
(0.353621196213 3.16746233984 0)
(0.36095836105 3.10070887556 0)
(0.367733746066 3.0327153463 0)
(0.373978210928 2.96358018548 0)
(0.379721498535 2.8933962895 0)
(0.384992257715 2.82225122667 0)
(0.389818069555 2.75022743994 0)
(0.394225473868 2.6774024433 0)
(0.398239997728 2.60384901193 0)
(0.401886182919 2.52963536618 0)
(0.405187614365 2.45482534961 0)
(0.408166946705 2.37947860134 0)
(0.410845931111 2.30365072301 0)
(0.413245439817 2.22739344058 0)
(0.415385490438 2.15075476139 0)
(0.417285267781 2.07377912681 0)
(0.4189631452 1.99650756079 0)
(0.42043670341 1.91897781458 0)
(0.421722748725 1.8412245082 0)
(0.422837328833 1.76327926866 0)
(0.423795747989 1.68517086546 0)
(0.424612579893 1.60692534363 0)
(0.425301680027 1.52856615445 0)
(0.425876195887 1.45011428436 0)
(0.426348576738 1.37158838196 0)
(0.426730581508 1.2930048836 0)
(0.427033286274 1.21437813756 0)
(0.427267090144 1.13572052705 0)
(0.427441720852 1.057042592 0)
(0.427566239057 0.978353149806 0)
(0.427649042636 0.89965941495 0)
(0.427697870346 0.820967117278 0)
(0.427719806476 0.742280618926 0)
(0.427721286963 0.663603029803 0)
(0.427708110063 0.584936322837 0)
(0.427685454749 0.506281446713 0)
(0.427657911786 0.427638504811 0)
(0.427629517152 0.349006522851 0)
(0.427603228562 0.27038692872 0)
(0.42756227588 0.191718460094 0)
(0.426833601094 0.113722582202 0)
(0.402766116528 0.035529208858 0)
(-1.33656741486 0.105348654213 0)
(-1.41212072644 0.33630308755 0)
(-1.40364253207 0.565750890427 4.42585474608e-26)
(-1.3863554079 0.794490474322 0)
(-1.36335499607 1.01939071489 0)
(-1.33507827674 1.23963662777 0)
(-1.30189939171 1.45432651475 0)
(-1.26423469233 1.66264096976 0)
(-1.2225369234 1.86385205751 0)
(-1.17728343102 2.05732747383 0)
(-1.128964401 2.24253243922 0)
(-1.07807193736 2.41902913345 0)
(-1.02509034599 2.58647394514 0)
(-0.970487844288 2.74461294666 0)
(-0.914709801052 2.89327601435 0)
(-0.858173515518 3.0323699991 0)
(-0.801264465841 3.16187131638 0)
(-0.744333903401 3.28181827505 0)
(-0.687697632005 3.39230340854 0)
(-0.631635794621 3.4934660154 0)
(-0.576393484482 3.58548506366 0)
(-0.522182005615 3.66857256587 0)
(-0.469180619779 3.7429674919 0)
(-0.417538636672 3.80893025386 0)
(-0.367377722623 3.86673777157 0)
(-0.318794325397 3.91667910799 0)
(-0.271862130527 3.95905165007 0)
(-0.226634484585 3.99415780127 0)
(-0.183146734778 4.02230214662 0)
(-0.141418449963 4.0437890494 0)
(-0.101455496404 4.058920629 0)
(-0.0632519594833 4.06799521292 0)
(-0.026791756606 4.07130428493 0)
(0.00794927496034 4.06913877289 0)
(0.0410031518953 4.06177577561 0)
(0.0724062219445 4.049483555 0)
(0.102200069722 4.03252627564 0)
(0.130429915955 4.01115807927 0)
(0.157143769091 3.98562398939 0)
(0.182391659556 3.95615989508 0)
(0.206224991977 3.92299246527 0)
(0.228695997801 3.88633916901 0)
(0.249857273274 3.8464083587 0)
(0.269761391696 3.80339939925 0)
(0.288460581992 3.75750283445 0)
(0.306006464542 3.70890058198 0)
(0.322449837705 3.65776615011 0)
(0.337840507397 3.60426487007 0)
(0.352227154527 3.54855413929 0)
(0.365657233952 3.49078367127 0)
(0.378176900986 3.43109574904 0)
(0.38983096031 3.36962547912 0)
(0.400662834359 3.30650104417 0)
(0.410714547046 3.24184395229 0)
(0.420026720762 3.17576928181 0)
(0.428638583375 3.10838592059 0)
(0.436587983819 3.03979679891 0)
(0.443911413691 2.97009911566 0)
(0.450644034023 2.89938455743 0)
(0.45681970514 2.82773951035 0)
(0.462471019226 2.75524526471 0)
(0.467629333911 2.68197821247 0)
(0.472324806842 2.60801003784 0)
(0.476586429865 2.53340790107 0)
(0.480442063023 2.45823461598 0)
(0.483918467262 2.38254882136 0)
(0.487041336205 2.30640514671 0)
(0.489835326094 2.22985437267 0)
(0.492324084374 2.15294358656 0)
(0.494530276174 2.07571633331 0)
(0.49647560923 1.99821276241 0)
(0.498180856624 1.9204697709 0)
(0.49966587793 1.84252114312 0)
(0.500949638224 1.76439768728 0)
(0.502050225568 1.68612736936 0)
(0.502984866513 1.6077354446 0)
(0.503769940187 1.52924458677 0)
(0.504420990614 1.45067501562 0)
(0.504952737792 1.37204462269 0)
(0.505379087219 1.29336909563 0)
(0.505713138388 1.21466204133 0)
(0.50596719199 1.13593510791 0)
(0.50615275633 1.0571981057 0)
(0.506280552805 0.978459127427 0)
(0.50636052101 0.899724667449 0)
(0.506401823541 0.820999740368 0)
(0.506412851339 0.742287999048 0)
(0.506401230164 0.663591852625 0)
(0.506373829511 0.584912586109 0)
(0.506336774963 0.506250479128 0)
(0.506295463238 0.427604991224 0)
(0.506254559195 0.348974515056 0)
(0.506217315543 0.2703599166 0)
(0.506163390188 0.191698759797 0)
(0.505295830465 0.113709292925 0)
(0.476801933477 0.0355239295099 0)
(-1.55881784032 0.108305377161 0)
(-1.64681344118 0.34574557221 0)
(-1.63667827205 0.581591950632 -4.38962579744e-26)
(-1.61611849517 0.816547443555 0)
(-1.58877800543 1.04735500307 0)
(-1.55518942949 1.27313541502 0)
(-1.51581255211 1.49292698593 0)
(-1.47115751925 1.7058637167 0)
(-1.421776994 1.91118461123 0)
(-1.36825130438 2.10823764732 0)
(-1.3111737909 2.29648092605 0)
(-1.25113735531 2.47548090321 0)
(-1.18872265818 2.64490812645 0)
(-1.12448821595 2.80453102695 0)
(-1.05896249381 2.95420830598 0)
(-0.992637965374 3.09388041946 0)
(-0.925967015169 3.22356060245 0)
(-0.859359495734 3.34332580174 0)
(-0.793181713332 3.45330780749 0)
(-0.727756602299 3.55368480059 0)
(-0.663364849888 3.6446734659 0)
(-0.600246748822 3.72652176516 0)
(-0.538604576664 3.79950241707 0)
(-0.478605328126 3.86390709611 0)
(-0.420383653704 3.92004133535 0)
(-0.364044885662 3.96822009967 0)
(-0.309668056976 4.00876398357 0)
(-0.25730884185 4.04199598127 0)
(-0.207002365243 4.06823877331 0)
(-0.158765845731 4.08781247611 0)
(-0.112601047518 4.10103279032 0)
(-0.0684965312899 4.10820969731 0)
(-0.0264295188918 4.10964376351 0)
(0.0136326106793 4.10563720729 0)
(0.0517287514961 4.09646899214 0)
(0.0879045830904 4.08241530227 0)
(0.122210913044 4.06374442709 0)
(0.154702319794 4.0407137599 0)
(0.185436304837 4.0135707915 0)
(0.214472429413 3.98255313439 0)
(0.241871590801 3.94788854799 0)
(0.267695415635 3.90979505788 0)
(0.292005750045 3.86848112429 0)
(0.314864234786 3.82414584665 0)
(0.33633195518 3.77697919592 0)
(0.356469155974 3.72716226717 0)
(0.37533501265 3.67486754612 0)
(0.392987451142 3.62025918441 0)
(0.409483009224 3.56349327958 0)
(0.424876733102 3.5047181562 0)
(0.439222103975 3.44407464562 0)
(0.452570989473 3.38169636204 0)
(0.464973615974 3.31770997335 0)
(0.476478557859 3.25223546549 0)
(0.487132740735 3.18538639937 0)
(0.496981455601 3.1172701598 0)
(0.506068381803 3.04798819599 0)
(0.514435616516 2.97763625343 0)
(0.522123709223 2.90630459722 0)
(0.529171699508 2.83407822682 0)
(0.535617157155 2.76103708246 0)
(0.5414962233 2.68725624359 0)
(0.546843652005 2.61280611958 0)
(0.55169285138 2.53775263317 0)
(0.556075923867 2.46215739701 0)
(0.5600237051 2.3860778838 0)
(0.563565801161 2.30956759046 0)
(0.566730623835 2.23267619675 0)
(0.56954542385 2.15544971891 0)
(0.572036321825 2.0779306586 0)
(0.574228337056 2.00015814769 0)
(0.576145413926 1.92216808929 0)
(0.577810446162 1.8439932954 0)
(0.579245298805 1.76566362151 0)
(0.58047082814 1.6872060986 0)
(0.581506899511 1.60864506275 0)
(0.582372403297 1.53000228273 0)
(0.583085269005 1.45129708583 0)
(0.583662477753 1.37254648213 0)
(0.584120073142 1.29376528747 0)
(0.584473170795 1.21496624533 0)
(0.584735966573 1.13616014772 0)
(0.584921743775 1.05735595527 0)
(0.585042879397 0.978560916689 0)
(0.585110849786 0.899780687631 0)
(0.585136235903 0.821019449305 0)
(0.585128728631 0.742280027006 0)
(0.585097134454 0.663564009207 0)
(0.585049381865 0.584871868677 0)
(0.584992528245 0.506203081935 0)
(0.584932764696 0.427556312328 0)
(0.584875394934 0.348929143081 0)
(0.584824037915 0.27032168517 0)
(0.5847549878 0.191670210114 0)
(0.583747716524 0.113689716789 0)
(0.550829039476 0.0355163041249 0)
(-1.7877934327 0.111799303611 0)
(-1.88855533379 0.356897446483 0)
(-1.87659306562 0.600293451162 0)
(-1.8524709921 0.842575330808 0)
(-1.82041479319 1.08033144506 0)
(-1.78106675638 1.3126039768 0)
(-1.73498645961 1.53835952183 0)
(-1.68279282724 1.75667736403 0)
(-1.62515354264 1.96675887219 0)
(-1.56276641226 2.16793104463 0)
(-1.49634123878 2.3596465396 0)
(-1.4265834243 2.54148022696 0)
(-1.35417983094 2.71312288691 0)
(-1.27978716377 2.87437278985 0)
(-1.20402293817 3.02512585455 0)
(-1.12745893629 3.16536500991 0)
(-1.05061694416 3.29514928845 0)
(-0.973966490405 3.41460307257 0)
(-0.897924273273 3.52390580895 0)
(-0.822854956262 3.6232824105 0)
(-0.749073026723 3.71299448268 0)
(-0.676845439329 3.79333244414 0)
(-0.606394800938 3.8646085599 0)
(-0.537902891176 3.92715086687 0)
(-0.471514350342 3.98129794567 0)
(-0.407340401303 4.02739447563 0)
(-0.345462503299 4.065787501 0)
(-0.285935862885 4.09682333288 0)
(-0.228792750235 4.12084501175 0)
(-0.174045588337 4.13819026161 0)
(-0.121689799161 4.14918985843 0)
(-0.0717063950625 4.1541666156 0)
(-0.0240641826739 4.15343107082 0)
(0.0212802505788 4.14729842457 0)
(0.0643731330294 4.13604807846 0)
(0.105271209 4.11996587425 0)
(0.144035626856 4.09932413423 0)
(0.180731284938 4.07438357899 0)
(0.215426015982 4.04539419675 0)
(0.248189629538 4.01259526954 0)
(0.279093124357 3.97621553128 0)
(0.30820803436 3.93647339988 0)
(0.335605882398 3.89357724186 0)
(0.361357728693 3.84772566134 0)
(0.385533801864 3.7991078061 0)
(0.408203201385 3.74790368396 0)
(0.429433661614 3.69428448436 0)
(0.449291368517 3.63841290081 0)
(0.467840821326 3.58044345095 0)
(0.48514473217 3.52052279171 0)
(0.501263957633 3.45879002748 0)
(0.51625745687 3.39537700995 0)
(0.530182271665 3.33040862849 0)
(0.543093524346 3.2640030904 0)
(0.555044430106 3.19627219061 0)
(0.56608632064 3.12732157068 0)
(0.576268676624 3.05725096705 0)
(0.585639166721 2.98615444872 0)
(0.59424369134 2.91412064467 0)
(0.60212642952 2.84123296132 0)
(0.60932988767 2.76756979047 0)
(0.615894949053 2.69320470838 0)
(0.621860923152 2.61820666619 0)
(0.627265594178 2.54264017252 0)
(0.632145268187 2.46656546871 0)
(0.636534818322 2.39003869717 0)
(0.640467727901 2.31311206356 0)
(0.643976131061 2.23583399314 0)
(0.647090850856 2.15824928205 0)
(0.649841434652 2.08039924381 0)
(0.652256186856 2.00232185163 0)
(0.654362198916 1.92405187701 0)
(0.656185376701 1.84562102492 0)
(0.657750465293 1.76705806612 0)
(0.659081071332 1.68838896691 0)
(0.660199682984 1.60963701661 0)
(0.661127687733 1.53082295314 0)
(0.661885388076 1.451965087 0)
(0.662492015324 1.37307942381 0)
(0.662965741637 1.29417978573 0)
(0.663323690485 1.21527793191 0)
(0.663581945679 1.13638367813 0)
(0.663755559186 1.05750501587 0)
(0.663858557893 0.978648230895 0)
(0.663903949555 0.899818021528 0)
(0.663903728121 0.821017616909 0)
(0.663868878672 0.742248895421 0)
(0.663809382079 0.663512503816 0)
(0.663734219311 0.584807978022 0)
(0.663651374805 0.506133860966 0)
(0.663567836318 0.427487882431 0)
(0.663489566138 0.348866673217 0)
(0.663420602347 0.270269453368 0)
(0.66333397546 0.191631129045 0)
(0.662185697051 0.113663420039 0)
(0.624842869643 0.0355064369256 0)
(-2.02466288609 0.115882136826 0)
(-2.1385687387 0.369921810631 0)