/*--------------------------------*- C++ -*----------------------------------*\
| =========                 |                                                 |
| \\      /  F ield         | OpenFOAM: The Open Source CFD Toolbox           |
|  \\    /   O peration     | Version:  v1906                                 |
|   \\  /    A nd           | Web:      www.OpenFOAM.com                      |
|    \\/     M anipulation  |                                                 |
\*---------------------------------------------------------------------------*/
FoamFile
{
    version     2.0;
    format      ascii;
    class       volVectorField;
    location    "260";
    object      Ua;
}
// * * * * * * * * * * * * * * * * * * * * * * * * * * * * * * * * * * * * * //

dimensions      [0 1 -1 0 0 0 0];


internalField   nonuniform List<vector> 
9216
(
(-0.00742235693769 0.00743505928653 0)
(-0.00701941277749 0.0216189978771 2.4742901999e-27)
(-0.00707646153055 0.0365615470483 -4.88545008717e-31)
(-0.00705724954005 0.0513017260344 0)
(-0.00700300902461 0.0659505295558 0)
(-0.00692568446979 0.0804366779747 0)
(-0.00683192512608 0.0947160847549 0)
(-0.00672116270446 0.108751812565 0)
(-0.00659745766466 0.122508160142 0)
(-0.00645849652648 0.135954014391 0)
(-0.00630865544635 0.149058324446 0)
(-0.00614482455799 0.161794418556 0)
(-0.00597203653498 0.174135520748 0)
(-0.00578644102044 0.186059219243 0)
(-0.00559372291135 0.197542831904 0)
(-0.00538921937921 0.20856790792 0)
(-0.00517922291745 0.21911544242 0)
(-0.00495819821148 0.229170325601 0)
(-0.00473298382875 0.238716510741 0)
(-0.00449712665399 0.24774138438 0)
(-0.00425797649007 0.256230973285 0)
(-0.00400817637977 0.264174157035 0)
(-0.00375555698073 0.271558073173 0)
(-0.00349190605849 0.278372143053 0)
(-0.00322554015791 0.284603781864 0)
(-0.00294750604651 0.290242140068 0)
(-0.00266660844585 0.295274288721 0)
(-0.00237329497036 0.299688629499 0)
(-0.00207688744262 0.303471652041 0)
(-0.00176743621323 0.306610880424 0)
(-0.00145478844203 0.309092453045 0)
(-0.00112878045641 0.310903386207 0)
(-0.000799830378844 0.312030039765 0)
(-0.000457865393461 0.312459913871 0)
(-0.00011386759302 0.312180874279 0)
(0.000241915808993 0.311182367819 0)
(0.000597922458518 0.309455569836 0)
(0.000963325794442 0.306993869408 0)
(0.00132602167825 0.303793980792 0)
(0.00169439991275 0.299855684968 0)
(0.00205588198286 0.295183796072 0)
(0.00241791821618 0.289787120241 0)
(0.00276758979575 0.283681180471 0)
(0.00311134784763 0.276886446422 0)
(0.00343610999544 0.269431594401 0)
(0.00374736562844 0.261351032201 0)
(0.00403214480939 0.252688477253 0)
(0.00429518125987 0.24349381265 0)
(0.0045240246803 0.23382663599 0)
(0.00472307498264 0.223752361125 0)
(0.0048810271161 0.21334541346 0)
(0.00500261946435 0.202684452542 0)
(0.00507848133593 0.191854928039 0)
(0.00511444593694 0.180943339319 0)
(0.00510382246295 0.170039201763 0)
(0.00505408401106 0.159228605199 0)
(0.00496156367948 0.148595941159 0)
(0.00483538658208 0.138217356189 0)
(0.0046746126323 0.128162818953 0)
(0.0044893757355 0.11849030964 0)
(0.00428046518036 0.109248750647 0)
(0.00405785566751 0.10047365282 0)
(0.00382275898238 0.0921911057923 0)
(0.00358389165494 0.0844149466726 0)
(0.00334193896756 0.0771513172796 0)
(0.00310384390152 0.0703967776911 0)
(0.00286944656349 0.0641427318611 0)
(0.0026439674409 0.0583739215487 0)
(0.00242649911173 0.0530722654521 0)
(0.00222085387715 0.0482154593269 0)
(0.0020256045302 0.0437801300043 0)
(0.00184348713264 0.0397405160029 0)
(0.00167274070889 0.0360710216525 0)
(0.00151528246479 0.0327450049962 0)
(0.00136915412284 0.0297368541457 0)
(0.00123566061895 0.0270208770151 0)
(0.0011127508921 0.0245729856392 0)
(0.00100125791769 0.0223696809289 0)
(0.000899022004415 0.0203894917101 0)
(0.00080619964565 0.018612303982 0)
(0.000719579057933 0.0170212613022 0)
(0.000635437759866 0.0156072576533 0)
(0.000536434002018 0.0143516123133 0)
(0.000429085218043 0.0131370585148 0)
(0.0004333044669 0.0124948856427 0)
(0.000453948043404 0.0115292583198 0)
(0.000408188759124 0.0105794497595 0)
(0.000353395640821 0.00982791927101 0)
(0.000381107160487 0.00919105095607 0)
(0.000448059654863 0.00835627058502 0)
(0.000468693120345 0.00747695820643 0)
(0.000495342549642 0.00648578913091 0)
(0.000587515803432 0.00535871280053 0)
(0.000679868530849 0.00408498285908 0)
(0.000765529624132 0.00251161271957 0)
(0.00081490782608 0.000794854976908 0)
(-0.0216190482397 0.00706766489763 0)
(-0.0227295267969 0.022856874911 0)
(-0.0227557612775 0.0387263197011 -2.54331481905e-27)
(-0.0226078478954 0.0544955416007 0)
(-0.0223808056487 0.0700933280922 0)
(-0.0220854508984 0.0855003955643 0)
(-0.0217320799306 0.100680995547 0)
(-0.0213214833306 0.115598913315 0)
(-0.0208615428617 0.130218110524 0)
(-0.0203510323935 0.144505266887 0)
(-0.0197985063976 0.158428273464 0)
(-0.0192016956297 0.171958175704 0)
(-0.0185701261479 0.185067358753 0)
(-0.0179004013239 0.197731408819 0)
(-0.0172028548687 0.209927143812 0)
(-0.0164727009859 0.221634411173 0)
(-0.0157208559735 0.232834001702 0)
(-0.014940912413 0.243509376525 0)
(-0.0141441676094 0.253644514271 0)
(-0.0133224429989 0.263225561508 0)
(-0.0124873024556 0.272238680892 0)
(-0.0116287874279 0.280671630502 0)
(-0.0107587023263 0.288511696065 0)
(-0.0098654320929 0.295747200358 0)
(-0.00896110094755 0.30236559998 0)
(-0.00803270421084 0.308354921387 0)
(-0.00709282757664 0.313702103123 0)
(-0.00612744175929 0.318394342824 0)
(-0.00514979896958 0.322417748525 0)
(-0.00414531528272 0.325758576818 0)
(-0.00312814734038 0.328402225708 0)
(-0.0020836555573 0.330334485509 0)
(-0.00102714964596 0.331540835387 0)
(5.5411578907e-05 0.332007462606 0)
(0.00114730981343 0.331721189703 0)
(0.00226141487936 0.330670252396 0)
(0.00337936961069 0.328844718015 0)
(0.00451230815639 0.32623704438 0)
(0.00564011750181 0.322842964347 0)
(0.00677176803416 0.318661786456 0)
(0.00788540859814 0.313697674812 0)
(0.00898758905376 0.307959646592 0)
(0.0100549213135 0.301463159241 0)
(0.0110915120085 0.294229777612 0)
(0.0120728232838 0.286288941406 0)
(0.0130007750116 0.277677272338 0)
(0.0138503605508 0.268440363723 0)
(0.0146220142237 0.258631657759 0)
(0.0152914177853 0.248314012595 0)
(0.0158588821148 0.237557974077 0)
(0.0163026531195 0.226442807682 0)
(0.0166250538424 0.215053910769 0)
(0.0168093694842 0.203483011425 0)
(0.0168624026283 0.191824581034 0)
(0.0167748159081 0.180175213214 0)
(0.0165596884757 0.16862929191 0)
(0.0162161399162 0.157277982516 0)
(0.0157636256539 0.146204809911 0)
(0.0152087569476 0.135484973512 0)
(0.0145752838466 0.125181696077 0)
(0.0138741338776 0.115346644751 0)
(0.0131294627092 0.106017858283 0)
(0.0123523150259 0.0972216526411 0)
(0.0115635862117 0.0889721055516 0)
(0.0107715088036 0.0812738559548 0)
(0.00999205610136 0.0741223454576 0)
(0.00922983262652 0.0675066541611 0)
(0.00849606684087 0.0614098104255 0)
(0.00779226039041 0.0558111768107 0)
(0.00712587904421 0.0506865587779 0)
(0.0064962023394 0.0460100597146 0)
(0.00590790989834 0.0417540181283 0)
(0.00535875076562 0.0378904505967 0)
(0.00485133822295 0.0343909056215 0)
(0.00438239037698 0.0312275974439 0)
(0.00395303159622 0.0283731907356 0)
(0.00355936657444 0.0258016599714 0)
(0.00320149212475 0.0234879737136 0)
(0.00287512136914 0.021408652258 0)
(0.00257927168264 0.0195411963074 0)
(0.00230819161494 0.0178639160163 0)
(0.0020564996583 0.0163537377706 0)
(0.00180470670666 0.0149839885804 0)
(0.00155357780537 0.0135959866279 0)
(0.00144511699001 0.0123265677433 0)
(0.00141697945314 0.0114020395278 0)
(0.00121880159992 0.0103481201634 0)
(0.00106077129252 0.00966530507528 0)
(0.00111178948432 0.00886905187346 0)
(0.00128484009657 0.0082376002873 0)
(0.00139794140279 0.00751900587994 0)
(0.0015413414164 0.00646656772922 0)
(0.00176011866176 0.00530852677758 0)
(0.00222961586572 0.00425223414122 0)
(0.00274327532881 0.0027240369411 0)
(0.00244545773026 0.000734474367804 0)
(-0.0366939807979 0.00718921506059 0)
(-0.0386554147881 0.0231253062392 0)
(-0.038515321843 0.0389887820204 -2.54682057789e-27)
(-0.0382162178845 0.0548609298034 0)
(-0.0378164683889 0.0705654661775 0)
(-0.0373170261837 0.086077029728 0)
(-0.0367231461238 0.101357899876 0)
(-0.0360379439769 0.11637127572 0)
(-0.0352682447521 0.131081295191 0)
(-0.0344173990165 0.145454232187 0)
(-0.0334930452583 0.159458173858 0)
(-0.0324983871658 0.173063804366 0)
(-0.0314415593856 0.186243833325 0)
(-0.030325219588 0.198973631562 0)
(-0.0291575778785 0.21123051868 0)
(-0.0279402901643 0.222994296886 0)
(-0.0266812118164 0.234246423957 0)
(-0.0253805938515 0.244970452335 0)
(-0.0240455924032 0.25515113111 0)
(-0.0226747907985 0.264774778666 0)
(-0.0212744626747 0.27382835419 0)
(-0.0198414618872 0.28229978837 0)
(-0.0183811925369 0.290177095073 0)
(-0.0168889349066 0.297448701435 0)
(-0.0153694310918 0.304102646612 0)
(-0.0138167403324 0.310126929067 0)
(-0.0122353032475 0.315508854206 0)
(-0.0106184623255 0.320235420764 0)
(-0.00897083367541 0.324292842805 0)
(-0.00728566646949 0.327666962246 0)
(-0.00556834321169 0.330343032174 0)
(-0.0038127414912 0.332306144204 0)
(-0.00202560344774 0.333541234153 0)
(-0.000202257162996 0.334033606458 0)
(0.00164849179564 0.333769195695 0)
(0.00352906294528 0.332735144714 0)
(0.00542796169708 0.330920333695 0)
(0.00734463611766 0.328315978368 0)
(0.00926443546489 0.324916409593 0)
(0.01118333238 0.320719652913 0)
(0.013083308275 0.315728382221 0)
(0.0149566549579 0.309950414093 0)
(0.0167820896103 0.303399772301 0)
(0.0185483671336 0.296097052913 0)
(0.0202313943479 0.288070506603 0)
(0.0218169558167 0.279356219413 0)
(0.0232790959973 0.269999120963 0)
(0.0246018694752 0.260052896842 0)
(0.0257592635136 0.249580710035 0)
(0.0267359720222 0.23865462488 0)
(0.0275090525664 0.227355696057 0)
(0.0280676233961 0.215772540141 0)
(0.0283961603082 0.204000396032 0)
(0.0284927093364 0.192138553123 0)
(0.0283533864275 0.180288371159 0)
(0.0279885201739 0.168549787665 0)
(0.0274078930472 0.157018820397 0)
(0.0266344372732 0.145783877786 0)
(0.0256900135808 0.134923571473 0)
(0.0246065355861 0.124503828919 0)
(0.0234122847154 0.114577007379 0)
(0.0221409693161 0.105180954182 0)
(0.0208196131082 0.0963400969078 0)
(0.0194769293654 0.0880663200285 0)
(0.018133623294 0.0803611957973 0)
(0.0168105414246 0.0732174367913 0)
(0.0155210221965 0.0666211401607 0)
(0.0142785029785 0.060552991454 0)
(0.0130902285705 0.0549900003851 0)
(0.0119639906402 0.049906251868 0)
(0.0109026788872 0.0452741166267 0)
(0.00991004877246 0.0410647009805 0)
(0.00898590078648 0.0372487389178 0)
(0.00813104467873 0.0337969025419 0)
(0.00734308817987 0.0306804895011 0)
(0.00662078688933 0.0278715995481 0)
(0.00596037162221 0.0253436127805 0)
(0.0053593887111 0.0230711794052 0)
(0.00481347510987 0.0210304036657 0)
(0.0043197522126 0.0191984410531 0)
(0.00387400387334 0.0175529324937 0)
(0.0034738264635 0.016070069223 0)
(0.00311817081513 0.0147297269348 0)
(0.00281377583378 0.0133671426439 0)
(0.002585954858 0.0121963090519 0)
(0.00238926589336 0.011224039392 0)
(0.00216147250259 0.0104524569934 0)
(0.00190149871164 0.00932135735063 0)
(0.00178653678426 0.00832468976253 0)
(0.0019564637304 0.00777921581367 0)
(0.00240588176104 0.00737406138948 0)
(0.00257045548463 0.00592081865278 0)
(0.00303194180121 0.00495438657695 0)
(0.00363303720994 0.00365577460724 0)
(0.00413868786834 0.002217206899 0)
(0.00400265054547 0.00067857959383 0)
(-0.0517615190367 0.00726903978527 0)
(-0.0546851013333 0.0233468300486 0)
(-0.054482846575 0.0393021363226 2.54648409054e-27)
(-0.05405004049 0.0552919127807 0)
(-0.0534749873598 0.0711152964003 0)
(-0.0527617793526 0.0867434165885 0)
(-0.0519155438138 0.102136387304 0)
(-0.0509416777544 0.117256297895 0)
(-0.0498476158154 0.1320668086 0)
(-0.0486400632448 0.146533725454 0)
(-0.0473275437192 0.160625028549 0)
(-0.0459171930699 0.17431121409 0)
(-0.0444178983958 0.187565162771 0)
(-0.0428365196125 0.200362339861 0)
(-0.0411816084871 0.212680522219 0)
(-0.0394590550373 0.224499874149 0)
(-0.0376764210152 0.235802555724 0)
(-0.0358380283448 0.246572696156 0)
(-0.0339499356984 0.256795912062 0)
(-0.0320145006208 0.266459206567 0)
(-0.0300360160035 0.275550446238 0)
(-0.0280147694154 0.284058236017 0)
(-0.025953324718 0.291971411827 0)
(-0.0238501043732 0.299278937178 0)
(-0.0217062771025 0.305969466802 0)
(-0.0195188796132 0.312031307196 0)
(-0.0172882453289 0.317452089957 0)
(-0.0150107044743 0.322218814751 0)
(-0.0126864865612 0.326317658808 0)
(-0.010312052277 0.329734100907 0)
(-0.00788841323059 0.332452951207 0)
(-0.00541311292793 0.334458522769 0)
(-0.00288888951026 0.335734831748 0)
(-0.00031548360906 0.336265978527 0)
(0.00230155988355 0.336036509815 0)
(0.00495921700658 0.335031952284 0)
(0.00764812882754 0.333239384263 0)
(0.0103610176158 0.330648094968 0)
(0.0130839330053 0.327250334353 0)
(0.0158046869146 0.323042042786 0)
(0.0185043360585 0.318023710981 0)
(0.0211655552159 0.31220110861 0)
(0.0237644660769 0.305586183566 0)
(0.0262788526638 0.298197729057 0)
(0.0286804280856 0.290062266399 0)
(0.0309428564079 0.281214619902 0)
(0.0330346042647 0.27169873306 0)
(0.0349268532547 0.261568084897 0)
(0.0365871816564 0.250886282875 0)
(0.0379875644978 0.239727066378 0)
(0.0390991228251 0.228174263315 0)
(0.03990020409 0.216320837766 0)
(0.0403720509278 0.204267605168 0)
(0.0405063902914 0.192120841147 0)
(0.0403012460516 0.179989590224 0)
(0.0397670993829 0.167982067122 0)
(0.0389220788619 0.156202200496 0)
(0.0377962075473 0.144745739491 0)
(0.0364255952615 0.133696997796 0)
(0.0348545802314 0.123125730557 0)
(0.0331286127238 0.113085492705 0)
(0.0312947972604 0.103613133774 0)
(0.029395530926 0.0947300237247 0)
(0.0274698956503 0.0864439480295 0)
(0.0255496789746 0.0787516892991 0)
(0.023662059353 0.0716413151211 0)
(0.0218273559861 0.0650944787274 0)
(0.020062128071 0.0590880852045 0)
(0.0183776751285 0.0535958161694 0)
(0.0167828788859 0.0485890794556 0)
(0.015282827957 0.0440378975533 0)
(0.0138810929755 0.0399114710771 0)
(0.0125783378795 0.0361788223415 0)
(0.011374221204 0.0328092569135 0)
(0.0102661866256 0.0297728864675 0)
(0.00925116860147 0.0270409504719 0)
(0.00832458010155 0.0245861686948 0)
(0.00748187990523 0.0223828717078 0)
(0.00671777596182 0.0204071142793 0)
(0.00602779962923 0.0186365057067 0)
(0.0054080689469 0.017049795195 0)
(0.00485757229861 0.0156269639513 0)
(0.00438693907584 0.0143478186078 0)
(0.00396134407826 0.0130009044118 0)
(0.00365722761843 0.0120253195523 0)
(0.00336502541336 0.0110653674486 0)
(0.0030911387262 0.0100960699761 0)
(0.00281003624777 0.00893709335639 0)
(0.00275040128977 0.00819931757113 0)
(0.00274276829423 0.00709733889534 0)
(0.00310075472726 0.0061854538295 0)
(0.00386106271706 0.00560626293072 0)
(0.00415431677685 0.00410356127527 0)
(0.00481202274365 0.00290670147648 0)
(0.00547568673301 0.00179417448964 0)
(0.00545218667394 0.000586788155847 0)
(-0.0670151334521 0.00734644542893 0)
(-0.0708371202173 0.0236135628528 0)
(-0.0705771710111 0.0397225709054 0)
(-0.0700121516986 0.0558740766299 0)
(-0.0692602906716 0.0718568442382 0)
(-0.0683291791328 0.0876402021284 0)
(-0.0672253623405 0.103182438057 0)
(-0.065956421396 0.118444360144 0)
(-0.0645314313326 0.133388793368 0)
(-0.0629598523722 0.14798091897 0)
(-0.0612521605433 0.162188389842 0)
(-0.059418616651 0.175981522151 0)
(-0.0574700930911 0.189333297261 0)
(-0.0554166652862 0.202219416725 0)
(-0.0532686285031 0.214618166229 0)
(-0.0510349193612 0.226510334051 0)
(-0.0487243507415 0.237878943053 0)
(-0.046343896225 0.248709045746 0)
(-0.0439001820626 0.258987353461 0)
(-0.0413976717952 0.268701948229 0)
(-0.0388404422951 0.277841857762 0)
(-0.0362302940562 0.286396740297 0)
(-0.0335688144663 0.294356473792 0)
(-0.0308554162872 0.301710879457 0)
(-0.0280896591518 0.308449381404 0)
(-0.0252692020158 0.314560812584 0)
(-0.0223923409146 0.320033184167 0)
(-0.0194558666472 0.324853598219 0)
(-0.0164577819899 0.329008139091 0)
(-0.0133950809451 0.332481878776 0)
(-0.0102666376409 0.335258988091 0)
(-0.00707087159969 0.337322799462 0)
(-0.00380880591702 0.338656067977 0)
(-0.000481732542338 0.339241291792 0)
(0.00290571342072 0.339061121624 0)
(0.00634792144834 0.338098886518 0)
(0.00983524887754 0.336339212552 0)
(0.0133564697477 0.333768724607 0)
(0.0168958361862 0.330376843143 0)
(0.0204356318813 0.326156601768 0)
(0.0239534289145 0.321105537555 0)
(0.0274247360424 0.3152265335 0)
(0.0308204798814 0.308528723398 0)
(0.0341097012357 0.301028296691 0)
(0.0372572711275 0.292749385402 0)
(0.0402266323866 0.283724831534 0)
(0.0429778539709 0.273997084006 0)
(0.0454705999173 0.263618942822 0)
(0.047662846066 0.252654366476 0)
(0.0495144786045 0.241178965059 0)
(0.0509870738057 0.22928016815 0)
(0.0520483267645 0.217056717399 0)
(0.0526727518315 0.204617234622 0)
(0.0528461273376 0.192077795015 0)
(0.0525658758932 0.17955851726 0)
(0.0518440197712 0.167179449113 0)
(0.050706045802 0.155056155597 0)
(0.0491917646411 0.143295031938 0)
(0.0473523772831 0.131989010026 0)
(0.0452488320102 0.12121336261 0)
(0.042945727217 0.111023217346 0)
(0.0405073778205 0.101453371583 0)
(0.0379923942696 0.0925202322834 0)
(0.0354521209371 0.0842250750667 0)
(0.0329287068645 0.0765575683523 0)
(0.030456169596 0.0694989551605 0)
(0.0280604047741 0.0630247117805 0)
(0.0257610849391 0.0571065022297 0)
(0.0235721799182 0.0517136570355 0)
(0.0215037018733 0.0468140485553 0)
(0.0195619087392 0.0423747350188 0)
(0.0177503881799 0.0383623966737 0)
(0.0160698634687 0.0347438541157 0)
(0.014519014598 0.0314865578007 0)
(0.0130943828338 0.0285590799768 0)
(0.011791180456 0.0259314883249 0)
(0.0106032853743 0.0235756859997 0)
(0.00952404533033 0.0214656169265 0)
(0.00854637981127 0.0195774567715 0)
(0.00766366329331 0.0178897696188 0)
(0.00687019344719 0.0163836416342 0)
(0.00616250996591 0.0150494941858 0)
(0.0055521828628 0.0138267889132 0)
(0.00503180505392 0.0126477556312 0)
(0.00470048860275 0.0118277137416 0)
(0.00442446683066 0.0109045933152 0)
(0.00423899674607 0.00995702741603 0)
(0.00396103940804 0.00878321338962 0)
(0.00364350200124 0.00735736362991 0)
(0.00373859658001 0.006495232507 0)
(0.00392599747754 0.00531636194718 0)
(0.00474716841105 0.0046589054154 0)
(0.00566442902182 0.00374646604907 0)
(0.0059460108954 0.0023994710282 0)
(0.00636785102338 0.00141106131528 0)
(0.00635639886319 0.000468029035618 0)
(-0.0824629664611 0.00743539226931 0)
(-0.087176880613 0.0239392122188 0)
(-0.0868574995687 0.0402523374743 0)
(-0.086157679268 0.0566119691935 0)
(-0.0852247316918 0.0727975861225 0)
(-0.0840694630896 0.0887774204195 0)
(-0.0827004275302 0.104508118979 0)
(-0.0811275140743 0.119949135764 0)
(-0.0793620218815 0.135062247815 0)
(-0.0774161272396 0.149811857731 0)
(-0.0753028487138 0.164165141869 0)
(-0.0730354456494 0.178092196095 0)
(-0.0706274262194 0.191566082418 0)
(-0.0680918818278 0.204562839 0)
(-0.0654415517212 0.217061377704 0)
(-0.0626881175832 0.229043341659 0)
(-0.0598423637531 0.24049285108 0)
(-0.0569134770136 0.251396219289 0)
(-0.0539093532725 0.261741571069 0)
(-0.0508359547901 0.271518457375 0)
(-0.0476978069774 0.280717406766 0)
(-0.0444974437735 0.289329512826 0)
(-0.0412361029596 0.297345998685 0)
(-0.0379132538516 0.304757855204 0)
(-0.0345274600057 0.311555490699 0)
(-0.0310759501693 0.317728475128 0)
(-0.0275555979052 0.323265308202 0)
(-0.0239625042247 0.328153282978 0)
(-0.020293065493 0.3323783758 0)
(-0.0165435726466 0.33592520769 0)
(-0.0127113756923 0.338777154813 0)
(-0.00879445803935 0.340916357033 0)
(-0.00479273880656 0.342323976203 0)
(-0.000707713123493 0.342980501909 0)
(0.00345625520553 0.342866162808 0)
(0.00769228829539 0.341961478878 0)
(0.0119897400475 0.340247913642 0)
(0.0163346470662 0.337708652095 0)
(0.0207086201078 0.334329454516 0)
(0.0250894644551 0.330099582237 0)
(0.0294502891779 0.325012751668 0)
(0.0337603117778 0.31906808795 0)
(0.0379841794398 0.312271071516 0)
(0.0420828911433 0.304634440739 0)
(0.0460132698036 0.296179119201 0)
(0.049728963206 0.286935129542 0)
(0.0531801235329 0.27694263619 0)
(0.0563147433805 0.266253024711 0)
(0.0590789746566 0.254930123552 0)
(0.0614195081853 0.243051271193 0)
(0.0632852797497 0.230708102451 0)
(0.0646314678694 0.218006517717 0)
(0.065422603366 0.205065413984 0)
(0.0656371336136 0.192013974372 0)
(0.0652699567054 0.178987487198 0)
(0.0643347813657 0.166122232098 0)
(0.0628645467616 0.153549927151 0)
(0.0609109317803 0.141392037012 0)
(0.0585428381102 0.129754014496 0)
(0.0558428427397 0.118719014115 0)
(0.0528992726601 0.108343959521 0)
(0.0497981455271 0.098659714067 0)
(0.0466165036156 0.0896746780503 0)
(0.0434193174362 0.081380175391 0)
(0.0402586756262 0.0737556608468 0)
(0.0371749802127 0.0667729470485 0)
(0.0341983421059 0.0603993405512 0)
(0.0313506451849 0.0545998191492 0)
(0.0286472081982 0.0493384030613 0)
(0.0260986019539 0.0445787877266 0)
(0.0237114886565 0.0402845711086 0)
(0.0214893234685 0.0364194193718 0)
(0.019432349345 0.0329474474448 0)
(0.0175380924813 0.0298337791002 0)
(0.0158016310976 0.0270450584634 0)
(0.0142162141606 0.0245498617655 0)
(0.012773612722 0.0223190443452 0)
(0.0114647313384 0.0203259784333 0)
(0.0102800018805 0.0185467455262 0)
(0.00920998327058 0.0169603303769 0)
(0.00824579064506 0.015548557201 0)
(0.00738022777206 0.0143057508486 0)
(0.00661746386455 0.013112577006 0)
(0.00601588024129 0.0120496504019 0)
(0.00562965200702 0.0111394071637 0)
(0.00539190768561 0.0102398779522 0)
(0.00508742269439 0.00904595447472 0)
(0.00501728368958 0.00818071957781 0)
(0.00498164648653 0.00720096667908 0)
(0.00510413593478 0.00621429226695 0)
(0.00492031366751 0.00468671960414 0)
(0.00540620099921 0.00368418367765 0)
(0.00657243226052 0.00309948749691 0)
(0.00706816938894 0.00212980322056 0)
(0.00723966577929 0.00120137182638 0)
(0.00724966850695 0.00039851158329 0)
(-0.0981427453713 0.00754029802281 0)
(-0.103754482161 0.0243311621584 0)
(-0.10337154576 0.0408957862218 2.56513013097e-27)
(-0.102531697304 0.0575106065224 0)
(-0.101411033818 0.0739440334369 0)
(-0.100023256006 0.0901631457473 0)
(-0.0983791464969 0.106122868397 0)
(-0.0964910646299 0.121781134411 0)
(-0.0943729243314 0.137098476196 0)
(-0.0920398067873 0.152038352304 0)
(-0.0895077025169 0.166567328186 0)
(-0.0867930496872 0.180655225187 0)
(-0.0839124508978 0.194275187147 0)
(-0.0808821694954 0.20740367912 0)
(-0.0777178524835 0.220020391533 0)
(-0.0744340225767 0.23210806314 0)
(-0.0710438576966 0.243652208014 0)
(-0.0675587417134 0.254640764082 0)
(-0.063988171924 0.265063664891 0)
(-0.0603394401801 0.274912361217 0)
(-0.0566177308411 0.284179307862 0)
(-0.052825977195 0.292857449813 0)
(-0.0489651662918 0.300939729082 0)
(-0.0450343553566 0.308418640735 0)
(-0.0410311364663 0.315285849237 0)
(-0.0369517481349 0.321531877447 0)
(-0.0327916281902 0.327145864274 0)
(-0.0285455631916 0.332115389188 0)
(-0.0242082947442 0.33642635007 0)
(-0.0197747162931 0.340062880037 0)
(-0.0152405571616 0.343007443564 0)
(-0.0106025987631 0.345240782481 0)
(-0.0058595166441 0.346742159104 0)
(-0.00101220601843 0.347489628202 0)
(0.00393537045281 0.347460458523 0)
(0.00897582567797 0.346631697796 0)
(0.0140975452981 0.344980887531 0)
(0.0192844451128 0.342486910576 0)
(0.0245153551408 0.33913095708 0)
(0.0297640137071 0.334897560085 0)
(0.0349987335605 0.32977566983 0)
(0.0401826623366 0.323759708436 0)
(0.0452736947 0.316850591968 0)
(0.0502248770638 0.309056686404 0)
(0.0549844003034 0.300394773088 0)
(0.0594959917496 0.290891023677 0)
(0.0636989636794 0.280582231776 0)
(0.0675288289164 0.269517196541 0)
(0.0709180078973 0.257758573269 0)
(0.0737977877861 0.245384753834 0)
(0.0761010309841 0.232491652665 0)
(0.0777668713734 0.219193603556 0)
(0.0787459085172 0.20562249467 0)
(0.0790063668328 0.191924767186 0)
(0.0785385070754 0.178255801033 0)
(0.0773572063341 0.164773685884 0)
(0.0755033236805 0.151631958334 0)
(0.0730420165601 0.138972977376 0)
(0.0700638757689 0.126920574445 0)
(0.0666804797151 0.115569449967 0)
(0.0630116430343 0.10497817532 0)
(0.0591713903642 0.0951702658657 0)
(0.0552583825871 0.0861410828747 0)
(0.0513520873898 0.0778669481332 0)
(0.0475135648713 0.0703129600337 0)
(0.0437882368758 0.0634383815291 0)
(0.040208532663 0.0572001682522 0)
(0.0367968470256 0.0515551898645 0)
(0.0335681889647 0.0464614623183 0)
(0.0305327014033 0.0418782007964 0)
(0.0276968377991 0.0377653480292 0)
(0.0250637099163 0.0340831655744 0)
(0.022632734099 0.0307925456503 0)
(0.0203998956376 0.0278557743869 0)
(0.0183582899834 0.02523714707 0)
(0.0164987747978 0.0229034244229 0)
(0.0148104649022 0.0208241653812 0)
(0.0132813812269 0.018971974851 0)
(0.0118989212033 0.0173226828133 0)
(0.0106503706893 0.0158555303333 0)
(0.00952314861852 0.0145536469575 0)
(0.00850715038822 0.013414177598 0)
(0.00759744912396 0.0122494089975 0)
(0.00709244187852 0.0114602164491 0)
(0.00664597253643 0.0104611209133 0)
(0.00639701764932 0.00952831986221 0)
(0.00615616274338 0.00852139783858 0)
(0.00592034436427 0.00741428521613 0)
(0.00602143628425 0.00653298101161 0)
(0.00603377724515 0.00533127837993 0)
(0.00638009903173 0.00443289517984 0)
(0.0063454094928 0.00314587796667 0)
(0.00698077632778 0.00239515264656 0)
(0.00787701747883 0.001821578293 0)
(0.00798295937176 0.00102839260186 0)
(0.00800487124089 0.00034152799502 0)
(-0.114097573216 0.00766333597253 0)
(-0.120619010753 0.0247945262162 0)
(-0.120167765353 0.0416583933288 -2.56473670821e-27)
(-0.119181053203 0.0585768895391 0)
(-0.117863998357 0.0753047190007 0)
(-0.116233145724 0.0918075911793 0)
(-0.114301651559 0.1080383987 0)
(-0.112084570209 0.123953309155 0)
(-0.109598759437 0.139511370827 0)
(-0.106862519802 0.154674905154 0)
(-0.103895210907 0.169409725505 0)
(-0.100716798019 0.183685308737 0)
(-0.0973474094769 0.19747488448 0)
(-0.0938068312543 0.210755439512 0)
(-0.0901140436923 0.22350761997 0)
(-0.0862867115102 0.235715532551 0)
(-0.0823407647713 0.24736643177 0)
(-0.0782899669289 0.258450307977 0)
(-0.0741456369171 0.268959375268 0)
(-0.069916397976 0.278887495575 0)
(-0.0656081332697 0.288229554674 0)
(-0.0612239823423 0.29698084257 0)
(-0.0567645549135 0.305136457901 0)
(-0.0522281515258 0.312690786181 0)
(-0.0476111634738 0.319637054275 0)
(-0.0429084125986 0.325966986353 0)
(-0.0381136233149 0.331670534132 0)
(-0.0332197907061 0.336735687182 0)
(-0.0282196777862 0.341148319853 0)
(-0.0231062336321 0.344892081401 0)
(-0.0178731624827 0.347948440042 0)
(-0.0125154018444 0.350296570975 0)
(-0.00702989998055 0.351913541985 0)
(-0.00141625202314 0.352774556946 0)
(0.00432247411318 0.352853353617 0)
(0.0101790353986 0.352122801395 0)
(0.0161412252101 0.350555667883 0)
(0.0221913091874 0.348125583738 0)
(0.0283054752857 0.34480813304 0)
(0.0344535948934 0.340582061145 0)
(0.040599056701 0.335430494979 0)
(0.0466989074636 0.329342142779 0)
(0.0527040123805 0.322312384812 0)
(0.0585593539116 0.314344256669 0)
(0.0642042032112 0.305449363683 0)
(0.0695721861573 0.295648850522 0)
(0.0745912281182 0.284974667264 0)
(0.0791834606751 0.273471307097 0)
(0.0832657263895 0.261198371186 0)
(0.0867509589556 0.248233637149 0)
(0.0895516400638 0.234676582532 0)
(0.0915855003774 0.220650840556 0)
(0.0927834925517 0.206304395081 0)
(0.0930992363565 0.191806088836 0)
(0.0925155936342 0.177337863229 0)
(0.0910477055785 0.163086597778 0)
(0.0887448323366 0.149234293361 0)
(0.0856859499958 0.135952147167 0)
(0.0819880545205 0.123392033686 0)
(0.0778038794016 0.111666334116 0)
(0.073297541954 0.100834423094 0)
(0.0686204612791 0.0909060148292 0)
(0.0638967445507 0.0818549552481 0)
(0.0592199039883 0.0736349673064 0)
(0.0546576379101 0.0661914575962 0)
(0.0502576519987 0.059467604414 0)
(0.0460520463075 0.0534076834773 0)
(0.0420609480337 0.0479592489763 0)
(0.0382967987137 0.0430740669109 0)
(0.0347679484702 0.0387072762589 0)
(0.0314802868037 0.0348154442492 0)
(0.0284367369411 0.0313552010932 0)
(0.025635689369 0.0282835363379 0)
(0.0230710693697 0.0255592534738 0)
(0.0207333677863 0.0231438692934 0)
(0.0186104963532 0.0210019796355 0)
(0.016688345412 0.0191016033412 0)
(0.0149515507894 0.0174143954506 0)
(0.0133840030275 0.0159157019691 0)
(0.0119694548591 0.0145845098427 0)
(0.0106918901421 0.0134046359658 0)
(0.00954151352982 0.0123584437116 0)
(0.0085051350537 0.0112542330961 0)
(0.00795575274174 0.0104569785081 0)
(0.00761646920155 0.00964113547462 0)
(0.00730679523593 0.00868879613553 0)
(0.00723039684343 0.00789711394446 0)
(0.00708826250457 0.00686727744706 0)
(0.00706215088554 0.00582840293348 0)
(0.00698575794089 0.00467239877876 0)
(0.00714832242674 0.00372562741811 0)
(0.0075630796243 0.00292482716974 0)
(0.0076053140892 0.00198739350397 0)
(0.00856958199094 0.00150753270477 0)
(0.0086223905334 0.000896569958084 0)
(0.00861865239655 0.000287579408567 0)
(-0.130374412421 0.00780575709756 0)
(-0.137820985466 0.0253340248528 0)
(-0.137296182315 0.0425467677601 0)
(-0.136154323892 0.0598194004351 0)
(-0.13463024102 0.07689029781 0)
(-0.132743397395 0.0937233601838 0)
(-0.130509539255 0.110269076433 0)
(-0.127946679731 0.126481497187 0)
(-0.125074984728 0.142317899756 0)
(-0.121916353314 0.157739234468 0)
(-0.118493965428 0.172710393901 0)
(-0.114831756647 0.187200421476 0)
(-0.110953880178 0.20118263094 0)
(-0.106884111613 0.214634626418 0)
(-0.102645262596 0.2275382116 0)
(-0.0982585661617 0.239879168733 0)
(-0.0937431185994 0.251646907679 0)
(-0.0891153521155 0.262833973294 0)
(-0.0843886383969 0.27343543628 0)
(-0.0795729947406 0.283448181079 0)
(-0.0746749871496 0.292870144825 0)
(-0.0696977729256 0.301699545135 0)
(-0.0646413458053 0.309934162575 0)
(-0.0595028798796 0.317570710436 0)
(-0.0542772044721 0.324604331835 0)
(-0.0489572811061 0.33102821656 0)
(-0.0435347250781 0.336833330412 0)
(-0.0380002674805 0.342008214655 0)
(-0.0323442543366 0.3465388199 0)
(-0.0265571388184 0.350408355068 0)
(-0.0206300496172 0.353597269115 0)
(-0.0145553918239 0.356083045159 0)
(-0.00832770457276 0.357840308385 0)
(-0.00194449264777 0.358840995432 0)
(0.00459279251451 0.359054728294 0)
(0.0112777995265 0.358449417279 0)
(0.0180983131521 0.35699211397 0)