/*--------------------------------*- C++ -*----------------------------------*\
| =========                 |                                                 |
| \\      /  F ield         | OpenFOAM: The Open Source CFD Toolbox           |
|  \\    /   O peration     | Version:  v1906                                 |
|   \\  /    A nd           | Web:      www.OpenFOAM.com                      |
|    \\/     M anipulation  |                                                 |
\*---------------------------------------------------------------------------*/
FoamFile
{
    version     2.0;
    format      ascii;
    class       surfaceScalarField;
    location    "454";
    object      phia;
}
// * * * * * * * * * * * * * * * * * * * * * * * * * * * * * * * * * * * * * //

dimensions      [0 3 -1 0 0 0 0];
oriented        oriented;


internalField   nonuniform List<scalar> 
18240
(
0.000844385560635
-0.000844498311161
0.00173055288316
-0.00088629969071
0.00261464046797
-0.000884199730998
0.00349148594785
-0.000876982089699
0.0043582837677
-0.000866904390003
0.00521242034054
-0.000854276416755
0.00605158828747
-0.000839269099287
0.00687349745545
-0.000822051576012
0.00767615478743
-0.000802752976237
0.00845755768184
-0.000781547143951
0.00921603548018
-0.000758567736452
0.00994988855592
-0.000733998482942
0.0106577755326
-0.000707971193089
0.0113382979621
-0.000680668346004
0.0119904277521
-0.000652208219643
0.0126130419028
-0.000622759971116
0.0132053867753
-0.000592417618396
0.0137665686745
-0.000561327052807
0.0142960520444
-0.000529550444539
0.0147931123602
-0.000497204291777
0.0152573662569
-0.000464315475808
0.0156881933749
-0.000430969467912
0.0160852963966
-0.000397159173605
0.016448098142
-0.000362942112829
0.0167763299072
-0.000328282725656
0.017069409256
-0.000293217471478
0.0173270546052
-0.00025769123298
0.0175486481303
-0.000221729260074
0.0177338750992
-0.000185268052311
0.0178820755795
-0.000148333796151
0.017992906267
-0.000110867096927
0.0180656808425
-7.29055587396e-05
0.0181000564727
-3.44076314267e-05
0.018095367897
4.55973620943e-06
0.018051333443
4.4006783251e-05
0.0179673801014
8.38263553002e-05
0.0178433709354
0.000123985629508
0.0176789189987
0.00016432644233
0.017474134949
0.000204764677734
0.0172289255766
0.000245084953027
0.0169437614572
0.00028514884645
0.0166189552015
0.000324682523567
0.0162554498437
0.000363494433909
0.0158540726674
0.000401253892387
0.0154163474538
0.000437718937737
0.0149437211947
0.000472503616828
0.0144384032512
0.00050531717279
0.0139025624447
0.00053571974214
0.0133391920442
0.000563376236577
0.0127512712672
0.000587803488844
0.0121426418265
0.000608643627509
0.0115171228519
0.000625409454975
0.0108793680982
0.000637779380795
0.0102339258341
0.00064534669005
0.00958603633715
0.000647926807752
0.00894065126839
0.000645310585146
0.00830314059071
0.000637561005714
0.00767832254828
0.000624769997069
0.00707106655428
0.000607316795909
0.00648541900948
0.000585627699693
0.00592512878554
0.000560357297001
0.00539299094235
0.000532142868468
0.00489135019014
0.000501708498958
0.00442168315177
0.000469688482044
0.00398501080768
0.000436733270204
0.00358161741515
0.000403421217111
0.00321134392635
0.000370321794985
0.00287343752097
0.000337933560239
0.00256677455852
0.000306697326356
0.00228982745631
0.000276970069315
0.0020408308439
0.000249018468122
0.00181782081575
0.000223026901519
0.00161874959647
0.000199082478261
0.00144155043912
0.000177208928792
0.00128419958797
0.000157353698907
0.00114476724441
0.000139435518411
0.00102143601967
0.000123328359825
0.000912530886117
0.000108903392651
0.000816518781334
9.60062174153e-05
0.000732028303621
8.44856686588e-05
0.000657864263503
7.41570615833e-05
0.000593075614186
6.47822385056e-05
0.000537162849953
5.59059000822e-05
0.000491040530182
4.61156541291e-05
0.000452458460072
3.85758122651e-05
0.000415495155875
3.69563526538e-05
0.000381088438375
3.44005397447e-05
0.000350839998091
3.02411208951e-05
0.000320012593658
3.08202336889e-05
0.000285456011524
3.45486493606e-05
0.000249341896886
3.61050459684e-05
0.000211663673999
3.76691496038e-05
0.000168282011719
4.33729347981e-05
0.000116231459547
5.20382652206e-05
5.63544839593e-05
5.98561880839e-05
5.63444587251e-05
0.000891534538668
-0.00173615418724
0.00183814898332
-0.00183304647511
0.00277953268123
-0.00182570887743
0.00371231960451
-0.00180990107381
0.00463402914974
-0.00178873758816
0.00554211440373
-0.00176249347622
0.00643413432358
-0.00173141046074
0.00730771807442
-0.00169576656082
0.00816069679293
-0.0016558504481
0.00899100135424
-0.00161198185432
0.00979679596219
-0.0015644780424
0.0105763463199
-0.00151367742347
0.0113281634878
-0.00145990066775
0.0120508468824
-0.00140347832288
0.0127432381095
-0.00134470813223
0.0134042414023
-0.00128388746255
0.0140329870563
-0.00122126810383
0.0146286324976
-0.00115709396415
0.0151905355874
-0.00109155437043
0.0157180401803
-0.00102482733578
0.0162106601614
-0.000957032152528
0.0166678536451
-0.000888278146701
0.0170892188022
-0.000818616842035
0.0174742606521
-0.000748095739192
0.0178225995444
-0.000676709906738
0.0181337337809
-0.000604459975632
0.0184072611237
-0.000531302715024
0.0186426396442
-0.000457212536815
0.0188394222438
-0.000382130717834
0.0189970169462
-0.000306029815593
0.0191149362408
-0.000228862560855
0.0191925594009
-0.00015062674229
0.0192293920317
-7.13126885177e-05
0.0192248299776
9.02685812692e-06
0.0191784337665
9.03340767077e-05
0.0190896937163
0.000172474311581
0.0189583163299
0.000255297429607
0.0187839883078
0.000338564932066
0.018566673401
0.000422017095936
0.018306371855
0.000505299240751
0.018003425668
0.000588035518401
0.0176582696169
0.000669753367026
0.0172717438198
0.00074996361334
0.0168448338953
0.00082808061396
0.0163789919835
0.000903507384935
0.0158758658559
0.000975548901436
0.0153376309779
0.00104350237953
0.0147667088037
0.0011065644317
0.0141661090328
0.00116393147846
0.0135391318673
0.00121470848794
0.0128897076205
0.00125803072731
0.0122220663061
0.0012929873063
0.0115410452137
0.00131877418356
0.0108517026947
0.00133463954312
0.0101595593615
0.00134005901312
0.00947015024275
0.00133468907491
0.00878918678741
0.00131853142543
0.00812207611524
0.00129187204501
0.00747401391183
0.00125540415967
0.00684952808054
0.00121012676091
0.00625256198444
0.00115736370152
0.00568618229655
0.00109855412885
0.00515277313463
0.00103516678091
0.00465393216267
0.000968569953353
0.00419065038468
0.000900063359546
0.00376323404343
0.000830876530871
0.00337142379958
0.000762172241106
0.00301438059295
0.000695008964015
0.00269081074641
0.000630297238477
0.00239902185703
0.000568783340296
0.00213704190481
0.000511018805558
0.00190270866967
0.000457376144358
0.00169377063393
0.000408031620758
0.00150797598019
0.000363011153329
0.0013431338535
0.000322198830578
0.00119716735765
0.000285402531287
0.00106813188743
0.000252361118252
0.000954237893344
0.000222793303762
0.000853847430496
0.000196390843282
0.000765474965767
0.000172851750682
0.000687760368787
0.000151864599922
0.000619412334401
0.00013312303603
0.00055901055898
0.000116300662108
0.00050409592079
0.000101023355895
0.000454107587149
8.8557603684e-05
0.000409424809458
8.16323362802e-05
0.000372684855119
7.11338250188e-05
0.000341629906522
6.1289021216e-05
0.000312323552017
6.01194761946e-05
0.000281809341542
6.50548476225e-05
0.000247148679238
7.07572454272e-05
0.000209378386767
7.54309451635e-05
0.000168197047206
8.45441227831e-05
0.000119264127846
0.0001009596618
5.86366597831e-05
0.000120467770171
0.000114971415552
0.00089974852616
-0.00263602630711
0.00185205058862
-0.00278547788181
0.00280015490293
-0.00277394298335
0.00373973669379
-0.00274961317327
0.00466806318226
-0.00271719239193
0.00558251844143
-0.00267707829394
0.00648060346113
-0.00262962214754
0.007359938762
-0.00257523009376
0.00821831256121
-0.00251434890466
0.00905366345709
-0.00244745914415
0.0098641220316
-0.00237505882118
0.0106479786887
-0.00229765819876
0.0114037213802
-0.00221576275924
0.0121299908472
-0.0021298692495
0.0128256152319
-0.00204044876768
0.0134895542833
-0.00194794498847
0.0141209318385
-0.00185275850989
0.0147189710586
-0.0017552483848
0.0152830263646
-0.00165571887194
0.0158125124951
-0.00155442516293
0.0163069382155
-0.00145156326275
0.0167658323834
-0.00134728032685
0.0171887818458
-0.00124166774436
0.0175753575489
-0.00113477566656
0.0179251587283
-0.00102660855549
0.0182377413456
-0.00091714299111
0.0185126698247
-0.000806324686249
0.018749449282
-0.000694088613194
0.0189475856092
-0.000580356681544
0.019106522557
-0.000465059712801
0.019225710686
-0.000348136587965
0.0193045496867
-0.00022955519589
0.019342467185
-0.000109312572582
0.0193388673342
1.25405388753e-05
0.0192932191115
0.000135903230902
0.0192050105675
0.000260599714098
0.0190738460549
0.000386385911883
0.0188994039999
0.000512926610965
0.0186815405894
0.000639807299838
0.0184202474977
0.00076651445509
0.0181157588276
0.00089245355612
0.0177685048938
0.00101693173576
0.0173792199339
0.00113918045985
0.0169488900031
0.00125833728301
0.0164788621738
0.00137346975722
0.0159707882646
0.00148355222575
0.0154267394314
0.00158748907357
0.0148491494466
0.00168408742764
0.0142409370374
0.00177208631505
0.0136054462482
0.0018501377068
0.0129465656405
0.00191686066819
0.0122686456663
0.00197085423351
0.0115765819209
0.00201079806625
0.0108756718218
0.00203550987851
0.0101716219297
0.00204408475164
0.009470321939
0.00203596732053
0.00877777028982
0.00201107801258
0.00809978676427
0.00196985454773
0.00744186713584
0.00191333851615
0.00680886424443
0.00184314986831
0.00620483495588
0.00176142611046
0.00563289874253
0.00167052782559
0.00509534847463
0.00157276179156
0.00459373282191
0.00147022851389
0.00412895973474
0.00136487997205
0.0037012770377
0.00125859682221
0.00331030528785
0.00115317851667
0.002955071199
0.00105027223837
0.00263410211533
0.000951291736425
0.00234552509305
0.000857381788835
0.00208717365847
0.000769387469788
0.00185670367329
0.000687859336579
0.00165169778352
0.000613046059445
0.00146977329207
0.000544940324408
0.00130864497684
0.000483327795326
0.00116617462623
0.000427870875142
0.00104038068022
0.000378150344943
0.000929454010833
0.000333714096061
0.000831748238536
0.000294089424463
0.000745775219576
0.000258817378705
0.000670170880282
0.000227461142258
0.00060364442425
0.000199641993496
0.000544869236199
0.000175068501916
0.000492157196144
0.000153728474252
0.000445235480187
0.000135472495523
0.000403649462497
0.000123211491943
0.000363635869199
0.000111140263395
0.000325008965008
9.99090160953e-05
0.000293549236538
9.15719515059e-05
0.000267743115476
9.08530324068e-05
0.000233338319817
0.000105153064023
0.000191327938525
0.000117432661187
0.000147213366904
0.000128651720899
9.84384852321e-05
0.000149724035134
5.0235082661e-05
0.000168656606895
0.000165199792241
0.000908198923965
-0.00354435007523
0.00186851945923
-0.00374593142155
0.00282473214875
-0.00373028664173
0.0037722902886
-0.00369730292781
0.00470833348708
-0.00365336582477
0.00563016449332
-0.00359903955226
0.00653522035241
-0.00353480688371
0.00742108321098
-0.00346122160396
0.00828550385562
-0.00337889651741
0.00912640684714
-0.00328848873186
0.00994190647548
-0.00319068304971
0.0107303018113
-0.00308617764412
0.0114900849437
-0.00297566771173
0.0122199265181
-0.00285983206746
0.0129186769915
-0.00273931795263
0.0135853437645
-0.00261472981344
0.0142190866773
-0.00248661671927
0.0148191885472
-0.00235546483433
0.015385046989
-0.00222168896697
0.0159161410696
-0.00208563012828
0.0164120223241
-0.00194755232858
0.0168722808014
-0.00180764583065
0.0172965384174
-0.00166602922693
0.0176844174883
-0.00152275781886
0.0180355389418
-0.00137782987384
0.018349495465
-0.00123119863836
0.0186258560319
-0.00108278116672
0.018864144753
-0.000932472571179
0.0190638524031
-0.000780156388647
0.0192244216564
-0.000625720452496
0.0193452662915
-0.00046906960652
0.0194257632894
-0.000310140121583
0.0194652809093
-0.000148915101517
0.0194631790779
1.45577664458e-05
0.0194188464194
0.000180154187639
0.0193317086078
0.000347655978603
0.0192012737991
0.000516741973133
0.0190271468684
0.000686974773807
0.018809080267
0.000857797816393
0.0185469899838
0.00102852848357
0.0182410072292
0.00119836267846
0.017891491233
0.00136637381582
0.0174990779032
0.00153152249517
0.0170646871075
0.00169265652297
0.0165895688059
0.001848519289
0.0160753084555
0.00199774374685
0.015523877599
0.0021388542294
0.0149376463991
0.00227025339206
0.0143194469115
0.00239022438147
0.0136725963174
0.00249692825129
0.013000965949
0.00258843606144
0.01230899271
0.00266277564388
0.0116017119178
0.00271803425013
0.0108846999112
0.00275248283693
0.010164009956
0.00276474525729
0.00944600526702
0.00275395001903
0.0087371967437
0.00271987598349
0.00804399871986
0.00266305053545
0.00737246651197
0.00258488095022
0.00672794196054
0.00248769435351
0.00611469787865
0.00237470063655
0.0055358275427
0.00224943721038
0.00499344629972
0.00211518510704
0.00448897046645
0.00197474598327
0.00402322027496
0.00183066796549
0.00359635553504
0.00168549334814
0.00320783536732
0.00154172580573
0.00285646186385
0.00140166826878
0.00254049072475
0.00126728207134
0.00225775872848
0.0011401302378
0.00200580218058
0.00102135669121
0.00178198711585
0.000911683443613
0.0015836390819
0.000811398764414
0.00140817521834
0.000720405065439
0.00125317840638
0.000638322051901
0.00111643079078
0.000564613070667
0.000995910732583
0.000498663353693
0.000889792581728
0.000439823933942
0.000796438685673
0.000387434732556
0.000714388349413
0.000340859032855
0.000642333666105
0.000299507547148
0.000579081878401
0.000262885743242
0.000523470416174
0.000230672606632
0.000473609042926
0.000203582811404
0.000429318168556
0.000179756670001
0.000387503123239
0.000165019445583
0.000347043446261
0.000151592963507
0.000310606521489
0.000136338595364
0.000273344420901
0.00012882677215
0.000234686455902
0.00012950303319
0.000205575546385
0.000134256567907
0.000165427042641
0.000157573696366
0.000118166338658
0.000175904192581
7.7960189192e-05
0.000189923152168
4.03430283372e-05
0.000206263790343
0.000205535864151
0.000919129941628
-0.00446360708421
0.00189061918128
-0.00471755237781
0.00285784697196
-0.00469764837528
0.0038161476019
-0.00465573631199
0.00476255300077
-0.00459990372259
0.00569427384213
-0.00453089211168
0.00660866930524
-0.00444933326208
0.00750326324253
-0.00435594559351
0.00837576097986
-0.0042515232027
0.00922406041982
-0.00413691603582
0.0100462611253
-0.00401301027043
0.0108406662394
-0.0038807079826
0.0116057826087
-0.00374090775838
0.0123403135568
-0.00359448521477
0.0130431504519
-0.00344227531947
0.0137133571703
-0.00328505537476
0.014350154347
-0.0031235308645
0.0149528972594
-0.00295832295564
0.0155210550607
-0.002789959973
0.0160541849943
-0.00261887141853
0.0165519100558
-0.00244538665449
0.0170138932988
-0.00226973642984
0.0174398177276
-0.00209205885803
0.0178293642281
-0.00191240760589
0.0181821966648
-0.00173076343253
0.0184979455984
-0.00154704680451
0.0187761999294
-0.00136113258446
0.0190164970754
-0.00117286499322
0.0192183214956
-0.000982074006043
0.0193811016115
-0.000788592057619
0.0195042158478
-0.000592273331316
0.0195869969662
-0.00039300915893
0.0196287471129
-0.000190751280917
0.0196287515894
1.44686772214e-05
0.0195863037453
0.000222519189259
0.0195007284706
0.000433149656919
0.0193714166465
0.00064597383665
0.0191978562704
0.00086045627155
0.0189796728471
0.0010759038868
0.0187166629259
0.00129146198338
0.0184088341166
0.00150611651201
0.0180564341987
0.00171869962162
0.0176599846773
0.00192789937669
0.0172203015996
0.0021322678696
0.0167385227365
0.00233022803416
0.0162161255866
0.00252007192016
0.0156549596012
0.00269995319999
0.0150572780951
0.00286786947823
0.0144257940963
0.00302164542888
0.0137637410765
0.00315892080053
0.0130749538162
0.00327716642591
0.0123639360913
0.00337374067898
0.0116359113926
0.0034460116479
0.0108968096409
0.00349154386635
0.0101531847173
0.00350833702045
0.00941204595983
0.00349506392124
0.00868065272867
0.00345125405618
0.00796628528965
0.00337741162516
0.00727589455363
0.00327527826993
0.00661562737931
0.00314797873343
0.00599007276247
0.00300028514523
0.00540212477521
0.00283742339472
0.00485349328233
0.00266385753096
0.00434536064686
0.00248291514882
0.00387850278157
0.00229755624467
0.00345301431987
0.00211100437837
0.00306814863063
0.00192660865197
0.00272237691899
0.00174745366371
0.00241356154694
0.00157610925993
0.00213912557811
0.00141457600424
0.00189618553504
0.00126430436134
0.00168168639076
0.00112618640138
0.00149257669606
0.00100050875042
0.00132599388901
0.000886984538723
0.00117935566755
0.000784953859249
0.00105036074396
0.000693599599307
0.000936949117941
0.000612064893777
0.000837285930375
0.000539476998148
0.000749755474248
0.000474954980974
0.0006729506264
0.000417654372697
0.000605669246498
0.000366779937422
0.000546949489509
0.000321597441202
0.000496190699988
0.000281423876443
0.000453634001208
0.000246132746651
0.000413110824165
0.000220272970889
0.000373542343381
0.000204581100696
0.000333305983787
0.000191822166139
0.000286969556154
0.000182667927443
0.000243741330214
0.000172047624584
0.000203512938069
0.000169724278784
0.000170157628402
0.000167604529334
0.000140708544849
0.000187016636884
9.9685838155e-05
0.000216922868621
6.15409041178e-05
0.000228061226774
3.10858470558e-05
0.000236709046629
0.000236617691947
0.000932850841276
-0.00539658661832
0.00191863530677
-0.00570347422851
0.00289991029597
-0.00567905852085
0.00387186598281
-0.00562782759266
0.00483141647565
-0.00555958866654
0.00577566221369
-0.00547527184368
0.00670186869413
-0.00537567274933
0.00760748440165
-0.00526169347348
0.00849015854617
-0.00513432830864
0.00934775303244
-0.00499464039317
0.010178351026
-0.00484373667022
0.0109802592611
-0.00468274332418
0.0117520068525
-0.00451278076011
0.0124923377481
-0.00433494004783
0.0132002000802
-0.00415025970028
0.013874729379
-0.00395970509681
0.0145152295032
-0.00376414935767
0.0151211482952
-0.00356435836922
0.0156920525238
-0.00336097864587
0.0162275992923
-0.00315453078769
0.0167275090449
-0.00294540674269
0.0171915373474
-0.00273387317
0.0176194506804
-0.00252007832867
0.0180110029592
-0.00230406410676
0.0183659175887
-0.00208577999213
0.0186838710349
-0.00186510029606
0.0189644821873
-0.00164184155265
0.0192073030417
-0.00141578184448
0.0194118149085
-0.00118667973845
0.0195774258843
-0.000954295183106
0.0197034743418
-0.000718411936868
0.0197892340556
-0.000478857425135
0.0198339270228
-0.000235530949453
0.0198367393424
1.15711040977e-05
0.0197968452946
0.000262329662781
0.0197134352367
0.000516477436356
0.0195857512775
0.000773577031898
0.0194131251979
0.00103300273423
0.0191950214765
0.00129392936023
0.0189310785347
0.00155532772644
0.0186211503316
0.00181596881513
0.0182653409164
0.00207443417939
0.0178640349226
0.00232913184114
0.0174179183926
0.00257831204125
0.0169279964982
0.00282007906335
0.0163956073561
0.00305239167667
0.015822443897
0.00327304902965
0.0152105884303
0.00347965916761
0.0145625736366
0.00366959662147
0.0138814724415
0.00383996089773
0.0131710184222
0.00398756258738
0.0124357371898
0.00410896769927
0.0116810572979
0.0042006427432
0.0109133441512
0.00425921339452
0.010139816375
0.00428182869429
0.00936833219492
0.00426651855468
0.00860714368869
0.00421242194093
0.00786475285798
0.00411979236455
0.00714948263816
0.00399054970638
0.00646891600248
0.00382856211392
0.00582807354464
0.00364115498345
0.00522921925576
0.003436317447
0.00467310631211
0.00322000743587
0.00416057048351
0.00299548128532
0.00369254108575
0.00276560657044
0.00326917796222
0.00253437783769
0.0028894761926
0.00230631676877
0.00255141803971
0.00208551571047
0.00225230913159
0.00187522153112
0.00198902281124
0.00167786659256
0.00175811749931
0.0014952110561
0.00155595292366
0.00132835035383
0.00137892889807
0.00117752849946
0.00122381013386
0.00104209630807
0.0010878395412
0.000920915352419
0.000968660781704
0.000812766420196
0.000864195886845
0.000716517980082
0.000772605032634
0.000631055698735
0.000692304942866
0.000555243979091
0.000621936127243
0.000488012941261
0.000560349265621
0.000428357774467
0.00050661536021
0.00037532302986
0.000460020388932
0.000328011700282
0.000419994504704
0.000286151851673
0.00037917846091
0.000261082564024
0.000338433630213
0.000245319430101
0.000300876457637
0.000229372719635
0.000265892698069
0.000217644891023
0.000225000586992
0.000212932553664
0.000182144804989
0.000212573212824
0.000138141427161
0.000211602990637
0.000108718252813
0.000216435216119
8.36390670072e-05
0.000241996252835
5.13943375146e-05
0.000260301644476
2.561094931e-05
0.000262486665821
0.000262223943969
0.000949568639011
-0.00634628719766
0.0019528569939
-0.00670689893512
0.00295131765976
-0.0066776583196
0.00393995912626
-0.00661660667431
0.0049155461321
-0.00653531315382
0.00587504669868
-0.0064349088771
0.00681561157421
-0.00631637333539
0.00773459724071
-0.0061808137318
0.00862958406155
-0.0060294486482
0.00949839013522
-0.00586357860367
0.010339079099
-0.00568455645472
0.0111499632476
-0.0054937566582
0.0119296005387
-0.00529254572139
0.0126767870716
-0.00508225239484
0.0133905434053
-0.00486414015976
0.0140700967079
-0.00463938048696
0.0147148571296
-0.00440903003645
0.0153243910639
-0.00417401037634
0.015898390102
-0.0039350938119
0.0164366391365
-0.00369289366632
0.0169389828831
-0.00344786231569
0.0174052946528
-0.00320029442983
0.0178354465846
-0.00295033770067
0.0182292846977
-0.00269800732783
0.0185866071952
-0.00244320556685
0.0189071482716
-0.00218574217228
0.0191905650101
-0.00192535712129
0.0194364288674
-0.00166174236083
0.0196442194023
-0.00139456506793
0.0198133219925
-0.00112349053737
0.0199430283607
-0.000848209327516
0.0200325416018
-0.00056845982809
0.020080986598
-0.000284063521815
0.0200874270996
5.04469570227e-06
0.0200508896123
0.000298782666589
0.0199703953707
0.000596888665406
0.0198449992536
0.000898891404892
0.0196738350808
0.00120408646621
0.0194561647208
0.00151152044839
0.0191914281602
0.00181998622453
0.0188792907109
0.00212802937103
0.0185196830737
0.00243396616625
0.0181128311498
0.00273590941591
0.017659273149
0.00303179712369
0.0171598659126
0.00331941496509
0.0166157850694
0.0035964029105
0.0160285304845
0.00386023578218
0.0153999517044
0.00410817214144
0.0147323116015
0.0043371727993
0.0140284056365
0.0045438057024
0.0132917405506
0.00472416855409
0.012526763599
0.00487389037748
0.0117390788111
0.00498827567307
0.0109355750641
0.00506267239325
0.0101243297437
0.00509303290352
0.00931428627241
0.00507652835098
0.00851488543488
0.0050117979738
0.00773627495569
0.00489838445525
0.00698883304391
0.00473799193006
0.00628299280194
0.00453441426834
0.00562440539278
0.00429977191043
0.00501361221729
0.00404714864998
0.0044491181625
0.00378453483028
0.00393136172833
0.0035132597272
0.00346208391616
0.00323489158704
0.00304185609876
0.00295460394799
0.00266929548387
0.00267887069928
0.00234160693906
0.00241319746615
0.00205530425442
0.00216152089273
0.0018065725491
0.0019265935258
0.00159129078292
0.00171048996519
0.00140500441737
0.00151462988074
0.00124328533826
0.00133923987527
0.00110240238657
0.00118296930604
0.000979475258577
0.00104382993006
0.000872200077764
0.000920028631613
0.000778521080295
0.000810182379884
0.000696591982928
0.000712972121479
0.00062488407712
0.000626939990984
0.000562100708967
0.000550785937365
0.000507140412336
0.000483308798959
0.000459112947776
0.000423342647873
0.000417245158158
0.000369872255851
0.000380991214932
0.000322399670068
0.000342766540175
0.000299301042103
0.000306808100096
0.000281272067896
0.000268195005371
0.000267979930939
0.000230513538744
0.000255320382403
0.000191519612836
0.000251920800651
0.00015696897754
0.000247118476512
0.000118851440216
0.000249715436067
8.35541673299e-05
0.000251728386739
6.54161892074e-05
0.00026013229276
4.19676308736e-05
0.000283745630557
2.08028272558e-05
0.000283644939978
0.000283024419922
0.000969477891924
-0.00731589930149
0.00199362887908
-0.00773119365396
0.00301256963678
-0.00769674008383
0.00402107174039
-0.00762525033562
0.00501571945532
-0.00753010112094
0.00599331807765
-0.00741264722162
0.00695088084672
-0.00727407472066
0.00788565299763
-0.00711572352748
0.00879513299991
-0.00693906494541
0.00967708651306
-0.00674566714657
0.0105295552942
-0.0065371586321
0.0113508592385
-0.00631519249948
0.0121395935716
-0.0060814100658
0.0128946191047
-0.00583740624516
0.0136150476707
-0.00558469494744
0.0143002204004
-0.00532467757948
0.0149496814767
-0.00505861320953
0.0155631454014
-0.00478759440861
0.0161404614545
-0.00451252758373
0.0166815742287
-0.00423412207819
0.0171864849451
-0.00395288620865
0.0176552129419
-0.00366913347874
0.0180877621116
-0.00338299544917
0.0184840910089
-0.00309444268675
0.0188440901077
-0.00280330869926
0.0191675633309
-0.00250931737357
0.0194542157
-0.00221210914384
0.0197036433092
-0.0019112676741
0.0199153272495
-0.00160634453814
0.0200886286571
-0.00129688567
0.0202227879367
-0.00098246033656
0.0203169263097
-0.000662688294545
0.0203700550803
-0.000337280600852
0.0203810909316
-6.0780207849e-06
0.0203488813972
0.000330906902553
0.0202722392805
0.000673446744129
0.0201499879095
0.00102106012012
0.0199810141334
0.00137297871713
0.0197643282701
0.0017281260708
0.019499125091
0.00208511028309
0.0191848420936
0.00244223458102
0.0188212069415
0.00279752479661
0.0184082695805
0.00314877181646
0.0179464129094
0.00349358043976
0.0174363433159
0.00382941308796
0.0168790655493
0.0041536110338
0.0162758580201
0.00446337571305
0.0156282704195
0.0047556939206
0.014938177103
0.00502720255253
0.0142079179739
0.00527400279017
0.0134405585981
0.00549146950282
0.0126402594569
0.00567413247319
0.0118127019195
0.00581578164758
0.0109653817841
0.00590994325059
0.0101075356798
0.00595083496798
0.00924947966164
0.00593454508134
0.00840180189185
0.00585944169564
0.00757672411109
0.00572344186783
0.00678739609865
0.00552731284842
0.00605073771279
0.00527108630468
0.00537338586321
0.00497715007828
0.00475149875212
0.00466907286372
0.0041781284706
0.00435793099207
0.00365376108346
0.00403763477762
0.00318285895282
0.00370578695476
0.00276712065323
0.00337032242699
0.0024044037355
0.00304156620355
0.00209051199349
0.00272707078763
0.0018208070506
0.00243120842667
0.00159072985238
0.00215665885641
0.00139543738399
0.00190576857555
0.00122935194163
0.00168070323977
0.00108665164181
0.00148192773402
0.00096293358341
0.00130667456032
0.000855407373783
0.0011513440916
0.000762097002645
0.00101332281908
0.000681042463937
0.000891222841396
0.000610314743208
0.000783686604747
0.000548502044315
0.000688741237024
0.000494405179968
0.000604872570397
0.000446969047634
0.000530736484299
0.00040536781801
0.000464935842115
0.000368634903493
0.000406598819315
0.000334592145825
0.000356436638845
0.000301249349241
0.000332638601088
0.000269336718019
0.000313179722249
0.000235778031977
0.000301534088466
0.000197850912546
0.000293242943417
0.000162057946569
0.000287709279751
0.000125414745188
0.000283757405861
9.87599284831e-05
0.000276367004266
7.02717057047e-05
0.000280213366517
4.85946929392e-05
0.000281804823769
3.41683921932e-05
0.000298169811763
1.64338307375e-05
0.000301376263266
0.000299454927319
0.00099279033385
-0.0083088282973
0.00204137445643
-0.00877992075716
0.00308428056754
-0.00873979244383
0.00411599960697
-0.0086571138334
0.00513289215935
-0.00854713800553
0.00613156966476
-0.00841146787151
0.00710888012182
-0.00825152746087
0.00806193743249
-0.00806892181152
0.00898814318042
-0.00786541044218
0.00988520249312
-0.00764286459542
0.0107511321808
-0.00740322496053
0.011584263485
-0.00714845854096
0.0123832375051
-0.0068805171065
0.013146995423
-0.00660129503291
0.0138747607676
-0.00631258925859
0.0145660159967
-0.00601605942404
0.0152204705262
-0.00571319230029
0.0158380235408
-0.00540526948262
0.0164187197379
-0.00509334367405
0.0169627030708
-0.00477822270857
0.0174701680286
-0.00446046623587
0.0179413146487
-0.0041403925407
0.0183763069699
-0.00381809797721
0.0187752402033
-0.00349348353533
0.0191381143862
-0.00316628831543
0.0194648170305
-0.00283612295953
0.0197551100274
-0.00250250300782
0.0200086214679
-0.00216487764843
0.0202248376688
-0.00182265735604
0.0204030973987
-0.00147523988627
0.0205425863268
-0.00112204201632
0.0206423356183
-0.000762528441632
0.0207012263615
-0.000396260681831
0.0207180034827
-2.29428374998e-05
0.0206913002666
0.000357523732931
0.0206196769137
0.000744985125974
0.0205016719219
0.00113898130096
0.0203358667695
0.00153870134009
0.0201209595625
0.00194295189526
0.0198558434467
0.00235014632832
0.0195396811517
0.00275831812689
0.019171966585
0.00316516218032
0.0187525624607
0.00356810049188
0.0182817051057
0.00396436430477
0.0177599722708
0.00435107443905
0.0171882187218
0.00472529521943
0.0165674973021
0.00508402961485
0.0158989995432
0.00542412622771
0.015184064088
0.00574207379412
0.014424320583
0.00603368499313
0.0136220303742
0.00629369885981
0.0127806825324
0.00651542406082
0.0119057709292
0.00669063727389
0.0110055067912
0.0068101555327
0.0100908490672
0.0068654419625
0.00917401539823
0.00685133201602
0.00826591399539
0.00676750641424
0.0073810487783
0.00660827792971
0.0065349295582
0.00637342739427
0.00576099538559
0.00604502947836
0.00506759813597
0.00567057603376
0.00443993456069
0.00529676771684
0.00385732073826
0.0049405614674
0.00332289845516
0.00457205096238
0.00284903673478
0.00417962282356
0.00243976426434
0.00377955852694
0.00209084973516
0.00339044309405
0.00179529334476
0.0030225927583
0.0015467788941
0.00267969435197
0.00134021570045
0.00236319574552
0.00117035597161
0.00207560559643
0.00103004021326
0.00182100209428
0.000910759282922
0.00160119283989
0.000807136062658
0.00141028833813
0.00071710413841
0.00124136202063
0.000639716256394
0.00109069820434
0.000573158321062
0.000957766739518
0.000515082096831
0.000841750883485
0.000464374297635
0.000739438564417
0.000420015084723
0.000649222505695
0.000380956585175
0.000569786609167
0.000346588359803
0.000499297028845
0.000316458265921
0.000436722787102
0.000283784169605
0.000389105835181