/*--------------------------------*- C++ -*----------------------------------*\
| =========                 |                                                 |
| \\      /  F ield         | OpenFOAM: The Open Source CFD Toolbox           |
|  \\    /   O peration     | Version:  v1906                                 |
|   \\  /    A nd           | Web:      www.OpenFOAM.com                      |
|    \\/     M anipulation  |                                                 |
\*---------------------------------------------------------------------------*/
FoamFile
{
    version     2.0;
    format      ascii;
    class       volScalarField;
    location    "94";
    object      pa;
}
// * * * * * * * * * * * * * * * * * * * * * * * * * * * * * * * * * * * * * //

dimensions      [0 2 -2 0 0 0 0];


internalField   nonuniform List<scalar> 
9216
(
927.435751291
927.173593727
926.631776067
925.804517787
924.695903492
923.3091933
921.64985165
919.722892295
917.535618724
915.09449372
912.40835024
909.48489252
906.334156041
902.964779372
899.387653989
895.612179574
891.649801897
887.510424875
883.205817083
878.746277131
874.14364468
869.408415874
864.552285356
859.585796326
854.520310574
849.366324517
844.134801568
838.836139255
833.480486341
828.077897616
822.637950138
817.170691982
811.68489383
806.189647241
800.692752705
795.203321118
789.728249592
784.276037783
778.852564767
773.465767496
768.120500732
762.824234803
757.580771981
752.39692192
747.275491669
742.22288286
737.240919773
732.335527239
727.507697756
722.763019535
718.101755476
713.529287623
709.0453119
704.655041936
700.357774902
696.15863858
692.056642708
688.05680038
684.157922643
680.364978384
676.676577483
673.097449224
669.62607039
666.266868318
663.018170512
659.88415458
656.863002857
653.95804102
651.167078665
648.49292772
645.933117442
643.489823749
641.160389513
638.946252153
636.844511125
634.856006659
632.97766054
631.209656454
629.548746075
627.994482258
626.543554339
625.195051503
623.945560746
622.793688773
621.735861126
620.770040676
619.891943251
619.09767371
618.379964447
617.743906044
617.214946009
616.82289352
616.561326178
616.403938626
616.322503324
616.29262124
927.697667211
927.434394555
926.891666715
926.061660732
924.948838748
923.557031618
921.891422849
919.957559193
917.762344009
915.31282951
912.617399152
909.684381066
906.523310056
903.143478532
899.555328608
895.768904626
891.795132123
887.644493663
883.328291716
878.857404905
874.243255657
869.496818332
864.629461942
859.65207451
854.575777573
849.411330876
844.169518295
838.860888687
833.495644185
828.083784467
822.635092482
817.159258918
811.665276363
806.162166545
800.658126744
795.161708876
789.680350951
784.221928153
778.793015812
773.400811176
768.051063518
762.750209826
757.503039236
752.31532377
747.19098135
742.135199654
737.151074069
732.243070744
727.413644139
722.6668051
718.004375379
713.430069409
708.945256898
704.553357964
700.255461972
696.054831038
691.952314866
687.95105926
684.05183477
680.257648144
676.568996829
672.988741234
669.517265585
666.157175571
662.908547806
659.773814253
656.753010317
653.847751101
651.057512734
648.383461161
645.824643219
643.381812243
641.053722036
638.840443848
636.740317062
634.753026187
632.876589685
631.110158476
629.451413799
627.898982394
626.450437157
625.104055857
623.857139878
622.707747217
621.652953935
620.690364873
619.816644591
619.028617878
618.321351615
617.695068219
617.170718157
616.781339138
616.523532988
616.36982466
616.292711662
616.262783772
928.241650704
927.975020311
927.428574895
926.593031446
925.472762678
924.071819314
922.395317564
920.449111136
918.240041155
915.77549784
913.063781253
910.113588934
906.934340272
903.535719103
899.92800467
896.121601658
892.127328345
887.95604217
883.618929917
879.12709609
874.491874319
869.724468857
864.836169879
859.83808843
854.741306146
849.556699647
844.295096216
838.967131761
833.58297233
828.152713817
822.686186883
817.193009612
811.682319723
806.163014955
800.643610782
795.132441448
789.637133845
784.165344119
778.723984273
773.319891239
767.959150713
762.647820182
757.391144782
752.194423001
747.06206804
741.998659483
737.007714942
732.093188916
727.258145309
722.505784287
717.838525562
713.259443396
708.770504285
704.374305669
700.072701234
695.868146777
691.762257841
687.757389978
683.855068382
680.057525494
676.366112568
672.782908778
669.309098718
665.946510165
662.696111962
659.559629696
656.537803405
653.631601097
650.84115753
648.167051349
645.608861956
643.166748462
640.840180762
638.628471097
636.530492752
634.545574474
632.672131041
630.908825842
629.253826456
627.705131023
626.260631283
624.918508088
623.676307942
622.531931403
621.482819469
620.52637215
619.66019787
618.881912111
618.187688669
617.573733512
617.062849605
616.690299331
616.442795637
616.293410142
616.214921162
616.179407767
929.076858655
928.806558638
928.254340617
927.410105255
926.278283087
924.863095211
923.169767976
921.204392639
918.973940144
916.486090557
913.74926389
910.772442159
907.565184518
904.137453603
900.499658291
896.662427619
892.636680241
888.433503101
884.064168662
879.539981512
874.872342185
870.072598249
865.152126836
860.122184759
854.993928207
849.778409881
844.486439946
839.128680297
833.715452778
828.25685274
822.762851642
817.243082405
811.706706434
806.162711277
800.619664762
795.085830267
789.568994883
784.07677877
778.616237862
773.194017545
767.816353096
762.489114882
757.217803241
752.007634997
746.862901326
741.788014074
736.786735086
731.862611543
727.018793898
722.258258021
717.5835788
712.997373356
708.501794429
704.099258949
699.791808843
695.581509928
691.470213908
687.46000714
683.552689703
679.750252313
676.054341459
672.466824071
668.989181233
665.623043478
662.369721576
659.230751774
656.207151646
653.299647105
650.508635675
647.834435887
645.276951241
642.836215329
640.511628303
638.302484101
636.207923003
634.22689305
632.357940413
630.599552103
628.949892214
627.407045954
625.969015058
624.63369515
623.398693623
622.261991868
621.220980291
620.273399109
619.417840633
618.651390648
617.971402884
617.377537257
616.892156481
616.53435465
616.294244686
616.143706353
616.060849798
616.021310745
930.205740993
929.930789758
929.370711083
928.51458718
927.366998481
925.93236467
924.216105288
922.224592234
919.965061492
917.445478776
914.674540446
911.661532485
908.416291836
904.949080384
901.270513496
897.391480932
893.323132637
889.076783498
884.663883685
880.095920504
875.384468667
870.541056959
865.577122831
860.504143728
855.333436918
850.076135169
844.743113417
839.345113985
833.892634128
828.395841775
822.864742218
817.309032437
811.737988567
806.160686686
800.585767292
795.02144391
789.475649406
783.955900399
778.469398124
773.022763798
767.622345649
762.27401859
756.983121653
751.754768006
746.593362703
741.503154227
736.487808478
731.55087717
726.695388682
721.92405227
717.239423068
712.643876083
708.139573389
703.728622476
699.413186024
695.195273605
691.0766339
687.059275455
683.145121901
679.336119671
675.634010012
672.040682988
668.557709553
665.18668973
661.929348584
658.787220042
655.761183463
652.851893569
650.060032855
647.38572256
644.829005236
642.389965749
640.068135823
637.862682552
635.77264266
633.796878828
631.934004532
630.182436446
628.540226408
627.005480284
625.576089492
624.249628574
623.024076779
621.89737639
620.866968911
619.930936981
619.087645111
618.334858553
617.67017331
617.100089342
616.639211805
616.293402909
616.054796833
615.897998159
615.810439022
615.769170608
931.632564776
931.351765201
930.78165517
929.910320158
928.742566809
927.283069375
925.537538477
923.512662555
921.216044993
918.65603713
915.841692449
912.782679353
909.48920025
905.971862951
902.241582745
898.309580996
894.187291514
889.886293034
885.418296277
880.795028712
876.028212439
871.129581949
866.110779104
860.983493534
855.759253357
850.449165605
845.064299307
839.615560369
834.113509787
828.568496325
822.9905885
817.389628837
811.775009607
806.155751879
800.540581234
794.93781506
789.355519329
783.801189857
778.28210555
772.80494156
767.375916212
762.000956594
756.685368685
751.434148675
746.251880159
741.142650983
736.10997045
731.157175072
726.287073179
721.502396304
716.805494257
712.198441693
707.683321925
703.262029
698.936696048
694.709224819
690.581320791
686.554918382
682.63210144
678.814818431
675.104787451
671.504036588
668.014027169
664.637077816
661.375293434
658.229260704
655.199696181
652.287950977
649.494891929
646.820251849
644.264349928
641.827625554
639.509378626
637.308388606
635.223895426
633.254849745
631.399859721
629.656924496
628.024070884
626.499515331
625.080883729
623.765772671
622.552278937
621.437958675
620.420404209
619.497884689
618.668480428
617.930711837
617.283018391
616.73389944
616.289192653
615.948785691
615.705888848
615.543539164
615.44562667
615.40593714
933.362715851
933.074735155
932.49228743
931.602229191
930.40966578
928.919599293
927.138111111
925.072308028
922.730239969
920.120734793
917.253307516
914.138120908
910.78579898
907.20735046
903.414117897
899.41769277
895.2298517
890.862519447
886.327671451
881.637282509
876.803347153
871.837808603
866.752597943
861.559605159
856.27048303
850.896512009
845.448897344
839.938710763
834.376725011
828.773393629
823.138973001
817.483354374
811.815974012
806.146023616
800.482262476
794.833154784
789.206832596
783.610876844
778.05253676
772.538456137
767.074899738
761.667750374
756.322499189
751.044088846
745.836876862
740.704821368
735.65149568
730.67999449
725.792834588
720.992461979
716.280951855
711.660363729
707.132539411
702.699060885
698.361979414
694.123029025
689.984043669
685.946861453
682.013567244
678.186219658
674.466142337
670.856523965
667.359319746
663.975787329
660.70790293
657.55629146
654.522216689
651.607575094
648.81280694
646.137566665
643.582608036
641.148504002
638.834233379
636.638914545
634.561338652
632.600291284
630.754637404
629.022401575
627.401153082
625.888974266
624.483501232
623.182125185
621.98285911
620.88310704
619.880467998
618.972947491
618.158954638
617.437823949
616.808612626
616.275339258
615.839922951
615.499741989
615.249238327
615.081729379
614.974385282
614.932860345
935.402774851
935.10616864
934.508904112
933.596365525
932.374036437
930.847313873
929.022768311
926.908019538
924.511675662
921.843134753
918.912509463
915.730508347
912.308288375
908.657373327
904.789577373
900.716922176
896.451623225
892.005955059
887.392202086
882.622670041
877.70963314
872.665295807
867.50197473
862.231666767
856.866079404
851.416883311
845.895451205
840.313020251
834.680609582
829.008850507
823.308012307
817.588121657
811.858789134
806.129368732
800.408705757
794.705302762
789.02738154
783.382620754
777.778160149
772.220678686
766.716720732
761.272170349
755.892315382
750.582066483
745.34594814
740.187771486
735.110722599
730.117679882
725.210993449
720.392825696
715.664946595
711.029045352
706.486650019
702.039333807
697.688763126
693.436652803
689.284799744
685.234795538
681.288861774
677.449812648
673.719787704
670.100783935
666.594045701
663.201609243
659.925546858
656.767453456
653.728074361
650.80938311
648.012244889
645.336145032
642.782452209
640.351508158
638.04182458
635.852826379
633.783397004
631.832318238
629.998078681
628.278252207
626.670609293
625.173391731
623.783401625
622.498241446
621.315475247
620.23240019
619.246607227
618.355937911
617.559119005
616.854586371
616.241313461
615.720600304
615.293341139
614.955406398
614.699298277
614.525604687
614.413956788
614.366573161
937.760654057
937.453831451
936.839058614
935.899963898
934.642509524
933.072592632
931.197366995
929.025102985
926.565088113
923.827417885
920.822890248
917.562897567
914.059218972
910.323986034
906.369582754
902.208523704
897.853463012
893.317098733
888.61210262
883.751116691
878.746709028
873.611552839
868.358094148
862.998499237
857.544803996
852.008864135
846.402353576
840.736781775
835.023301166
829.272666174
823.495378552
817.701578991
811.90111371
806.103353876
800.317270726
794.55155527
788.81441373
783.11350978
777.456003179
771.848894327
766.298670382
760.811150301
755.391744377
750.04545033
744.776616398
739.588812073
734.485115323
729.468193422
724.540103281
719.702329908
714.956432346
710.303658479
705.745216355
701.282433674
696.916739748
692.649739864
688.48302778
684.418083587
680.459174355
676.608549854
672.866282274
669.234804195
665.71637744
662.313291865
659.02795744
655.861497574
652.815197002
649.891967534
647.091795256
644.414750157
641.862388856
639.434748899
637.130457412
634.948956619
632.889172823
630.949576318
629.128354573
627.423220856
625.832063774
624.351867971
622.979944538
621.713452185
620.549766956
619.485859687
618.519272931
617.647540443
616.868644818
616.180649351
615.582692963
615.07402612
614.653888227
614.319231481
614.063400986
613.881129224
613.769711827
613.719322665
940.445693329
940.12690195
939.491656751
938.521543185
937.223099131
935.602864409
933.66870394
931.429681144
928.895910443
926.078332577
922.988542422
919.638732536
916.041457272
912.209515845
908.155914205
903.893768291
899.436239268
894.796471807
889.987555183
885.022488139
879.914258892
874.675823714
869.319922534
863.858914979
858.305127642
852.670738869
846.967761784
841.207883767
835.402417134
829.562395636
823.698488353
817.821088738
811.940097398
806.065015548
800.205034631
794.368855913
788.564620826
782.800194042
777.082947233
771.4197435
765.81713643
760.281280725
754.817624132
749.430929212
744.125466263
738.904976028
733.772253873
728.729338132
723.778027309
718.919341051
714.154208611
709.483336468
704.907607514
700.427958604
696.045680983
691.762122281
687.578651513
683.499312745
679.526813068
675.660948384
671.903787676
668.257915797
664.725910345
661.31033092
658.013663777
654.837311451
651.783505224
648.853921466
646.049819991
643.371824572
640.820819321
638.396784982
636.098671229
633.925704648
631.877029109
629.950759791
628.144840605
626.456932005
624.884450653
623.424097362
622.072906116
620.827727156
619.685826747
618.643636155
617.698668083
616.847699389
616.088345974
615.418725321
614.836800146
614.340405287
613.927682968
613.596284277
613.34244815
613.156918143
613.044133121
612.994150515
943.468815159
943.136087914
942.477079203
941.470992156
940.125087682
938.4466908
936.444556649
934.128711589
931.510262145
928.601175282
925.414000311
921.961828488
918.258087563
914.316398039
910.150460308
905.774040589
901.200861943
896.444565252
891.518675798
886.436577131
881.211728527
875.857332674
870.386301915
864.811442748
859.145359294
853.400619402
847.589475353
841.723825583
835.815327805
829.875215009
823.914445894
817.943520348
811.972495764
806.011111158
800.068589335
794.153583356
788.274464532
782.439180494
776.655067402
770.929202837
765.268404664
759.678794274
754.16582055
748.734407938
743.388934578
738.132927483
732.968748855
727.898335961
722.922697578
718.042210728
713.257044497
708.567292966
703.973306531
699.475651873
695.075257674
690.773648119
686.574617845
682.480184023
678.490245491
674.606726505
670.832603276
667.170252828
663.622662087
660.192059251
656.881257856
653.693666455
650.630277914
647.693532196
644.884833949
642.205423486
639.656015903
637.2355659
634.943738646
632.780954753
630.745489138
628.834693465
627.046441239
625.378408927
623.826952088
622.388960924
621.061644355
619.841243741
618.723854249
617.706465301
616.785440051
615.957591218
615.22009534
614.570608475
614.00625782
613.523842352
613.121399364
612.795914422
612.544086316
612.361431892
612.246559329
612.196930816
946.842727225
946.493817776
945.807320249
944.759700351
943.359094816
941.613815913
939.533718646
937.130003627
934.414976255
931.401785214
928.104149414
924.536227076
920.712405484
916.647197237
912.355135796
907.850685737
903.148180989
898.261785936
893.205474819
887.993096494
882.638408711
877.154981226
871.555951948
865.854473289
860.063636757
854.196275866
848.264909116
842.28181832
836.25901716
830.208023123
824.139860406
818.065335312
811.994752281
805.937897587
799.903957989
793.901815818
787.939914627
782.02615929
776.168115843
770.373133895
764.648032562
758.998913764
753.431754609
747.951583323
742.562544871
737.26827751
732.071004966
726.972038183
721.97156107
717.069093411
712.263729379
707.554840429
702.942017867
698.425426756
694.006345389
689.68813266
685.472399349
681.359075869
677.349093686
673.446081805
669.653198364
665.971406141
662.40440014
658.956320032
655.630609396
652.428861889
649.354102692
646.408679345
643.594662536
640.91340689
638.364132021
635.947218633
633.664113755
631.513544386
629.49244158
627.59898589
625.830761043
624.184859521
622.657647623
621.246211874
619.946061483
618.753422614
617.664212233
616.674526735
615.780664428
614.978830299
614.266031314
613.639081182
613.09416818
612.628127312
612.23879938
611.9228992
611.676927773
611.498271449
611.384528403
611.333407224
950.58212437
950.214452166
949.496219232
948.400708524
946.937206063
945.115240053
942.946031909
940.442214386
937.617536143
934.486548652
931.064303488
927.366205212
923.407769218
919.204496312
914.771819611
910.124971648
905.278932036
900.248402934
895.047800971
889.691545193
884.193569151
878.567598359
872.827290571
866.986209484
861.057772077
855.055120008
848.991227508
842.878836012
836.730205821
830.557071073
824.370885599
818.182657366
812.002788959
805.841051915
799.706873391
793.609185556
787.556325403
781.556574211
775.617615979
769.746723879
763.95087804
758.236719047
752.610369848
747.076935266
741.641077881
736.306260587
731.07459094
725.946695573
720.921807757
715.9980603
711.173207147
706.445487522
701.813625553
697.277686333
692.841812302
688.506286963
684.270414153
680.136499244
676.105340729
672.180362328
668.364378503
664.660034169
661.072031525
657.604555538
654.259494733
651.041255495
647.952766057
644.997228115
642.176840284
639.491256567
636.941680894
634.530609104
632.257417559
630.1190914
628.114215542
626.240577979
624.495345491
622.875163626
621.376145548
619.994329307
618.725211492
617.564315471
616.507130792
615.548922966
614.685772466
613.913566623
613.228231376
612.626235051
612.103490515
611.657020389
611.283565926
610.980038911
610.743303243
610.57032824
610.460188358
610.408402742
954.703936129
954.314543238
953.559617902
952.408882827
950.873088051
948.963291783
946.692412045
944.074834285
941.126042712
937.862238205
934.300021206
930.456214206
926.347608507
921.990823123
917.402270806
912.59800507
907.593681029
902.404568881
897.045522215
891.531213185
885.876055717
880.093906062
874.198747941
868.20458422
862.125255746
855.974320846
849.765312506
843.511348739
837.22495265
830.918378708
824.603363302
818.291076305
811.991927925
805.715943591
799.472628391
793.270756027
787.119039229
781.025641827
774.998195693
769.0444678
763.171624991
757.386365692
751.695401437
746.104477386
740.618322504
735.240835246
729.974037773
724.817836488
719.770163172
714.827190871
709.984573301
705.239149657
700.588780773
696.03626188
691.583498514
687.227629427
682.970592056
678.814315167
674.759316574
670.80954418
666.968425096
663.23853442
659.626226843
656.134108987
652.766308377
649.52862343
646.424112549
643.456619961
640.626309934
637.935171287
635.387241393
632.982560355
630.718495626
628.5942015
626.607849416
624.756851475
623.037939517
621.447247497
619.980351024
618.632603071
617.398928757
616.274311729
615.253560703
614.330891305
613.502492724
612.7637207
612.109112288
611.53557516
611.038419469
610.61433929
610.259905485
609.971429386
609.746446586
609.581766962
609.475831121
609.425851154
959.227751624
958.81309834
958.015685517
956.801143107
955.182127829
953.171696418
950.784861299
948.03815555
944.949155821
941.535976619
937.817007719
933.810687493
929.535236769
925.008517284
920.248002688
915.270618081
910.092724498
904.730093763
899.198044982
893.511444112
887.684805311
881.732356287
875.668433441
869.507374457
863.263402298
856.95080129
850.583553609
844.175280598
837.73907509
831.287507267
824.832545194
818.385534923
811.95713421
805.557422921
799.195892442
792.881501419
786.622804299
780.427779783
774.304557356
768.260875848
762.303998079
756.441397141
750.68014058
745.026732702
739.486791053
734.064709643
728.762725269
723.580033604
718.513001478
713.55473406
708.697399828
703.936265182
699.272038102
694.703834836
690.231075286
685.854349881
681.57525213
677.394711299
673.312841904
669.336776744
665.467514939
661.707223852
658.065750637
654.54452788
651.150588692
647.889334513
644.765272878
641.780897761
638.938800888
636.243562379
633.697117286
631.296985323
629.043354961
626.935007748
624.969757745
623.14463939
621.455874748
619.898998336
618.46884107
617.160111923
615.966941676
614.884060454
613.903640941
613.021475502
612.232719078
611.531289278
610.911916092
610.370540432
609.901972104
609.503500489
609.171078563
608.900844333
608.68963887
608.535295477
608.435351596
608.388731814
964.17630874
963.732105535
962.885254284
961.59673971
959.88163004
957.755636195
955.236450298
952.343187657
949.095935977
945.515073533
941.621001799
937.433932038
932.973718546
928.259581304
923.310144729
918.143264101
912.775963958
907.224526275
901.504554465
895.631092396
889.618608446
883.481502847
877.23439741
870.892058092
864.469310739
857.981057078
851.441973862
844.86629614
838.267691143
831.659137652
825.052903539
818.460530388
811.892833049
805.359921613
798.871279096
792.435848224
786.061830404
779.757494963
773.530800898
767.389601581
761.341694364
755.394757966
749.556819448
743.835446089
738.237560505
732.768678864
727.431904159
722.226385299
717.146277093
712.179470141
707.312152858
702.542317365
697.867272799
693.280473176
688.786980119
684.389556815
680.088161559
675.881213611
671.772142396
667.766922296
663.8636203
660.069615196
656.392610554
652.836216567
649.409001546
646.118682655
642.971725208
639.968481423
637.113936601
634.412459372
631.864261269
629.469121283
627.227223565
625.136979846
623.195791716
621.400285724
619.746079239
618.228037195
616.839964286
615.576169345
614.429034551
613.391878174
612.457674632
611.621900084
610.877901941
610.218731
609.639021376
609.133988287
608.698291868
608.328911764
608.02126455
607.771745404
607.576898818
607.434455932
607.342655199
607.299808922
969.576079412
969.097025675
968.192224272
966.817427428
964.990936325
962.731832625
960.061277529
957.00159834
953.575790661
949.806863141
945.717524127
941.329940713
936.665680755
931.745492648
926.589277604
921.215828372
915.64282246
909.887009581
903.964073572
897.888945198
891.676030389
885.339699448
878.894667269
872.356181402
865.739769692
859.061220785
852.336074652
845.579349705
838.805354858
832.027545583
825.258497303
818.50997524
811.79287743
805.117319058
798.49265623
791.927653644
785.430484809
779.008882617
772.670949379
766.424491212
760.277607409
754.238782352
748.316709558
742.520686259
736.859592744
731.341171477
725.970553479
720.747880462
715.66503664
710.700896201
705.834822897
701.062087004
696.376999489
691.767773052
687.249316963
682.832880473
678.512430646
674.28375205
670.144756051
666.102902334
662.162414315
658.325911039
654.604422371
651.006896956
647.542768772
644.218945
641.040424945
638.013430365
635.14222091
632.431901062
629.882808969
627.493118395
625.264489898
623.19490492
621.281167549
619.519589074
617.905122684
616.432152459
615.092112708
613.877834744
612.781958665
611.797376046
610.917257821
610.134276014
609.441147311
608.829192434
608.294159858
607.830185651
607.431811406
607.0948953
606.815081805
606.588849298
606.413025343
606.284444139
606.201576285
606.162790892
975.458104917
974.937585966
973.96417866
972.487888843
970.531452828
968.118412558
965.274311101
962.025457398
958.398237664
954.41860702
950.111792939
945.502158217
940.613108468
935.46704556
930.085177273
924.48738651
918.692006343
912.716087753
906.575188515
900.283735354
893.855872073
887.305529325
880.647362612
873.897140611
867.071384179
860.186980662
853.260804
846.308740695
839.345901462
832.38622778
825.442637947
818.527072261
811.650502677
804.822945781
798.053573439
791.350862002
784.722391427
778.175889488
771.718908781
765.359180821
759.104911747
752.965246126
746.950307648
741.071034661
735.339465691
729.767018979
724.363004968
719.1309707
714.062928511
709.125860256
704.271288106
699.491103514
694.794169813
690.169587658
685.66446542
681.271855171
676.946481532
672.684002043
668.499063842
664.412500248
660.409411328
656.503468181
652.722089073
649.063212017
645.550581578
642.177881054
638.962957156
635.910133752
633.01815132
630.299192641
627.747104266
625.361735785
623.148063054
621.102670607
619.220294031
617.497605378
615.928758794
614.505838389
613.219215256
612.061843699
611.026216343
610.10312762
609.284169569
608.561325074
607.924164315
607.365679917
606.88116754
606.463207605
606.106557749
605.805807847
605.557214147
605.357188811
605.202501961
605.089599629
605.016626809
604.98222944
981.859257146
981.288693299
980.233078524
978.636138521
976.526868286
973.934842387
970.89116182
967.426949595
963.572532777
959.357043191
954.808412776
949.953291525
944.817063001
939.423940543
933.796591118
927.956019308
921.921324942
915.709567766
909.336005622
902.814175349
896.15703894
889.377799371
882.490848733
875.512462283
868.460506078
861.353732249
854.210437341
847.047977943
839.882300228
832.727838272
825.597776028
818.504238371
811.45818764
804.469499457
797.546976698
790.698577534
783.931557185
777.252581327
770.668844183
764.187608109
757.816904278
751.566352449
745.447403729
739.473675891
733.660839805
728.02616545
722.586825585
717.354844967
712.333869219
707.455689474
702.596360163
697.874453996
693.320302332
688.78543263
684.292661892
679.857879187
675.473889829
671.138212713
666.871914841
662.690351765
658.593653276
654.606623192
650.749050147
647.022536928
643.447216626
640.003904311
636.745243385
633.654953005
630.741196285
628.009084259
625.449610364
623.070292064
620.874967474
618.85397412
617.006275502
615.328492782
613.810908893
612.443595161
611.220335111
610.130176769
609.163418199
608.309881098
607.560113893
606.903713315
606.329689386
605.832555782
605.405059389
605.037991091
604.727585522
604.467026545
604.253048371
604.081814381
603.95007653
603.854399464
603.792926911
603.763576687
988.823842146
988.191884203
987.036131092
985.293854118
983.003040053
980.201569494
976.927600955
973.217939135
969.107277784
964.628107694
959.811023831
954.684994442
949.277492079
943.614585809
937.72076636
931.618343295
925.327222982
918.864412776
912.244210651
905.478811695
898.579026789
891.556292122
884.42427101
877.199967431
869.903451902
862.555950902
855.178281739
847.789492644
840.40648734
833.044003817
825.715398472
818.432940521
811.207590974
804.048968834
796.965398638
789.964074147
783.051393079
776.233182452
769.515463541
762.904571156
756.407744174
750.034874642
743.79844572
737.714636497
731.804305015
726.092925353
720.610119186
715.380780313
710.437658685
705.746731186
701.174227401
696.706551317
692.204313723
687.618928521
683.03649684
678.489406903
673.993495639
669.586016481
665.226268339
660.920216533
656.72000799
652.639924008
648.712090494
644.90324035
641.234082847
637.722113572
634.405653757
631.262232364
628.314408
625.554330674
622.988657741
620.613050585
618.433920043
616.440533163
614.636081096
613.007050677
611.548060321
610.246854693
609.0949813
608.08154585
607.193434127
606.418933507
605.747728553
605.165066296
604.66342643
604.23459351
603.869630536
603.559548285
603.300040863
603.084840634
602.908824499
602.769494525
602.662323462
602.585577515
602.536672085
602.513285647
996.40601071
995.69710014
994.416946602
992.496638858
989.987651215
986.939325874
983.398748515
979.409227436
975.009915064
970.236513487
965.12203289
959.697580669
953.992791096
948.035857022
941.853255605
935.469127524
928.904385853
922.176070446
915.297020493
908.276597589
901.122347785
893.842194418
886.448117152
878.958302076
871.396147804
863.787372901
856.156354743
848.524315493
840.90907256
833.325233939
825.785845089
818.303566902
810.889328459
803.55249415
796.300679638
789.14008224
782.075876502
775.112473729
768.254245493
761.505819014
754.873295634
748.36559156
741.995360462
735.780698391
729.748583108
723.936188574
718.38232195
713.104210932
708.625273744
704.612153274
700.301655985
695.819246764
691.211141626
686.492063919
681.785390769
677.123871573
672.514411612
668.003598963
663.513310169
659.071635325
654.768087659
650.621809643
646.584690136
642.688076004
638.934975952
635.343203036
631.956481519
628.76427628
625.762669771
622.960371216
620.367906303
617.985813409
615.820694179
613.859150974
612.099379844
610.526874467
609.135784428
607.911473499
606.841594183
605.914472095
605.116641372
604.43191594
603.848210977
603.350210745
602.929912088
602.577615865
602.280924226
602.034985454
601.830847651
601.66495519
601.53123163
601.426049095
601.34607679
601.289994302
601.254467838
601.237912844
1004.6733299
1003.86557392
1002.42695621
1000.2840476
997.509294373
994.167969784
990.318026402
986.009637353
981.286062053
976.185384167
970.742386053
964.989908977
958.959629953
952.682299124
946.187031505
939.50041834
932.645076764
925.63810725
918.490458399
911.207173849
903.789542096
896.239524566
888.565474543
880.787109881
872.934266458
865.040183537
857.134772554
849.241865536
841.379175924
833.560381042
825.798121354
818.105157295
810.492776398
802.970132494
795.543888883
788.218885095
780.998682201
773.885748018
766.88217641
759.989786762
753.212453872
746.556647557
740.033340928
733.661361369
727.473590591
721.505054086
715.737391255
710.754793992
707.440226329
704.202929581
699.855327693
695.018288931
690.234812414
685.410039368
680.520414876
675.718761731
670.972485606
666.302822683
661.689524158
657.169583012
652.771216543
648.510222152
644.395723301
640.402695686
636.524807655
632.876270945
629.4346906
626.172917836
623.091649026
620.246289701
617.613865857
615.211922245
613.048845669
611.109809483
609.392640846
607.883990728
606.568017254
605.430234947
604.456818667
603.630135425
602.934480723
602.350746756
601.864228997
601.463948701