/*--------------------------------*- C++ -*----------------------------------*\
| =========                 |                                                 |
| \\      /  F ield         | OpenFOAM: The Open Source CFD Toolbox           |
|  \\    /   O peration     | Version:  v1906                                 |
|   \\  /    A nd           | Web:      www.OpenFOAM.com                      |
|    \\/     M anipulation  |                                                 |
\*---------------------------------------------------------------------------*/
FoamFile
{
    version     2.0;
    format      ascii;
    class       volVectorField;
    location    "32";
    object      U;
}
// * * * * * * * * * * * * * * * * * * * * * * * * * * * * * * * * * * * * * //

dimensions      [0 1 -1 0 0 0 0];


internalField   nonuniform List<vector> 
9216
(
(-0.0928197935321 0.092868654585 0)
(-0.0955731451086 0.289402183648 4.48084574168e-26)
(-0.0951379958649 0.487470700089 -6.4356450632e-30)
(-0.094062057422 0.685000200564 0)
(-0.0925881595806 0.879807453406 0)
(-0.0907576352251 1.07120725535 0)
(-0.0885981764975 1.25849335311 0)
(-0.0861438333836 1.44101054852 0)
(-0.0834171281793 1.61816593093 0)
(-0.080454176025 1.78942236935 0)
(-0.0772781738669 1.95430844062 0)
(-0.0739273083424 2.11241229661 0)
(-0.0704240237997 2.26338915112 0)
(-0.0668065221142 2.40695371345 0)
(-0.0630947071086 2.54288491834 0)
(-0.0593249966402 2.67101725097 0)
(-0.0555134194341 2.79124325688 0)
(-0.0516933714956 2.9035044101 0)
(-0.0478762832148 3.00779198481 0)
(-0.0440918980069 3.10413803246 0)
(-0.0403468309056 3.19261523139 0)
(-0.0366670044661 3.2733284884 0)
(-0.0330544241881 3.34641417674 0)
(-0.0295313914596 3.41203265439 0)
(-0.0260957486131 3.4703672549 0)
(-0.0227665668167 3.52161794408 0)
(-0.0195381364405 3.56600021347 0)
(-0.0164268188605 3.60373990605 0)
(-0.0134239990055 3.63507217037 0)
(-0.0105438806138 3.66023749389 0)
(-0.00777567818859 3.67948077181 0)
(-0.00513222948045 3.69304861946 0)
(-0.00260193463332 3.70118921576 0)
(-0.00020007401882 3.70414792954 0)
(0.00209313606634 3.7021932329 0)
(0.00427536247655 3.69553695107 0)
(0.00635847964618 3.68440360227 0)
(0.0083306135243 3.66901664004 0)
(0.0102062339971 3.64959493232 0)
(0.0119757237233 3.62635194543 0)
(0.0136544984759 3.59949460548 0)
(0.0152335197657 3.56922349542 0)
(0.0167283994934 3.53573170904 0)
(0.0181303571969 3.49920575507 0)
(0.0194549482888 3.45982425031 0)
(0.0206935605311 3.41775936111 0)
(0.0218615306475 3.37317521233 0)
(0.0229503654714 3.32622975383 0)
(0.0239750848343 3.27707291794 0)
(0.0249273136684 3.22584888683 0)
(0.0258216639272 3.17269395256 0)
(0.0266498780322 3.11773910576 0)
(0.0274261076893 3.06110765108 0)
(0.0281422414571 3.00291810634 0)
(0.0288119143702 2.94328154437 0)
(0.0294271809171 2.88230473613 0)
(0.030001131446 2.82008727827 0)
(0.0305260258414 2.75672497475 0)
(0.0310143728874 2.69230673072 0)
(0.0314586645175 2.62691811604 0)
(0.0318708129199 2.56063808518 0)
(0.0322435823881 2.49354272022 0)
(0.0325882626895 2.42570176231 0)
(0.0328979170962 2.35718248718 0)
(0.0331832042241 2.28804610296 0)
(0.0334375228549 2.2183517588 0)
(0.0336708805883 2.14815279604 0)
(0.0338770356233 2.07750085257 0)
(0.0340653380252 2.00644201446 0)
(0.034229936718 1.93502101877 0)
(0.0343795074229 1.86327729377 0)
(0.0345086102709 1.79124922996 0)
(0.0346252405173 1.71897015044 0)
(0.0347243948868 1.64647264986 0)
(0.0348133740376 1.57378448936 0)
(0.0348876271757 1.50093297395 0)
(0.0349537556712 1.42794081395 0)
(0.035007678716 1.35483053025 0)
(0.035055289319 1.28162028894 0)
(0.0350929852369 1.20832830042 0)
(0.0351259508296 1.13496867176 0)
(0.0351510695737 1.06155578388 0)
(0.0351728140868 0.988100169701 0)
(0.0351885556649 0.914612857012 0)
(0.0352020519824 0.841101283637 0)
(0.0352111640104 0.767573621456 0)
(0.0352189161414 0.694034704084 0)
(0.035223640546 0.620490342269 0)
(0.0352275635142 0.546943330057 0)
(0.0352293303315 0.473397805973 0)
(0.0352299771554 0.399855726166 0)
(0.0352273189476 0.326321889672 0)
(0.0352175008647 0.252803990797 0)
(0.0351927990139 0.179290199342 0)
(0.0350708766797 0.106224887414 0)
(0.0340955884786 0.0340949082261 0)
(-0.289788253061 0.0961782628214 0)
(-0.306589061053 0.307969427064 0)
(-0.305140755271 0.518989455487 -4.53796597031e-26)
(-0.30165545233 0.729578829447 0)
(-0.296933885911 0.93710085159 0)
(-0.291097690981 1.14093496341 0)
(-0.284221785562 1.34035481399 0)
(-0.276397688268 1.53467201406 0)
(-0.267705334857 1.72325644511 0)
(-0.258247147992 1.90553852315 0)
(-0.248109166164 2.08101598512 0)
(-0.23739955224 2.2492526385 0)
(-0.226204022259 2.40988176455 0)
(-0.21462956905 2.56260245196 0)
(-0.202755455544 2.70718038333 0)
(-0.190681841554 2.84344248185 0)
(-0.178477066091 2.97127578061 0)
(-0.166230667043 3.09062108621 0)
(-0.153997505787 3.20147062568 0)
(-0.141854576544 3.30386138483 0)
(-0.129842386213 3.39787214919 0)
(-0.118024977246 3.48361703662 0)
(-0.106428934209 3.5612423949 0)
(-0.0951060481876 3.63092089537 0)
(-0.084070256465 3.69284860644 0)
(-0.073362460348 3.74723985752 0)
(-0.0629857141305 3.79432465916 0)
(-0.052971740004 3.83434442856 0)
(-0.0433146479845 3.86754983451 0)
(-0.034038796607 3.89419737063 0)
(-0.0251313756724 3.914547575 0)
(-0.0166113831145 3.92886232154 0)
(-0.00846147541045 3.93740173047 0)
(-0.000699905407736 3.94043219203 0)
(0.00670369339131 3.93818849402 0)
(0.0137474466874 3.93093996631 0)
(0.0204528331572 3.91892987353 0)
(0.0268085179954 3.9024005883 0)
(0.0328404504922 3.88158718294 0)
(0.0385406304237 3.85671757565 0)
(0.0439367321345 3.82801212151 0)
(0.0490220028609 3.7956842256 0)
(0.0538247198735 3.75993925741 0)
(0.0583386992209 3.72097541384 0)
(0.0625922227381 3.67898263484 0)
(0.0665793358085 3.63414371632 0)
(0.0703279327807 3.58663318835 0)
(0.0738320837864 3.53661863929 0)
(0.0771190367746 3.48425954747 0)
(0.0801827867572 3.42970877456 0)
(0.0830497428627 3.37311132867 0)
(0.0857137747148 3.31460599245 0)
(0.0882003316627 3.25432402047 0)
(0.0905031627037 3.19239087467 0)
(0.0926466648699 3.12892484617 0)
(0.0946244882895 3.06403887456 0)
(0.0964599275227 2.99783910554 0)
(0.098146584808 2.9304267762 0)
(0.0997066106936 2.86189670523 0)
(0.101133610232 2.79233922755 0)
(0.102448573998 2.72183863232 0)
(0.103645175237 2.65047513547 0)
(0.104743226742 2.57832326481 0)
(0.105736526796 2.50545385877 0)
(0.106643708231 2.43193241419 0)
(0.107458758282 2.35782110458 0)
(0.108199120703 2.28317709004 0)
(0.108859024325 2.20805454702 0)
(0.109454724369 2.13250295434 0)
(0.109980747269 2.05656913132 0)
(0.110452151699 1.98029549877 0)
(0.110863806303 1.90372211948 0)
(0.111229571877 1.82688494699 0)
(0.111544704702 1.74981786638 0)
(0.11182185919 1.67255093109 0)
(0.112056713328 1.59511239688 0)
(0.1122607131 1.51752696072 0)
(0.112429989986 1.43981778353 0)
(0.112574776058 1.36200473466 0)
(0.112691676058 1.28410639335 0)
(0.112789709784 1.20613831457 0)
(0.112865970029 1.12811500561 0)
(0.112928262516 1.05004821685 0)
(0.11297417431 0.971948890622 0)
(0.113010290165 0.893825481003 0)
(0.113034693553 0.81568588006 0)
(0.113052715069 0.737535745284 0)
(0.113062895896 0.659380395233 0)
(0.113069200191 0.581223139113 0)
(0.113070369228 0.503067098104 0)
(0.113068432805 0.424913438776 0)
(0.113060969316 0.346762333146 0)
(0.113044325124 0.268611122203 0)
(0.113002050266 0.19039179416 0)
(0.112691367716 0.112733213238 0)
(0.106257024803 0.0350946043113 0)
(-0.490398394305 0.0971942281169 0)
(-0.519074616441 0.311105669894 0)
(-0.516225820783 0.523878170661 -4.50772929911e-26)
(-0.510195888637 0.736397500821 0)
(-0.502153605084 0.945791410635 0)
(-0.492244041674 1.15141064089 0)
(-0.480585111245 1.3525082012 0)
(-0.467315956489 1.5483836641 0)
(-0.452581557606 1.73839700216 0)
(-0.436543683854 1.92197251178 0)
(-0.419361723377 2.09860336824 0)
(-0.401206130827 2.26785236767 0)
(-0.38223749461 2.42935316382 0)
(-0.362622567811 2.58280825236 0)
(-0.342512160244 2.72798764229 0)
(-0.322059742388 2.86472488854 0)
(-0.301398543702 2.99291401477 0)
(-0.280662532515 3.11250439082 0)
(-0.259962899272 3.22349665454 0)
(-0.239411083325 3.32593712538 0)
(-0.219094691307 3.41991337924 0)
(-0.199102196778 3.50554875272 0)
(-0.1794982891 3.5829980221 0)
(-0.160349874309 3.65244235673 0)
(-0.141700838977 3.7140854161 0)
(-0.123599029178 3.76814897033 0)
(-0.106070435183 3.81486955017 0)
(-0.0891468756917 3.85449480507 0)
(-0.0728396352093 3.88728076653 0)
(-0.057167644899 3.91348894228 0)
(-0.0421306264932 3.93338412242 0)
(-0.0277375789411 3.94723221845 0)
(-0.0139792818338 3.95529714222 0)
(-0.00085709494489 3.95785065769 0)
(0.0116503256607 3.95515484613 0)
(0.0235503023296 3.94745932488 0)
(0.0348611299403 3.93500234843 0)
(0.0455898699021 3.91802735275 0)
(0.0557593103766 3.89677074198 0)
(0.065379019122 3.87146138182 0)
(0.0744736427428 3.84232080461 0)
(0.0830542691444 3.80956306747 0)
(0.0911465204306 3.77339440519 0)
(0.0987621489085 3.73401333524 0)
(0.105926972273 3.69161042651 0)
(0.112652809988 3.64636856042 0)
(0.118965133622 3.59846273713 0)
(0.124875432513 3.5480604574 0)
(0.130408469603 3.49532155853 0)
(0.135575157171 3.44039869443 0)
(0.140399311053 3.38343716219 0)
(0.144891123851 3.3245754478 0)
(0.149073321484 3.26394504661 0)
(0.152955311566 3.20167106495 0)
(0.156558648987 3.13787200796 0)
(0.159891941132 3.07266041563 0)
(0.162975539501 3.00614262927 0)
(0.165817272487 2.93841945931 0)
(0.168436282583 2.86958591201 0)
(0.170839660015 2.79973187454 0)
(0.173045354983 2.72894181694 0)
(0.175059774302 2.65729549567 0)
(0.176899700264 2.58486761718 0)
(0.178570914475 2.51172854988 0)
(0.180089063815 2.43794396531 0)
(0.181459365392 2.3635755615 0)
(0.182696361239 2.28868067074 0)
(0.183804760588 2.21331298752 0)
(0.184798032285 2.13752215785 0)
(0.185680431832 2.06135451539 0)
(0.186464380635 1.98485264318 0)
(0.187153727683 1.90805611306 0)
(0.187759871128 1.83100103354 0)
(0.188286296305 1.75372079533 0)
(0.188743395949 1.67624559867 0)
(0.189134326812 1.59860320072 0)
(0.18946849257 1.52081843502 0)
(0.189748751288 1.44291396156 0)
(0.189983529177 1.36490977422 0)
(0.190175407348 1.28682394921 0)
(0.190331845493 1.20867215234 0)
(0.19045516389 1.1304683862 0)
(0.190551861223 1.05222449639 0)
(0.190624005458 0.97395091547 0)
(0.190677132606 0.895656175249 0)
(0.190713059224 0.817347642548 0)
(0.190736337538 0.739031017215 0)
(0.190748505113 0.660711048597 0)
(0.190753067451 0.582390984056 0)
(0.190751177186 0.504073227491 0)
(0.190745155193 0.425758731069 0)
(0.190735695045 0.347446970955 0)
(0.1907240559 0.269137553338 0)
(0.190704741058 0.190766240389 0)
(0.190361475954 0.113062971132 0)
(0.179382722775 0.035220177645 0)
(-0.694274785049 0.0983764813517 0)
(-0.735154842095 0.314832454574 0)
(-0.731074054389 0.530030275648 4.47257314501e-26)
(-0.722450130351 0.744960982476 0)
(-0.710960860122 0.956669299055 0)
(-0.696816029622 1.16447696621 0)
(-0.680187366904 1.36761055014 0)
(-0.661270390354 1.56535081337 0)
(-0.640277021274 1.75704366997 0)
(-0.617435398661 1.94210431943 0)
(-0.592978948198 2.12002075831 0)
(-0.567147375491 2.29035493389 0)
(-0.54017577853 2.45274291081 0)
(-0.512297273885 2.60689304689 0)
(-0.48373262557 2.75258354973 0)
(-0.454694676149 2.88965857115 0)
(-0.425378715057 3.01802406333 0)
(-0.395968645784 3.1376426768 0)
(-0.366628074403 3.24852876211 0)
(-0.337507948295 3.3507428415 0)
(-0.308738189566 3.4443864315 0)
(-0.280436470689 3.52959665191 0)
(-0.252700171074 3.60654133964 0)
(-0.225615943246 3.6754141654 0)
(-0.199251778313 3.73643031609 0)
(-0.173667076864 3.78982230374 0)
(-0.148904663909 3.83583633972 0)
(-0.125001132777 3.87472890051 0)
(-0.101978700107 3.90676380827 0)
(-0.0798556686471 3.93220951895 0)
(-0.0586380641187 3.95133683985 0)
(-0.0383300885887 3.96441701365 0)
(-0.0189254783185 3.97171818222 0)
(-0.000418239009953 3.97351900797 0)
(0.0172147722554 3.97008750019 0)
(0.033991540144 3.96167211965 0)
(0.0499307369961 3.94851024455 0)
(0.0650503850806 3.93084802769 0)
(0.0793754713977 3.90892343848 0)
(0.092927564653 3.88296646971 0)
(0.105734220655 3.85319956566 0)
(0.117818965256 3.81983735643 0)
(0.129210641087 3.78308646854 0)
(0.139933538764 3.74314554327 0)
(0.150016770079 3.70020518535 0)
(0.159484559858 3.6544480834 0)
(0.168365580347 3.60604902848 0)
(0.176683425472 3.55517512318 0)
(0.184465860349 3.5019858449 0)
(0.191735488238 3.44663331153 0)
(0.198518866656 3.38926236619 0)
(0.20483739246 3.33001088329 0)
(0.210716246472 3.26900986103 0)
(0.216175511353 3.20638374971 0)
(0.221238904807 3.14225053951 0)
(0.225925157682 3.07672210377 0)
(0.230256504608 3.00990427705 0)
(0.234250338423 2.9418972033 0)
(0.23792742508 2.87279539815 0)
(0.241303861441 2.8026881 0)
(0.244398988839 2.7316593164 0)
(0.24722767014 2.65978817272 0)
(0.249807874312 2.58714894003 0)
(0.252153298177 2.51381138188 0)
(0.254280600617 2.43984076608 0)
(0.256202384114 2.36529820694 0)
(0.257934055158 2.29024065983 0)
(0.259487189086 2.21472126053 0)
(0.260875998225 2.13878930577 0)
(0.26211109444 2.06249058874 0)
(0.263205544532 1.98586736501 0)
(0.264169052199 1.90895868582 0)
(0.265013584194 1.83180035319 0)
(0.265747985302 1.75442525066 0)
(0.266383157503 1.67686328741 0)
(0.266927127018 1.59914172771 0)
(0.267389762623 1.52128512781 0)
(0.267778305923 1.44331566392 0)
(0.268101615405 1.36525306169 0)
(0.268366173863 1.28711492311 0)
(0.268579849133 1.20891665244 0)
(0.268748384795 1.13067178307 0)
(0.268878669696 1.05239190185 0)
(0.268975720435 0.974086974619 0)
(0.269045452438 0.895765273261 0)
(0.269092160891 0.817433692535 0)
(0.269120782091 0.739097662404 0)
(0.269134883938 0.660761442665 0)
(0.269138413497 0.582427993176 0)
(0.269134211188 0.504099241585 0)
(0.269125291815 0.425775929098 0)
(0.269114028074 0.347457479408 0)
(0.26910282337 0.269145086565 0)
(0.269082018668 0.190776072984 0)
(0.268600529159 0.113100065198 0)
(0.252964514566 0.0352431776317 0)
(-0.900933818888 0.0999396544343 0)
(-0.954006523948 0.319811676574 0)
(-0.948645343393 0.538360787621 0)
(-0.937331041956 0.756562643333 0)
(-0.922260150479 0.971398299119 0)
(-0.903714812327 1.18215648687 0)
(-0.881926045855 1.38803086197 0)
(-0.857153072735 1.5882768007 0)
(-0.829678867328 1.78222133733 0)
(-0.799804760605 1.96926728029 0)
(-0.767841407543 2.14889613912 0)
(-0.734104039767 2.32066904235 0)
(-0.698904278424 2.48422610661 0)
(-0.662546977545 2.63928414294 0)
(-0.625323457231 2.7856332922 0)
(-0.587510243662 2.92313255056 0)
(-0.549363894406 3.0517047349 0)
(-0.511121573572 3.17133085857 0)
(-0.472997314733 3.28204437608 0)
(-0.435184123168 3.38392525125 0)
(-0.397851346492 3.47709420921 0)
(-0.361147894686 3.56170709434 0)
(-0.325200338198 3.63794959548 0)
(-0.290116842996 3.70603224253 0)
(-0.255985657126 3.7661858598 0)
(-0.222879426364 3.81865736372 0)
(-0.190853804636 3.86370602557 0)
(-0.159951903116 3.90160009094 0)
(-0.130202847132 3.93261383448 0)
(-0.101626194581 3.95702494895 0)
(-0.0742303300242 3.97511229518 0)
(-0.0480167346931 3.98715407263 0)
(-0.0229783798322 3.99342437041 0)
(0.00089769111143 3.99421117161 0)
(0.0236389100505 3.98978474984 0)
(0.0452695068661 3.98039613571 0)
(0.0658130591553 3.96628258805 0)
(0.0852962210931 3.94769373477 0)
(0.103749726406 3.92486953055 0)
(0.121204530912 3.89804139291 0)
(0.137694478678 3.8674328401 0)
(0.153252804513 3.83325920054 0)
(0.167914825726 3.79572750795 0)
(0.181714580713 3.75503653217 0)
(0.194687615689 3.71137681425 0)
(0.20686773925 3.66493077787 0)
(0.218289863866 3.6158728331 0)
(0.22898686693 3.56436955404 0)
(0.238992455744 3.51057983015 0)
(0.248338125476 3.45465508694 0)
(0.257056021727 3.39673945916 0)
(0.265175991404 3.33697003417 0)
(0.272728419071 3.27547703774 0)
(0.279741367985 3.21238409016 0)
(0.286243371654 3.14780838934 0)
(0.29226066643 3.08186096848 0)
(0.297819920816 3.01464687492 0)
(0.302945561022 2.9462654261 0)
(0.307662424469 2.87681037538 0)
(0.311993182792 2.80637016062 0)
(0.315960906546 2.73502805965 0)
(0.319586589276 2.66286243176 0)
(0.32289161329 2.58994685745 0)
(0.325895380835 2.51635037041 0)
(0.328617670962 2.44213758607 0)
(0.331076382541 2.36736892578 0)
(0.33328977424 2.29210073083 0)
(0.335274326123 2.21638547787 0)
(0.337046854716 2.14027188337 0)
(0.338622498458 2.06380511258 0)
(0.340016701105 1.98702687193 0)
(0.341243328045 1.90997561139 0)
(0.342316511263 1.83268660962 0)
(0.34324890188 1.75519217198 0)
(0.344053370825 1.67752170666 0)
(0.344741404252 1.59970191843 0)
(0.345324654378 1.52175688015 0)
(0.345813482473 1.44370822392 0)
(0.346218355237 1.36557520606 0)
(0.346548540639 1.28737489627 0)
(0.346813346119 1.20912223975 0)
(0.347020970181 1.13083024608 0)
(0.347179579319 1.05251004981 0)
(0.347296319358 0.974171098068 0)
(0.347378228233 0.895821214501 0)
(0.34743141085 0.817466776874 0)
(0.347461784585 0.739112768375 0)
(0.347474425694 0.660762941357 0)
(0.347474151312 0.582419823738 0)
(0.347465057823 0.504084882228 0)
(0.347450977244 0.425758620222 0)
(0.347435265204 0.347440337955 0)
(0.347420699805 0.269131719049 0)
(0.347392870985 0.190770178429 0)
(0.346766269723 0.113106528718 0)
(0.326544724648 0.0352499154009 0)
(-1.1113138999 0.101917436603 0)
(-1.17673286245 0.326145976716 0)
(-1.17001203924 0.548992110515 0)
(-1.15586882319 0.7713754981 0)
(-1.13703219696 0.990199652959 0)
(-1.1138631915 1.20471278698 0)
(-1.08665864832 1.4140682477 0)
(-1.05574937896 1.61748956208 0)
(-1.02149618358 1.81428020137 0)
(-0.984281301939 2.00382768479 0)
(-0.944498608808 2.18560607398 0)
(-0.902545608136 2.3591763388 0)
(-0.858814996701 2.52418485687 0)
(-0.813688614202 2.68036024799 0)
(-0.767531131872 2.82750896147 0)
(-0.720686357708 2.96550985449 0)
(-0.673473186757 3.09430814459 0)
(-0.626184146309 3.21390894066 0)
(-0.579083325267 3.32437065435 0)
(-0.532406730873 3.42579842746 0)
(-0.48636170553 3.51833778009 0)
(-0.441128560064 3.60216854747 0)
(-0.396860955088 3.67749922931 0)
(-0.353688301585 3.74456176478 0)
(-0.31171665214 3.8036067925 0)
(-0.271031462803 3.85489937386 0)
(-0.231698654424 3.89871519972 0)
(-0.1937674444 3.93533723961 0)
(-0.157271349922 3.96505282669 0)
(-0.122230908473 3.98815113067 0)
(-0.0886544954381 4.0049210048 0)
(-0.0565407857562 4.01564908158 0)
(-0.0258798908325 4.02061779821 0)
(0.00334907911796 4.02012509812 0)
(0.0311790493823 4.01444444262 0)
(0.0576390966431 4.00382869805 0)
(0.0827600427529 3.98851695737 0)
(0.106576769804 3.9687624256 0)
(0.129127441308 3.94480736758 0)
(0.150451774176 3.91688487844 0)
(0.170591446052 3.88521968665 0)
(0.189588651488 3.85002788588 0)
(0.20748660166 3.81151691114 0)
(0.224328236216 3.76988562091 0)
(0.240156850798 3.7253243947 0)
(0.255014923267 3.67801527424 0)
(0.26894483168 3.62813212398 0)
(0.281987775539 3.57584082716 0)
(0.29418455818 3.52129948373 0)
(0.305574581895 3.4646586351 0)
(0.316196670787 3.40606148115 0)
(0.326088127275 3.34564412014 0)
(0.335285577764 3.28353577192 0)
(0.343824077952 3.21985902055 0)
(0.351737965552 3.15473003487 0)
(0.359060008786 3.08825880814 0)
(0.365822255066 3.02054937057 0)
(0.372055215874 2.95170002021 0)
(0.377788701174 2.88180352414 0)
(0.383051039403 2.81094733943 0)
(0.387869890812 2.7392138017 0)
(0.392271499342 2.66668033413 0)
(0.396281478227 2.59341962273 0)
(0.399924095005 2.51949981444 0)
(0.403223025176 2.44498467995 0)
(0.406200669258 2.36993380051 0)
(0.408878870041 2.29440271892 0)
(0.41127826428 2.21844311685 0)
(0.413418960797 2.14210295557 0)
(0.415319926997 2.06542664431 0)
(0.416999624647 1.98845517163 0)
(0.418475434428 1.91122626666 0)
(0.419764247406 1.83377452295 0)
(0.420881928507 1.75613155354 0)
(0.421843861322 1.6783261082 0)
(0.422664453772 1.60038422394 0)
(0.423357634739 1.52232933738 0)
(0.423936403029 1.44418243162 0)
(0.424413274129 1.36596214387 0)
(0.424799875281 1.28768491022 0)
(0.425107341347 1.20936506995 0)
(0.425345956773 1.1310150098 0)
(0.425525499635 1.05264526799 0)
(0.425654932924 0.974264677049 0)
(0.425742696218 0.895880471502 0)
(0.425796448482 0.817498421802 0)
(0.425823307321 0.739122932256 0)
(0.425829649056 0.660757159688 0)
(0.425821301794 0.582403086451 0)
(0.425803412536 0.504061653758 0)
(0.425780610387 0.425732881659 0)
(0.425756956437 0.347415703571 0)
(0.425735392374 0.269111749524 0)
(0.42569699639 0.190757418234 0)
(0.424922991135 0.113100713819 0)
(0.400133254114 0.035248395957 0)
(-1.3263194153 0.104346842737 0)
(-1.4043098813 0.333930001972 0)
(-1.39612129689 0.562062965585 4.38960132169e-26)
(-1.37896519482 0.789587476194 0)
(-1.35612314926 1.0133070825 0)
(-1.32804287909 1.23241921681 0)
(-1.29509523401 1.44602800331 0)
(-1.25769192814 1.65331820625 0)
(-1.21628073054 1.85356502268 0)
(-1.17133411615 2.0461381691 0)
(-1.12333748425 2.23050387052 0)
(-1.0727785515 2.40622440954 0)
(-1.02013752094 2.5729555157 0)
(-0.965879053429 2.73044197304 0)
(-0.910445316588 2.87851187993 0)
(-0.854250987426 3.01706993829 0)
(-0.797679257514 3.14609015993 0)
(-0.74107963118 3.26560828632 0)
(-0.684766430812 3.37571420428 0)
(-0.62901878396 3.47654454685 0)
(-0.574080947586 3.56827565293 0)
(-0.520163775533 3.65111697769 0)
(-0.467446175459 3.7253050366 0)
(-0.416077417826 3.79109790606 0)
(-0.366179157783 3.84877030366 0)
(-0.317848091958 3.89860922673 0)
(-0.271158132773 3.9409101356 0)
(-0.226163076742 3.97597363934 0)
(-0.182898668744 4.00410265439 0)
(-0.141385079015 4.02559998496 0)
(-0.101628719181 4.04076632627 0)
(-0.0636243419043 4.04989810783 0)
(-0.0273575144238 4.05328853654 0)
(0.0072020491667 4.05124650912 0)
(0.0400936250633 4.04404763087 0)
(0.0713514245088 4.03194728387 0)
(0.101014643681 4.01518799933 0)
(0.129126856597 3.9940266268 0)
(0.155734722173 3.96870794541 0)
(0.18088694064 3.93946688364 0)
(0.204633896793 3.90652943863 0)
(0.227026803959 3.87011246785 0)
(0.248117496288 3.8304237503 0)
(0.267957750477 3.78766213417 0)
(0.286599224382 3.74201769785 0)
(0.304092905679 3.69367194016 0)
(0.320489161425 3.64279799127 0)
(0.335837286004 3.58956084257 0)
(0.350185632155 3.53411758446 0)
(0.36358123347 3.4766176548 0)
(0.376069993721 3.41720308645 0)
(0.387696364792 3.35600876051 0)
(0.398503575038 3.29316265404 0)
(0.408533347832 3.22878609007 0)
(0.417826154815 3.16299397715 0)
(0.426420964169 3.09589504974 0)
(0.434355507092 3.02759209678 0)
(0.44166604762 2.95818219003 0)
(0.448387654261 2.88775689837 0)
(0.454553985843 2.81640250208 0)
(0.460197561535 2.74420019327 0)
(0.465349558745 2.67122627672 0)
(0.470040077162 2.59755235559 0)
(0.474297946447 2.52324551877 0)
(0.478150980529 2.44836851399 0)
(0.481625793551 2.3729799233 0)
(0.484748042226 2.2971343238 0)
(0.487542249657 2.22088245208 0)
(0.49003203372 2.14427135507 0)
(0.492239938598 2.0673445454 0)
(0.494187648155 1.9901421428 0)
(0.495895825809 1.91270102152 0)
(0.497384311845 1.83505494469 0)
(0.498671972159 1.75723470573 0)
(0.499776879031 1.67926825619 0)
(0.500716169848 1.60118084222 0)
(0.501506210809 1.52299512812 0)
(0.502162466398 1.44473132918 0)
(0.502699645847 1.36640733085 0)
(0.50313158453 1.28803881932 0)
(0.503471373013 1.20963939777 0)
(0.503731251081 1.13122071663 0)
(0.503922719457 1.05279258983 0)
(0.50405644785 0.974363124148 0)
(0.504142369704 0.89593884007 0)
(0.504189605799 0.817524792035 0)
(0.504206543194 0.739124681452 0)
(0.504200778041 0.660740970263 0)
(0.504179181396 0.58237495792 0)
(0.504147867976 0.504026912392 0)
(0.504112252014 0.425696272863 0)
(0.504077007988 0.347381343562 0)
(0.504045311537 0.269083123481 0)
(0.50399417919 0.190736888855 0)
(0.503072390355 0.113087280203 0)
(0.473720381373 0.0352431446509 0)
(-1.54693007254 0.107264036784 0)
(-1.6377751165 0.343272942825 0)
(-1.62798418125 0.577748472009 -4.35248057844e-26)
(-1.60758381462 0.811436569448 0)
(-1.58043565676 1.04101517402 0)
(-1.5470846734 1.26561859379 0)
(-1.5079864144 1.4842914837 0)
(-1.46364512804 1.69617231629 0)
(-1.41460729289 1.90050329708 0)
(-1.36144716087 2.09663428685 0)
(-1.30475225322 2.28402408881 0)
(-1.24511011495 2.4622388401 0)
(-1.18309654828 2.63094792549 0)
(-1.1192658273 2.78991794156 0)
(-1.05414274357 2.93900524905 0)
(-0.98821672215 3.07814760461 0)
(-0.92193762499 3.20735531425 0)
(-0.855713332548 3.32670227271 0)
(-0.789908606844 3.43631718252 0)
(-0.724845280729 3.5363751694 0)
(-0.660803255098 3.62708994668 0)
(-0.598022370822 3.70870662488 0)
(-0.536704666323 3.78149521622 0)
(-0.477017139735 3.84574484881 0)
(-0.419094575438 3.90175867575 0)
(-0.36304261243 3.94984944901 0)
(-0.308940661934 3.99033571208 0)
(-0.256844901725 4.0235385611 0)
(-0.20679099364 4.04977891912 0)
(-0.158796789673 4.06937525838 0)
(-0.112864717031 4.08264182246 0)
(-0.0689839705552 4.08988603877 0)
(-0.0271339396569 4.0914143565 0)
(0.012727229716 4.0875473544 0)
(0.0506456421042 4.0785613294 0)
(0.0866614571986 4.06471472245 0)
(0.120823365231 4.04625522218 0)
(0.153184438452 4.02344332981 0)
(0.183800720752 3.99652641911 0)
(0.212730445479 3.9657413092 0)
(0.240033389711 3.93131524145 0)
(0.265770153819 3.89346575661 0)
(0.29000171509 3.85240085192 0)
(0.312788910061 3.80831920586 0)
(0.334192150436 3.76141040655 0)
(0.354271046156 3.71185520018 0)
(0.373084245617 3.65982575481 0)
(0.390689167349 3.60548593396 0)
(0.407141932641 3.54899157323 0)
(0.422497176725 3.49049075929 0)
(0.436808047664 3.43012410653 0)
(0.450126075265 3.36802503189 0)
(0.462501216346 3.30432002284 0)
(0.473981763671 3.23912890082 0)
(0.484614421772 3.17256507569 0)
(0.494444243441 3.10473579444 0)
(0.503514724646 3.0357423795 0)
(0.511867758511 2.96568046062 0)
(0.519543740382 2.89464019623 0)
(0.526581532854 2.82270648872 0)
(0.533018574892 2.7499591891 0)
(0.538890852614 2.67647329602 0)
(0.544233007756 2.60231914484 0)
(0.549078311398 2.52756259207 0)
(0.553458768874 2.45226519025 0)
(0.557405093966 2.37648435911 0)
(0.560946808028 2.30027354811 0)
(0.564112213909 2.22368239616 0)
(0.566928488165 2.14675688364 0)
(0.569421653823 2.06953948223 0)
(0.571616664838 1.99206929805 0)
(0.573537378035 1.91438221356 0)
(0.575206629605 1.8365110234 0)
(0.576646206191 1.75848556993 0)
(0.577876913264 1.6803328733 0)
(0.578918546193 1.60207726214 0)
(0.579789950712 1.52374049939 0)
(0.580508994304 1.44534190924 0)
(0.581092618973 1.36689849926 0)
(0.58155681389 1.28842508534 0)
(0.581916660859 1.20993441083 0)
(0.582186308698 1.13143727147 0)
(0.582379011852 1.05294263527 0)
(0.582507107617 0.974457766659 0)
(0.582582048614 0.895988351303 0)
(0.582614383994 0.817538612757 0)
(0.582613786708 0.739111430935 0)
(0.582589040738 0.660708446457 0)
(0.582548065482 0.582330160533 0)
(0.58249790813 0.503976058212 0)
(0.582444761189 0.425644745385 0)
(0.582393934282 0.347333735271 0)
(0.582348919214 0.269043392326 0)
(0.582282895449 0.190707519941 0)
(0.581212596809 0.113067238379 0)
(0.547300359038 0.0352353169994 0)
(-1.77420568411 0.110711175825 0)
(-1.87824308024 0.354306597214 0)
(-1.86668437178 0.596265320225 0)
(-1.84275439973 0.837218286371 0)
(-1.81092962466 1.07368897526 0)
(-1.77186619107 1.30473443833 0)
(-1.72611819365 1.5293282137 0)
(-1.67429713075 1.74655437714 0)
(-1.61706301826 1.95561750504 0)
(-1.55510619595 2.15584623323 0)
(-1.48912943472 2.34669347688 0)
(-1.4198317267 2.52773320553 0)
(-1.34789423275 2.69865436962 0)
(-1.2739687313 2.8592527008 0)
(-1.19866857055 3.00942107188 0)
(-1.12256211387 3.14913903342 0)
(-1.04616840474 3.2784620558 0)
(-0.9699548582 3.39751089377 0)
(-0.894336594328 3.50646139498 0)
(-0.819677179202 3.60553497012 0)
(-0.746290390917 3.69498986976 0)
(-0.674442816659 3.77511333668 0)
(-0.604356956385 3.84621465916 0)
(-0.536214711583 3.90861910402 0)
(-0.470161006772 3.96266268995 0)
(-0.406307494678 4.00868773576 0)
(-0.344736156985 4.04703911687 0)
(-0.285502811384 4.07806115152 0)
(-0.228640386069 4.10209504683 0)
(-0.174162012821 4.11947681167 0)
(-0.122063857015 4.13053577138 0)
(-0.0723275568673 4.13559131846 0)
(-0.024924524222 4.13496569367 0)
(0.0202012739189 4.12899153334 0)
(0.0631030057065 4.11794394152 0)
(0.103827988705 4.10208486545 0)
(0.142435662003 4.08166894755 0)
(0.178989566891 4.05696020974 0)
(0.213556018136 4.02820857383 0)
(0.246203482119 3.99565270051 0)
(0.277001788719 3.95952095359 0)
(0.306021418301 3.92003138963 0)
(0.333332967416 3.87739202258 0)
(0.359006662799 3.83180113256 0)
(0.383112002728 3.7834475689 0)
(0.405717424967 3.73251106364 0)
(0.426890084057 3.6791625523 0)
(0.446695636054 3.62356449501 0)
(0.465198115613 3.56587119516 0)
(0.482459805702 3.50622911283 0)
(0.498541186456 3.44477717149 0)
(0.51350086514 3.38164705625 0)
(0.5273955747 3.31696350307 0)
(0.540280145027 3.25084457789 0)
(0.552207534686 3.18340194524 0)
(0.563228829183 3.1147411263 0)
(0.573393293245 3.04496174639 0)
(0.582748385565 2.97415777211 0)
(0.591339822638 2.902417738 0)
(0.599211602386 2.82982496364 0)
(0.60640607286 2.7564577611 0)
(0.61296395942 2.68238963385 0)
(0.618924433866 2.60768946671 0)
(0.624325141598 2.5324217084 0)
(0.629202268003 2.45664654634 0)
(0.633590563299 2.38042007515 0)
(0.637523404362 2.30379445828 0)
(0.641032815963 2.22681808442 0)
(0.644149526839 2.14953571828 0)
(0.646902986699 2.07198864714 0)
(0.649321416133 1.99421482245 0)
(0.651431819304 1.91624899829 0)
(0.653260027545 1.83812286588 0)
(0.654830707964 1.75986518583 0)
(0.656167400981 1.68150191702 0)
(0.657292525344 1.60305634415 0)
(0.658227409959 1.52454920248 0)
(0.658992295878 1.44599880221 0)
(0.659606362941 1.36742114963 0)
(0.660087729481 1.28883006969 0)
(0.660453474311 1.2102373246 0)
(0.660719634787 1.13165273671 0)
(0.660901224809 1.05308430808 0)
(0.661012232131 0.974538343195 0)
(0.661065633105 0.896019574285 0)
(0.661073390081 0.817531275917 0)
(0.661046463819 0.739075384438 0)
(0.660994812088 0.660652608208 0)
(0.660927399346 0.582262510203 0)
(0.66085219772 0.503903632665 0)
(0.660776189435 0.425573706368 0)
(0.66070532315 0.347269280662 0)
(0.660643480874 0.268989714076 0)
(0.660560154182 0.190667533968 0)
(0.659340118133 0.113040440189 0)
(0.620868411764 0.0352252452767 0)
(-2.00930225061 0.114738844736 0)
(-2.12692591685 0.36719125115 0)