/*--------------------------------*- C++ -*----------------------------------*\
| =========                 |                                                 |
| \\      /  F ield         | OpenFOAM: The Open Source CFD Toolbox           |
|  \\    /   O peration     | Version:  v1906                                 |
|   \\  /    A nd           | Web:      www.OpenFOAM.com                      |
|    \\/     M anipulation  |                                                 |
\*---------------------------------------------------------------------------*/
FoamFile
{
    version     2.0;
    format      ascii;
    class       surfaceScalarField;
    location    "780";
    object      phia;
}
// * * * * * * * * * * * * * * * * * * * * * * * * * * * * * * * * * * * * * //

dimensions      [0 3 -1 0 0 0 0];
oriented        oriented;


internalField   nonuniform List<scalar> 
18240
(
0.00134666397631
-0.00134658748239
0.00282097067099
-0.00147421434039
0.00429420286983
-0.00147315500036
0.00574869841474
-0.00145440019594
0.00717641354187
-0.00142764224411
0.00857063447319
-0.00139412336052
0.00992526331424
-0.00135456039905
0.0112348890511
-0.0013095264344
0.0124945748259
-0.00125962198625
0.0137000982263
-0.0012054228895
0.0148477124509
-0.0011475553804
0.0159344172637
-0.00108660359018
0.0169576611604
-0.00102319014419
0.0179156322639
-0.000957869643496
0.0188069044991
-0.000891223763019
0.0196307509665
-0.000823745218062
0.0203867423485
-0.000755948232273
0.0210750870592
-0.000688244109865
0.0216961909425
-0.000621066166196
0.0222510278051
-0.000554737323071
0.022740668222
-0.000489608091475
0.0231666823845
-0.000425916085679
0.0235306444296
-0.000363935153575
0.0238345674057
-0.000303826734937
0.024080387327
-0.000245798349656
0.0242704281309
-0.00018994675847
0.0244068685249
-0.000136424124135
0.0244922335787
-8.52735328715e-05
0.0245288465142
-3.66017921502e-05
0.0245193436456
9.59154989012e-06
0.0244661155005
5.32342304605e-05
0.0243718333919
9.43676645739e-05
0.0242388734355
0.000132961207529
0.0240698736943
0.000169081892035
0.0238671559032
0.000202714318002
0.0236332845493
0.000233949855307
0.0233704809438
0.000262795675387
0.0230811929249
0.000289362644471
0.0227675069454
0.000313673747213
0.022431723548
0.000335853960381
0.0220757695209
0.000355937798909
0.0217017758884
0.000374059966521
0.0213114929191
0.000390262937847
0.0209068675912
0.000404687307577
0.0204894638754
0.000417380216531
0.0200610368413
0.000428484555671
0.0196229609095
0.000438049187073
0.0191767978594
0.000446216049915
0.0187237352638
0.000453032959974
0.0182651458119
0.000458637887062
0.0178020382955
0.000463075233028
0.0173356057095
0.000466476451407
0.0168666906124
0.00046888052832
0.0163963196002
0.000470410320766
0.0159251849561
0.000471098044353
0.0154541631505
0.000471056603566
0.0149838141778
0.000470310700695
0.0145148819163
0.000468962609229
0.0140478126646
0.000467029562713
0.0135832353289
0.000464603320278
0.0131215002587
0.000461694306568
0.0126631374949
0.000458384480321
0.0122084171736
0.00045467872599
0.0117577842807
0.000450650454888
0.0113114415778
0.000446300586511
0.0108697596267
0.000441695472444
0.0104328833692
0.000436833836087
0.0100011164141
0.000431776559601
0.00957455213178
0.00042652182255
0.00915343148854
0.000421126451938
0.0087377996428
0.00041558953221
0.00832783679341
0.000409964994402
0.00792354098662
0.00040425387058
0.00752503166458
0.000398507944351
0.0071322594393
0.000392730846911
0.00674528213058
0.000386972578088
0.00636400198662
0.000381239562299
0.00598841413652
0.000375579966022
0.00561837173417
0.000370002842313
0.00525380678228
0.00036455415378
0.00489452345221
0.000359245073172
0.00454039130628
0.00035411868981
0.00419116707978
0.000349187523323
0.00384666035195
0.000344490830227
0.00350658408204
0.000340041290335
0.00317069310317
0.000335872697996
0.00283866441013
0.000331995387978
0.0025102105179
0.000328433131199
0.00218499438047
0.000325184408112
0.00186273065959
0.000322240835253
0.00154316806425
0.000319533057337
0.00122626807584
0.000316875973844
0.000912507276668
0.000313735182896
0.000604232490358
0.00030825026095
0.000311172360442
0.000293031543056
0.000311157355158
0.00148879718594
-0.00283530061076
0.00315071295357
-0.00313603675444
0.00480352164167
-0.00312587533323
0.00643253236769
-0.00308331764549
0.00803030960094
-0.00302533280607
0.00958992308147
-0.00295364395336
0.0111047659862
-0.00286931871075
0.0125688005126
-0.00277346879302
0.0139765616624
-0.0026673010483
0.0153232929215
-0.00255206313909
0.0166048686983
-0.00242905192883
0.0178179053609
-0.00229955081422
0.0189596370192
-0.00216484577414
0.0200280163812
-0.00202616151675
0.0210215543953
-0.0018846892026
0.0219394185846
-0.00174152420878
0.0227812456674
-0.00159770645408
0.0235472445294
-0.00145416038151
0.0242379904464
-0.00131174711879
0.0248545387707
-0.00117120594972
0.0253982079725
-0.00103321642061
0.0258707082078
-0.000898339779302
0.0262739182525
-0.000767088536579
0.0266100306625
-0.000639865989015
0.0268813253076
-0.0005170406781
0.0270903306143
-0.000398882504179
0.0272395946039
-0.00028564020301
0.0273318602583
-0.000177473397646
0.0273698339895
-7.45320960418e-05
0.0273563722597
2.31151389991e-05
0.0272942448529
0.000115400570148
0.0271863386329
0.000202331684389
0.0270354284286
0.000283905817659
0.0268443728427
0.000360191099956
0.0266158758347
0.00043124123801
0.0263527012306
0.000497173820843
0.0260574369255
0.000558085416955
0.0257327123652
0.000614132242816
0.0253809629478
0.000665444209276
0.0250046510593
0.000712206534559
0.0246060320095
0.000754573570589
0.0241873773666
0.000792750934771
0.0237507433709
0.000826909462632
0.0232981952647
0.000857267403678
0.022831579072
0.000884004861984
0.0223527457295
0.000907345597585
0.0218633271553
0.000927472308612
0.021364959021
0.000944607668818
0.0208590619254
0.000958930855064
0.0203470616997
0.000970657475614
0.0198301764465
0.00097995774191
0.0193096332348
0.000987035023933
0.0187864615784
0.000992046086575
0.0182617053844
0.000995178007027
0.017736223353
0.00099657085165
0.0172108950083
0.00099639272651
0.0166864283326
0.000994765238742
0.0161635587599
0.000991836409998
0.0156428643274
0.000987709184034
0.015124956568
0.000982511935623
0.0146103033841
0.00097633022823
0.0140994109241
0.000969274604648
0.0135926544531
0.000961415721665
0.0130904504455
0.000952849121611
0.0125930957283
0.000943633831619
0.0121009292328
0.000933853802653
0.0116141797974
0.000923560022599
0.0111331171902
0.000912828355851
0.0106579089689
0.000901705214744
0.0101887605751
0.000890261559148
0.00972578172531
0.000878542168774
0.00926911549677
0.000866615630969
0.00881881468495
0.000854527270215
0.00837495991248
0.000842344994895
0.00793754639646
0.00083011595067
0.00750659115895
0.000817908160066
0.00708203055122
0.000805770974452
0.00666381668087
0.000793772472304
0.00625182600548
0.000781963787497
0.00584594507968
0.000770412267728
0.00544599042231
0.000759169744461
0.00505178367845
0.000748301453345
0.00466308294083
0.000737858288747
0.00427964740085
0.000727901454363
0.00390118024994
0.000718478649159
0.00352738290456
0.000709644247254
0.00315790957851
0.000701439038004
0.00279241082527
0.000693905110576
0.00243049809851
0.000687067489321
0.00207177043292
0.000680940889996
0.00171576648759
0.000675508585471
0.00136189841408
0.000670717244063
0.0010091554317
0.000666450645425
0.000654927337189
0.00066245177886
0.000292204351887
0.000655728092775
0.000603348266501
0.00151510672759
-0.0043503215955
0.00319830565869
-0.0048191440826
0.00487486011539
-0.00480233837277
0.00652749751161
-0.00473586312166
0.00814805118461
-0.00464579634915
0.0097292558389
-0.00453475757342
0.0112643419865
-0.00440431629857
0.0127471341742
-0.00425617129017
0.0141720934782
-0.00409217371321
0.0155343867295
-0.00391426847899
0.0168298768937
-0.0037244577794
0.0180551577345
-0.00352474591274
0.0192075068983
-0.00331711328198
0.0202848979843
-0.00310346938137
0.0212859270234
-0.0028856395734
0.0222098113321
-0.00266532812582
0.0230562988397
-0.00244411853604
0.0238256623072
-0.00222344657154
0.0245186001325
-0.00200461302733
0.0251362332193
-0.0017887651202
0.0256800041364
-0.00157691911972
0.0261516817985
-0.00136994711181
0.0265532634682
-0.00116860589437
0.0268869896541
-0.00097352561949
0.0271552506122
-0.000785241359333
0.0273606113603
-0.000604180640803
0.027505722383
-0.000430695135377
0.0275933531713
-0.00026504565034
0.0276263059475
-0.000107433042419
0.0276074560101
4.20194167983e-05
0.0275396680343
0.000183236011674
0.027425841397
0.000316208380963
0.0272688296157
0.000440960669816
0.0270714902977
0.000557576118113
0.0268366049781
0.000666165175899
0.0265669338471
0.000766886257294
0.0262651378049
0.000859915647885
0.0259338368667
0.000945470070407
0.0255755342463
0.00102377658506
0.0251926775108
0.00109509576057
0.024787584692
0.00115969178541
0.0243625076246
0.00121785612519
0.0239195602505
0.0012698779211
0.0234607836057
0.00131606787331
0.0229880764232
0.00135672893987
0.0225032613427
0.00139218028648
0.0220080180571
0.00142272839661
0.0215039503087
0.00144869092595
0.0209925216941
0.00147036834416
0.0204751230315
0.00148806767338
0.0199530109713
0.00150207488593
0.0194273752233
0.00151267849021
0.01889927991
0.0015201428915
0.018369730105
0.00152473187505
0.0178396158575
0.00152668316786
0.0173097773899
0.00152623178839
0.0167809515394
0.00152358595626
0.0162538349758
0.00151895028589
0.0157290328628
0.00151250315267
0.0152071194507
0.00150441958266
0.0146885886913
0.00149485006324
0.0141739116826
0.00148394296939
0.013663489129
0.00147182476789
0.0131577052119
0.00145862172338
0.0126568818125
0.00144444136625
0.0121613285695
0.00142939325302
0.0116712989776
0.00141357158008
0.0111870365165
0.00139707474193
0.0107087327733
0.00137998895979
0.010236569691
0.001362406463
0.00977068001154
0.00134441005939
0.00931118575988
0.00132608978294
0.0088581612869
0.00130752835769
0.00841166819072
0.00128881625082
0.0079717212983
0.00127003804572
0.00753832021894
0.00125128586325
0.00711141852728
0.00123264668169
0.00669095215509
0.00121421416011
0.00627681203406
0.0011960769793
0.00586886947458
0.00117832910145
0.00546695242626
0.00116105920331
0.00507086796246
0.00114435943157
0.0046803822791
0.00112831599108
0.00429524031677
0.00111301640804
0.00391514948065
0.00109854127542
0.00353979628038
0.00108496996399
0.00316883341778
0.00107237340052
0.00280189240944
0.00106081801536
0.0024385716332
0.00105035946472
0.00207843900737
0.00104104519699
0.00172100719221
0.00103291180623
0.00136569993312
0.00102599722917
0.00101176663036
0.00102035779838
0.000658248157546
0.00101594250203
0.000305810310784
0.00100813814294
0.000909145722377
0.0015384477948
-0.00588868278594
0.00324468007174
-0.0065252828576
0.00494439171127
-0.00650195763633
0.00661950738117
-0.00641088620128
0.00826139325098
-0.00628759071141
0.00986245707047
-0.00613573005649
0.0114157094727
-0.0059574785548
0.0129148137933
-0.00575518581248
0.0143541335761
-0.00553140516189
0.0157287758998
-0.00528882294545
0.0170345987079
-0.00503019446469
0.0182682174954
-0.00475827916844
0.0194269780725
-0.00447579032185
0.0205089363771
-0.00418534482596
0.0215128071655
-0.00388942971938
0.0224379273063
-0.00359036838462
0.0232841906291
-0.0032903044089
0.024052004345
-0.00299118365989
0.0247422192235
-0.00269475388959
0.0253560873354
-0.0024025601005
0.0258951948498
-0.00211595628638
0.0263614268798
-0.00183610972093
0.0267569072647
-0.00156401977924
0.0270839730261
-0.00130052585181
0.0273451221996
-0.00104632805658
0.0275429973838
-0.000801994344844
0.0276803402452
-0.000567979666876
0.0277599820586
-0.000344630158471
0.0277848029032
-0.000132199825454
0.0277577273243
6.91480177269e-05
0.0276816871663
0.000259325886072
0.0275596201091
0.000438324096363
0.0273944364554
0.000606189612691
0.0271890216739
0.000763035127269
0.0269462052462
0.000909022437756
0.0266687670764
0.0010443641954
0.0263594084267
0.00116931065233
0.026020761511
0.00128415228787
0.0256553629042
0.00138920709355
0.025265665636
0.00148482388774
0.0248540147779
0.00157137012121
0.0244226616463
0.00164923571869
0.0239737414133
0.00171882128571
0.0235092891339
0.00178054229379
0.0230312193362
0.00183481760439
0.0225413436896
0.00188207384986
0.0220413525722
0.00192273424177
0.0215328342058
0.00195722310884
0.0210172581881
0.00198595507791
0.0204959959045
0.00200933981367
0.0199703059371
0.00202777172338
0.0194413554578
0.00204163502917
0.0189102073204
0.00205129421733
0.0183778420468
0.00205709958588
0.0178451462903
0.00205937862644
0.0173129349145
0.00205844217054
0.0167819404287
0.00205457684838
0.0162528346287
0.00204805185919
0.0157262185743
0.00203911253113
0.0152026432592
0.00202798764595
0.0146825997417
0.00201488402711
0.0141665384056
0.00199999423638
0.0136548589522
0.00198349200719
0.0131479279326
0.00196554006636
0.0126460684424
0.00194628618495
0.0121495757747
0.00192587083808
0.0116587068114
0.00190442361999
0.0111736937859
0.00188207047531
0.0106947334949
0.00185893026365
0.0102219993031
0.00183512133852
0.00975563040338
0.00181075809593
0.00929574227392
0.00178595675526
0.00884241626654
0.00176083180733
0.00839570878062
0.00173550092507
0.00795564147909
0.00171008129179
0.00752220943682
0.00168469364477
0.00709537225358
0.00165945852827
0.00667506141345
0.00163449952293
0.00626117252263
0.00160993950358
0.00585357205651
0.00158590314168
0.00545209087624
0.00156251326773
0.00505653047767
0.00153989274134
0.00466665786284
0.00151816101378
0.00428221130541
0.00149743544967
0.00390289650591
0.0014778281666
0.00352839169305
0.0014594468792
0.00315834466741
0.00144239212348
0.00279237644398
0.00142675785376
0.00243007759347
0.00141262956382
0.00207100778579
0.00140008626784
0.0017146885323
0.00138920319813
0.0013605970932
0.00138006137052
0.00100817501269
0.00137275193226
0.000657014947835
0.0013670756682
0.000308818731342
0.00135630737872
0.00121795061903
0.00156841449347
-0.00745700932235
0.00330651711155
-0.00826329240968
0.00503750713359
-0.00823285354658
0.00674267638868
-0.00811596210991
0.00841294890953
-0.00795777032615
0.0100403607412
-0.0077630496421
0.011617635789
-0.00753466216069
0.0131382264001
-0.00727568575156
0.0145963610828
-0.00698945022319
0.0159870763334
-0.00667944953013
0.0173062238704
-0.00634925460701
0.0185504634407
-0.00600243247233
0.0197172349086
-0.00564247698177
0.0208047221187
-0.00527274851664
0.0218118012613
-0.00489642697476
0.0227379873104
-0.00451647396998
0.0235833699288
-0.00413560834342
0.0243485532321
-0.00375628982887
0.0250345893725
-0.00338071481462
0.0256429208415
-0.00301081800602
0.0261753197729
-0.00264828368711
0.0266338392339
-0.00229455939933
0.0270207628275
-0.00195087572965
0.0273385673727
-0.00161826457548
0.0275898831376
-0.0012975802217
0.0277774664252
-0.000989515924573
0.0279041677891
-0.00069462162143
0.0279729112879
-0.0004133161878
0.0279866676168
-0.000145901038473
0.0279484375577
0.000107431202555
0.0278612285542
0.000346585608812
0.0277280401508
0.000571561198186
0.0275518455274
0.000782430493858
0.0273355797831
0.000979345079299
0.0270821229939
0.00116252097015
0.0267942931592
0.00133223371964
0.0264748314698
0.00148880956598
0.0261263981497
0.00163262077709
0.0257515602788
0.00176407767313
0.0253527900135
0.00188362482777
0.0249324545506
0.0019917338263
0.0244928163746
0.00208890012704
0.0240360251533
0.00217563634037
0.0235641198172
0.00225246949995
0.0230790222846
0.00231993466329
0.0225825412965
0.00237857244947
0.0220763679706
0.00242892289565
0.0215620813326
0.00247152322853
0.0210411456555
0.00250690203241
0.0205149175906
0.00253557737835
0.0199846451942
0.00255805149709
0.0194514764411
0.00257480946779
0.0189164596762
0.00258631464274
0.0183805531641
0.00259300815029
0.0178446265904
0.00259530532558
0.0173094711618
0.00259359621337
0.0167758016537
0.00258824315408
0.0162442665151
0.00257958237693
0.0157154499506
0.00256792276661
0.0151898814864
0.00255354846491
0.0146680375966
0.00253671867982
0.0141503502838
0.00251767109124
0.0136372079033
0.00249662244945
0.0131289624491
0.00247377246203
0.0126259293661
0.00244930484323
0.0121283934173
0.00242339133261
0.0116366074705
0.00239619285294
0.0111507969814
0.0023678633128
0.0106711578758
0.00233855056434
0.0101978598314
0.00230839972248
0.00973104350912
0.0022775537045
0.00927082289985
0.00224615588098
0.00881728220104
0.00221435007346
0.00837047754101
0.00218228246744
0.00793043382671
0.00215010104839
0.00749714614044
0.00211795678719
0.00707057684009
0.00208600256923
0.00665065688835
0.00205439373975
0.00623728344417
0.00202328663771
0.0058303213105
0.00199283861977
0.00542960116797
0.00196320633448
0.0050349212546
0.00193454536555
0.00464604631005
0.00190700839078
0.00426270949379
0.00188074458009
0.00388461197201
0.00185589778593
0.00351142494517
0.00183260586482
0.00314278964117
0.00181099912269
0.00277831901814
0.00179119991029
0.0024175978433
0.00177332205641
0.00206018374206
0.0017574718187
0.00170560798301
0.00174375025587
0.001353383325
0.00173225856083
0.00100302902069
0.00172308026844
0.000654230344189
0.00171584616033
0.000308622589046
0.00170188675068
0.00152656028542
0.00160630624346
-0.0090632265926
0.00338560777545
-0.0100424978431
0.00515684347248
-0.0100039942518
0.00690053364047
-0.00985955728717
0.00860707870051
-0.00966422123133
0.0102680704533
-0.00942394778458
0.0118758783909
-0.00914237732388
0.0134236948396
-0.00882341023955
0.0149055821615
-0.00847124661346
0.016316497778
-0.00809027524269
0.0176522947365
-0.00768496289757
0.0189097032591
-0.00725975354264
0.0200862937951
-0.00681898149395
0.0211804279605
-0.00636679803455
0.0221911974993
-0.00590711346047
0.0231183577812
-0.00544355272055
0.0239622552997
-0.00497942607688
0.024723755735
-0.00451771212499
0.0254041713409
-0.00406105415593
0.026005194058
-0.00361176621695
0.0265288320303
-0.00317184914431
0.0269773551638
-0.00274301186904
0.0273532457754
-0.00232669776382
0.0276591587933
-0.00192411095056
0.027897885923
-0.00153624288109
0.028072327457
-0.00116389498881
0.0281854653826
-0.000807699316378
0.0282403417335
-0.000468134366334
0.028240036115
-0.000145539546494
0.0281876472282
0.000159873857253
0.0280862732082
0.000448011052457
0.0279389946319
0.000718889052327
0.0277488590506
0.000972612965904
0.0275188669244
0.0012093819275
0.0272519577943
0.00142947241928
0.026951000569
0.00163323108372
0.0266187823933
0.00182106547032
0.0262580017631
0.0019934369611
0.0258712599154
0.0021508526773
0.0254610562197
0.00229385951987
0.0250297816228
0.00242303704452
0.0245797159447
0.00253899229824
0.0241130231357
0.00264235330988
0.023631750326
0.00273376438302
0.023137824852
0.00281387992952
0.0226330550557
0.0028833600079
0.022119129114
0.00294286438743
0.0215976176145
0.00299304831267
0.0210699742128
0.00303455688263
0.0205375399538
0.00306802119785
0.0200015456711
0.00309405329429
0.0194631178762
0.00311324297165
0.0189232826506
0.00312615362555
0.0183829727477
0.00313332009695
0.0178430325428
0.00313524572704
0.0173042258264
0.00313240150759
0.0167672412439
0.00312522457312
0.0162327001742
0.00311411876552
0.0157011620461
0.00309945458535
0.0151731316954
0.0030815710893
0.0146490640079
0.00306077712427
0.0141293702577
0.00303735428496
0.0136144216629
0.00301155908518
0.0131045543784
0.00298362657403
0.0126000717462
0.00295377300988
0.0121012478218
0.00292219967644
0.011608328303
0.00288909560628
0.0111215326614
0.00285464116639
0.0106410539124
0.00281901044236
0.0101670595819
0.00278237424921
0.0096996906059
0.00274490189446
0.00923906145669
0.00270676339895
0.00878525852356
0.00266813049335
0.00833833975945
0.00262917796552
0.00789833289977
0.00259008386865
0.00746523496716
0.00255103002981
0.00703901064318
0.00251220155058
0.00661959191556
0.00247378659248
0.00620687684821
0.00243597531557
0.00580072957376
0.00239895910729
0.00540097962059
0.00236292913656
0.00500742236515
0.00232807521252
0.00461981897872
0.00229458414099
0.0042378973604
0.00226263840523
0.00386135266217
0.00223241452052
0.00348984863779
0.00220408175148
0.00312301865451
0.00217780072789
0.00276046742541
0.00215372255532
0.00240177254211
0.00213198809244
0.00204648713799
0.00211272830129
0.00169414454918
0.00209606503735
0.0013442656629
0.00208211006598
0.000996380419386
0.00207093717596
0.000650155802373
0.00206204382505
0.000307086231255
0.00204492923103
0.00183363247347
0.00165295282753
-0.0107160885645
0.00348323400709
-0.0118726831256
0.00530421646853
-0.0118248794965
0.00709541795943
-0.0116506625003
0.00884658531643
-0.0114152926639
0.0105487666594
-0.0111260340003
0.0121939026328
-0.0107874189088
0.0137748759853
-0.0104042901246
0.0152855578179
-0.00998183596161
0.0167208247194
-0.00952545078858
0.0180765491437
-0.00904059715835
0.0193495673645
-0.00853268292811
0.0205376291761
-0.00800695584168
0.0216393336356
-0.00746841653711
0.0226540544219
-0.00692174982095
0.0235818584972
-0.00637127403218
0.0244234211995
-0.00582090768411
0.0251799411674
-0.00527415279728
0.0258530579798
-0.00473409346449
0.0264447755016
-0.00420340815116
0.0269573930191
-0.00368439296968
0.0273934458818
-0.00317899305857
0.0277556559486
-0.00268883814472
0.0280468915272
-0.00221527894794
0.0282701351298
-0.0017594209649
0.0284284573077
-0.00132215382742
0.0285249942378
-0.000904175035435
0.0285629275977
-0.000506008753456
0.0285454653265
-0.000128020483016
0.0284758229784
0.00022957070339
0.0283572057606
0.00056668054008
0.0281927927183
0.000883352026172
0.0279857187742
0.0011797345778
0.0277390629856
0.00145608301567
0.0274558351032
0.00171274331883
0.0271389650962
0.00195014172948
0.0267912939873
0.00216877493399
0.0264155661543
0.00236920077199
0.0260144226307
0.00255202990371
0.0255903955493
0.00271791794664
0.0251459033294
0.00286755836101
0.0246832468513
0.00300167554768
0.0242046062974
0.00312101842393
0.0237120389721
0.00322635399301
0.023207477813
0.00331846121639
0.0226927309464
0.00339812478759
0.0221694819977
0.00346612915601
0.0216392915097
0.00352325248189
0.0211035991484
0.00357026090886
0.0205637270352
0.00360790292119
0.0200208838201
0.00363690418688
0.0194761697932
0.00365796271606
0.0189305825731
0.00367174472398
0.0183850236276
0.00367888106009
0.0178403050966
0.00367996453349
0.0172971571369
0.00367554798899
0.016756235217
0.00366614337608
0.0162181275827
0.00365222163746
0.0156833623124
0.00363421355927
0.015152414205
0.00361251136769
0.0146257109471
0.0035874711268
0.0141036388548
0.00355941570021
0.0135865476854
0.00352863825661
0.0130747548714
0.00349540608009
0.0125685487346
0.00345996462257
0.0120681910968
0.00342254158667
0.0115739189036
0.00338335095511
0.0110859453229
0.00334259680362
0.0106044599847
0.00330047681652
0.0101296288598
0.00325718540989
0.00966159347007
0.00321291639183
0.00920046993921
0.00316786513634
0.00874634758811
0.00312223021758
0.00829928757834
0.00307621454924
0.00785932130565
0.00303002598302
0.0074264490211
0.00298387747012
0.00700063837276
0.00293798673746
0.00658182331596
0.00289257562933
0.00616990307177
0.0028478690542
0.00576474154111
0.00280409371815
0.00536616684655
0.00276147657094
0.00497397136682
0.00272024316536
0.00458791193106
0.00268061584076
0.00420771049968
0.00264281194083
0.00383305499128
0.00260704197143
0.00346360059706
0.00257350791906
0.00309897124376
0.00254240163385
0.00273876154722
0.00251390350902
0.00238253936462
0.00248818148009
0.00202984890859
0.00246539013027
0.00168021494183
0.00244567007398
0.00133315111652
0.00242914628659
0.0009881735634
0.00241588893208
0.000644905419973
0.00240528350664
0.000304738273354
0.00238506767262
0.00213835785526
0.00170916773444
-0.0124251641018
0.00360094291294
-0.0137643585541
0.0054818677788
-0.013705705916
0.00733020300356
-0.0134988992383
0.00913488125931
-0.0132198733246
0.0108862906636
-0.0128773463952
0.0125758608444
-0.0124768929484
0.014196116653
-0.0120244506736
0.0157407195387
-0.0115263446506
0.0172044739255
-0.0109891120913
0.0185833024483
-0.0104193338748
0.0198741968067
-0.00982348679125
0.021075149241
-0.00920781925333
0.0221850701811
-0.00857824993577
0.023203695558
-0.00794028929783
0.0241314882879
-0.00729898249211
0.0249695367072
-0.00665887362301
0.0257194544119
-0.00602398977966
0.0263832842402
-0.00539784448615
0.02696341081
-0.0047834577839
0.0274624835669
-0.0041833908156
0.0278833532843
-0.00359978982876
0.0282290214858
-0.00303443551803
0.0285026028395
-0.00248879151945
0.028707297009
-0.00196404855294
0.0288463679144
-0.00146116026561
0.0289231260158
-0.000980870937469
0.0289409123034
-0.000523735014423
0.0289030813347
-9.01318135918e-05
0.0288129842151
0.000319723298329
0.0286739485134
0.000705769338839
0.02848926746
0.00106808390619
0.0282621785045
0.00140687193874
0.0279958515757
0.00172245605347
0.0276933767789
0.00201526178439
0.0273577546746
0.00228580519474
0.0269918875537
0.00253468096992
0.026598572747
0.00276255218982
0.0261804963195
0.00297014050814
0.0257402283281
0.00315821782862
0.0252802181525
0.00332759801947
0.024802791226
0.00347912970457
0.0243101458046
0.00361368871247
0.0238043511692
0.00373217129084
0.0232873459724
0.00383548677049
0.0227609381248
0.00392455085025
0.0222268049688
0.00400027829556
0.0216864950946
0.00406357627054
0.0211414305617
0.0041153372085
0.0205929107925
0.00415643247227
0.0200421168896
0.00418770581856
0.0194901175221
0.00420996791882
0.0189378751045
0.00422399102445
0.0183862532804
0.0042305049719
0.0178360244163
0.00423019364074
0.0172878780039
0.00422369295162
0.0167424286965
0.00421158949976
0.0162002247959
0.00419442076791
0.0156617559815
0.00417267598394
0.0151274610585
0.00414679842188
0.0145977346209
0.00411718819056
0.0140729333964
0.00408420617978
0.0135533813013
0.00404817821681
0.0130393739748
0.00400940000638
0.0125311819691
0.00396814194983
0.012029053364
0.00392465435117
0.0115332151243
0.00387917218483
0.0110438739576
0.00383191989662
0.0105612161159
0.00378311551912
0.0100854068654
0.00373297455265
0.00961658916827
0.00368171301802
0.00915488224178
0.00362955011685
0.00870037962197
0.0035767100312
0.0082531473092
0.00352342327905
0.00781322168839
0.00346992727106
0.00738060770438
0.00341646645306
0.00695527703472
0.00336329177919
0.00653716664012
0.00331065985185
0.00612617747784
0.00325883155709
0.00572217365889
0.0032080704741
0.00532498187489
0.00315864095607
0.00493439128318
0.00311080609939
0.00455015371115
0.00306482555478
0.00417198430045
0.00302095333772
0.00379956247529
0.00297943563706
0.00343253334054
0.00294050872269
0.00307050942394
0.00290439699794
0.00271307295117
0.00287131124018
0.00235977846042
0.00284144696021
0.00201015624201
0.00281498324528
0.00166371721608
0.00279208129696
0.00131995675803
0.00277287927292
0.00097836571278
0.00275745124548
0.000638531141013
0.00274509114189
0.000301768500805
0.00272180324317
0.00244011215412
0.00177590376555
-0.014200973216
0.00374064846145
-0.0157290035179
0.00569260411948
-0.0156575603175
0.00760847994125
-0.0154146748524
0.00947621301729
-0.0150875065411
0.0112853981753
-0.0146864325584
0.0130268676897
-0.014218264246
0.0146927436517
-0.0136902294108
0.0162764701471
-0.0131099749608
0.0177728023609
-0.012485349332
0.0191777610217
-0.0118241988201
0.0204885601962
-0.0111341936738
0.0217035160691
-0.0104226842777
0.0228219418226
-0.00969658644958
0.0238440335777
-0.00896229341733
0.0247707505627
-0.00822561360855
0.0256036938268
-0.00749173276016
0.0263449868123
-0.00676520054088
0.0269971628827
-0.00604994019277
0.02756306358
-0.00534928013514
0.0280457523805
-0.00466600323137
0.0284484458825
-0.00400240906281
0.028774463888
-0.00336038130446
0.029027195825
-0.00274145343944
0.0292100804448
-0.0021468652791
0.0293265928335
-0.00157760703729
0.029380234583
-0.0010344492585
0.0293745225487
-0.000517961889574
0.0293129752996
-2.85257168933e-05
0.029199096367
0.000433658680741
0.0290363540885
0.00086856577016
0.0288281704735
0.00127631922386
0.0285778991498
0.00165719262982
0.0282888128787
0.00201158921012
0.0279640924446
0.00234002674948
0.0276068172271
0.00264312244809
0.0272199580938
0.0029215797806
0.0268063711129
0.00317617635471
0.026368792708
0.00340775374912
0.0259098349776
0.00361720792147
0.0254319820863
0.00380548095309
0.0249375866861
0.00397355271039
0.0244288674372
0.00412243328979
0.0239079066933
0.00425315498142
0.0233766494544
0.00436676473798
0.0228369026994
0.00446431602197
0.0222903361782
0.00454686108715
0.0217384837976
0.00461544269327
0.0211827466159
0.00467108636987
0.0206243965672
0.00471479236628
0.0200645818139
0.00474752844638
0.0195043327976
0.00477022277801
0.0189445697312
0.00478375806226
0.0183861105496
0.00478896620156
0.0178296799127
0.00478662455797
0.0172759182543
0.00477745307993
0.0167253913668
0.00476211319755
0.0161785995431
0.004741207707
0.0156359867207
0.00471528237151
0.0150979487296
0.00468482840078
0.0145648410886
0.00465028637995
0.0140369855754
0.00461205078084
0.0135146760453
0.00457047550454
0.0129981828637
0.00452587960105
0.0124877564666
0.00447855353698
0.0119836295586
0.00442876521681
0.0114860184914
0.00437676608938
0.010995123458
0.00432279664388
0.010511128051
0.00426709161874
0.0100341979233
0.00420988435435
0.0095644790722
0.00415141061806
0.00910209555515
0.00409191146886
0.00864714710101
0.00403163549308
0.0081997064738
0.00397084010854
0.00775981696954
0.00390979225521
0.00732748993605
0.00384876827992
0.00690270260316
0.00378805330134
0.0064853961399
0.00372793995149
0.00607547413264
0.00366872673147
0.00567280142281
0.00361071594719
0.00527720341335
0.00355421140662
0.00488846580307
0.00349951589833
0.00450633478252
0.00344692857388
0.0041305176823
0.00339674229283
0.00376068403252
0.00334924099756
0.00339646710953
0.00330469720436
0.00303746585383
0.00326336960942
0.00268324725708
0.00322550090079
0.00233334943864
0.00319131583299
0.00198728484407
0.00316101911063
0.00164454357557
0.00313479337471
0.00130459927404
0.00311279581404
0.000966916533278
0.00309510834457
0.000631043574791
0.00308093538948
0.000298236939517
0.00305458091373
0.00273833625221
0.0018543188357
-0.0160551957112
0.00390472260623
-0.0177793029145
0.00593990550016
-0.0176926403375
0.00793469210996
-0.0174093585063
0.00987581050358