/*--------------------------------*- C++ -*----------------------------------*\
| =========                 |                                                 |
| \\      /  F ield         | OpenFOAM: The Open Source CFD Toolbox           |
|  \\    /   O peration     | Version:  v1906                                 |
|   \\  /    A nd           | Web:      www.OpenFOAM.com                      |
|    \\/     M anipulation  |                                                 |
\*---------------------------------------------------------------------------*/
FoamFile
{
    version     2.0;
    format      ascii;
    class       volVectorField;
    location    "356";
    object      Ua;
}
// * * * * * * * * * * * * * * * * * * * * * * * * * * * * * * * * * * * * * //

dimensions      [0 1 -1 0 0 0 0];


internalField   nonuniform List<vector> 
9216
(
(-0.00667483646767 0.00668195122253 0)
(-0.00685273038119 0.0208176227669 2.39902106923e-27)
(-0.00683981094292 0.0350426530056 -4.62159876977e-31)
(-0.00679151845336 0.0492547195778 0)
(-0.00672390478006 0.0633207280737 0)
(-0.00663794300059 0.0772046789233 0)
(-0.00653597128514 0.0908664408064 0)
(-0.00641803586217 0.104269448776 0)
(-0.00628615260997 0.117378803462 0)
(-0.00614007704983 0.130162686643 0)
(-0.00598206105584 0.142591070519 0)
(-0.00581168548672 0.154637099161 0)
(-0.00563141654825 0.166275803246 0)
(-0.00544061203565 0.177485328902 0)
(-0.00524186492167 0.188245627723 0)
(-0.00503424120924 0.198539519664 0)
(-0.00482037504745 0.208351370213 0)
(-0.00459898810207 0.21766798594 0)
(-0.00437268234396 0.22647732203 0)
(-0.00413980419101 0.234769235935 0)
(-0.00390288101803 0.242534262719 0)
(-0.00365989107758 0.249764244407 0)
(-0.00341327245145 0.256451231707 0)
(-0.00316067395904 0.262588022386 0)
(-0.00290446477031 0.268167227773 0)
(-0.00264203918208 0.273181731804 0)
(-0.00237573806168 0.277623972081 0)
(-0.00210279715012 0.281486338642 0)
(-0.00182559302019 0.284760693967 0)
(-0.00154132612163 0.287438695661 0)
(-0.0012524764457 0.289511652021 0)
(-0.00095631486634 0.290970674164 0)
(-0.000655516657754 0.291806840962 0)
(-0.000347606827261 0.292011404783 0)
(-3.55361975938e-05 0.291576172755 0)
(0.000282795853407 0.290493651755 0)
(0.000604082120109 0.288757730611 0)
(0.00092991627104 0.286363731144 0)
(0.00125658071535 0.283309366777 0)
(0.00158506757046 0.279594682924 0)
(0.00191122598179 0.275223231116 0)
(0.00223539061347 0.270201873681 0)
(0.00255299123614 0.264542115382 0)
(0.00286369228028 0.258259781295 0)
(0.00316253850029 0.251376426116 0)
(0.0034485475562 0.243918904423 0)
(0.00371644615783 0.235920776381 0)
(0.00396469738676 0.227421775854 0)
(0.0041878612916 0.218469062328 0)
(0.00438409140419 0.209116481534 0)
(0.00454814170996 0.199425414862 0)
(0.00467838476091 0.189463582158 0)
(0.00477043683153 0.179305132672 0)
(0.00482371966954 0.169028672596 0)
(0.0048355980161 0.158716360718 0)
(0.00480742168306 0.14845110513 0)
(0.00473900749579 0.138314825797 0)
(0.00463408776386 0.12838527487 0)
(0.00449497074305 0.11873411913 0)
(0.00432738273311 0.10942429745 0)
(0.00413518169023 0.100508936054 0)
(0.00392477254566 0.0920302348672 0)
(0.00370009485181 0.084019875444 0)
(0.00346702467122 0.0764992377543 0)
(0.00322884956662 0.0694805508417 0)
(0.00299062518963 0.0629673340457 0)
(0.00275492274179 0.0569555931854 0)
(0.00252589207163 0.0514342689953 0)
(0.00230520388204 0.0463866598793 0)
(0.00209584099659 0.0417911090692 0)
(0.00189836793011 0.0376226828945 0)
(0.00171453373131 0.0338539166616 0)
(0.00154391637183 0.0304563662828 0)
(0.00138730074836 0.0274010603376 0)
(0.00124363011636 0.0246596757176 0)
(0.00111308515793 0.0222046221563 0)
(0.000994292629393 0.0200098738564 0)
(0.000887088652193 0.0180508002035 0)
(0.000789949424037 0.0163047916915 0)
(0.000702380491102 0.014751060369 0)
(0.000622346301614 0.013371518696 0)
(0.000547737690366 0.0121512673832 0)
(0.00047041019646 0.0110926222815 0)
(0.000369295067133 0.0100829759197 0)
(0.000339729537235 0.00942372059889 0)
(0.000356990051847 0.00874022605568 0)
(0.000326152522081 0.00798916638558 0)
(0.000284741426205 0.00738352920684 0)
(0.000300287624661 0.00686565790609 0)
(0.000343299552169 0.00621873428421 0)
(0.000355190563166 0.00554627774161 0)
(0.000371981364222 0.00480073563753 0)
(0.000435821948385 0.00396330259568 0)
(0.000503207060332 0.00302440863693 0)
(0.000570307234962 0.00186872945704 0)
(0.000611128627081 0.000595924107986 0)
(-0.0208356650215 0.00689758277966 0)
(-0.0219952394961 0.0221105030973 0)
(-0.0219228500286 0.0372384474802 -2.46595235063e-27)
(-0.021736028168 0.0523672082598 0)
(-0.0214818652389 0.0673275543715 0)
(-0.0211645125496 0.082089941312 0)
(-0.0207888836429 0.0966137359735 0)
(-0.0203570733333 0.110860401882 0)
(-0.0198742809649 0.124793202212 0)
(-0.0193425813388 0.13837813084 0)
(-0.0187677712644 0.151583517664 0)
(-0.0181518164021 0.164380667175 0)
(-0.0175008575862 0.176743348748 0)
(-0.0168164697091 0.188648284039 0)
(-0.0161048107531 0.200074550704 0)
(-0.0153667784341 0.211003930378 0)
(-0.014608252343 0.22142024715 0)
(-0.0138292286911 0.231309593543 0)
(-0.0130350850155 0.240659636538 0)
(-0.0122247852069 0.249459749347 0)
(-0.0114030878446 0.257700326537 0)
(-0.0105679144309 0.265372857859 0)
(-0.00972340079621 0.272469300437 0)
(-0.00886653232173 0.278982130994 0)
(-0.00800092809551 0.284903817595 0)
(-0.00712284803114 0.290226879706 0)
(-0.00623557995928 0.294943495394 0)
(-0.0053349409536 0.299045588385 0)
(-0.00442413414479 0.302524593515 0)
(-0.00349887558124 0.305371584455 0)
(-0.00256257344013 0.307577190715 0)
(-0.00161119708875 0.309131867932 0)
(-0.00064866254228 0.31002595472 0)
(0.00032836035407 0.310249915346 0)
(0.00131511594082 0.309794697147 0)
(0.00231385623668 0.308652008582 0)
(0.00331869056481 0.306814868777 0)
(0.0043304409588 0.30427791705 0)
(0.00534186456246 0.301038132374 0)
(0.00635210849531 0.297095141178 0)
(0.00735247115818 0.292452056648 0)
(0.00834030311246 0.287115747817 0)
(0.00930544849801 0.281097746305 0)
(0.0102434502467 0.274414456613 0)
(0.0111427741856 0.267088085172 0)
(0.0119972305689 0.259146792458 0)
(0.0127940672682 0.25062560006 0)
(0.0135256060174 0.241566470451 0)
(0.0141782951921 0.2320190873 0)
(0.0147436695796 0.22204073914 0)
(0.0152084618416 0.211696727871 0)
(0.0155650231651 0.201059739181 0)
(0.0158024919863 0.190209469048 0)
(0.0159166662024 0.179231062703 0)
(0.0159019635399 0.168213619061 0)
(0.0157604841078 0.157247574378 0)
(0.0154942552043 0.146422244753 0)
(0.0151131814419 0.135822637286 0)
(0.0146271273092 0.125526784638 0)
(0.0140525383721 0.115602995564 0)
(0.0134040887433 0.106108258695 0)
(0.0127002871489 0.0970873505678 0)
(0.0119556558562 0.0885732575476 0)
(0.011186767121 0.0805879212927 0)
(0.0104057253898 0.0731434144488 0)
(0.00962652033665 0.0662426945703 0)
(0.00885890154573 0.0598805640401 0)
(0.00811415204059 0.0540443454817 0)
(0.0073990772446 0.0487151050838 0)
(0.00672135163019 0.0438687205114 0)
(0.00608409714708 0.0394774656894 0)
(0.00549113330441 0.0355111911176 0)
(0.00494230685653 0.0319387366686 0)
(0.00443851137052 0.0287287281 0)
(0.00397749757706 0.025850513638 0)
(0.00355842331089 0.0232745180822 0)
(0.00317797985295 0.0209727970907 0)
(0.00283444405819 0.0189190846266 0)
(0.00252407439215 0.0170890653499 0)
(0.00224460337295 0.0154601508808 0)
(0.00199164090871 0.0140113307331 0)
(0.00176090247292 0.0127218785975 0)
(0.00154292603526 0.0115699770495 0)
(0.00131057936868 0.0105120459908 0)
(0.00115991071077 0.00936949340039 0)
(0.00112861601413 0.00865079785829 0)
(0.000980023166794 0.00782290396399 0)
(0.000857716696196 0.00725787703161 0)
(0.000880957714953 0.00662701487135 0)
(0.000990951625316 0.00611899981676 0)
(0.00106137458803 0.00555478491171 0)
(0.00115564945789 0.00476610180218 0)
(0.00130573915428 0.00390488285186 0)
(0.00164172408275 0.00311725062971 0)
(0.00202143212104 0.00199860502202 0)
(0.00181832282422 0.000543787370583 0)
(-0.0352133343716 0.00695451220934 0)
(-0.0371958194231 0.0222956346345 0)
(-0.0370438623499 0.0375145049118 -2.46932390969e-27)
(-0.0367220051075 0.0527532220579 0)
(-0.0362929217299 0.0678215699772 0)
(-0.0357611898043 0.0826885085942 0)
(-0.0351320032928 0.0973124813408 0)
(-0.0344101131855 0.111654340526 0)
(-0.0336020484505 0.125677049813 0)
(-0.0327133616323 0.139346214016 0)
(-0.0317513604088 0.152630057496 0)
(-0.0307218573703 0.16549970801 0)
(-0.0296323861307 0.17792904374 0)
(-0.0284884722947 0.189894832488 0)
(-0.0272973243395 0.201376465569 0)
(-0.0260636685955 0.212355971212 0)
(-0.0247939041444 0.222817653243 0)
(-0.0234915474149 0.232747998705 0)
(-0.0221618337917 0.242135254896 0)
(-0.0208068194023 0.250969266759 0)
(-0.0194304033912 0.259241031304 0)
(-0.0180331304366 0.26694250551 0)
(-0.0166175935942 0.274066189006 0)
(-0.0151829766395 0.280604947843 0)
(-0.0137307843207 0.286551665024 0)
(-0.0122591596099 0.291899112402 0)
(-0.0107688788716 0.296639704118 0)
(-0.00925748494978 0.300765440353 0)
(-0.00772548413845 0.304267780626 0)
(-0.00617034261059 0.307137664634 0)
(-0.00459284283666 0.30936554658 0)
(-0.00299096840434 0.310941494479 0)
(-0.00136633419912 0.311855357049 0)
(0.000281909828735 0.31209700421 0)
(0.00195068195421 0.311656650497 0)
(0.00363903305622 0.310525197894 0)
(0.00534184806593 0.30869471753 0)
(0.00705583119332 0.306158883588 0)
(0.0087734006776 0.302913582581 0)
(0.0104885444351 0.298957399096 0)
(0.0121909846966 0.294292297514 0)
(0.0138718409392 0.288924107692 0)
(0.0155181115115 0.28286322965 0)
(0.0171180717967 0.276125089218 0)
(0.018656095651 0.268730835489 0)
(0.0201177461163 0.260707769911 0)
(0.0214849827325 0.252090037549 0)
(0.0227409952096 0.242919038767 0)
(0.0238659323906 0.233244066392 0)
(0.0248416712291 0.223122596256 0)
(0.0256482933792 0.212620635299 0)
(0.0262690246846 0.201812523857 0)
(0.0266875595101 0.19078046996 0)
(0.0268931240338 0.179613261164 0)
(0.0268782686358 0.168404480524 0)
(0.0266434510987 0.157249826313 0)
(0.0261944881074 0.146244139695 0)
(0.0255459724282 0.135477874485 0)
(0.0247177102261 0.125033716219 0)
(0.0237364262136 0.114983345883 0)
(0.0226305024037 0.105385259499 0)
(0.0214301557966 0.0962841245689 0)
(0.0201626400394 0.087711637745 0)
(0.0188540516814 0.0796880709988 0)
(0.0175268353602 0.0722238062259 0)
(0.0162027148857 0.0653202072124 0)
(0.0149002588711 0.0589703027284 0)
(0.0136369539573 0.0531593855798 0)
(0.0124263078778 0.0478660880664 0)
(0.0112796575041 0.0430637106752 0)
(0.0102038264597 0.0387219001004 0)
(0.00920344878313 0.0348082021162 0)
(0.00827946341201 0.0312894707434 0)
(0.00743163109225 0.0281328370763 0)
(0.00665726243229 0.0253064794969 0)
(0.0059534127699 0.0227800366275 0)
(0.00531559158043 0.0205249843959 0)
(0.00473964217923 0.0185147324274 0)
(0.00422047752908 0.0167247202768 0)
(0.00375371086937 0.0151322153969 0)
(0.0033345038131 0.013715961672 0)
(0.00295920352919 0.0124550030566 0)
(0.00262494219707 0.0113278516722 0)
(0.00233820561355 0.0103049467671 0)
(0.00207364199255 0.00918016880247 0)
(0.00191657136942 0.00849607170913 0)
(0.00173219290848 0.00785788519945 0)
(0.0015240404543 0.00698516265665 0)
(0.00142094788878 0.00621439306352 0)
(0.00152708983405 0.00576909380518 0)
(0.00182670047877 0.00541787166085 0)
(0.00192941922956 0.0043508930436 0)
(0.00225056094611 0.00362067432288 0)
(0.00267636672583 0.00266013799105 0)
(0.00304089032183 0.00160821527916 0)
(0.00295494144606 0.000494581065858 0)
(-0.0497854087753 0.0070126200874 0)
(-0.052614480592 0.0225006017068 0)
(-0.0523970682959 0.0378434521512 2.46899716664e-27)
(-0.0519376962077 0.0532118093944 0)
(-0.0513257549704 0.0684062782496 0)
(-0.0505686604271 0.0833945695674 0)
(-0.0496731664651 0.0981339799914 0)
(-0.0486466322596 0.112584514368 0)
(-0.0474976763523 0.126708567802 0)
(-0.0462350447494 0.14047129465 0)
(-0.0448683977459 0.153840707879 0)
(-0.0434070174572 0.166787833739 0)
(-0.0418607667405 0.179286680676 0)
(-0.040238640435 0.191314252358 0)
(-0.0385498995425 0.202850387052 0)
(-0.0368024941667 0.21387764168 0)
(-0.0350043847103 0.224381020168 0)
(-0.0331618679617 0.234347752554 0)
(-0.0312810950918 0.243766943167 0)
(-0.0293663333779 0.252629281466 0)
(-0.0274216841888 0.260926655649 0)
(-0.0254493014802 0.268651845632 0)
(-0.0234512961478 0.275798154644 0)
(-0.021427920484 0.28235913382 0)
(-0.0193796299944 0.288328278338 0)
(-0.0173052301748 0.29369882248 0)
(-0.015204057855 0.298463530416 0)
(-0.0130740914417 0.302614581576 0)
(-0.0109142202544 0.306143472553 0)
(-0.00872232758379 0.309040992849 0)
(-0.00649764153218 0.311297287933 0)
(-0.0042387696349 0.312901913273 0)
(-0.00194610415148 0.31384401597 0)
(0.000380100034797 0.314112578583 0)
(0.00273735866923 0.313696733587 0)
(0.0051228706157 0.312586141721 0)
(0.00753120799653 0.310771463456 0)
(0.00995623908823 0.308244862289 0)
(0.0123889389424 0.305000595937 0)
(0.0148193287274 0.30103559451 0)
(0.0172344462871 0.296350108625 0)
(0.0196202814359 0.290948295902 0)
(0.0219599056012 0.28483886462 0)
(0.0242353461895 0.278035624113 0)
(0.0264258430481 0.270558108114 0)
(0.0285096180649 0.262432112858 0)
(0.0304622710895 0.253690348782 0)
(0.0322585211087 0.244373041837 0)
(0.0338709239864 0.234528650503 0)
(0.0352718947045 0.224214496554 0)
(0.0364331459517 0.213497344856 0)
(0.0373284031377 0.202453620201 0)
(0.0379338765529 0.191169157206 0)
(0.0382316272426 0.179738104606 0)
(0.0382105711313 0.168260947388 0)
(0.0378695029467 0.156841545072 0)
(0.0372172402428 0.145583504225 0)
(0.0362742592542 0.134585969989 0)
(0.0350710902141 0.123939244213 0)
(0.0336476263101 0.1137203328 0)
(0.0320479745766 0.103989818851 0)
(0.030316601117 0.0947914314362 0)
(0.0284939090135 0.086154095921 0)
(0.026616074366 0.0780949841129 0)
(0.0247151458439 0.0706218168931 0)
(0.0228210891385 0.0637336806631 0)
(0.0209611666214 0.0574211313756 0)
(0.0191600537505 0.0516664089705 0)
(0.0174379504565 0.0464443974212 0)
(0.0158104407586 0.0417242490227 0)
(0.0142874298083 0.0374714872297 0)
(0.0128742836795 0.0336500259123 0)
(0.0115720612071 0.0302237777646 0)
(0.0103791909683 0.0271576858477 0)
(0.00929171728896 0.0244183397522 0)
(0.0083045339505 0.0219743116516 0)
(0.00741133042969 0.0197963964391 0)
(0.00660555021683 0.0178576856418 0)
(0.0058802389305 0.0161335914518 0)
(0.00522888494743 0.0146017351461 0)
(0.00464542069971 0.0132418052271 0)
(0.00412548788533 0.0120350094116 0)
(0.00366761655838 0.0109694725346 0)
(0.00328946079505 0.00997545118925 0)
(0.00294571963549 0.00900739749504 0)
(0.00269566086671 0.00832679463884 0)
(0.00246658372964 0.00755181432386 0)
(0.00223453648847 0.00666443664306 0)
(0.00216824837867 0.00607746678913 0)
(0.00214091394155 0.00524540740819 0)
(0.00237235144208 0.00454794092237 0)
(0.00288991807187 0.00408031513306 0)
(0.00308831908762 0.00298156221684 0)
(0.00354613930708 0.00209947214266 0)
(0.0040054428401 0.00128651217877 0)
(0.00399327968568 0.000421112949346 0)
(-0.0645057809234 0.00708720332828 0)
(-0.0681766516075 0.0227710035009 0)
(-0.0678924842869 0.0382862718306 0)
(-0.0672924065448 0.053829675931 0)
(-0.0664929500177 0.0691936735814 0)
(-0.0655044051559 0.084344764868 0)
(-0.0643356136268 0.0992388657891 0)
(-0.0629965486421 0.113834883515 0)
(-0.0614984061238 0.128094390068 0)
(-0.0598530341961 0.141981945123 0)
(-0.0580729719748 0.155465233284 0)
(-0.0561708219429 0.168515175649 0)
(-0.0541593439678 0.181105933719 0)
(-0.0520507871812 0.193214873167 0)
(-0.0498570555718 0.204822426538 0)
(-0.047589025546 0.21591191939 0)
(-0.0452568066656 0.226469306201 0)
(-0.0428690776721 0.236482880892 0)
(-0.0404334691457 0.245942918478 0)
(-0.0379559497742 0.254841312167 0)
(-0.0354413491087 0.263171171176 0)
(-0.0328928117692 0.270926441996 0)
(-0.0303124579619 0.278101525227 0)
(-0.027700899788 0.284690941683 0)
(-0.0250580126361 0.290689020686 0)
(-0.0223824896717 0.296089652303 0)
(-0.019672687999 0.300886077374 0)
(-0.0169262000728 0.30507074322 0)
(-0.0141407497799 0.308635204363 0)
(-0.0113137774709 0.311570069431 0)
(-0.00844339698922 0.313865072714 0)
(-0.0055279574728 0.315509094066 0)
(-0.00256705927031 0.316490343252 0)
(0.000438823886722 0.31679660028 0)
(0.00348736454192 0.316415533293 0)
(0.00657475628318 0.315335100646 0)
(0.00969477981989 0.313544042838 0)
(0.0128392322827 0.311032437184 0)
(0.0159971062221 0.307792323274 0)
(0.0191551142366 0.303818348968 0)
(0.0222970183115 0.299108447799 0)
(0.0254042448177 0.293664484076 0)
(0.0284553364508 0.287492896364 0)
(0.0314265851405 0.280605280298 0)
(0.0342915184961 0.273018980972 0)
(0.0370214606942 0.264757661791 0)
(0.0395850125198 0.255851966972 0)
(0.0419486042165 0.246340255248 0)
(0.0440762030733 0.236269517732 0)
(0.0459302998016 0.225696389476 0)
(0.0474724888207 0.21468819007 0)
(0.0486656421946 0.203323759798 0)
(0.0494760059127 0.191693644783 0)
(0.0498767450729 0.179899341228 0)
(0.0498509334081 0.168051169494 0)
(0.0493948064655 0.156264733867 0)
(0.0485194006442 0.144656561872 0)
(0.0472519462031 0.133338825287 0)
(0.0456353097817 0.122413632152 0)
(0.0437267269376 0.111966246326 0)
(0.0415902001715 0.10205974251 0)
(0.0392880323783 0.0927350887256 0)
(0.0368745346413 0.0840156939046 0)
(0.0343955394944 0.0759134758229 0)
(0.0318914657022 0.0684326048692 0)
(0.0294006045613 0.0615696571399 0)
(0.026959278651 0.0553123699688 0)
(0.0246005918586 0.0496389728054 0)
(0.0223520221864 0.0445190055751 0)
(0.0202339263355 0.0399154727873 0)
(0.0182586916594 0.0357878015785 0)
(0.0164317780445 0.0320946895469 0)
(0.0147531661212 0.0287960513094 0)
(0.0132192873475 0.0258540017235 0)
(0.0118240763746 0.0232331828409 0)
(0.0105599274188 0.0209008770507 0)
(0.00941811564233 0.0188271086788 0)
(0.00838948053851 0.0169846422481 0)
(0.00746467074975 0.0153489610234 0)
(0.00663467785378 0.013898218118 0)
(0.00589112637537 0.0126133076602 0)
(0.00522687602054 0.0114778035395 0)
(0.00463693146505 0.0104901022534 0)
(0.00412661740454 0.00950942292463 0)
(0.00379035457205 0.00880054319764 0)
(0.0035307607986 0.0081143635325 0)
(0.00335083180077 0.00736594920819 0)
(0.00310995441071 0.00647798253682 0)
(0.00284926971893 0.00542125845275 0)
(0.00289745095177 0.00475816984592 0)
(0.00300940365281 0.00388043422581 0)
(0.00356573024176 0.00336488983381 0)
(0.00418522211097 0.0026774977436 0)
(0.00436814557017 0.00171106431693 0)
(0.00464984873344 0.00100141340796 0)
(0.00463989751586 0.000331871228711 0)
(-0.0794236913909 0.00718004339649 0)
(-0.0839430880071 0.0231123214456 0)
(-0.0835889952634 0.0388482710684 0)
(-0.0828429560042 0.0546144818352 0)
(-0.0818489966045 0.0701937264154 0)
(-0.0806203544458 0.0855511395974 0)
(-0.0791682997881 0.10064098884 0)
(-0.077505601416 0.115420823013 0)
(-0.0756464157938 0.129851158274 0)
(-0.0736058600304 0.143895803538 0)
(-0.0713997563747 0.157522014466 0)
(-0.069044171441 0.170700593019 0)
(-0.0665551748722 0.18340589731 0)
(-0.0639483738505 0.195615783212 0)
(-0.0612387117096 0.20731145836 0)
(-0.0584400285154 0.218477271109 0)
(-0.055564933177 0.229100420577 0)
(-0.0526244296296 0.239170613758 0)
(-0.0496279023329 0.248679663516 0)
(-0.0465828494059 0.257621059187 0)
(-0.0434950134345 0.265989512253 0)
(-0.0403682431073 0.273780511426 0)
(-0.0372047710513 0.280989892122 0)
(-0.0340051901037 0.287613450085 0)
(-0.030768843831 0.293646599334 0)
(-0.0274938741047 0.299084092404 0)
(-0.0241776752265 0.303919794204 0)
(-0.0208169748015 0.308146517473 0)
(-0.0174083244296 0.311755911292 0)
(-0.0139482068241 0.314738384065 0)
(-0.01043358706 0.317083172815 0)
(-0.00686200904375 0.318778323481 0)
(-0.00323222471779 0.319810871441 0)
(0.000455627878023 0.320167074425 0)
(0.00419942359652 0.31983273272 0)
(0.00799486336118 0.318793615766 0)
(0.0118349183972 0.3170359881 0)
(0.015709726858 0.314547225666 0)
(0.0196061734316 0.311316502211 0)
(0.0235079435498 0.307335517911 0)
(0.0273952921793 0.302599237725 0)
(0.0312452632964 0.297106600624 0)
(0.0350316037664 0.290861181044 0)
(0.0387250360195 0.28387177392 0)
(0.0422931536345 0.276152945872 0)
(0.0457005614471 0.267725566994 0)
(0.0489086069737 0.2586174543 0)
(0.0518753892111 0.248864200541 0)
(0.0545555540181 0.238510324461 0)
(0.0569007801931 0.227610774166 0)
(0.0588606246661 0.216232694304 0)
(0.0603847763381 0.204457159082 0)
(0.0614263161752 0.192380293673 0)
(0.0619463647524 0.18011307239 0)
(0.0619191796357 0.167779049274 0)
(0.0613366147465 0.155510046063 0)
(0.0602108098297 0.143440664277 0)
(0.0585762243388 0.131701880097 0)
(0.0564901461663 0.120414002265 0)
(0.0540339125715 0.109675176305 0)
(0.0512994413062 0.099551057431 0)
(0.0483724666913 0.0900756870826 0)
(0.0453219313331 0.081261521233 0)
(0.0422007636486 0.0731118374624 0)
(0.0390550968587 0.0656268121735 0)
(0.0359312260233 0.0588014328003 0)
(0.0328757678235 0.0526210664469 0)
(0.029932274939 0.0470591083086 0)
(0.0271370019177 0.0420776956143 0)
(0.024515750013 0.037630890335 0)
(0.0220826024532 0.0336693189285 0)
(0.0198416493163 0.030144487967 0)
(0.0177900635714 0.0270112811373 0)
(0.015921098958 0.0242285952793 0)
(0.0142256835882 0.0217589828544 0)
(0.0126931721193 0.0195683568158 0)
(0.011311854888 0.017625957575 0)
(0.0100696101308 0.015904250312 0)
(0.00895424475285 0.0143787994214 0)
(0.00795389254248 0.0130282019556 0)
(0.00705743027815 0.0118340082939 0)
(0.00625491469596 0.0107806007118 0)
(0.00554242581141 0.00986179049365 0)
(0.00488097133096 0.00888139706379 0)
(0.00452875155227 0.00823178653848 0)
(0.00428741107612 0.00753698314606 0)
(0.00400994256309 0.00663580188529 0)
(0.00390983038637 0.00596385080552 0)
(0.00385046577455 0.00522003260911 0)
(0.00391064727426 0.00447496098951 0)
(0.00375126911824 0.00336992003377 0)
(0.00406945637364 0.00263065287061 0)
(0.00485094191643 0.00218292996124 0)
(0.00516256369567 0.00149094276137 0)
(0.00526549423305 0.000839350030776 0)
(0.00526700044267 0.000278148311526 0)
(-0.0945852571712 0.00729275324627 0)
(-0.0999641044618 0.0235287344148 0)
(-0.0995356055143 0.039534779804 2.48693273865e-27)
(-0.0986365639244 0.0555734025388 0)
(-0.097438981244 0.0714154202033 0)
(-0.0959591863569 0.0870243105049 0)
(-0.094211172204 0.102352336559 0)
(-0.0922107841605 0.117355393968 0)
(-0.0899755125428 0.131992701207 0)
(-0.0875240544916 0.146227149108 0)
(-0.0848759119342 0.160025468736 0)
(-0.082050922935 0.173358329102 0)
(-0.0790688586528 0.18620034624 0)
(-0.0759489606693 0.198530007363 0)
(-0.0727095684201 0.210329507783 0)
(-0.0693676973337 0.221584503697 0)
(-0.0659387381776 0.232283782606 0)
(-0.0624361264441 0.242418860417 0)
(-0.0588711697195 0.251983516129 0)
(-0.0552528653587 0.260973283506 0)
(-0.0515879044328 0.269384920313 0)
(-0.0478806699736 0.277215882435 0)
(-0.0441334238947 0.284463825998 0)
(-0.0403464635039 0.29112616071 0)
(-0.0365184408261 0.297199666802 0)
(-0.0326466093425 0.302680183628 0)
(-0.028727202745 0.307562366367 0)
(-0.0247557119688 0.311839505184 0)
(-0.0207272877831 0.315503399962 0)
(-0.0166370437649 0.318544255878 0)
(-0.0124805254966 0.320950745682 0)
(-0.00825401366534 0.322709936408 0)
(-0.00395510203079 0.323807459868 0)
(0.00041688582876 0.32422772468 0)
(0.00486033008001 0.323954238566 0)
(0.00937087136544 0.32297005691 0)
(0.0139408888793 0.321258358125 0)
(0.0185591634965 0.318803133728 0)
(0.0232105307559 0.315589971315 0)
(0.0278757698597 0.311606889777 0)
(0.0325315227597 0.306845181912 0)
(0.0371504396411 0.301300204678 0)
(0.0417013099932 0.294972075852 0)
(0.0461493008753 0.287866238608 0)
(0.0504560288717 0.279993921314 0)
(0.0545795446775 0.271372542216 0)
(0.0584740067964 0.262026240487 0)
(0.0620892324146 0.251986673702 0)
(0.0653701107576 0.241294412652 0)
(0.0682564859675 0.230001002414 0)
(0.070683692102 0.21817177046 0)
(0.0725849791453 0.205889077823 0)
(0.0738956805853 0.193254898456 0)
(0.074560021968 0.180391901715 0)
(0.0745390399877 0.167441139308 0)
(0.0738173228621 0.154556097191 0)
(0.0724063560084 0.141895908585 0)
(0.0703472787202 0.129617893624 0)
(0.0677125494239 0.117871038455 0)
(0.0646197198532 0.106775242335 0)
(0.0612036669672 0.096397985457 0)
(0.0575832477613 0.0867572678146 0)
(0.0538414785889 0.0778436943626 0)
(0.0500307004314 0.0696463696634 0)
(0.0461968444544 0.062162824539 0)
(0.0423937961103 0.0553901135081 0)
(0.0386813919784 0.04931322925 0)
(0.035117391453 0.043900039326 0)
(0.0317498260367 0.03910233367 0)
(0.0286110147315 0.0348609466242 0)
(0.0257153860763 0.0311135941377 0)
(0.0230627713886 0.0278020625576 0)
(0.0206447483422 0.0248754290516 0)
(0.0184496544748 0.0222895631655 0)
(0.0164645954397 0.0200052081726 0)
(0.0146753301646 0.0179870092836 0)
(0.0130665595479 0.0162035148728 0)
(0.0116228154838 0.0146270063289 0)
(0.0103286760033 0.0132332226673 0)
(0.00916897630358 0.012001386536 0)
(0.00812923776954 0.0109143011125 0)
(0.00719592891843 0.00996236898047 0)
(0.00636522846892 0.00910567899215 0)
(0.00569287605882 0.00829016385922 0)
(0.00530759338189 0.00763119905808 0)
(0.00505559832131 0.00690913692728 0)
(0.00481986581662 0.00614788810454 0)
(0.00460085791122 0.00532322690635 0)
(0.00463053035549 0.00465252141599 0)
(0.00459684433424 0.00377695310191 0)
(0.00480691694396 0.00311268757375 0)
(0.00475097394021 0.00219957141393 0)
(0.00515668600705 0.00166002012755 0)
(0.00573162316462 0.00124941547792 0)
(0.00578208938449 0.00070405086683 0)
(0.00578864417055 0.000233533778496 0)
(-0.110039951634 0.00742655259043 0)
(-0.116292222486 0.0240247011311 0)
(-0.115783807573 0.0403524903051 -2.48655066671e-27)
(-0.114722955127 0.0567154859485 0)
(-0.113310343837 0.0728700109667 0)
(-0.111565650543 0.0887774933407 0)
(-0.109505926908 0.104387773989 0)
(-0.107150464584 0.119654754758 0)
(-0.104520508931 0.134536093326 0)
(-0.101638753939 0.14899358274 0)
(-0.0985288292376 0.16299333223 0)
(-0.0952147650815 0.17650586827 0)
(-0.0917204746424 0.189506139013 0)
(-0.0880692264318 0.201973425884 0)
(-0.0842831530221 0.213891157125 0)
(-0.0803827671445 0.225246625023 0)
(-0.0763865451294 0.236030604806 0)
(-0.0723105504136 0.246236883708 0)
(-0.0681681681721 0.255861710593 0)
(-0.063969918362 0.264903189847 0)
(-0.0597234153229 0.273360646347 0)
(-0.0554334213369 0.28123399742 0)
(-0.0511020445291 0.288523163937 0)
(-0.0467290014938 0.295227551438 0)
(-0.0423119777982 0.301345617783 0)
(-0.0378469934838 0.306874533923 0)
(-0.0333288124574 0.311809927447 0)
(-0.0287513181042 0.316145694202 0)
(-0.0241079221373 0.319873861191 0)
(-0.0193919537954 0.32298445348 0)
(-0.0145971409225 0.325465539884 0)
(-0.00971801506691 0.327303088598 0)
(-0.00475054796501 0.328481112142 0)
(0.000307281175803 0.328981843358 0)
(0.00545482851336 0.328786047458 0)
(0.0106881575575 0.327873493683 0)
(0.0159994180156 0.326223587624 0)
(0.0213763448186 0.323816162441 0)
(0.0268018623574 0.32063239108 0)
(0.032253898264 0.316655781002 0)
(0.0377053692247 0.311873169005 0)
(0.0431243885167 0.306275642467 0)
(0.0484745903696 0.299859293612 0)
(0.0537155104442 0.292625745493 0)
(0.0588028381206 0.284582449535 0)
(0.0636883680762 0.27574281905 0)
(0.0683195178354 0.26612643885 0)
(0.0726382756452 0.255759633425 0)
(0.0765798994685 0.244676948734 0)
(0.0800715763724 0.232923776642 0)
(0.0830321727718 0.22056066473 0)
(0.0853740780963 0.207668681892 0)
(0.0870084230766 0.19435492293 0)
(0.0878550000018 0.18075606007 0)
(0.0878548144217 0.167036007663 0)
(0.0869815711745 0.153377036484 0)
(0.0852435445632 0.139970300077 0)
(0.0826856555754 0.127007746738 0)
(0.0793890658912 0.114686092311 0)
(0.0755304539626 0.10316590959 0)
(0.0713178790481 0.0925141746273 0)
(0.066920954776 0.0827130827628 0)
(0.0624321175348 0.0737085783489 0)
(0.0578829318955 0.065466846017 0)
(0.0533066928771 0.057989594587 0)
(0.0487658533924 0.0512857075223 0)
(0.0443401245674 0.0453444221555 0)
(0.0401087762636 0.0401273298027 0)
(0.036136832886 0.0355711308912 0)
(0.0324654320808 0.0315962874428 0)
(0.0291064185629 0.0281209386869 0)
(0.0260498421253 0.0250737383977 0)
(0.023276751137 0.0223980740731 0)
(0.0207684306605 0.0200483694449 0)
(0.0185079051764 0.0179845989684 0)
(0.0164770519267 0.0161702720674 0)
(0.0146562511304 0.0145734029158 0)
(0.0130263719559 0.013166334194 0)
(0.0115685468975 0.0119249337632 0)
(0.010263919734 0.0108287389204 0)
(0.00909419920462 0.00986082345536 0)
(0.00804149939249 0.00901256666845 0)
(0.00709666989709 0.00822530645291 0)
(0.00638210979328 0.00747682109451 0)
(0.00604946754802 0.00691008688737 0)
(0.00574974023183 0.00618440814234 0)
(0.00562366345752 0.00557542935378 0)
(0.00546397462182 0.00481508425733 0)
(0.00539185717957 0.0040552800872 0)
(0.00529049617151 0.00322914285813 0)
(0.00536070971735 0.00255216141639 0)
(0.00560670469523 0.00198343390786 0)
(0.00559489645802 0.001340652601 0)
(0.0062086087237 0.00100438555134 0)
(0.00621565552044 0.000596159138077 0)
(0.00620328600539 0.000191144793648 0)
(-0.125840420558 0.0075827345417 0)
(-0.132982763676 0.0246054157107 0)
(-0.132387771054 0.0413095635511 0)
(-0.13115436109 0.0580518765655 0)
(-0.129512790543 0.0745713470232 0)
(-0.127486440218 0.0908269156394 0)
(-0.125095837645 0.106765515806 0)
(-0.122364181028 0.122338674741 0)
(-0.119316972969 0.137502199997 0)
(-0.115981416925 0.152216592196 0)
(-0.112385799812 0.16644723867 0)
(-0.108558863979 0.180164516575 0)
(-0.104529185981 0.193343795282 0)
(-0.100324555709 0.205965334694 0)
(-0.0959713744066 0.218014078913 0)
(-0.091494072036 0.229479334536 0)
(-0.0869145765621 0.240354333744 0)
(-0.0822518490449 0.250635680163 0)
(-0.0775215293823 0.260322693873 0)
(-0.0727357083631 0.269416677931 0)
(-0.0679028633728 0.277920146882 0)
(-0.0630279503583 0.285836062396 0)
(-0.0581126576322 0.293167126155 0)
(-0.0531557750875 0.299915170469 0)
(-0.0481536519126 0.306080672261 0)
(-0.0431006767766 0.311662392731 0)
(-0.0379897589647 0.316657123927 0)
(-0.0328127723279 0.32105950846 0)
(-0.0275609871195 0.324861901032 0)
(-0.0222254977469 0.328054203964 0)
(-0.0167977283597 0.330623885418 0)
(-0.0112699030709 0.332555734936 0)
(-0.00563577747236 0.333831961217 0)
(0.000108656544072 0.334432301151 0)