/*--------------------------------*- C++ -*----------------------------------*\
| =========                 |                                                 |
| \\      /  F ield         | OpenFOAM: The Open Source CFD Toolbox           |
|  \\    /   O peration     | Version:  v1906                                 |
|   \\  /    A nd           | Web:      www.OpenFOAM.com                      |
|    \\/     M anipulation  |                                                 |
\*---------------------------------------------------------------------------*/
FoamFile
{
    version     2.0;
    format      ascii;
    class       volScalarField;
    location    "790";
    object      p;
}
// * * * * * * * * * * * * * * * * * * * * * * * * * * * * * * * * * * * * * //

dimensions      [0 2 -2 0 0 0 0];


internalField   nonuniform List<scalar> 
9216
(
268.258925059
268.344594406
268.518479918
268.780946086
269.130569058
269.56561897
270.083968804
270.68314291
271.360359608
272.112575764
272.936529863
273.828785389
274.785770196
275.803814808
276.879184711
278.008111139
279.186814765
280.411528339
281.678511865
282.984067734
284.324548469
285.69636566
287.095991795
288.519964467
289.964883853
291.427413557
292.90427517
294.39224694
295.888156656
297.38887923
298.891329022
300.392457288
301.889245338
303.378703012
304.857863586
306.323784424
307.773545125
309.204251466
310.613037736
311.997074858
313.353577341
314.679815838
315.973128189
317.230935782
318.450757101
319.630226618
320.767108785
321.859318514
322.904934618
323.902222843
324.849650466
325.745915448
326.589966109
327.381039631
328.118687497
328.802818461
329.433719254
330.012085007
330.539017872
331.016032486
331.445028604
331.828274587
332.168356782
332.468141446
332.730688675
332.959170048
333.156763799
333.326600123
333.471707244
333.594988581
333.699176918
333.786813122
333.860211102
333.921459025
333.972413942
334.014727808
334.04985433
334.07906549
334.10344464
334.1239033
334.14119092
334.155927826
334.16861829
334.179680146
334.189489692
334.198031472
334.205136526
334.210851775
334.215273245
334.218569567
334.220923811
334.222554343
334.223654029
334.224326524
334.224668386
334.224789587
268.173328113
268.259422779
268.433940625
268.697619807
269.048890528
269.485967036
270.006678074
270.608505893
271.288626897
272.043956112
272.871191613
273.766858301
274.727348708
275.748961163
276.827933245
277.960471827
279.142777737
280.371067147
281.641587678
282.950631931
284.294546253
285.669737847
287.072677778
288.499903234
289.948016339
291.413682996
292.893628893
294.384636143
295.88353768
297.387212766
298.892580903
300.396597319
301.89624737
303.388543063
304.870519409
306.339233199
307.791762402
309.225208458
310.636699887
312.023399015
313.382510359
314.711292032
316.007068498
317.26724584
318.489327334
319.670930851
320.809805078
321.903847461
322.951119952
323.949868005
324.898537896
325.795800883
326.640577383
327.432071426
328.169804181
328.853655124
329.483893068
330.061203627
330.586694495
331.061894743
331.48873198
331.869510976
332.206869279
332.503741656
332.763276586
332.988728392
333.183340103
333.35028284
333.492621215
333.613290006
333.715054158
333.800474845
333.871877021
333.931343056
333.980718007
334.021637717
334.055549265
334.083719588
334.107225238
334.12695958
334.143651757
334.157899134
334.170186788
334.180906433
334.190372658
334.198710083
334.205705546
334.21126328
334.215612778
334.218873643
334.221167205
334.222753872
334.223839637
334.224481197
334.224792646
334.224919632
267.998675166
268.085861934
268.262125401
268.528401854
268.883077402
269.32430637
269.849843072
270.457088336
271.143133772
271.904809114
272.738729451
273.641340995
274.60896385
275.637831086
276.724123239
277.863998254
279.05361648
280.289161239
281.566854878
282.882971081
284.233843465
285.615871331
287.025522565
288.459334532
289.913912925
291.385929291
292.872117182
294.369267537
295.874223277
297.383873577
298.895147928
300.405010343
301.91045394
303.408496197
304.896175315
306.370547786
307.828687896
309.267688986
310.684667367
312.076768408
313.441175636
314.775122009
316.075903922
317.340896709
318.567571803
319.753514144
320.896439682
321.994212081
323.044858643
324.046586135
324.997797345
325.897111373
326.74338893
327.535766514
328.273697713
328.957000984
329.58590345
330.161073201
330.683626531
331.155125486
331.577550393
331.95328164
332.285051588
332.575940998
332.829291569
333.048544439
333.237070638
333.398117609
333.534814454
333.65016327
333.746995917
333.827921287
333.895284588
333.951154995
333.997343371
334.035448995
334.066904484
334.092976372
334.114728958
334.133018438
334.148526207
334.16180537
334.173306211
334.183390359
334.192356758
334.200298718
334.206852308
334.21208391
334.216291848
334.219446398
334.22162478
334.223163909
334.224190934
334.224790577
334.225112089
334.225271317
267.732807143
267.821397683
268.000360195
268.270651143
268.630579965
269.078204459
269.611164052
270.226733408
270.921872393
271.693278382
272.537437859
273.450675634
274.429200342
275.46914525
276.566603861
277.717660095
278.918413157
280.164997362
281.453597355
282.780459209
284.14189796
285.534302039
286.954135156
288.397935992
289.862316174
291.343956761
292.839603672
294.346062141
295.860190644
297.378894298
298.899118187
300.417840657
301.932067106
303.438824263
304.935155636
306.418118135
307.884780738
309.332225048
310.757548719
312.157871397
313.530344028
314.872160822
316.180574338
317.452912453
318.686597129
319.879163237
321.028277014
322.131752512
323.187566127
324.193869046
325.148999774
326.051499486
326.900135101
327.693934725
328.432238191
329.114760858
329.741657526
330.31356975
330.831625706
331.297443663
331.713078586
332.081028497
332.404139759
332.685728088
332.929477716
333.139168686
333.318357858
333.470375686
333.598429484
333.705629543
333.794923322
333.869005693
333.930253445
333.980706254
334.02209945
334.055956687
334.083692321
334.106599056
334.125733957
334.141887561
334.155651579
334.167508187
334.177857098
334.187018753
334.195275083
334.202571246
334.208547884
334.213407962
334.217282495
334.220223432
334.222351661
334.223819418
334.224784961
334.22537839
334.225717024
334.225883319
267.37441251
267.464865889
267.647524679
267.92331752
268.290440471
268.746812869
269.289912509
269.916837591
270.624364385
271.409006633
272.267073197
273.194722169
274.188009966
275.242934505
276.355472017
277.521607502
278.737359087
279.998796791
281.302056327
282.643348577
284.018965419
285.42528251
286.858759566
288.315938608
289.793440591
291.287960694
292.796262616
294.315172011
295.841569378
297.372382474
298.904578545
300.435156546
301.961139708
303.479568599
304.98749519
306.481978231
307.960080591
309.41886884
310.855415813
312.266806328
313.650146639
315.002577428
316.321290406
317.60354763
318.846702772
320.04822257
321.205707003
322.316906104
323.379732396
324.392268596
325.352772506
326.259683691
327.111639349
327.907509214
328.646458252
329.328037828
329.95228753
330.51981607
331.031765984
331.489848867
331.896207848
332.25351583
332.564671977
332.833322541
333.06374681
333.260330443
333.42683951
333.566614984
333.682924161
333.779042188
333.858114
333.922979715
333.976066261
334.019350751
334.054411581
334.082611621
334.105351993
334.124039041
334.139753512
334.153164692
334.16469773
334.17473021
334.183603822
334.191585628
334.198930671
334.205395961
334.210688855
334.215066632
334.218648346
334.221382917
334.223363615
334.224762432
334.225710401
334.226307808
334.226663586
334.226840254
266.921553419
267.01439273
267.201818294
267.484708201
267.861103618
268.328736555
268.88486861
269.526363509
270.249755094
271.051316134
271.927124013
272.873121154
273.88516865
274.959092231
276.090720354
277.275914634
278.510593234
279.79074796
281.112455988
282.471887066
283.865307041
285.289078422
286.739658616
288.213596307
289.707526423
291.218163948
292.742296864
294.276778354
295.818518461
297.364475312
298.911646029
300.457057612
301.997757969
303.530807373
305.053270753
306.562211307
308.054686074
309.527743998
310.978427268
312.403776467
313.800840156
315.166689065
316.498434893
317.793252946
319.048407429
320.261277168
321.429379255
322.550387295
323.622141911
324.642651433
325.610085094
326.522763042
327.379156481
328.177914571
328.917939437
329.598523586
330.219522375
330.781525186
331.285678536
331.73387464
332.128315331
332.472015276
332.767586753
333.019110677
333.231940665
333.411645468
333.562080814
333.686325847
333.787630817
333.869550436
333.935579509
333.988808381
334.031744865
334.066250096
334.093581004
334.11473723
334.131125226
334.144520444
334.156115765
334.166329126
334.175250453
334.183120613
334.190247959
334.196832515
334.203050389
334.208549163
334.213217344
334.217179911
334.220399703
334.222829468
334.224703079
334.226068754
334.227001151
334.227653845
334.228045406
334.22824318
266.371747587
266.467557121
266.660923598
266.952654058
267.340586072
267.822206516
268.394495954
269.054015495
269.796988366
270.619381073
271.516979347
272.485456457
273.520432225
274.617522058
275.772376075
276.980708982
278.238321697
279.541115932
280.885102964
282.266407752
283.681269426
285.126039036
286.597175209
288.091238288
289.604883309
291.134852103
292.677964694
294.231110115
295.791236709
297.355341982
298.920462041
300.483660864
302.042019513
303.59262557
305.132563176
306.658904311
308.168701967
309.658986027
311.12676277
312.569018937
313.982731213
315.364881736
316.71247978
318.022589051
319.292359023
320.519057622
321.700101157
322.833076791
323.915751791
324.946066428
325.922108243
326.842075262
327.704241929
328.506959947
329.248736877
329.928444559
330.545625116
331.100942192
331.595470048
332.031522142
332.411162727
332.738396765
333.014320702
333.243542218
333.433495924
333.592375589
333.723500315
333.828917122
333.911711593
333.976000041
334.025937269
334.065036487
334.095949028
334.120350544
334.138858678
334.151596918
334.159997732
334.16692482
334.173909552
334.180763818
334.186845471
334.192265284
334.19743974
334.202456378
334.207424584
334.211978364
334.216020323
334.219517254
334.22238308
334.224659267
334.226464849
334.227821086
334.228771038
334.229475503
334.229906953
334.230123805
265.721903711
265.821339425
266.021957039
266.324466345
266.726442169
267.225055564
267.816927541
268.498234942
269.264810033
270.112237534
271.035943501
272.031273139
273.093555939
274.218157722
275.400520205
276.636189323
277.920833938
279.25025668
280.62039862
282.027339268
283.467293181
284.936604176
286.431737908
287.949273346
289.485893507
291.038375647
292.603581014
294.178444177
295.759961912
297.345181602
298.931189064
300.515096017
302.094027182
303.66510726
305.225448203
306.772137438
308.302227865
309.81273062
311.300611858
312.762794882
314.196168985
315.597606144
316.963986242
318.29223055
319.57934195
320.82244835
322.018844015
323.166020655
324.261680056
325.303717856
326.290174691
327.219153722
328.088724466
328.896854686
329.641454846
330.320680708
330.93346491
331.480941838
331.963733245
332.38533368
332.746708252
333.055519639
333.307222124
333.507083838
333.666813995
333.801242201
333.910633841
333.994059415
334.054336334
334.096942993
334.127311261
334.149634963
334.166820853
334.180352025
334.189652577
334.192619828
334.190586937
334.189541542
334.191898617
334.195860347
334.199062184
334.201689234
334.204783514
334.208079894
334.211754878
334.215442339
334.218911493
334.222030525
334.224680989
334.226892228
334.228643588
334.230035499
334.231071399
334.231793072
334.232285426
334.232524376
264.968248256
265.072056792
265.281411227
265.59688959
266.015729219
266.534697195
267.149957886
267.857204489
268.651782201
269.528805621
270.483263581
271.510108151
272.604326309
273.760994493
274.97531738
276.242653099
277.558527291
278.918638556
280.318857515
281.755221443
283.223925966
284.721315001
286.243869684
287.788196848
289.351017282
290.929153919
292.519519904
294.119106472
295.72497044
297.334221173
298.944006758
300.551499542
302.153880848
303.748325085
305.331983618
306.901969142
308.45534146
309.989095933
311.500156207
312.985373108
314.441531726
315.865368741
317.253601461
318.602969232
319.910285886
321.172499658
322.38675298
323.550431742
324.661188383
325.716923426
326.715707899
327.65563863
328.534631706
329.350203846
330.099364366
330.778991687
331.386564952
331.92521252
332.393464888
332.798583466
333.136311993
333.428574209
333.651032124
333.810388106
333.927314514
334.035291195
334.122631818
334.181154022
334.213885214
334.229843031
334.236722712
334.239536438
334.241630887
334.244715252
334.246255558
334.238140269
334.220783597
334.209308958
334.208279824
334.211297968
334.211748848
334.210797161
334.211869751
334.213279426
334.215732825
334.218730005
334.221782944
334.224698833
334.227287328
334.229458887
334.231255024
334.232706444
334.233847727
334.234626981
334.235209021
334.235477474
264.106232243
264.215276134
264.435079561
264.766040817
265.204964185
265.748100416
266.391035409
267.128855967
267.956303984
268.867919696
269.858165972
270.92153001
272.052601474
273.246128202
274.497052179
275.800529178
277.151935764
278.546867069
279.981128362
281.450722758
282.951836886
284.480825721
286.034197375
287.608598257
289.20079876
290.807679433
292.426217493
294.05347337
295.686577002
297.3227135
298.959107757
300.593008016
302.22166803
303.842327871
305.45219377
307.048417667
308.628077511
310.188159802
311.725546414
313.237008226
314.719208562
316.168719654
317.582055151
318.955720704
320.286282761
321.570451935
322.805172773
323.987704691
325.11567285
326.187060672
327.200112855
328.153115085
329.044022558
329.869948348
330.626605307
331.308538496
331.908963316
332.438686105
332.88778314
333.276264522
333.576332482
333.866084219
334.053889125
334.153862732
334.208095015
334.309251615
334.386052395
334.416970133
334.410072824
334.385808996
334.359047445
334.335996527
334.320032738
334.315009406
334.315018779
334.292619231
334.247104408
334.220336109
334.220806072
334.228329495
334.225637786
334.21840479
334.2182992
334.2175262
334.218957361
334.221663343
334.224504484
334.227450541
334.230127166
334.23236618
334.234277668
334.23586882
334.237114612
334.238031175
334.238709385
334.239031667
263.130411461
263.245703475
263.477959899
263.827333927
264.290071544
264.861762085
265.537257774
266.310885717
267.176642619
268.128370746
269.159905452
270.265190715
271.438362654
272.673803908
273.96617342
275.310416977
276.701763711
278.135713291
279.608017575
281.114659635
282.651832118
284.2159162
285.803461781
287.411169175
289.035872233
290.674522686
292.32417532
293.981973553
295.645134844
297.310935399
298.976693466
300.63975105
302.297453437
303.947126375
305.586051194
307.211438495
308.820401437
310.409930363
311.976871172
313.517910768
315.029573693
316.5082349
317.950153809
319.35153441
320.708613959
322.017778759
323.275698457
324.479460604
325.626676159
326.715514548
327.744618167
328.712827405
329.618617852
330.459123838
331.22849198
331.917227582
332.504247604
333.028875193
333.448195409
333.830915314
334.0572879
334.452994243
334.60269145
334.582001135
334.381697464
334.301776386
334.335084398
334.376376721
334.392986871
334.391098538
334.38356488
334.379298707
334.383801023
334.398965614
334.410480371
334.37159616
334.255716966
334.198458437
334.222130299
334.251950634
334.243402624
334.221256546
334.224269835
334.2200567
334.2207212
334.224064069
334.226863898
334.230272475
334.233325564
334.235696964
334.237712591
334.239476229
334.240934436
334.242051283
334.24284191
334.243242834
262.034291984
262.157039831
262.404132322
262.77538555
263.266321567
263.871677857
264.585373054
265.400781134
266.310979354
267.30896513
268.387830767
269.54089295
270.761779032
272.044475654
273.383347217
274.773132119
276.208924175
277.686145381
279.200514801
280.748016864
282.324871167
283.927504845
285.55252792
287.19671153
288.856968729
290.530337331
292.213964242
293.905090553
295.601036665
297.299186571
298.996970329
300.69184425
302.381267903
304.062677432
305.733455381
307.390897376
309.032176705
310.654308528
312.254116554
313.828206141
315.372949347
316.884488924
318.358769602
319.791605411
321.178790444
322.516256003
323.8002679
325.027644313
326.195956508
327.303659119
328.350084975
329.335214301
330.259033677
331.120120044
331.911922998
332.620120664
333.170733727
333.712636744
334.09232572
334.571883916
334.406215577
334.40840473
334.500865478
334.516514175
334.461158843
334.406874253
334.394251548
334.398807658
334.397711686
334.389239352
334.379469692
334.372222349
334.367772423
334.36414587
334.352898542
334.323607288
334.293006433
334.292138432
334.326260431
334.348979678
334.283380196
334.19806059
334.229173
334.219202732
334.219706783
334.226310271
334.228568629
334.233316079
334.237115242
334.239472699
334.24154937
334.243519805
334.24528632
334.246700059
334.247638949
334.248132944
260.810129116
260.941796893
261.206603321
261.603898917
262.128258252
262.773314214
263.531791278
264.395864385
265.357476392
266.408605737
267.541471782
268.748676613
270.023288783
271.358878997
272.749519478
274.18975867
275.674581399
277.199362494
278.759819528
280.351968294
281.972082889
283.616661092
285.282394876
286.966145519
288.664922539
290.37586566
292.096228944
293.823366214
295.554716691
297.28778973
299.020147237
300.749382974
302.473097394
304.188867125
305.89420902
307.586538821
309.26312516
310.921040591
312.557112454
314.167878195
315.749551827
317.298011046
318.808817292
320.277283525
321.698604987
323.068064544
324.381313707
325.634710489
326.825669483
327.952954527
329.016857837
330.01921225
330.963092712
331.85174071
332.683595428
333.455322201
333.897417649
334.592818453
334.416847414
334.445357567
334.503657562
334.483237093
334.501142043
334.494171795
334.455597144
334.417176349
334.400228334
334.394510124
334.387356961
334.377627286
334.368707066
334.361337745
334.354661827
334.347048383
334.33513497
334.316807679
334.300474972
334.297258871
334.306665807
334.307338322
334.297445905
334.315393897
334.319324809
334.213892577
334.206696816
334.229626264
334.228221198
334.236962849
334.24204452
334.243668248
334.245629378
334.247947608
334.25015585
334.251992587
334.253140678
334.253762435
259.448664269
259.591055402
259.877107185
260.305520382
260.869617197
261.561585716
262.372613559
263.293361899
264.314373773
265.426403536
266.620654809
267.888929463
269.2236994
270.618117837
272.065988226
273.561707391
275.100196492
276.676829761
278.287367458
279.927896523
281.594780221
283.284616563
284.994204523
286.720516743
288.460677421
290.211944222
291.971693172
293.737405392
295.506654448
297.277092727
299.046435017
300.812437905
302.572873218
304.325493967
306.067992512
307.797950349
309.512779881
311.20965926
312.885462854
314.536691891
316.159412916
317.749215775
319.301208129
320.810069218
322.270190264
323.675928617
325.021992011
326.303941027
327.518752877
328.665340021
329.744996862
330.761903271
331.724046822
332.646751004
333.566830263
334.668085652
334.484159963
334.486440947
334.544059072
334.507022547
334.51031122
334.493187088
334.486915842
334.469159472
334.435903473
334.403734257
334.38383794
334.37187017
334.36116583
334.351746116
334.344594165
334.338316494
334.33231223
334.325588481
334.316796238
334.305798221
334.296740974
334.294678129
334.297950978
334.297716364
334.293158152
334.295344322
334.28673613
334.287851851
334.301347073
334.264276535
334.217364811
334.242059089
334.249577916
334.247967269
334.249550453
334.252587818
334.255599601
334.257995386
334.259472969
334.260247032
257.938776296
258.094150525
258.405850763
258.87166336
259.483234574
260.230844784
261.103689738
262.090512332
263.180128573
264.36183038
265.625654468
266.962527643
268.364310482
269.823766716
271.334485331
272.890778701
274.487574363
276.120312348
277.784854696
279.477409904
281.194472166
282.932773769
284.689248243
286.461001943
288.245292042
290.039509501
291.841165797
293.647882327
295.457380937
297.267473684
299.076049237
300.881053938
302.680465011
304.472253786
306.254338242
308.024523637
309.780430761
311.519411987
313.238456539
314.934088697
316.602266285
318.238292538
319.836762569
321.39157683
322.896065899
324.343280171
325.726491618
327.039915898
328.279575139
329.444046804
330.534983245
331.557303662
332.519589384
333.439083304
334.373303241
334.554800283
334.621927166
334.552219387
334.543128829
334.512539656
334.493114922
334.470389614
334.450159837
334.424767981
334.393068886
334.363253086
334.341338429
334.325869478
334.314405521
334.306864226
334.301843526
334.297882125
334.29450697
334.291088542
334.287110438
334.282989734
334.280843864
334.282547933
334.286600095
334.288762267
334.287690949
334.287779185
334.28500507
334.2855637
334.287429302
334.294112417
334.296560297
334.26738831
334.264832267
334.250498559
334.252271755
334.257256971
334.261699588
334.264931253
334.266848719
334.267725256
256.267014682
256.438252573
256.781184303
257.292292465
257.960951473
258.774896052
259.720721604
260.784731469
261.953613782
263.214927309
264.557392538
265.971012467
267.447061964
268.977988795
270.557266061
272.179227649
273.838908903
275.531905597
277.254257145
279.002354657
280.772871333
282.562711029
284.368970658
286.188912578
288.019944236
289.859603373
291.705547843
293.555549136
295.407488103
297.259350359
299.10921797
300.955254289
302.795678762
304.628728702
306.452607158
308.26541481
310.065064468
311.849176654
313.614955749
315.359047972
317.077386432
318.765035065
320.41605479
322.023432851
323.579141903
325.074423634
326.500408748
327.849146994
329.114979863
330.295630328
331.392700466
332.412013091
333.368369526
334.313390946
334.450946313
334.536174676
334.574350527
334.54207918
334.514983072
334.481386
334.448883885
334.415770308
334.384176289
334.352098665
334.31963326
334.290763797
334.268652786
334.252855475
334.243277246
334.239048928
334.237356354
334.237338596
334.238561315
334.240503862
334.242872667
334.245958074
334.250659673
334.257413284
334.265061535
334.271457867
334.275890247
334.280022445
334.282410895
334.284062927
334.286628925
334.290644132
334.292666597
334.308493924
334.301305213
334.238963351
334.250846858
334.261962166
334.268949353
334.273275126
334.27545159
334.276293092
254.416964692
254.607807485
254.989173217
255.555661736
256.293522274
257.187055612
258.219437703
259.373861082
260.634400858
261.986587179
263.417696362
264.916810284
266.474709666
268.083667978
269.737202783
271.429826353
273.156821713
274.914057059
276.69784158
278.504819412
280.331895007
282.176182149
284.034969276
285.905695467
287.785933447
289.673378136
291.565840535
293.461247006
295.357642597
297.253195327
299.146196489
301.035052326
302.918262765
304.794383633
306.6619714
308.519507924
310.365302451
312.197367175
314.013262484
315.809909034
317.583366547
319.328585492
321.039150476
322.707059194
324.322623463
325.874646528
327.351109053
328.74062178
330.034796244
331.22978519
332.327370806
333.340729479
334.324273971
334.439088469
334.486907251
334.526037751
334.532933959
334.501410537
334.460069976
334.413821595
334.36791913
334.323862155
334.283216564
334.245917311
334.212443732
334.184754176
334.164393849
334.151327067
334.145766322
334.145881436
334.149102438
334.154764811
334.162376441
334.171393128
334.18146513
334.192565136
334.204864172
334.218189258
334.231629598
334.243952686
334.254665714
334.264232685
334.27207372
334.278595942
334.284387815
334.288749483
334.291453646
334.297833684
334.296504584
334.283925734
334.248750174
334.268774425
334.278631897
334.283779951
334.285481627
334.285923483
252.368371119
252.583773817
253.013038566
253.648000924
254.470545375
255.460288455
256.595879941
257.856541008
259.223159131
260.678935709
262.209631444
263.803501448
265.451027815
267.144550514
268.877876022
270.645916462
272.444387536
274.269574634
276.11816404
277.987129009
279.87365765
281.775109423
283.688989042
285.612929614
287.544680704
289.48210056
291.423154359
293.365920573
295.30860508
297.249558753
299.187291355
301.120474079
303.047925169
304.968574705
306.881408366
308.785387821
310.679343851
312.561835482
314.430966868
316.28415278
318.117823801
319.927064409
321.705186785
323.443268373
325.129741608
326.750245496
328.288163241
329.726534668
331.052481743
332.260074116
333.357876813
334.402622796
334.491147064
334.497102542
334.500086307
334.497659043
334.471823736
334.422538583
334.364247981
334.303768064
334.245728225
334.192409881
334.145242642
334.104735356
334.071359858
334.045996742
334.02918926
334.021468424
334.021868588
334.027441079
334.036927059
334.049721518
334.065165688
334.082606087
334.101536463
334.121623643
334.142596009
334.163984235
334.18499098
334.204736259
334.222726299
334.238926782
334.253027825
334.265138232
334.275262542
334.283000541
334.287938218
334.290990291
334.289833042
334.282794321
334.28494604
334.283914329
334.293131823
334.297802119
334.29697879
334.296260848
250.095905309
250.34257439
250.832421384
251.553150585
252.480450415
253.587479126
254.846863298
256.232761244
257.722217031
259.295841175
260.937923804
262.636142027
264.381033584
266.165386376
267.983651254
269.831440434
271.705136708
273.601613383
275.518050226
277.451824251
279.400452851
281.361568849
283.332910935
285.312318402
287.297725149
289.28715424
291.278718761
293.270636017
295.261256382
297.249100999
299.232896688
301.211594915
303.184367288
305.150574922
307.109713037
309.061331211
311.004924107
312.939782342
314.864789824
316.778151167
318.677028326
320.557059169
322.411726499
324.231555261
326.003166662
327.708381672
329.32395297
330.823260402
332.18664785
333.412679795
334.55928665
334.619290265
334.570834287
334.524975133
334.484086968
334.436002577
334.374525951
334.301670457
334.22545287
334.151442808
334.083350863
334.02326513
333.972332057
333.931023279
333.89958784
333.878318565
333.867306317
333.866215061
333.873037049
333.885348559
333.902381533
333.923470927
333.94782219
333.974664836
334.003328042
334.033234726
334.06383118
334.094469708
334.12437339
334.152773088
334.179122212
334.203133227
334.224491838
334.243077644
334.258749367
334.271297164
334.28047212
334.286618074
334.289381251
334.288813272
334.290882713
334.296619484
334.314271789
334.317599367
334.309078968
334.306149064
247.567395273
247.85462608
248.422414858
249.25215881
250.310606418
251.561925316
252.970702331
254.504675464
256.136345388
257.843588913
259.6094865
261.42163588
263.271220836
265.152052563
267.05972299
268.990935094
270.943021556
272.913631641
274.900552109
276.901624485
278.914723571
280.93776722
282.968734371
285.005676315
287.046715802
289.090038706
291.133891704
293.1766031
295.216632083
297.252637672
299.283546109
301.308594115
303.327337195
305.339622904
307.345536729
309.34532729
311.339304795
313.327697176
315.3104446
317.286909702
319.255472328
321.212956664
323.153808334
325.068899673
326.943812979
328.756515578
330.474389987
332.05331585
333.472145717
334.787779895
334.828709998
334.714593781
334.608470496
334.516387034
334.425353542
334.33191425
334.235737306
334.13893606
334.046045255
333.960812652
333.885710481
333.822067232
333.7704537
333.730965171
333.703503358
333.687987858
333.684129396
333.690417318
333.704162867
333.724008888
333.749326265
333.779328349
333.813121778
333.84983712
333.888665189
333.928848985
333.969647359
334.010285973
334.049955279
334.087887638
334.12346161
334.15622473
334.185782566
334.21186776
334.234262833
334.252802361
334.267414469
334.278400441
334.285965284
334.290658158
334.295266218
334.301767157
334.30602985
334.351876386
334.319375627
334.313083784
244.741222155
245.082253867
245.752295276
246.722885612
247.947667369
249.378200436
250.968345856
252.677791172
254.473841083
256.331761044
258.234058583
260.169143045
262.129776727
264.111628287
266.11209795
268.129464424
270.162329796
272.209305564
274.26887492
276.339371159
278.41902109
280.506012433
282.598554129
284.69490957
286.793396327
288.892362649
290.990167057
293.085201267
295.175967865
297.261200622
299.339983804
301.411831132
303.476707543
305.535000194
307.587460677
309.635140983
311.67931429
313.721355775
315.762557727
317.803856144
319.845436989
321.886154987
323.922636643
325.947819738
327.948464261
329.900627326
331.760669678
333.459659022
335.044246164
335.098764407
334.920482501
334.750348551
334.60073244
334.456353567
334.31589595
334.181626314
334.054964156
333.937570453
333.83177594
333.739405815
333.661422737
333.598053615
333.549069931
333.514025688
333.492470875
333.484170588
333.487946652
333.501381663
333.52222922
333.549840429
333.58353645
333.622422916
333.665550869
333.711988012
333.760832643
333.811210186
333.862257453
333.913105361
333.962888051
334.010789426
334.056099839
334.098235585
334.136701197
334.171114186
334.201180503
334.226709312
334.247648277
334.264197206
334.276636504
334.285399922
334.29180011
334.297156581
334.298841845
334.285185957
334.304118855
334.31063992
241.562384507
241.976676067
242.783886198
243.939728032
245.378365632
247.033619903
248.845131024
250.762696292
252.748009137
254.774360673
256.824949727
258.890488776
260.966733247
263.052373945
265.14747638
267.252460549
269.367524223
271.492390374
273.626270114
275.767952985
277.915956356
280.068681255
282.224534541
284.38199008
286.539579024
288.695825813
290.849175933
292.998009117
295.14075831
297.276119902
299.40326026
301.521947125
303.632580271
305.736140709
307.834111534
309.928431528
312.021460748
314.1159111
316.214707174
318.320765623
320.436685301
322.564298331
324.703960715
326.853303484
329.004668104
331.140530646
333.226934665
335.219562781
335.357311497
335.146581718
334.929668701
334.729862935
334.531151435
334.336549236
334.153271605
333.985651968
333.835677283
333.70423334
333.591702564
333.497891898
333.422078769
333.363216812
333.320176822
333.291935128
333.277764305
333.277456763
333.288584052
333.308301076
333.335907763
333.370862944
333.412320326
333.459339771
333.510974245
333.566280251
333.624321252
333.684166435
333.744884327
333.80553963
333.865206388
333.923000546
333.978117589
334.02985364
334.077601143