/*--------------------------------*- C++ -*----------------------------------*\
| =========                 |                                                 |
| \\      /  F ield         | OpenFOAM: The Open Source CFD Toolbox           |
|  \\    /   O peration     | Version:  v1906                                 |
|   \\  /    A nd           | Web:      www.OpenFOAM.com                      |
|    \\/     M anipulation  |                                                 |
\*---------------------------------------------------------------------------*/
FoamFile
{
    version     2.0;
    format      ascii;
    class       volVectorField;
    location    "500";
    object      U;
}
// * * * * * * * * * * * * * * * * * * * * * * * * * * * * * * * * * * * * * //

dimensions      [0 1 -1 0 0 0 0];


internalField   nonuniform List<vector> 
208
(
(-0.720250348816 -0.096758114612 -3.29575195103e-18)
(-0.00106479085232 0.000522289170253 -3.62312756707e-20)
(-0.00109133105995 7.14380678491e-05 0)
(0.00230689608862 0.000472005325069 0)
(-0.711256250119 0.110470554748 0)
(5.02703069593e-05 -0.000647150626971 1.3422021816e-19)
(-0.00098154281416 -0.000147680091067 2.40433484877e-19)
(0.000167402820998 -0.00137735658878 0)
(-0.000706307268756 0.0008416110025 8.558405729e-21)
(-0.00157302740768 -0.000467829961735 -3.58938595007e-20)
(-9.88757500606e-05 -0.000510886523401 3.95728743136e-19)
(0.000457373594 0.000603861191489 0)
(-0.00114836053108 -0.000162833272083 2.00332365637e-19)
(-0.159914645691 1.03987532908 0)
(-0.17891330689 0.808197434136 2.89092158166e-18)
(-0.000111895546689 -0.00147371250692 -9.03447978877e-20)
(-0.0010046054263 -0.00027863103222 0)
(0.00287059257465 0.000517574375204 0)
(-0.000640025581309 0.000667503618487 4.82816134578e-20)
(-0.000818499718897 0.000346889177195 -2.57821661551e-21)
(3.30374773275e-05 -8.26251228777e-05 0)
(-0.00035219958983 -3.42326984587e-05 0)
(0.000843954970802 -0.00137570482192 -9.77727681516e-20)
(0.00148199473419 -0.000619353346115 2.86945279058e-19)
(-0.00147895220391 0.000226347260455 -1.80044028758e-19)
(-0.00334593721945 -0.000135129723238 1.08728214301e-18)
(0.000161411859546 -0.000880197725115 -6.17847432221e-19)
(-0.000485235861601 0.000546347426573 -2.36607799783e-20)
(-0.000510063496276 -5.29129288973e-06 -2.16810503479e-19)
(0.00011621771303 -0.000505936502425 -2.23420685939e-19)
(0.0196032535501 -0.00839451086578 0)
(0.660722154178 2.37734183068 2.23571476793e-17)
(-0.000852704508225 -0.000248040578478 0)
(-0.0134829124314 -0.00955822734276 -8.24538404261e-22)
(-0.0242511068762 -0.0322565280623 0)
(-0.00180134753717 -0.000208057325616 -3.22863482283e-19)
(0.000352983990113 -0.001123700474 -2.03722271358e-19)
(0.00040611920189 0.00435501119991 1.02928141944e-19)
(-0.000934841689911 0.000924088495287 7.32241385631e-20)
(0.277615405955 -2.41468676094 -6.17561821104e-18)
(-0.00121849393416 0.0017932366495 0)
(-0.371874091706 0.282135787194 0)
(-9.79539755028e-05 0.000362726974768 1.67414236107e-19)
(-0.00204827657866 -0.00133853090183 -3.23465656019e-20)
(-0.000683644673181 -0.000313177074461 1.4302084784e-19)
(-0.00309803586599 -0.00267248200917 1.87691039331e-18)
(0.00665576880489 -0.00435253419203 0)
(-0.221891022582 1.17095954529 -2.62920765594e-17)
(-0.197844715795 0.476965899444 0)
(-0.000289784335442 5.66903282234e-05 -1.37025909968e-19)
(0.0028604504332 0.00149388023539 4.67481213331e-20)
(0.432654155808 1.40461892401 0)
(-0.00179291160649 0.00277363830776 -1.17328527183e-19)
(4.48917175959e-05 -6.06309700269e-05 0)
(-0.000614578678481 -3.22523856959e-05 -2.63420373491e-19)
(-0.412817969575 -1.50972011324 1.76007152204e-17)
(-0.000359964399268 0.00308157414921 0)
(-0.176050403179 0.0789516507372 2.90844375195e-20)
(-0.333711341405 0.00521772868246 7.3485742178e-19)
(0.00122755675583 0.000172233584998 4.21406102233e-20)
(-0.648112939199 -0.342793675638 4.69692691034e-18)
(-0.388793321185 0.145408406351 4.99190366349e-19)
(0.346401974171 -1.10884672476 0)
(-0.000239976173796 0.000503567423694 -2.27795352742e-20)
(1.2526292702 -0.157973387687 1.64834981513e-19)
(0.000249816679844 0.00037374486873 0)
(-0.00721605422549 -0.00312618090653 7.45178756016e-19)
(-0.000993050353504 0.000147601513126 0)
(-0.00140577519996 -0.00139106748152 0)
(-0.29166703394 -0.075501032439 -8.00462693923e-20)
(-0.000938829266513 0.000868805189715 6.98905647728e-20)
(0.0207433216994 -0.889223500154 0)
(-0.00418156305058 0.00422664250174 5.76829732305e-22)
(-3.14828758847e-05 -2.11160712782e-05 0)
(-1.23251897998e-05 -5.27495100489e-05 0)
(0.00489106173683 -0.00235366129129 -2.47759116451e-19)
(0.00328390605103 -0.00393128180972 4.89437443075e-19)
(0.036287190132 -0.648670494789 -5.78475498669e-18)
(0.000421676787028 -0.00327012432317 1.50859652119e-20)
(1.58176416268 -0.459376266726 -1.04729713321e-17)
(0.000709657407195 0.000325512365148 -1.46995842844e-20)
(1.36254153699 0.029665481453 1.08179006865e-18)
(0.000117014441512 0.000390307844047 -6.77628871957e-21)
(-0.551076235907 -0.0858422212826 -2.00065109808e-18)
(-0.309496286342 -0.106149921453 0)
(0.454905071828 1.43032801875 -3.44585437881e-19)
(-0.00882882297533 0.000647396085578 1.67446014762e-21)
(0.388798658511 -0.026508211656 0)
(-0.37467031489 -0.464049303481 -1.86964388723e-18)
(-0.000980304873428 0.000165246992552 -4.62013761043e-20)
(-0.0102606619967 -0.003253906748 -4.56688223896e-19)
(-0.000779791358132 0.000566015535252 0)
(0.00235073441807 -0.00204924140771 0)
(-0.000140677397945 -0.00048458743164 -2.24701841847e-20)
(0.571948561437 -1.15906499995 0)
(-0.000239916830199 0.000529178212058 2.77583437616e-20)
(0.530567338652 -0.195752334751 0)
(0.000631626836777 0.0011625205279 0)
(-0.476244390386 0.18428696191 -9.88408587093e-19)
(0.411107272384 -0.0784018790882 0)
(0.000111162389804 0.000447238793256 0)
(0.498888203431 0.125141084522 0)
(0.656433409569 0.502632168737 4.59404002385e-19)
(3.58069611641e-05 -0.000299256136473 0)
(-0.000550411630187 5.96727292607e-05 1.03376802542e-20)
(-0.643396927351 -0.255190387596 0)
(0.000291985170387 -0.00329555163606 7.92657045021e-20)
(0.044524067859 -0.00181794247882 3.34117289425e-19)
(-1.3315208507 -0.106485361159 0)
(1.72645531422e-05 0.000673701309839 0)
(-0.385548166261 0.718073283064 1.01336978644e-18)
(-0.000257125825056 0.000866091979604 5.98129468867e-22)
(0.000783603543795 -0.000137858262458 1.14739851956e-20)
(1.07339367743 0.346938137671 -2.05949280988e-18)
(0.68118880189 -0.71352699405 0)
(-0.000825269769166 0.000298797524803 8.97567703176e-21)
(0.253891956667 -0.306334686329 0)
(0.00821762216319 -0.323761271694 0)
(-0.000977989107117 0.00113481749811 0)
(-0.000127445331354 0.00102599780316 3.14916391627e-20)
(-0.000468911624435 -1.60016982833e-05 0)
(0.00151883764781 0.00450983267466 -8.09671855089e-20)
(-9.19039152179e-05 0.00062167217407 -6.47891103389e-22)
(0.00365548506566 -0.278842241364 0)
(0.000236375001349 0.00102183989576 0)
(0.00029476519171 -0.000151940547786 0)
(-0.000592812137212 -7.11024764492e-05 2.30972048991e-19)
(-3.19634447035e-05 -8.19465392615e-05 0)
(-0.000196292590833 6.23263635219e-05 4.93738171304e-19)
(0.173953740813 -0.182019557474 -3.24660538181e-19)
(-1.01046701088 -0.262892295491 0)
(-0.000572685278774 -0.000777842718218 0)
(0.0434787071769 -0.155471627658 0)
(-0.000144863007535 0.0011311525178 0)
(0.664934904207 0.131360381354 1.62123962933e-17)
(-0.00071640650243 0.000341417639204 0)
(0.789415206569 -0.382336653593 0)
(-0.000375949210657 0.000367239056471 0)
(-0.000637055502055 -0.00178024113208 0)
(-0.00105614543726 -0.0020340018984 0)
(-0.156967467778 -0.188287434338 4.53186679725e-18)
(-0.000583578211523 -0.000908883040874 -5.06231888047e-20)
(-0.00665487428914 -0.00746328423567 -1.40083805427e-19)
(-0.000577907764172 -0.000412967250789 -1.80514219348e-19)
(-0.000233328198854 -0.000293338454868 6.69265476459e-20)
(-0.00109575927642 9.47323994465e-05 2.71299233892e-19)
(-0.00073387101346 -0.000269806522253 0)
(-0.16406194031 0.242569757124 2.46207605566e-18)
(-0.259428940677 -0.839126574735 0)
(-0.00112967973616 0.000241936243184 8.06194654082e-20)
(-0.397936887871 0.62954499358 -5.40462283185e-18)
(0.00425450588084 0.00307381047436 -2.41575171573e-20)
(-0.0147858363495 0.0215291774468 -2.71244826686e-19)
(-0.104562755238 -0.448568480291 0)
(-0.224633378352 -0.0596218005914 -2.53857079771e-18)
(-1.26338704927 -0.253657872147 0)
(-0.000417124494531 0.000656230534872 0)
(-0.66408647569 0.337365106211 0)
(0.0068550797614 0.00568172458349 0)
(0.735935670769 -0.099184431716 -7.30314889197e-18)
(-0.000540826699352 0.000396357339436 0)
(0.101379378757 0.386126365531 1.90408559944e-18)
(-0.000627441969217 0.000401019914898 0)
(0.00666405267193 0.0012602743455 0)
(-0.000746319391075 0.00011834250258 0)
(0.589785132841 0.348588136522 -1.01071004052e-17)
(-0.000623290530011 0.000229628526396 -8.30545646482e-20)
(-0.00391098005089 0.00317754601091 -4.72615708915e-22)
(0.169443838219 0.278607392992 0)
(-0.900315765301 0.155262276784 0)
(-0.000402090100832 0.00045314030304 2.00528409777e-20)
(-0.000687835436907 0.000863530089985 0)
(-0.108552273805 -0.495376797215 0)
(-0.122748848265 -0.636637095234 0)
(-0.000408239576285 -0.000275618956431 3.38505357609e-19)
(-0.00098235376519 0.000236408045502 3.43034996696e-21)
(0.0329002297949 0.732268912953 -4.10041195287e-20)
(-0.000676362639978 0.00180249568503 -5.90505343251e-20)
(-0.497498487074 -0.328537404568 0)
(-0.000260461818166 -0.000216290565953 0)
(0.485604396663 0.531630907257 2.03951934889e-18)
(-0.00113785394913 0.00051310753494 5.65786618234e-20)
(-0.000373669079712 -7.47897483941e-05 -3.61649506228e-19)
(-0.000114738599388 -0.000362336890688 -2.06312974759e-19)
(-0.0434235036735 -0.87629208981 0)
(-0.000165014777083 0.0004536646815 -8.38293282176e-21)
(-0.00025045806825 -0.000607822481239 -1.76083345429e-19)
(-0.314673108012 -0.4411260656 7.28570623673e-18)
(-0.000712177082347 0.000319817228624 0)
(0.360412754333 0.133401531411 1.56415889822e-17)
(-0.00118117469002 0.000269132540919 6.92225329354e-20)
(-0.00181340633956 0.000704164877365 -1.48673638439e-19)
(-0.00121108471777 -0.000334961616057 0)
(-0.000146212183169 -1.79250138754e-05 -1.0436340727e-19)
(-0.00018188461325 -0.000442948239048 0)
(0.142379830773 0.572713842447 -3.25916810602e-18)
(-0.000551668899821 0.00102218300719 0)
(0.365227952136 -0.202743960732 -2.40484707133e-18)
(-0.000674365126727 0.000448032431167 0)
(-0.000673427496498 -0.000796545201785 2.73031979018e-19)
(-0.000855823464976 -0.0027439493989 0)
(-0.000186472783684 -0.000122985064615 0)
(-0.000205206171596 -0.000361962464497 1.43046646176e-19)
(-0.000685604981506 -0.00110368213961 -1.54355201942e-18)
(0.0802993186206 0.707429455247 -1.96176733391e-18)
(-0.000567834975084 0.000329377328921 0)
(-0.000121705144311 -0.000158938860593 0)
(-2.93333613458e-05 -8.26098157108e-05 0)
)
;

boundaryField
{
    frontAndback
    {
        type            empty;
    }
    upperWall
    {
        type            noSlip;
    }
    outlet
    {
        type            inletOutlet;
        inletValue      uniform (0 0 0);
        value           nonuniform List<vector> 3((0.000249816679844 0.00037374486873 0) (0.000783603543795 -0.000137858262458 1.14739851956e-20) (0 0 0));
    }
    lowerWall
    {
        type            noSlip;
    }
    inlet
    {
        type            fixedValue;
        value           uniform (10 0 0);
    }
}


// ************************************************************************* //
