/*--------------------------------*- C++ -*----------------------------------*\
| =========                 |                                                 |
| \\      /  F ield         | OpenFOAM: The Open Source CFD Toolbox           |
|  \\    /   O peration     | Version:  v1906                                 |
|   \\  /    A nd           | Web:      www.OpenFOAM.com                      |
|    \\/     M anipulation  |                                                 |
\*---------------------------------------------------------------------------*/
FoamFile
{
    version     2.0;
    format      ascii;
    class       volVectorField;
    location    "199";
    object      U;
}
// * * * * * * * * * * * * * * * * * * * * * * * * * * * * * * * * * * * * * //

dimensions      [0 1 -1 0 0 0 0];


internalField   nonuniform List<vector> 
9216
(
(0.00271287181986 -0.00271491406948 0)
(0.00286038350433 -0.00876131863421 1.17915208901e-27)
(0.00285229457737 -0.0149019730525 1.8424389238e-31)
(0.00281512881477 -0.0210432339783 0)
(0.00276349329331 -0.0270819672041 0)
(0.00269891438527 -0.0329939545951 0)
(0.00262300427625 -0.0387534684968 0)
(0.00253719273193 -0.0443375813902 0)
(0.00244268665888 -0.049726218944 0)
(0.00234086317026 -0.0549020305689 0)
(0.00223287361582 -0.0598504706643 0)
(0.00212004606388 -0.0645596190565 0)
(0.00200340496228 -0.0690201723786 0)
(0.00188414812036 -0.0732251749037 0)
(0.00176310703493 -0.077169931866 0)
(0.00164130244804 -0.0808516936896 0)
(0.00151934826017 -0.0842695377947 0)
(0.00139808082441 -0.0874240530701 0)
(0.00127790716441 -0.0903172255319 0)
(0.00115949964859 -0.0929521536907 0)
(0.0010430889552 -0.0953329588971 0)
(0.000929215983449 -0.0974645480634 0)
(0.000817972926531 -0.0993525527939 0)
(0.000709803365991 -0.101003141438 0)
(0.000604696052533 -0.102422983461 0)
(0.000503025249001 -0.1036191073 0)
(0.000404704822939 -0.104598879407 0)
(0.000310060015768 -0.105369899202 0)
(0.000218950247708 -0.105939984244 0)
(0.000131665133165 -0.10631709731 0)
(4.80282416553e-05 -0.10650932078 0)
(-3.17058798985e-05 -0.106524844036 0)
(-0.000107772010734 -0.106371878244 0)
(-0.000179948505851 -0.106058577389 0)
(-0.000248470304078 -0.105593127609 0)
(-0.000313137262835 -0.104983668112 0)
(-0.00037421456248 -0.104238251914 0)
(-0.00043153353819 -0.103364845845 0)
(-0.000485377629603 -0.102371269102 0)
(-0.000535606130434 -0.101265211661 0)
(-0.00058251484263 -0.100054165209 0)
(-0.000625989063566 -0.0987454581856 0)
(-0.000666330759976 -0.0973461795637 0)
(-0.000703448180574 -0.0958632286249 0)
(-0.000737643476958 -0.0943032349578 0)
(-0.000768844653911 -0.0926726223105 0)
(-0.000797347811309 -0.090977525684 0)
(-0.000823096905694 -0.0892238666543 0)
(-0.000846376553024 -0.0874172701399 0)
(-0.000867143234232 -0.0855631498803 0)
(-0.000885665155546 -0.083666625075 0)
(-0.000901908008931 -0.0817326126903 0)
(-0.000916120037162 -0.0797657458754 0)
(-0.000928273773612 -0.0777704709611 0)
(-0.000938595019502 -0.075750967413 0)
(-0.000947061395575 -0.0737112458473 0)
(-0.000953875508742 -0.0716550707719 0)
(-0.000959019506449 -0.0695860571518 0)
(-0.000962673330051 -0.0675075955494 0)
(-0.000964823877202 -0.0654229437197 0)
(-0.000965630541471 -0.0633351550407 0)
(-0.000965086136385 -0.0612471632304 0)
(-0.000963332527513 -0.0591617138061 0)
(-0.000960369987523 -0.0570814393826 0)
(-0.000956326728211 -0.0550087953271 0)
(-0.000951212278531 -0.0529461247795 0)
(-0.000945145092707 -0.050895598765 0)
(-0.000938145358317 -0.048859270042 0)
(-0.000930325559965 -0.0468390191046 0)
(-0.000921717408523 -0.0448365973154 0)
(-0.000912430387622 -0.0428535794936 0)
(-0.000902507604691 -0.0408913969661 0)
(-0.000892057632879 -0.0389512979583 0)
(-0.00088113399989 -0.0370343722067 0)
(-0.000869845312876 -0.0351415195071 0)
(-0.000858253486686 -0.0332734673884 0)
(-0.000846467042371 -0.0314307484295 0)
(-0.000834553532446 -0.0296137131983 0)
(-0.000822620099736 -0.0278225159747 0)
(-0.000810736315458 -0.0260571250354 0)
(-0.000799005367503 -0.0243173168896 0)
(-0.000787494013212 -0.0226026869296 0)
(-0.000776296459831 -0.0209126529094 0)
(-0.000765468103877 -0.0192464708441 0)
(-0.000755081711436 -0.0176032538673 0)
(-0.00074515828628 -0.0159820084821 0)
(-0.000735705142136 -0.0143816950346 0)
(-0.000726616185102 -0.0128013476925 0)
(-0.000717625513864 -0.0112403147743 0)
(-0.000708013769424 -0.00969877982871 0)
(-0.000696071548066 -0.00817903354467 0)
(-0.000677493879913 -0.00668926909151 0)
(-0.000635447309703 -0.00526489220546 0)
(-0.000554595098882 -0.00370473337441 0)
(-0.000750217938187 -0.00270438755917 0)
(-0.00121744424047 -0.0012156744583 0)
(0.00878246289293 -0.00289005958161 0)
(0.00971105013712 -0.00977990020123 0)
(0.00968889336639 -0.016657053246 -1.238244215e-27)
(0.00955980908473 -0.0235398445677 0)
(0.00938110939359 -0.0302984077378 0)
(0.00916025143426 -0.0369110698463 0)
(0.00890152630938 -0.0433505031468 0)
(0.00860927587527 -0.0495915427362 0)
(0.00828766876809 -0.055611883338 0)
(0.00794118233678 -0.0613922630001 0)
(0.00757393767713 -0.0669165365655 0)
(0.00719023910613 -0.0721715724216 0)
(0.00679381218877 -0.0771471573959 0)
(0.00638847873396 -0.0818357654274 0)
(0.00597733165136 -0.0862323705427 0)
(0.0055635500723 -0.090334160144 0)
(0.00514951137003 -0.094140318618 0)
(0.00473773275561 -0.0976517400171 0)
(0.00432991370067 -0.100870825465 0)
(0.00392798412716 -0.103801229652 0)
(0.00353307070789 -0.106447695032 0)
(0.00314663272163 -0.10881584743 0)
(0.00276935120513 -0.110912072451 0)
(0.00240233500133 -0.112743360862 0)
(0.00204593661142 -0.114317222188 0)
(0.00170101427626 -0.115641572424 0)
(0.001367684365 -0.116724673969 0)
(0.001046626327 -0.117575055289 0)
(0.000737784410651 -0.118201465748 0)
(0.000441704568564 -0.11861281641 0)
(0.00015820295994 -0.118818144118 0)
(-0.000112289224357 -0.118826536688 0)
(-0.00037008815879 -0.118647145832 0)
(-0.00061486579776 -0.118289202277 0)
(-0.000847008297944 -0.117761856444 0)
(-0.00106627589206 -0.117074211428 0)
(-0.00127314408083 -0.116235271814 0)
(-0.00146746490524 -0.115253933593 0)
(-0.00164978479873 -0.114138936564 0)
(-0.00182003815043 -0.112898861074 0)
(-0.00197882713484 -0.11154207937 0)
(-0.00212615820176 -0.110076761506 0)
(-0.00226267215566 -0.108510827519 0)
(-0.00238843452739 -0.106851962328 0)
(-0.00250410686806 -0.105107570386 0)
(-0.00260979980336 -0.103284799651 0)
(-0.00270617720288 -0.101390499213 0)
(-0.00279337999883 -0.0994312513582 0)
(-0.00287205734923 -0.0974133332638 0)
(-0.00294236696049 -0.095342755785 0)
(-0.00300492815994 -0.0932252291655 0)
(-0.00305990333738 -0.0910662068316 0)
(-0.00310787036923 -0.088870855133 0)
(-0.00314898749868 -0.086644100393 0)
(-0.00318378321463 -0.0843906018493 0)
(-0.00321240589698 -0.0821147996147 0)
(-0.00323533158198 -0.0798208903465 0)
(-0.00325269723819 -0.0775128740198 0)
(-0.0032649277219 -0.0751945312337 0)
(-0.00327215056803 -0.0728694663707 0)
(-0.00327474523457 -0.0705410861162 0)
(-0.00327283519997 -0.0682126373086 0)
(-0.00326676341412 -0.0658871856748 0)
(-0.00325665659203 -0.0635676470038 0)
(-0.00324283224762 -0.0612567660831 0)
(-0.00322542855546 -0.0589571407587 0)
(-0.00320474888728 -0.05667120089 0)
(-0.00318095016877 -0.0544012250081 0)
(-0.00315433195843 -0.0521493206525 0)
(-0.00312507534064 -0.0499174339188 0)
(-0.00309348377596 -0.0477073320382 0)
(-0.00305976477169 -0.0455206070061 0)
(-0.00302423021225 -0.0433586613495 0)
(-0.0029871130693 -0.0412227076496 0)
(-0.00294873455519 -0.0391137582692 0)
(-0.00290934853911 -0.037032622249 0)
(-0.00286928293851 -0.0349799000054 0)
(-0.00282880517689 -0.0329559792849 0)
(-0.00278824374194 -0.0309610351713 0)
(-0.00274786917922 -0.0289950268015 0)
(-0.00270800070098 -0.0270577031654 0)
(-0.00266889737668 -0.0251486022746 0)
(-0.00263085249167 -0.0232670640315 0)
(-0.00259408879966 -0.0214122342564 0)
(-0.00255883757391 -0.0195830872334 0)
(-0.00252522381339 -0.0177784404878 0)
(-0.0024933060671 -0.0159969917198 0)
(-0.00246289510027 -0.0142373507299 0)
(-0.00243342907322 -0.0124980851406 0)
(-0.00240343504588 -0.0107777041387 0)
(-0.00236955635683 -0.0090744891488 0)
(-0.00232394596123 -0.00738566951213 0)
(-0.002247779047 -0.00570891506755 0)
(-0.0020961990054 -0.00391596700847 0)
(-0.00226113192547 -0.00225380914557 0)
(-0.00270151468313 -0.000745649834691 0)
(0.015034604928 -0.00293588051072 0)
(0.0166471089016 -0.00994053095595 0)
(0.0165868391987 -0.0169078081753 -1.2361990778e-27)
(0.0163564370783 -0.0238911216125 0)
(0.0160454938984 -0.0307465381421 0)
(0.0156638279823 -0.0374508811027 0)
(0.015217905158 -0.043975777025 0)
(0.0147147163479 -0.0502955180519 0)
(0.0141615360102 -0.0563874677897 0)
(0.0135658845329 -0.0622322376427 0)
(0.0129350923889 -0.0678137052969 0)
(0.0122763588994 -0.0731189195971 0)
(0.0115963476525 -0.0781379458237 0)
(0.0109013608476 -0.0828636359382 0)
(0.010196974319 -0.0872913816212 0)
(0.00948832197044 -0.0914188318941 0)
(0.00877975850267 -0.0952456248455 0)
(0.00807523173089 -0.0987731120928 0)
(0.00737795154572 -0.102004115236 0)
(0.00669082294778 -0.104942691218 0)
(0.0060161009245 -0.107593936133 0)
(0.0053558604929 -0.109963803996 0)
(0.00471162396015 -0.112058961205 0)
(0.00408485069688 -0.113886656042 0)
(0.00347653115315 -0.115454616445 0)
(0.00288768575206 -0.116770960098 0)
(0.0023189271489 -0.117844122824 0)
(0.00177096227121 -0.118682796413 0)
(0.0012441288718 -0.119295875755 0)
(0.000738897482827 -0.119692413916 0)
(0.000255389411347 -0.11988157894 0)
(-0.000206117771685 -0.119872618787 0)
(-0.000645676556815 -0.119674817686 0)
(-0.00106317902848 -0.119297474695 0)
(-0.00145884643673 -0.118749855438 0)
(-0.00183273162442 -0.118041170694 0)
(-0.00218519913688 -0.117180535354 0)
(-0.00251644689092 -0.116176947046 0)
(-0.00282696911133 -0.115039248553 0)
(-0.00311709297404 -0.113776111145 0)
(-0.00338742145891 -0.112395999941 0)
(-0.00363838976966 -0.110907163162 0)
(-0.00387068418395 -0.109317601518 0)
(-0.00408482269131 -0.107635063854 0)
(-0.00428154687552 -0.105867021979 0)
(-0.00446143025872 -0.104020672939 0)
(-0.00462524065039 -0.102102919515 0)
(-0.00477357961962 -0.100120378875 0)
(-0.00490721366688 -0.0980793686619 0)
(-0.00502674697538 -0.0959859215568 0)
(-0.00513292032105 -0.093845776737 0)
(-0.00522631877632 -0.0916643985614 0)
(-0.0053076380586 -0.0894469727503 0)
(-0.0053774278867 -0.0871984284598 0)
(-0.00543632588774 -0.0849234376148 0)
(-0.00548483672169 -0.0826264381099 0)
(-0.005523534335 -0.0803116356024 0)
(-0.00555287586275 -0.0779830260716 0)
(-0.00557337342623 -0.0756443983365 0)
(-0.00558544118368 -0.0732993540909 0)
(-0.00558953829335 -0.0709513100001 0)
(-0.00558604655606 -0.0686035137673 0)
(-0.00557538636856 -0.066259044609 0)
(-0.00555792180531 -0.0639208241717 0)
(-0.00553405182815 -0.0615916150087 0)
(-0.00550413908114 -0.0592740259875 0)
(-0.00546857881988 -0.0569705085215 0)
(-0.00542774741225 -0.0546833566441 0)
(-0.00538205189139 -0.0524147017941 0)
(-0.00533189410313 -0.0501665083036 0)
(-0.00527770390147 -0.0479405674621 0)
(-0.00521991514339 -0.0457384899497 0)
(-0.00515898590274 -0.0435617002624 0)
(-0.00509538262673 -0.0414114272122 0)
(-0.00502959076961 -0.0392887007056 0)
(-0.00496210398433 -0.0371943413194 0)
(-0.00489342840928 -0.0351289600096 0)
(-0.00482407415095 -0.0330929491089 0)
(-0.00475455597139 -0.0310864853431 0)
(-0.00468538462565 -0.0291095228267 0)
(-0.00461706608801 -0.0271618007951 0)
(-0.00455009006067 -0.0252428388882 0)
(-0.00448492790924 -0.0233519491807 0)
(-0.00442201448482 -0.0214882349611 0)
(-0.00436174065199 -0.0196506048403 0)
(-0.00430441780831 -0.0178377706386 0)
(-0.004250247609 -0.0160482507344 0)
(-0.00419923683748 -0.0142803334218 0)
(-0.00415108694589 -0.0125319844703 0)
(-0.00410496762917 -0.0108005597434 0)
(-0.0040592182337 -0.00908210351068 0)
(-0.00401091229063 -0.00736933060864 0)
(-0.0039557877476 -0.00564823616885 0)
(-0.00388704079588 -0.00386143419359 0)
(-0.00391989066519 -0.00207731183408 0)
(-0.00369730856532 -0.000548593520063 0)
(0.0214344790576 -0.0029811266858 0)
(0.0237516152485 -0.0100906276176 0)
(0.023662525284 -0.0171532080332 1.23562446302e-27)
(0.0233287617449 -0.0242325370038 0)
(0.0228792082881 -0.0311786105431 0)
(0.0223283405543 -0.0379667625783 0)
(0.0216855993602 -0.0445674381976 0)
(0.0209610969029 -0.0509542279041 0)
(0.0201654851639 -0.0571041413093 0)
(0.0193096413957 -0.0629977401924 0)
(0.0184042799592 -0.0686191003687 0)
(0.0174597405188 -0.0739556770315 0)
(0.0164857092433 -0.0789980917439 0)
(0.0154911408024 -0.0837398616593 0)
(0.0144840912727 -0.0881770993491 0)
(0.0134717596397 -0.0923081985377 0)
(0.01246040695 -0.0961335263417 0)
(0.0114554825998 -0.0996551299889 0)
(0.0104615926756 -0.102876469966 0)
(0.00948267231742 -0.105802181365 0)
(0.00852196919187 -0.108437867648 0)
(0.00758223065283 -0.110789924862 0)
(0.0066656787893 -0.112865395306 0)
(0.00577419206991 -0.114671847328 0)
(0.00490925982225 -0.116217277124 0)
(0.00407214866202 -0.117510029642 0)
(0.00326383395439 -0.118558732764 0)
(0.00248514885695 -0.119372244472 0)
(0.00173669645791 -0.119959605264 0)
(0.00101898367511 -0.120329999381 0)
(0.000332320417467 -0.120492714218 0)
(-0.000323054713498 -0.120457115932 0)
(-0.000947079174424 -0.120232594294 0)
(-0.0015397533614 -0.1198285424 0)
(-0.00210124685961 -0.119254324682 0)
(-0.00263178479883 -0.118519243378 0)
(-0.00313174668623 -0.117632503408 0)
(-0.00360156194889 -0.11660318512 0)
(-0.00404179951238 -0.115440211072 0)
(-0.00445306913182 -0.114152322981 0)
(-0.00483610071549 -0.112748052488 0)
(-0.00519165279653 -0.111235702982 0)
(-0.00552058092728 -0.10962332592 0)
(-0.00582375501111 -0.107918708319 0)
(-0.00610211664797 -0.106129355534 0)
(-0.00635660679664 -0.104262485523 0)
(-0.00658821200836 -0.102325017327 0)
(-0.00679790391383 -0.100323572162 0)
(-0.00698667484419 -0.0982644682955 0)
(-0.00715548982623 -0.09615372755 0)
(-0.0073053120838 -0.0939970760782 0)
(-0.00743706841067 -0.0917999555422 0)
(-0.00755166522716 -0.0895675286437 0)
(-0.00764996742591 -0.0873046937325 0)
(-0.00773280585387 -0.0850160934715 0)
(-0.00780096959307 -0.0827061314317 0)
(-0.00785520577601 -0.0803789825433 0)
(-0.00789622446706 -0.078038609326 0)
(-0.00792469156785 -0.0756887726398 0)
(-0.00794124538035 -0.0733330459154 0)
(-0.00794648323293 -0.070974824399 0)
(-0.00794098790312 -0.0686173359181 0)
(-0.0079253084573 -0.0662636473293 0)
(-0.00789999450542 -0.063916670702 0)
(-0.00786557160246 -0.0615791663404 0)
(-0.00782258101378 -0.0592537440579 0)
(-0.00777155010019 -0.0569428624248 0)
(-0.00771303497561 -0.0546488254695 0)
(-0.00764758653461 -0.0523737791921 0)
(-0.00757579391653 -0.0501197042824 0)
(-0.00749824685195 -0.0478884107982 0)
(-0.0074155779204 -0.0456815285642 0)
(-0.00732842259229 -0.0435005013284 0)
(-0.0072374586797 -0.0413465764153 0)
(-0.00714336522795 -0.0392207995979 0)
(-0.00704685825016 -0.0371240054305 0)
(-0.00694864994672 -0.0350568145446 0)
(-0.0068494798 -0.0330196255529 0)
(-0.00675007551267 -0.0310126154374 0)
(-0.00665117868694 -0.0290357340813 0)
(-0.00655350837467 -0.0270887080519 0)
(-0.00645778056197 -0.0251710379339 0)
(-0.00636467380415 -0.0232820047144 0)
(-0.00627484073247 -0.0214206687691 0)
(-0.00618887388159 -0.0195858746061 0)
(-0.00610730489668 -0.0177762440078 0)
(-0.00603056593278 -0.0159901627942 0)
(-0.00595897371118 -0.0142257329027 0)
(-0.00589269726891 -0.0124806796613 0)
(-0.00583178034357 -0.0107521423856 0)
(-0.0057763174552 -0.0090363099126 0)
(-0.0057271019037 -0.0073277436833 0)
(-0.00568773484793 -0.00561921905739 0)
(-0.00566800347863 -0.00389606361934 0)
(-0.0056970622387 -0.00220862470677 0)
(-0.0052393042129 -0.000623432827236 0)
(0.0279409422852 -0.00304053590168 0)
(0.0309645600292 -0.0102879687017 0)
(0.0308440330998 -0.0174827734182 0)
(0.0304015690459 -0.024691150808 0)
(0.0298061122425 -0.0317582501146 0)
(0.0290772636442 -0.0386576903908 0)
(0.0282279098272 -0.0453584846224 0)
(0.0272717431163 -0.0518333088887 0)
(0.0262231484748 -0.058058731065 0)
(0.0250967169505 -0.0640152920655 0)
(0.0239067847198 -0.0696874013643 0)
(0.0226670749219 -0.0750631316027 0)
(0.0213904064819 -0.0801339296444 0)
(0.0200885158201 -0.0848942752818 0)
(0.0187719353005 -0.0893413143919 0)
(0.0174499695178 -0.0934744905538 0)
(0.0161307013263 -0.0972951915729 0)
(0.0148210702644 -0.100806424851 0)
(0.0135269508651 -0.104012527532 0)
(0.0122532791355 -0.106918916782 0)
(0.0110041549225 -0.109531878562 0)
(0.00978297509593 -0.111858394893 0)
(0.00859252757657 -0.113906003675 0)
(0.00743510647931 -0.115682688902 0)
(0.00631258158387 -0.117196793268 0)
(0.00522648522184 -0.118456951581 0)
(0.00417805378075 -0.119472036129 0)
(0.0031682865896 -0.120251114485 0)
(0.00219796385866 -0.120803410976 0)
(0.00126768358995 -0.121138275127 0)
(0.000377863926646 -0.121265145591 0)
(-0.00047123371364 -0.121193534847 0)
(-0.0012795060534 -0.120932964746 0)
(-0.00204699606567 -0.120492961896 0)
(-0.00277389730525 -0.119883018557 0)
(-0.00346054106499 -0.11911255871 0)
(-0.00410739700787 -0.118190904655 0)
(-0.00471506228654 -0.117127246544 0)
(-0.00528425652479 -0.115930610615 0)
(-0.00581581147204 -0.114609831976 0)
(-0.00631065996001 -0.11317352765 0)
(-0.00676982655892 -0.111630074058 0)
(-0.00719441096269 -0.109987586263 0)
(-0.00758558085175 -0.108253901672 0)
(-0.00794455035574 -0.106436565754 0)
(-0.00827257647544 -0.10454282307 0)
(-0.00857093369189 -0.102579609434 0)
(-0.0088409147023 -0.100553550057 0)
(-0.00908380231657 -0.0984709580974 0)
(-0.00930087543183 -0.0963378393204 0)
(-0.00949337912068 -0.0941598965584 0)
(-0.0096625365863 -0.0919425392782 0)
(-0.00980951833023 -0.0896908931842 0)
(-0.00993546052465 -0.0874098135021 0)
(-0.0100414342157 -0.0851038980469 0)
(-0.0101284701992 -0.0827775023528 0)
(-0.0101975291496 -0.0804347546082 0)
(-0.0102495326533 -0.0780795709389 0)
(-0.01028533445 -0.0757156697277 0)
(-0.0103057571507 -0.073346585327 0)
(-0.0103115646533 -0.0709756800743 0)
(-0.0103035030201 -0.0686061545186 0)
(-0.0102822737315 -0.0662410557818 0)
(-0.0102485770657 -0.0638832830293 0)
(-0.0102030854385 -0.0615355914775 0)
(-0.010146487679 -0.0592005926678 0)
(-0.010079461228 -0.0568807535113 0)
(-0.010002714971 -0.0545783924929 0)
(-0.00991696046175 -0.0522956747653 0)
(-0.00982295182768 -0.0500346041547 0)
(-0.00972145504508 -0.0477970161273 0)
(-0.00961328366443 -0.0455845675103 0)
(-0.00949926691366 -0.0433987285687 0)
(-0.00938028049093 -0.0412407721907 0)
(-0.00925721355953 -0.039111766667 0)
(-0.00913099462968 -0.0370125660408 0)
(-0.00900255861944 -0.0349438050499 0)
(-0.00887286782141 -0.0329058916294 0)
(-0.00874287966035 -0.0308990046902 0)
(-0.00861356297628 -0.0289230898446 0)
(-0.00848586744708 -0.0269778602538 0)
(-0.0083607352234 -0.0250627951395 0)
(-0.00823907204483 -0.0231771430172 0)
(-0.00812175424335 -0.021319920788 0)
(-0.00800960203929 -0.0194899157007 0)
(-0.00790338278951 -0.0176856788172 0)
(-0.00780379065984 -0.0159055133866 0)
(-0.00771145807921 -0.0141474436655 0)
(-0.00762697379862 -0.01240916172 0)
(-0.00755097990761 -0.0106879471063 0)
(-0.00748439296548 -0.00898058622594 0)
(-0.00742892220059 -0.00728338049071 0)
(-0.00738803901824 -0.00559279982706 0)
(-0.00736633633648 -0.00390486772604 0)
(-0.00734161420994 -0.00225743192457 0)
(-0.0066308418457 -0.000657273429281 0)
(0.0345918333392 -0.00311582085092 0)
(0.0383328566619 -0.0105406044696 0)
(0.0381762725329 -0.0179070622698 0)
(0.0376170802197 -0.0252817619476 0)
(0.0368653358485 -0.0325041517204 0)
(0.0359462704674 -0.0395457570179 0)
(0.0348767724365 -0.0463738496386 0)
(0.033674680689 -0.0529600055258 0)
(0.0323586204831 -0.0592803058508 0)
(0.0309473548469 -0.0653153591707 0)
(0.0294591991247 -0.0710501087992 0)
(0.0279115504116 -0.0764735269596 0)
(0.0263205405331 -0.0815782217701 0)
(0.0247008110209 -0.0863599967646 0)
(0.0230653974738 -0.0908173963051 0)
(0.0214257070575 -0.0949512636564 0)
(0.0197915688303 -0.098764330986 0)
(0.0181713373272 -0.102260853916 0)
(0.0165720305761 -0.10544629657 0)
(0.0149994861172 -0.108327068806 0)
(0.0134585225764 -0.110910313372 0)
(0.0119530953297 -0.113203738405 0)
(0.010486440976 -0.11521548911 0)
(0.00906120325341 -0.116954052286 0)
(0.00767954151807 -0.118428185917 0)
(0.00634321682969 -0.119646868516 0)
(0.00505366192863 -0.12061926129 0)
(0.00381203023619 -0.121354678504 0)
(0.00261923451927 -0.121862562239 0)
(0.00147596877368 -0.122152458788 0)
(0.000382726681871 -0.122233989402 0)
(-0.000660194465868 -0.122116845904 0)
(-0.0016526752178 -0.121810711137 0)
(-0.00259478458619 -0.121325280142 0)
(-0.003486766782 -0.120670204887 0)
(-0.00432904355766 -0.119855063865 0)
(-0.00512220221908 -0.118889328086 0)
(-0.00586699476316 -0.117782327875 0)
(-0.00656432105201 -0.116543220861 0)
(-0.00721522532886 -0.115180961808 0)
(-0.00782087445451 -0.113704275565 0)
(-0.00838255246223 -0.112121632384 0)
(-0.00890163475574 -0.110441226946 0)
(-0.00937958218771 -0.108670961058 0)
(-0.00981791255063 -0.106818429609 0)
(-0.0102181954041 -0.10489091076 0)
(-0.0105820223512 -0.1028953596 0)
(-0.0109110039405 -0.10083840574 0)
(-0.0112067399796 -0.0987263537779 0)
(-0.0114708194455 -0.0965651879856 0)
(-0.0117047920733 -0.0943605787641 0)
(-0.0119101723379 -0.0921178933989 0)
(-0.0120884133192 -0.0898422076539 0)
(-0.0122409154622 -0.0875383204569 0)
(-0.0123690036344 -0.0852107694187 0)
(-0.0124739411555 -0.0828638475873 0)
(-0.0125569108392 -0.0805016208262 0)
(-0.0126190343576 -0.0781279448096 0)
(-0.0126613572853 -0.0757464815786 0)
(-0.0126848732835 -0.0733607146268 0)
(-0.0126905129865 -0.0709739628787 0)
(-0.0126791715018 -0.0685893916848 0)
(-0.0126517001412 -0.0662100222106 0)
(-0.0126089363215 -0.0638387380777 0)
(-0.0125516955226 -0.0614782873091 0)
(-0.0124808017324 -0.0591312849018 0)
(-0.0123970789938 -0.0568002096228 0)
(-0.0123013793206 -0.0544873999815 0)
(-0.0121945729777 -0.0521950469209 0)
(-0.0120775727113 -0.0499251856474 0)
(-0.0119513209704 -0.0476796858484 0)
(-0.0118168095345 -0.0454602405834 0)
(-0.0116750640815 -0.0432683555722 0)
(-0.0115271587553 -0.0411053381133 0)
(-0.0113741979924 -0.0389722870999 0)
(-0.0112173262827 -0.0368700827142 0)
(-0.0110577082229 -0.0347993793005 0)
(-0.0108965345172 -0.0327605979354 0)
(-0.0107350010584 -0.0307539223925 0)
(-0.010574311276 -0.0287792947489 0)
(-0.0104156553821 -0.0268364147075 0)
(-0.010260210623 -0.0249247391128 0)
(-0.0101091211152 -0.0230434831161 0)
(-0.00996349679921 -0.0211916213431 0)
(-0.00982439651357 -0.019367889662 0)
(-0.00969282881229 -0.0175707833756 0)
(-0.00956974507761 -0.0157985534529 0)
(-0.00945605709855 -0.0140491969856 0)
(-0.009352668375 -0.0123204456963 0)
(-0.00926056046193 -0.0106097710851 0)
(-0.0091809347341 -0.00891442543041 0)
(-0.00911546435687 -0.00723164876707 0)
(-0.0090664800225 -0.00555926155477 0)
(-0.00903452474728 -0.0038948871782 0)
(-0.00897669848866 -0.00226878084879 0)
(-0.00806828004079 -0.000665694984852 0)
(0.0414241481602 -0.00320907787639 0)
(0.0458984168811 -0.0108542526433 0)
(0.0456993264013 -0.0184344086808 1.22603149308e-27)
(0.0450125355721 -0.0260155020233 0)
(0.0440906893176 -0.033429846507 0)
(0.042965321679 -0.0406463300668 0)
(0.0416580392628 -0.0476301166436 0)
(0.0401915520602 -0.0543515072122 0)
(0.0385893953853 -0.0607861093967 0)
(0.0368750881299 -0.066914771956 0)
(0.0350713913092 -0.0727232702092 0)
(0.033199725625 -0.0782018603359 0)
(0.0312797606986 -0.0833447446631 0)
(0.0293291652296 -0.0881494992269 0)
(0.0273635018763 -0.0926165043003 0)
(0.0253962375219 -0.0967484099627 0)
(0.0234388446929 -0.100549656636 0)
(0.0215009620623 -0.104026062767 0)
(0.0195905942843 -0.107184482429 0)
(0.0177143252104 -0.110032532208 0)
(0.0158775339669 -0.112578380214 0)
(0.0140845956066 -0.114830590548 0)
(0.0123390652085 -0.11679801278 0)
(0.0106438328487 -0.118489708115 0)
(0.00900125584327 -0.11991490182 0)
(0.00741325942823 -0.121082955336 0)
(0.00588141703253 -0.122003348735 0)
(0.00440700322842 -0.122685669456 0)
(0.00299103412068 -0.123139601341 0)
(0.00163428729041 -0.123374912648 0)
(0.000337318246233 -0.12340143383 0)
(-0.000899543486128 -0.123229067186 0)
(-0.00207616864992 -0.122867683475 0)
(-0.00319265269546 -0.122327181097 0)
(-0.00424929865668 -0.121617404114 0)
(-0.00524662127895 -0.120748119583 0)
(-0.00618533632031 -0.119728980005 0)
(-0.00706635701823 -0.118569488083 0)
(-0.00789077780207 -0.117278962267 0)
(-0.00865986576165 -0.115866504694 0)
(-0.0093750389317 -0.114340972091 0)
(-0.010037854129 -0.112710949704 0)
(-0.0106499813786 -0.11098472929 0)
(-0.0112131896458 -0.10917029064 0)
(-0.0117293193593 -0.107275287964 0)
(-0.012200267944 -0.105307039633 0)
(-0.0126279620639 -0.103272522531 0)
(-0.0130143444631 -0.101178369836 0)
(-0.0133613475066 -0.0990308733712 0)
(-0.0136708826929 -0.0968359887922 0)
(-0.0139448167186 -0.0945993444241 0)
(-0.0141849648545 -0.0923262531595 0)
(-0.0143930708114 -0.0900217264945 0)
(-0.0145708050491 -0.0876904915306 0)
(-0.0147197495349 -0.0853370090043 0)
(-0.014841401628 -0.0829654923792 0)
(-0.0149371645469 -0.0805799282666 0)
(-0.0150083573257 -0.0781840953774 0)
(-0.0150562109071 -0.0757815843093 0)
(-0.0150818835793 -0.0733758142831 0)
(-0.0150864624202 -0.070970049202 0)
(-0.0150709832558 -0.0685674110893 0)
(-0.01503643478 -0.0661708879385 0)
(-0.0149837816197 -0.063783343783 0)
(-0.0149139699271 -0.0614075200649 0)
(-0.0148279497634 -0.0590460367045 0)
(-0.0147266808638 -0.0567013894 0)
(-0.0146111519511 -0.0543759426065 0)
(-0.0144823837445 -0.0520719219217 0)
(-0.0143414447009 -0.0497914035819 0)
(-0.0141894492697 -0.0475363021956 0)
(-0.0140275684488 -0.0453083578041 0)
(-0.0138570239101 -0.0431091227998 0)
(-0.0136790927527 -0.0409399488573 0)
(-0.0134950975281 -0.0388019744748 0)
(-0.0133064064871 -0.0366961144313 0)
(-0.0131144198774 -0.0346230493568 0)
(-0.0129205665361 -0.0325832183668 0)
(-0.0127262884779 -0.0305768129858 0)
(-0.0125330347923 -0.0286037735857 0)
(-0.012342245399 -0.0266637868151 0)
(-0.0121553437256 -0.0247562859635 0)
(-0.0119737214146 -0.0228804522165 0)
(-0.0117987311789 -0.0210352170442 0)
(-0.0116316752365 -0.0192192663683 0)
(-0.0114738026487 -0.0174310438898 0)
(-0.011326307291 -0.0156687561662 0)
(-0.0111903402946 -0.0139303793086 0)
(-0.0110670340844 -0.0122136724437 0)
(-0.0109575527977 -0.0105162146761 0)
(-0.010863157764 -0.0088355002636 0)
(-0.0107852637404 -0.00716909879333 0)
(-0.0107252852089 -0.00551499776393 0)
(-0.0106815064594 -0.00387037234775 0)
(-0.010599454364 -0.00226143900184 0)
(-0.00951157563257 -0.000665471761967 0)
(0.0484789460959 -0.0033224319072 0)
(0.0537063725389 -0.011235554002 0)
(0.0534564021501 -0.0190753253433 -1.22537833604e-27)
(0.0526279158529 -0.0269064276861 0)
(0.0515181347268 -0.0345522661359 0)
(0.0501658419959 -0.0419784481444 0)
(0.0485983217596 -0.0491476108672 0)
(0.0468441030753 -0.056028637579 0)
(0.0449324986595 -0.0625967572485 0)
(0.0428925213837 -0.0688333503213 0)
(0.0407519573878 -0.0747254582315 0)
(0.0385366641908 -0.080265144537 0)
(0.0362701020364 -0.0854487693109 0)
(0.0339730786481 -0.090276243125 0)
(0.0316636782539 -0.0947503120959 0)
(0.0293573336588 -0.0988759095932 0)
(0.02706700417 -0.102659595999 0)
(0.024803419138 -0.106109094724 0)
(0.0225753584585 -0.109232924698 0)
(0.0203899410075 -0.112040121354 0)
(0.0182529053517 -0.1145400362 0)
(0.0161688657346 -0.116742201431 0)
(0.0141415385123 -0.118656247345 0)
(0.0121739306778 -0.120291858103 0)
(0.01026849366 -0.121658756815 0)
(0.00842723892746 -0.122766705856 0)
(0.0066518235208 -0.123625517029 0)
(0.0049436054853 -0.124245062008 0)
(0.00330367950675 -0.124635279837 0)
(0.0017328933446 -0.124806176832 0)
(0.000231858733779 -0.124767814622 0)
(-0.00119906703418 -0.12453033459 0)
(-0.00255974722813 -0.12410382104 0)
(-0.00385030388199 -0.123498410489 0)
(-0.0050711030851 -0.122724173417 0)
(-0.00622275794894 -0.121791101144 0)
(-0.00730612154157 -0.120709063062 0)
(-0.00832227919435 -0.119487768268 0)
(-0.00927253386503 -0.118136727979 0)
(-0.0101583913009 -0.116665220933 0)
(-0.0109815388371 -0.115082261563 0)
(-0.0117438254379 -0.113396572104 0)
(-0.0124472360621 -0.111616559399 0)
(-0.0130938689131 -0.109750295677 0)
(-0.0136859078848 -0.107805504268 0)
(-0.0142255993638 -0.105789549548 0)
(-0.0147152248005 -0.103709431959 0)
(-0.0151570788143 -0.101571786814 0)
(-0.015553443613 -0.099382887442 0)
(-0.0159065701275 -0.0971486524693 0)
(-0.0162186555803 -0.0948746560456 0)
(-0.0164918290175 -0.0925661425908 0)
(-0.0167281336618 -0.0902280428717 0)
(-0.0169295179672 -0.0878649942096 0)
(-0.0170978242008 -0.0854813608889 0)
(-0.0172347861612 -0.0830812575611 0)
(-0.017342024752 -0.0806685714776 0)
(-0.0174210530636 -0.0782469861334 0)
(-0.0174732788896 -0.0758200029539 0)
(-0.0175000171815 -0.0733909619507 0)
(-0.0175024989989 -0.0709630589463 0)
(-0.0174818886832 -0.0685393608493 0)
(-0.0174392975618 -0.0661228177882 0)
(-0.0173758042957 -0.0637162702452 0)
(-0.0172924702387 -0.0613224526459 0)
(-0.0171903599422 -0.0589439932121 0)
(-0.0170705551318 -0.0565834091265 0)
(-0.0169341726432 -0.0542431004434 0)
(-0.0167823741207 -0.0519253373046 0)
(-0.0166163792101 -0.0496322488415 0)
(-0.0164374698344 -0.0473658075703 0)
(-0.0162469964725 -0.0451278131938 0)
(-0.016046377141 -0.0429198780535 0)
(-0.0158370970413 -0.0407434102116 0)
(-0.0156207015578 -0.0385995993579 0)
(-0.0153987911441 -0.0364894035436 0)
(-0.0151730097096 -0.0344135379109 0)
(-0.0149450353746 -0.0323724651185 0)
(-0.0147165665514 -0.0303663892664 0)
(-0.0144893102018 -0.0283952502232 0)
(-0.0142649665603 -0.0264587220752 0)
(-0.0140452175003 -0.0245562133555 0)
(-0.0138317114504 -0.0226868686301 0)
(-0.0136260532286 -0.0208495732232 0)
(-0.013429792453 -0.0190429591055 0)
(-0.0132444178946 -0.0172654131424 0)
(-0.0130713539379 -0.0155150887644 0)
(-0.0129119645759 -0.0137899207801 0)
(-0.0127675650396 -0.0120876531912 0)
(-0.012639439334 -0.0104058834514 0)
(-0.0125288544148 -0.00874213508993 0)
(-0.0124370379996 -0.00709398116656 0)