/*--------------------------------*- C++ -*----------------------------------*\
| =========                 |                                                 |
| \\      /  F ield         | OpenFOAM: The Open Source CFD Toolbox           |
|  \\    /   O peration     | Version:  v1906                                 |
|   \\  /    A nd           | Web:      www.OpenFOAM.com                      |
|    \\/     M anipulation  |                                                 |
\*---------------------------------------------------------------------------*/
FoamFile
{
    version     2.0;
    format      ascii;
    class       volScalarField;
    location    "601";
    object      p;
}
// * * * * * * * * * * * * * * * * * * * * * * * * * * * * * * * * * * * * * //

dimensions      [0 2 -2 0 0 0 0];


internalField   nonuniform List<scalar> 
9216
(
273.679100099
273.758865203
273.923915603
274.175656168
274.512666813
274.93336065
275.435769873
276.017584455
276.676192486
277.408718607
278.212063288
279.08294032
280.01791432
281.013434861
282.065869596
283.171532944
284.326713414
285.5276961
286.770784029
288.052314761
289.368676428
290.716319342
292.091767776
293.491627671
294.912595253
296.351461849
297.805120254
299.270567451
300.744909403
302.225362221
303.709255902
305.194033754
306.67725529
308.156595623
309.629847145
311.094917199
312.549829439
313.992720813
315.421842249
316.83555481
318.232329834
319.610744382
320.969480933
322.307322238
323.623150685
324.915942696
326.184767872
327.428783077
328.647231474
329.839436444
331.004800606
332.1427997
333.252981681
334.33496067
335.388416181
336.413087224
337.408771696
338.375320689
339.312638042
340.220674883
341.09942931
341.948941166
342.769291795
343.560599034
344.323016975
345.056731142
345.761958197
346.438941261
347.087949514
347.709273627
348.303225215
348.870132375
349.410338965
349.924200254
350.412082027
350.874356371
351.311400628
351.723593353
352.111313146
352.474934835
352.814828227
353.131354577
353.424865308
353.695698824
353.944179271
354.170613769
354.37529132
354.558480636
354.720429516
354.861363952
354.981489621
355.080995932
355.16006964
355.218943756
355.258471372
355.274740215
273.599378456
273.679505885
273.844900238
274.097642822
274.436089279
274.858577888
275.363096184
275.947296844
276.608531979
277.343890858
278.150239036
279.024256789
279.962476802
280.961319198
282.017124526
283.126183099
284.284761858
285.489127317
286.735566211
288.020402463
289.340012381
290.690836643
292.069391171
293.472275291
294.896179425
296.337890472
297.794297242
299.262393862
300.739283612
302.222180865
303.708413677
305.195424879
306.680773751
308.162135443
309.637302095
311.104181882
312.5607991
314.005292272
315.435913599
316.851026332
318.249103613
319.628725207
320.988575828
322.327441333
323.644206666
324.937851642
326.207448619
327.452158024
328.671225873
329.863979167
331.029823373
332.168237815
333.278773213
334.36104716
335.414741798
336.439599452
337.435420478
338.402059105
339.339421465
340.247461648
341.126179901
341.975618881
342.795861974
343.587029724
344.349278207
345.082795587
345.7878005
346.46453868
347.113281303
347.734321654
348.327973391
348.894567233
349.43444913
349.947976973
350.435518676
350.897448926
351.334147201
351.745994595
352.133371813
352.496656117
352.83621934
353.152425016
353.44562646
353.716164137
353.964363872
354.190534519
354.394966362
354.577929149
354.739670738
354.880415431
355.000362401
355.099682378
355.178509612
355.236911344
355.274769216
355.291012297
273.433568052
273.514843794
273.68177095
273.936818476
274.278310093
274.704539231
275.213432176
275.80257377
276.469244633
277.210461326
278.023017302
278.903523196
279.848445732
280.854143948
281.916902672
283.032962393
284.198545974
285.409881643
286.663223077
287.954866149
289.281163365
290.638535573
292.023482038
293.432588405
294.862533654
296.310095417
297.772154776
299.245699754
300.727828605
302.215751978
303.706795083
305.198398862
306.688121264
308.173637331
309.652739675
311.123337863
312.583458043
314.031241508
315.464943611
316.882931601
318.283682895
319.665782289
321.027919683
322.36888678
323.687574387
324.982968732
326.254148479
327.500280793
328.720618201
329.914494545
331.081321801
332.220586045
333.331844333
334.414720774
335.468903555
336.494141187
337.490239716
338.457059192
339.394511075
340.302554927
341.181196005
342.030482146
342.850501512
343.641379619
344.403277179
345.136387221
345.840932963
346.517164983
347.165359064
347.785813367
348.378846224
348.944793285
349.484005247
349.996844973
350.483685163
350.944905471
351.380890138
351.792025146
352.178695857
352.54128425
352.880166613
353.19571092
353.488274631
353.758202257
354.00582332
354.23145016
354.435376076
354.617873379
354.779191654
354.919555805
355.039163802
355.138183215
355.216745294
355.274929666
355.312681826
355.330491627
273.178640882
273.26120364
273.430528297
273.689180357
274.035422328
274.467471937
274.983161605
275.579971255
276.255070216
277.005361468
277.827525958
278.718065792
279.673345297
280.689628918
281.763115621
282.889969314
284.066345495
285.288413997
286.552378391
287.854492078
289.191071777
290.558508479
291.953276583
293.371941206
294.811164328
296.267709671
297.73844688
299.220354772
300.710524193
302.206160119
303.704583518
305.203232463
306.69966319
308.191550481
309.676687777
311.152986692
312.618476399
314.071302358
315.509724946
316.932117464
318.336964095
319.722857271
321.088495076
322.432678089
323.75430635
325.052375832
326.325975107
327.574281578
328.79655799
329.992148568
331.160475494
332.301035072
333.413394288
334.497187099
335.552111157
336.577924298
337.574441474
338.541531479
339.479114111
340.387157129
341.265673625
342.114719187
342.934389432
343.72481732
344.486170795
345.218650172
345.922485826
346.597935599
347.245282468
347.864831931
348.456909617
349.021858622
349.560037047
350.071815288
350.557573509
351.017698903
351.452583139
351.862619633
352.248201007
352.609716424
352.947549115
353.262073832
353.553654498
353.822641826
354.069371146
354.294160225
354.497307285
354.679089021
354.839758734
354.979544348
355.098646281
355.197234912
355.275447524
355.33338321
355.371028502
355.389152997
272.833515885
272.917727541
273.090341728
273.353947715
273.706714595
274.146749307
274.67175221
275.279056637
275.965676951
276.728358433
277.56362643
278.467833578
279.4372039
280.46787288
281.555923104
282.697415235
283.888414512
285.125012949
286.403347757
287.719616358
289.070088583
290.451116446
291.859142041
293.290703844
294.742441864
296.2111018
297.693538515
299.186718866
300.687724104
302.193751783
303.702117352
305.210255148
306.715719323
308.216184345
309.70944487
311.193415292
312.66612899
314.125737071
315.570506839
316.9988198
318.409169427
319.800158513
321.17049635
322.518995556
323.844568807
325.14622528
326.423067083
327.674285477
328.899157152
330.097040364
331.267371199
332.409659758
333.52348653
334.608498725
335.664406841
336.690981226
337.68804889
338.655490331
339.593236607
340.501266419
341.379603421
342.228313524
343.047502388
343.837312882
344.597922684
345.329541821
346.032410307
346.706795686
347.352990643
347.971310498
348.562090744
349.12568447
349.662459811
350.172797288
350.657087195
351.115726884
351.549118111
351.957664319
352.341767998
352.701828012
353.038237034
353.351378981
353.641626578
353.909338953
354.15485938
354.378513079
354.580605154
354.761418603
354.92121242
355.060219741
355.178646018
355.276667343
355.354429134
355.412044681
355.449518611
355.46767723
272.396410356
272.482713672
272.659563673
272.929556665
273.290732672
273.741047734
274.2780256
274.898805221
275.600196741
276.378738783
277.230754016
278.1524016
279.139725189
280.188695643
281.295248103
282.455313412
283.664844209
284.919836169
286.216345002
287.55049986
288.918513808
290.31669193
291.741437639
293.189257595
294.65676564
296.14068598
297.637855853
299.145227781
300.659871507
302.178975623
303.699848919
305.219921235
306.736744301
308.247992301
309.751461539
311.245070002
312.726856502
314.194979375
315.64771482
317.083454824
318.500704765
319.898080655
321.274306133
322.628209163
323.958718565
325.264860327
326.545753834
327.800607961
329.028717158
330.229457483
331.402282696
332.546720363
333.66236809
334.748889817
335.806012275
336.833521557
337.831259861
338.799122358
339.73705424
340.645047883
341.523140161
342.371409857
343.189975182
343.978991343
344.738648189
345.469167849
346.170802407
346.843831526
347.488560075
348.105315681
348.694446258
349.256317454
349.791310067
350.299817386
350.782242513
351.238995633
351.670491281
352.077145584
352.459373542
352.817586308
353.152188532
353.463575753
353.752131873
354.018226714
354.262213678
354.484427509
354.685182183
354.8647689
355.023454208
355.161478245
355.279053151
355.37636185
355.453557327
355.510761716
355.547987305
355.56606517
271.865047061
271.953941212
272.136055614
272.413986844
272.785605991
273.248671844
273.80047935
274.437917481
275.157535595
275.955610338
276.828209415
277.771250588
278.780554422
279.851890014
280.981013516
282.163699714
283.395767257
284.67309832
285.99165356
287.347483267
288.736735519
290.155662083
291.600622702
293.068088255
294.554643203
296.05698759
297.571938781
299.096433044
300.627527012
302.162398999
303.698350115
305.232805044
306.763312835
308.287547468
309.803307383
311.308515046
312.801216003
314.279577505
315.74188672
317.18654853
318.612082962
320.017122273
321.400407732
322.760786135
324.097206113
325.408714251
326.694451094
327.953647054
329.185618291
330.389762582
331.56555523
332.712545048
333.830350444
334.918655634
335.977207008
337.005809661
338.004324103
338.972663138
339.910788925
340.818710204
341.696479664
342.544191442
343.361978728
344.150011436
344.90849394
345.637662811
346.337784564
347.009153368
347.652088713
348.266933013
348.854049145
349.413817905
349.946635401
350.452910368
350.933061441
351.387514368
351.816699204
352.22104749
352.600989441
352.95695115
353.28935185
353.598601223
353.88509679
354.149221401
354.391340819
354.61180143
354.810928082
354.989022051
355.146359178
355.283188158
355.399729063
355.496172253
355.572677718
355.629373868
355.666277095
355.68421181
271.236603388
271.328646049
271.517160571
271.804736349
272.189028174
272.667542154
273.23728206
273.894821054
274.636381682
275.457915123
276.355175314
277.323785932
278.359298685
279.457242256
280.613162052
281.822651367
283.08137499
284.385086427
285.729639958
287.110998695
288.5252397
289.968557045
291.437263571
292.927791891
294.436695069
295.960647243
297.496444342
299.041004951
300.591371305
302.144710345
303.698314541
305.249602875
306.796121546
308.335544389
309.865672535
311.384433886
312.889882115
314.38019519
315.853673453
317.308737257
318.743924199
320.157885996
321.549385032
322.917290627
324.260575094
325.578309609
326.869659957
328.133882208
329.370318357
330.578391975
331.757603929
332.90752818
334.027807725
335.118150682
336.178326569
337.208162773
338.207541232
339.176395321
340.114706952
341.022503854
341.899857039
342.746878399
343.563718431
344.350564033
345.107636362
345.83518869
346.533504257
347.202894069
347.843694636
348.45626562
349.040987398
349.598258521
350.128493083
350.632117996
351.109570202
351.561293812
351.987737222
352.389350191
352.766580932
353.119873222
353.449663557
353.756378363
354.040431296
354.302220637
354.542126804
354.760509983
354.957707914
355.134033821
355.289774523
355.425188725
355.540505554
355.635923463
355.711609426
355.767697304
355.804207231
355.821955115
270.507649019
270.603468199
270.799655539
271.098781291
271.498225553
271.995173593
272.586261952
273.267668728
274.035211421
274.884441981
275.810733795
276.809358208
277.875548997
279.004554494
280.191677921
281.432307184
282.721935706
284.056176008
285.430767701
286.841581418
288.284619991
289.756017939
291.25204012
292.769080166
294.303659113
295.852424488
297.412149947
298.979735439
300.552207799
302.126721634
303.700559979
305.271135514
306.83599135
308.392801352
309.939369907
311.47363138
312.993649054
314.497613552
315.983840759
317.450769264
318.896957369
320.3210797
321.721923476
323.098384492
324.449462865
325.774258602
327.071967057
328.341874305
329.583352512
330.795855328
331.978913368
333.132129802
334.255176116
335.347788055
336.409761788
337.440950314
338.441260108
339.410648024
340.349118441
341.256720626
342.133546314
342.979727436
343.795434001
344.580872048
345.336281657
346.061934959
346.758134119
347.425209247
348.063516219
348.673434387
349.255364166
349.809724489
350.33695015
350.837489029
351.31179922
351.760346088
352.183599273
352.582029657
352.956106339
353.306293618
353.633048032
353.93681545
354.218028261
354.477102667
354.714436096
354.930404753
355.125361332
355.299632893
355.453518918
355.587289578
355.701184222
355.795410194
355.870141891
355.925518866
355.961565618
355.979089346
269.674070277
269.774382274
269.979689687
270.292524521
270.709918419
271.228650207
271.844894834
272.554338484
273.352299759
274.233844836
275.193890236
276.227290446
277.328908994
278.493673182
279.716613867
280.992892333
282.317816682
283.686850113
285.09561336
286.539883178
288.01558851
289.518805555
291.045752689
292.592785893
294.156395094
295.733201604
297.319956686
298.913541119
300.510965538
302.109371312
303.706031196
305.298350909
306.88387022
308.46026314
310.025337894
311.577036392
313.113433121
314.632733447
316.133271357
317.613506677
319.072021798
320.507517984
321.918811309
323.304828283
324.664601251
325.997263598
327.302044854
328.578265728
329.825333151
331.042735369
332.230037139
333.386875079
334.512953211
335.608038736
336.671958071
337.704593171
338.70587815
339.675796202
340.614376804
341.521693199
342.397860108
343.243031644
344.057399372
344.841190473
345.594665944
346.318118801
347.011872225
347.67627761
348.311712492
348.918578324
349.497298094
350.048313778
350.57208364
351.069079384
351.5397832
351.984684694
352.404277771
352.799057461
353.16951675
353.516143424
353.839416955
354.139805465
354.417762781
354.673725604
354.908110815
355.121312928
355.313701711
355.485619989
355.63738164
355.7692698
355.881535278
355.974395311
356.048032463
356.102592549
356.138105462
356.155369392
268.730974951
268.836608572
269.052706183
269.381732107
269.820274624
270.364596766
271.010293064
271.752437923
272.585737321
273.5046694
274.50360635
275.576914572
276.719032221
277.924525288
279.188124817
280.504748546
281.869510463
283.277721605
284.724884987
286.206687075
287.718987665
289.257809592
290.819329262
292.399868653
293.995889161
295.60398737
297.220892665
298.843466398
300.468702235
302.093727292
303.715803039
305.332327389
306.940836388
308.539004212
310.124643488
311.695704804
313.250275559
314.786578127
316.302967389
317.797927674
319.270069157
320.718123802
322.140940895
323.537482269
324.906817273
326.248117565
327.560651802
328.843780276
330.096949583
331.319687356
332.511597138
333.672353443
334.801697047
335.899430564
336.965414332
337.999562644
339.001840334
339.972259727
340.91087793
341.817794453
342.693149102
343.537120117
344.349922473
345.131806293
345.883055303
346.603985267
347.294942333
347.95630126
348.588463465
349.191854884
349.766923622
350.314137391
350.833980761
351.326952222
351.793561103
352.234324374
352.64976336
353.040400405
353.406755534
353.749343116
354.068668594
354.36522528
354.639491263
354.891926437
355.122969675
355.333036174
355.522514971
355.691766658
355.841121298
355.970876557
356.081296055
356.17260801
356.24500407
356.29863718
356.333543539
356.350511709
267.672570903
267.784499592
268.013343421
268.361454693
268.824854211
269.399147452
270.079196932
270.859315351
271.733457157
272.695391131
273.738845006
274.857619195
276.045669745
277.297163347
278.606508801
279.968369993
281.377665369
282.829558351
284.319442376
285.842923444
287.395802309
288.974057799
290.573832294
292.191419939
293.823257873
295.465920432
297.11611607
298.770686483
300.426607376
302.080990231
303.731083858
305.374277217
307.008101987
308.63023237
310.238485901
311.830823025
313.405345889
314.960296352
316.494053252
318.005129017
319.492165666
320.953930311
322.389310228
323.79730759
325.177033947
326.527704536
327.848632484
329.139222999
330.39896759
331.627438394
332.824282672
333.98921753
335.122024919
336.222546969
337.290681705
338.326379168
339.329637969
340.300502274
341.239059212
342.145436668
343.019801416
343.862357532
344.673344999
345.453038442
346.201745897
346.91980753
347.607594245
348.265506115
348.893970583
349.493440417
350.06439139
350.607319702
351.122739152
351.611178085
352.073176167
352.509281
352.920044653
353.306020124
353.66775779
354.005801878
354.320686991
354.612934723
354.883050388
355.131519889
355.358806752
355.56534933
355.751558215
355.917813843
356.064464328
356.191823511
356.300169229
356.389741915
356.460743322
356.513334325
356.547558463
356.564193796
266.492010162
266.611394903
266.855310321
267.225930612
267.718544248
268.327912863
269.047971327
269.872081418
270.793275444
271.804468732
272.898630644
274.068911918
275.308730454
276.611821025
277.972256092
279.38444524
280.843120156
282.343310992
283.880318614
285.449686076
287.047171572
288.668724357
290.310464546
291.968667269
293.639751291
295.320271931
297.006917731
298.696510143
300.386005322
302.072496994
303.753219254
305.425550597
307.087017218
308.735292979
310.368200746
311.983712038
313.579945754
315.155165963
316.707778859
318.23632895
319.739494596
321.216082976
322.665024611
324.085367523
325.476271147
326.837000073
328.166917709
329.465479939
330.732228845
331.966786565
333.168849344
334.338181868
335.474611915
336.578025413
337.648361946
338.68561075
339.689807225
340.661029982
341.599398385
342.505070576
343.378241903
344.219143681
345.028042191
345.805237811
346.551064174
347.265887256
347.950104298
348.604142485
349.228457338
349.823530769
350.389868796
350.927998926
351.438467223
351.921835113
352.378675956
352.809571458
353.215107951
353.595872627
353.952449737
354.285416827
354.59534104
354.882775514
355.148255912
355.392297114
355.61539008
355.817998914
356.000558145
356.163470225
356.307103261
356.431788989
356.537820969
356.625453095
356.6948983
356.74632637
356.779789016
356.796052728
265.181187049
265.309434497
265.571228475
265.968466794
266.495483251
267.145947657
267.912612155
268.787647035
269.762952231
270.830418961
271.982130249
273.210500069
274.508356827
275.868980884
277.286107403
278.75390541
280.266942509
281.820142624
283.408742121
285.028247866
286.674399416
288.343136596
290.030573127
291.732976575
293.446754582
295.168446966
296.894722909
298.622382077
300.348358381
302.069724191
303.783696121
305.4876402
307.179075133
308.855673847
310.515264869
312.155832088
313.775513353
315.372597993
316.945523353
318.492870484
320.013359098
321.505841914
322.969298518
324.402828861
325.805646504
327.177071717
328.516524518
329.823517732
331.097650146
332.338599824
333.546117661
334.720021245
335.860189119
336.966555493
338.039105506
339.077871071
340.082927343
341.054389834
341.992412138
342.89718424
343.768931321
344.607912961
345.414422631
346.18878732
346.931367196
347.642555138
348.322776049
348.97248585
349.59217008
350.182342076
350.743540714
351.276327723
351.781284624
352.259009327
352.710112471
353.135213557
353.534936949
353.90990781
354.260748021
354.588072139
354.892483437
355.174570058
355.434901322
355.674024211
355.892460051
356.090701418
356.269209274
356.42841035
356.56869478
356.690413981
356.793878783
356.879357904
356.947076572
356.997214313
357.029832016
357.045683393
263.730474202
263.869316797
264.152431324
264.581292625
265.148975239
265.847722946
266.668769426
267.602785914
268.64028077
269.771920512
270.988761266
272.282394551
273.645019234
275.069456022
276.549121649
278.07797828
279.650470548
281.261459294
282.906157889
284.580074603
286.278962688
287.998778912
289.735650716
291.485852022
293.24578746
295.011984458
296.781092042
298.5498847
300.315269368
302.074292177
303.82414783
305.562186516
307.285917202
308.993010878
310.681301951
312.348788074
313.993628529
315.614141349
317.208799333
318.776225103
320.315185362
321.82458449
323.303457625
324.750963384
326.166376342
327.549079395
328.898556098
330.214383053
331.496222419
332.743814618
333.95697131
335.135568719
336.279541411
337.388876611
338.463609163
339.503817178
340.509618464
341.48116771
342.418654453
343.322301738
344.1923654
345.029133828
345.832928072
346.604102114
347.34304314
348.05017164
348.725941205
349.370837892
349.985379083
350.570111795
351.12561043
351.652473996
352.151322847
352.622795028
353.067542304
353.486225951
353.879512415
354.248068897
354.592558939
354.913638058
355.211949493
355.488120076
355.742756296
355.976440545
356.189727609
356.383141394
356.557171911
356.712272538
356.848857543
356.967299889
357.067929306
357.151030674
357.21684266
357.265555545
357.297240192
357.312636204
262.128373272
262.279981682
262.588707096
263.055381009
263.671394852
264.427110531
265.311797744
266.314233978
267.423217372
268.627957308
269.91833449
271.285042375
272.719632025
274.214486903
275.762753227
277.358247312
278.99535585
280.668939573
282.374246197
284.106835215
285.862515082
287.637292419
289.427332712
291.228932202
293.03850073
294.852554933
296.667720297
298.480739654
300.288485206
302.087969646
303.876359306
305.650983881
307.409339782
309.149094666
310.868088999
312.564335787
314.236018607
315.881488167
317.499257636
319.087996933
320.646526137
322.173808179
323.668941014
325.131149421
326.559776613
327.954275763
329.314201561
330.639201857
331.929009465
333.183434173
334.402355056
335.585713177
336.733504785
337.845775155
338.922613158
339.964146688
340.970539007
341.941986044
342.87871463
343.780981621
344.649073771
345.483308212
346.284033341
347.051629899
347.786512016
348.489128027
349.159960859
349.799527856
350.408379933
350.987100031
351.536300844
352.056621892
352.548726002
353.013295306
353.451026872
353.86262808
354.248811854
354.610291833
354.947777565
355.261969781
355.553555793
355.823205064
356.071564981
356.299256865
356.506872226
356.694969309
356.864069917
357.014656541
357.147169786
357.262006086
357.359515716
357.440001169
357.503715715
357.55086122
357.581519546
357.596414735
260.361046282
260.528190509
260.867967491
261.380230256
262.05408768
262.877390999
263.836850713
264.918843486
266.110068395
267.398014898
268.771241895
270.219494091
271.733694351
273.305853892
274.928937629
276.596713537
278.303605489
280.044560692
281.814936381
283.610406267
285.426885017
287.260468576
289.107388742
290.96398146
292.826668984
294.691955684
296.55643569
298.416808867
300.26990044
302.112678801
303.942273515
305.755987781
307.551301787
309.325878241
311.077563914
312.804389102
314.504565081
316.176479876
317.818692717
319.429927387
321.009064609
322.555133678
324.067303527
325.544873476
326.987263826
328.394006462
329.76473555
331.09917838
332.397146385
333.658526391
334.883272166
336.071396375
337.222963097
338.338081054
339.416897707
340.45959438
341.466382497
342.437500996
343.373214918
344.273815088
345.139618744
345.970970924
346.768246342
347.531851496
348.262226692
348.959847753
349.625227138
350.258914329
350.861495327
351.433591247
351.975855989
352.488973079
352.97365179
353.430622679
353.860632717
354.264440132
354.642809132
354.996504585
355.326286764
355.632906194
355.917098685
356.179580545
356.421044053
356.642153183
356.843539631
357.025799148
357.189488201
357.335120971
357.463166669
357.574047193
357.668135086
357.745751845
357.807166523
357.852593613
357.882126762
357.896472874
258.411676698
258.5979622
258.975817812
259.543600627
260.287275178
261.191305731
262.239044698
263.41381786
264.699757334
266.082347766
267.548701354
269.087612569
270.689457788
272.346004403
274.050182503
275.795856557
277.577619289
279.390617701
281.230412606
283.092868056
284.974065082
286.870234633
288.777706643
290.692874791
292.61217842
294.532102815
296.449195808
298.360095615
300.261561347
302.150501898
304.023999771
305.879323791
307.713933906
309.52548622
311.311834315
313.071028277
314.801311248
316.501114083
318.1690487
319.803900322
321.404618663
322.970308261
324.500218257
325.993731885
327.450355915
328.869710242
330.251517661
331.595593867
332.901837653
334.17022131
335.400781303
336.593609357
337.748844116
338.866663613
339.947278764
340.990928067
341.997873697
342.968399034
343.902807682
344.801423846
345.664593926
346.492689048
347.28610821
348.045281689
348.770674327
349.462788341
350.122165376
350.749387553
351.345077372
351.909896426
352.444542953
352.949748334
353.426272704
353.874899892
354.296431879
354.691683006
355.061474054
355.406626366
355.727956062
356.026268438
356.302352559
356.556976112
356.790880525
357.0047764
357.199339276
357.375205748
357.532969955
357.673180438
357.796337374
357.902890155
357.993235309
358.067714841
358.126614764
358.170163004
358.198466054
358.212211976
256.259582274
256.469805242
256.894996014
257.531201717
258.359983079
259.361186026
260.513730864
261.797064867
263.192203471
264.682340298
266.253071887
267.892328868
269.59012055
271.338190773
273.129658422
274.958688583
276.820216696
278.709731004
280.623107862
282.556489203
284.506190318
286.468628379
288.440266577
290.417574375
292.397008481
294.375019679
296.34808333
298.312745894
300.265672154
302.203690844
304.123824275
306.023298594
307.899549681
309.750225635
311.573187834
313.366509504
315.128470901
316.857552321
318.552426118
320.211947742
321.835145502
323.421209358
324.969479122
326.479432463
327.950673031
329.382918942
330.775991631
332.129805002
333.444354787
334.719708037
335.955992799
337.153388138
338.312114749
339.432426448
340.514602854
341.55894355
342.565763912
343.535392784
344.468171982
345.364457569
346.224622648
347.049061366
347.838193687
348.592470466
349.312378325
349.998443888
350.651236966
351.271372424
351.859510538
352.416355807
352.942654267
353.43918949
353.906777493
354.346260856
354.758502343
355.144378275
355.504771874
355.840566714
356.152640365
356.441858274
356.709067911
356.955093204
357.180729296
357.386737645
357.57384151
357.742721842
357.894013586
358.028302423
358.146121901
358.247950986
358.334211969
358.405268754
358.461425489
358.502924582
358.529886135
358.542977506
253.878956924
254.119655217
254.604638365
255.326334134
256.260029697
257.379213706
258.656934769
260.067722275
261.588854626
263.200989614
264.888253798
266.637948333
268.440043835
270.286610253
272.171279477
274.088792174
276.034645541
278.004836367
279.995681919
282.003696518
284.025502516
286.057759281
288.097102325
290.140095182
292.183205708
294.222821443
296.255301483
298.277052725
300.284605681
302.274680433
304.244223739
306.190413513
308.110658777
310.002598709
311.864104061
313.693275824
315.488438152
317.248128752
318.971089423
320.656256028
322.302746621
323.909848295
325.477003474
327.00379609
328.489938189
329.935257276
331.33968429
332.703242004
334.026033588
335.308231138
336.550064208
337.75180853
338.913775287
340.03630133
341.119740789
342.164458453
343.170825242
344.139215967
345.070009449
345.963590883
346.820356175
347.640717829
348.425111815
349.174004787
349.887901013
350.567348395
351.212943087
351.82533235
352.405215412
352.95334232
353.47051086
353.957561815
354.415372895
354.844851758
355.246928517
355.622548097
355.972662686
356.298224432
356.600178461
356.879456217
357.136969129
357.373602603
357.590210385
357.787609296
357.966574423
358.127834758
358.272069331
358.399903811
358.511907591
358.608591298
358.690404706
358.757735115
358.810905949
358.850174828
358.875676543
358.888055738
251.237042371
251.517381186
252.079319971
252.909507164
253.974141644
255.237901489
256.666052986
258.22693299
259.893430466
261.643543645
263.460186296
265.330504101
267.244978193
269.196531121
271.179757679
273.190328063
275.224562453
277.279150578
279.350979022
281.437027345
283.534297873
285.639752747
287.750245804
289.862455978
291.972847495
294.077695568
296.173171377
298.255467298
300.320919695
302.366105357
304.387882578
306.383380807
308.34998269
310.285317884
312.187268372
314.053969496
315.883798438
317.675359872
319.427475285
321.13917275
322.809673084
324.438374122
326.024834624
327.568758121
329.069977726
330.528442408
331.944204268
333.317406426
334.648270949
335.937086409
337.184195065
338.389979961
339.554852445
340.679240715
341.763579957
342.808304658
343.813843506
344.780617194
345.709039247
346.599519754
347.45247167
348.268319136
349.047507052
349.79051109
350.497847249
351.170080177
351.807829571
352.411774228
352.982653462
353.521265882
354.028465691
354.505156856
354.952285672
355.370832277
355.761801721
356.126215043
356.465100673
356.779486312
357.070391295
357.338819392
357.585751985
357.812141597
358.018905812
358.206921632
358.377020317
358.529982777
358.666535511
358.787347112
358.8930253
358.98411445
359.061093562
359.124374651
359.174301509
359.211147966
359.235064193
359.246669917
248.291393804
248.624650791
249.287816392
250.258095689
251.488319512
252.930934307
254.540940018
256.278977681
258.112949503
260.018331162
261.977448737
263.978143474
266.012274935
268.074377541
270.160606676
272.267994029
274.393972145
276.536105568
278.691962238
280.859063173
283.034856438
285.216673812
287.401649088
289.586609889
291.767992067
293.941877984
296.104133772
298.250616877
300.377383589
302.480827674
304.557715131
306.605142735
308.620473015
310.601323505
312.545587856
314.451445772
316.317340665
318.14195531
319.924201797
321.663214031
323.35833104
325.009077383
326.615144123
328.176369485
329.692721466
331.164283307
332.591240507
333.973868688
335.312521263
336.607616033
337.859620754
339.069038125
340.236390997
341.362208637
342.44701489
343.491318973
344.495609516
345.460352301
346.385991906
347.272957141
348.121669872
348.932556484
349.706061008
350.44265875
351.142869284
351.807267693
352.436493239
353.031254837
353.592333072
354.120578737
354.61690816
355.082295808
355.517764902
355.924376889
356.303220603
356.655401752
356.982033121
357.284225601
357.563079944
357.819679072
358.055080775