/*--------------------------------*- C++ -*----------------------------------*\
| =========                 |                                                 |
| \\      /  F ield         | OpenFOAM: The Open Source CFD Toolbox           |
|  \\    /   O peration     | Version:  v1906                                 |
|   \\  /    A nd           | Web:      www.OpenFOAM.com                      |
|    \\/     M anipulation  |                                                 |
\*---------------------------------------------------------------------------*/
FoamFile
{
    version     2.0;
    format      ascii;
    class       volVectorField;
    location    "630";
    object      Ua;
}
// * * * * * * * * * * * * * * * * * * * * * * * * * * * * * * * * * * * * * //

dimensions      [0 1 -1 0 0 0 0];


internalField   nonuniform List<vector> 
9216
(
(-0.00361860180304 0.00362176979414 0)
(-0.00370996213149 0.0112847245418 -5.04514965564e-28)
(-0.00368281644292 0.0189604899669 -2.51904753405e-31)
(-0.00362762352104 0.0265809457706 0)
(-0.00355311513333 0.0340525972589 0)
(-0.00346093900061 0.0413388243693 0)
(-0.00335283700839 0.0484026683998 0)
(-0.00323043213044 0.0552109250429 0)
(-0.00309537831347 0.0617340644555 0)
(-0.00294937966659 0.0679463710131 0)
(-0.00279414973411 0.0738260236499 0)
(-0.00263139611844 0.0793550939214 0)
(-0.00246276967018 0.0845194761149 0)
(-0.00228985772904 0.0893087384983 0)
(-0.00211414045217 0.0937159281031 0)
(-0.00193699913215 0.0977373228074 0)
(-0.00175968135414 0.101372165369 0)
(-0.00158332397064 0.104622371219 0)
(-0.00140892487101 0.10749224328 0)
(-0.00123737778225 0.109988180825 0)
(-0.00106944676585 0.112118412978 0)
(-0.000905809164903 0.113892737756 0)
(-0.000747028664064 0.115322294547 0)
(-0.000593603039442 0.116419345036 0)
(-0.00044593240907 0.117197089066 0)
(-0.000304369909714 0.11766948588 0)
(-0.000169183759845 0.117851107104 0)
(-4.0609918479e-05 0.117756989635 0)
(8.12009600808e-05 0.117402528959 0)
(0.000196115880043 0.11680330579 0)
(0.000304071435542 0.115975044533 0)
(0.000405019123594 0.114933480395 0)
(0.000498981868027 0.113694281075 0)
(0.000585987485782 0.112272952987 0)
(0.000666131942533 0.110684773727 0)
(0.000739507282441 0.108944713839 0)
(0.000806270567206 0.107067384576 0)
(0.000866565939674 0.105066974919 0)
(0.000920599255176 0.102957214095 0)
(0.000968554625813 0.100751323502 0)
(0.00101067479915 0.0984619927305 0)
(0.00104717265854 0.0961013453737 0)
(0.00107831704766 0.093680926234 0)
(0.00110433995178 0.091211679292 0)
(0.0011255271653 0.0887039434416 0)
(0.00114212199187 0.0861674409475 0)
(0.00115441964621 0.0836112787502 0)
(0.00116266871676 0.0810439458901 0)
(0.00116716779975 0.0784733178167 0)
(0.00116816629499 0.0759066618853 0)
(0.00116596120061 0.0733506421831 0)
(0.00116079941793 0.0708113326559 0)
(0.00115297210219 0.0682942205705 0)
(0.00114272113742 0.0658042275052 0)
(0.00113032777182 0.0633457098543 0)
(0.00111602658259 0.0609224884925 0)
(0.00110008445289 0.0585378456632 0)
(0.00108272585142 0.0561945648856 0)
(0.00106419759811 0.053894924433 0)
(0.00104470981903 0.0516407498759 0)
(0.00102448141558 0.0494334058064 0)
(0.00100370146692 0.0472738640217 0)
(0.000982550253952 0.0451626963807 0)
(0.000961186166502 0.0431001617248 0)
(0.000939737444637 0.0410862034291 0)
(0.000918319858075 0.0391205563309 0)
(0.000896995674758 0.0372027515852 0)
(0.000875827085203 0.0353322405806 0)
(0.0008548007971 0.0335084057685 0)
(0.00083392124263 0.0317306904958 0)
(0.000813101850659 0.0299986083956 0)
(0.00079229923366 0.0283118593819 0)
(0.000771373819654 0.0266703239129 0)
(0.000750261498273 0.0250741407497 0)
(0.000728806701597 0.0235236741026 0)
(0.000706961180268 0.0220195374893 0)
(0.000684591684706 0.0205625362418 0)
(0.00066169015566 0.0191536459215 0)
(0.000638158578774 0.0177939596072 0)
(0.000614012976984 0.0164846619465 0)
(0.000589149324982 0.0152270372503 0)
(0.000563523845627 0.0140225101593 0)
(0.000536899370976 0.0128727989877 0)
(0.000508971452804 0.0117801412374 0)
(0.000479055267875 0.0107477482323 0)
(0.000446019433264 0.00978063564848 0)
(0.000407736311623 0.00888625516778 0)
(0.00035620656713 0.00809908269061 0)
(0.000282757757563 0.00717862075112 0)
(0.000294597285679 0.00678608389949 0)
(0.00034506184647 0.00616893061174 0)
(0.000383142054031 0.00542179882869 0)
(0.000441760828932 0.00458780150429 0)
(0.000536418056895 0.00364651325048 0)
(0.000714091099864 0.00246226502203 0)
(0.000920667217579 0.000911048488997 0)
(-0.0113162495323 0.00375300220173 0)
(-0.0119155635039 0.01201739734 0)
(-0.0118130849498 0.0202009844319 5.18954116015e-28)
(-0.011619078502 0.0283318945466 0)
(-0.0113603002979 0.036296578256 0)
(-0.0110422947139 0.0440601732103 0)
(-0.0106702553841 0.051584058359 0)
(-0.0102496809129 0.0588330496431 0)
(-0.0097863729238 0.0657757326164 0)
(-0.00928635019367 0.0723847703877 0)
(-0.00875569334067 0.0786370267734 0)
(-0.00820043832302 0.0845135736148 0)
(-0.00762643017433 0.0899996061329 0)
(-0.00703925353297 0.095084275775 0)
(-0.00644412326187 0.0997604655188 0)
(-0.00584586400026 0.104024515805 0)
(-0.00524883997284 0.107875925496 0)
(-0.00465698008188 0.111317033546 0)
(-0.00407373859525 0.114352703036 0)
(-0.00350215489342 0.11699000855 0)
(-0.00294483161441 0.119237944356 0)
(-0.00240401547354 0.121107148631 0)
(-0.00188157864009 0.122609656885 0)
(-0.00137910833918 0.123758674457 0)
(-0.000897880324958 0.124568378191 0)
(-0.000438949712317 0.125053733318 0)
(-3.11111733149e-06 0.125230334936 0)
(0.000409011331973 0.125114258612 0)
(0.000797024073915 0.124721919453 0)
(0.00116066610669 0.124069989378 0)
(0.00149987298131 0.12317524115 0)
(0.00181468600634 0.122054457563 0)
(0.00210532714681 0.120724336623 0)
(0.00237209543867 0.119201399521 0)
(0.002615450914 0.117501913507 0)
(0.00283590279591 0.115641814955 0)
(0.00303410168544 0.113636648182 0)
(0.00321071955349 0.111501504716 0)
(0.00336655061869 0.10925097811 0)
(0.00350238404363 0.106899119063 0)
(0.00361911396448 0.104459405048 0)
(0.00371760598035 0.101944709833 0)
(0.00379881618115 0.0993672856889 0)
(0.00386365260634 0.0967387451563 0)
(0.00391310240215 0.0940700531352 0)
(0.00394808945939 0.091371518602 0)
(0.00396960798295 0.0886527938508 0)
(0.00397857791568 0.0859228741355 0)
(0.00397598250761 0.0831901016853 0)
(0.00396272363028 0.0804621717438 0)
(0.00393976011609 0.0777461393398 0)
(0.00390796587101 0.075048430705 0)
(0.00386826494901 0.0723748513121 0)
(0.00382149610452 0.0697306022402 0)
(0.00376853956058 0.0671202884632 0)
(0.00371019248952 0.0645479403303 0)
(0.00364728140765 0.0620170219312 0)
(0.00358055373711 0.0595304587329 0)
(0.00351076874959 0.057090646785 0)
(0.00343861104586 0.0546994885084 0)
(0.0033647522578 0.0523584049257 0)
(0.00328979289785 0.0500683827295 0)
(0.00321428704189 0.0478299928996 0)
(0.00313871977543 0.0456434526778 0)
(0.00306348824325 0.0435086545833 0)
(0.00298892296235 0.0414252460555 0)
(0.00291522161119 0.0393926713651 0)
(0.0028425234495 0.0374102677111 0)
(0.00277079657397 0.035477317677 0)
(0.00269997459868 0.0335931527809 0)
(0.00262980258064 0.031757205704 0)
(0.00256004114033 0.0299691019892 0)
(0.00249027714646 0.0282286925935 0)
(0.00242019012899 0.0265361081473 0)
(0.00234932895417 0.0248917519883 0)
(0.00227741893366 0.0232962992523 0)
(0.00220409731797 0.0217506473376 0)
(0.00212922553638 0.0202558691249 0)
(0.00205257372315 0.0188131501078 0)
(0.00197409994459 0.0174237406494 0)
(0.00189357919064 0.0160889392385 0)
(0.00181081515309 0.014810114163 0)
(0.0017252041825 0.0135888084686 0)
(0.00163582444799 0.0124269126686 0)
(0.00154086482114 0.0113269460415 0)
(0.00143741274828 0.01029247495 0)
(0.00132036004252 0.00932761697364 0)
(0.00118120817718 0.00845208972876 0)
(0.000999776437448 0.00747898767846 0)
(0.000966559980853 0.006741291993 0)
(0.00107810024792 0.0061365595825 0)
(0.00119653880355 0.00531722379619 0)
(0.00135776174783 0.00441559871484 0)
(0.00170972100984 0.00347025693289 0)
(0.00226294210527 0.0022530115114 0)
(0.00241561933289 0.000695852079241 0)
(-0.0191572028757 0.00380300077913 0)
(-0.0201830318456 0.0121797349095 0)
(-0.0199940346814 0.0204548572688 5.16897703978e-28)
(-0.0196609880251 0.0286846061714 0)
(-0.0192215827864 0.0367435441066 0)
(-0.0186833380509 0.0445953402045 0)
(-0.018054372174 0.052200243335 0)
(-0.0173437800204 0.0595223662951 0)
(-0.0165613358373 0.0665298267042 0)
(-0.0157172144911 0.0731950345184 0)
(-0.0148217170952 0.0794947981641 0)
(-0.0138850426944 0.0854103136482 0)
(-0.0129170703938 0.0909270531923 0)
(-0.0119272026009 0.0960345703359 0)
(-0.0109242220462 0.100726243369 0)
(-0.00991621563132 0.104998972777 0)
(-0.00891050576046 0.108852853016 0)
(-0.00791364625208 0.112290831274 0)
(-0.00693141277764 0.115318369728 0)
(-0.00596885107584 0.117943118919 0)
(-0.00503030330481 0.120174613497 0)
(-0.00411948416964 0.12202399192 0)
(-0.00323951879231 0.123503745934 0)
(-0.0023930247297 0.124627495936 0)
(-0.00158214256288 0.125409794097 0)
(-0.000808610086229 0.125865947999 0)
(-7.37765373891e-05 0.126011865031 0)
(0.00062133452853 0.125863911843 0)
(0.00127602527635 0.125438784132 0)
(0.00188986523786 0.124753383374 0)
(0.00246271006085 0.123824714416 0)
(0.00299464243214 0.122669776096 0)
(0.00348599016405 0.121305466641 0)
(0.00393726944168 0.119748493328 0)
(0.00434920519652 0.118015292402 0)
(0.00472267015384 0.116121954386 0)
(0.00505870805311 0.114084160262 0)
(0.00535846919999 0.111917123411 0)
(0.00562323767471 0.10963554237 0)
(0.00585436486378 0.107253559064 0)
(0.00605330190865 0.10478472701 0)
(0.00622153260934 0.10224198413 0)
(0.00636061174009 0.0996376340227 0)
(0.00647209823832 0.0969833308068 0)
(0.00655759917172 0.0942900706836 0)
(0.0066187036726 0.0915681861752 0)
(0.00665703161402 0.0888273452386 0)
(0.00667416862552 0.0860765525796 0)
(0.00667171805659 0.083324154101 0)
(0.00665123753165 0.0805778435115 0)
(0.0066142924051 0.0778446702844 0)
(0.0065623946188 0.0751310502725 0)
(0.00649705548589 0.0724427759257 0)
(0.00641972786053 0.0697850301387 0)
(0.00633185556513 0.0671623978968 0)
(0.00623482007838 0.0645788831744 0)
(0.00612998330431 0.0620379219874 0)
(0.00601864001367 0.0595424029847 0)
(0.00590204997636 0.05709468282 0)
(0.00578139746775 0.0546966122535 0)
(0.005657808401 0.0523495562261 0)
(0.0055323184918 0.0500544286718 0)
(0.00540587134386 0.0478117211392 0)
(0.00527929792209 0.0456215507709 0)
(0.00515329335808 0.0434837022985 0)
(0.00502841270266 0.0413976935536 0)
(0.00490502809235 0.039362834564 0)
(0.00478334945459 0.0373783117847 0)
(0.00466336931278 0.0354432627701 0)
(0.00454492058655 0.0335568719064 0)
(0.00442762080365 0.0317184487531 0)
(0.00431097790462 0.0299275152364 0)
(0.00419434290603 0.0281838627026 0)
(0.00407706253038 0.0264875998385 0)
(0.00395843429439 0.0248391591259 0)
(0.00383788093217 0.0232392804574 0)
(0.00371487984643 0.0216889555423 0)
(0.00358911285826 0.0201893536005 0)
(0.00346033238738 0.0187417323316 0)
(0.00332844071376 0.0173473545456 0)
(0.00319326769771 0.0160074288976 0)
(0.00305454896354 0.0147230878202 0)
(0.00291159718265 0.0134954267748 0)
(0.00276313936984 0.0123256077941 0)
(0.00260683336718 0.0112150379317 0)
(0.0024388994064 0.0101657161838 0)
(0.00225347775716 0.00917988539923 0)
(0.00204265359618 0.00827509268782 0)
(0.00179932658513 0.00729172372238 0)
(0.00172597352365 0.00652773280146 0)
(0.00188657158714 0.00590802780033 0)
(0.00207625848805 0.00498435414192 0)
(0.00242908391147 0.00405826986837 0)
(0.00293325620711 0.00291846614136 0)
(0.00342867722208 0.00168974580447 0)
(0.0036202160937 0.000536281376188 0)
(-0.0271577166983 0.00386492729648 0)
(-0.028623737378 0.0123877487902 0)
(-0.0283522124197 0.020794301145 -5.16831280495e-28)
(-0.0278744352964 0.0291550793014 0)
(-0.0272446585482 0.0373378631068 0)
(-0.0264739889233 0.0453045972286 0)
(-0.0255741637123 0.0530140249113 0)
(-0.0245583285735 0.0604292139481 0)
(-0.0234406183183 0.0675176136281 0)
(-0.0222357282356 0.0742513118609 0)
(-0.0209585137551 0.0806071072263 0)
(-0.0196236411521 0.0865664598054 0)
(-0.0182452829896 0.092115334875 0)
(-0.0168368795303 0.0972439606064 0)
(-0.0154109509203 0.101946522403 0)
(-0.0139789773337 0.106220814061 0)
(-0.0125513234296 0.110067866153 0)
(-0.0111372220893 0.11349156803 0)
(-0.00974478724577 0.116498299007 0)
(-0.00838107078523 0.119096579269 0)
(-0.00705212878072 0.121296749621 0)
(-0.00576311459365 0.123110683701 0)
(-0.00451836191348 0.124551535083 0)
(-0.00332148073697 0.125633516637 0)
(-0.00217542941074 0.126371709693 0)
(-0.00108259330685 0.126781896932 0)
(-4.48337678222e-05 0.126880414496 0)
(0.000936454442712 0.126684021256 0)
(0.00186031491027 0.126209772852 0)
(0.00272618285147 0.12547490167 0)
(0.00353387341365 0.124496721393 0)
(0.00428354087995 0.123292516191 0)
(0.00497566549531 0.121879446701 0)
(0.00561101413214 0.120274460115 0)
(0.00619062686994 0.118494208679 0)
(0.00671577484198 0.116554975504 0)
(0.00718794674356 0.114472609754 0)
(0.00760880512186 0.112262469812 0)
(0.00798017480481 0.109939375971 0)
(0.00830399996569 0.107517570742 0)
(0.00858233663562 0.105010687766 0)
(0.00881731245207 0.102431727173 0)
(0.009011124494 0.0997930380179 0)
(0.00916600263108 0.0971063056823 0)
(0.00928421278472 0.0943825446735 0)
(0.00936802386819 0.0916320950541 0)
(0.00941971573843 0.0888646227371 0)
(0.00944154930895 0.0860891224374 0)
(0.00943577807558 0.0833139232053 0)
(0.00940462090901 0.0805466959929 0)
(0.00935027588785 0.0777944627105 0)
(0.00927489541985 0.0750636070194 0)
(0.00918060098174 0.0723598856683 0)
(0.00906946021736 0.0696884415584 0)
(0.00894350086485 0.0670538165352 0)
(0.00880468934839 0.0644599662798 0)
(0.00865494164847 0.061910274411 0)
(0.00849610251761 0.0594075695675 0)
(0.0083299504117 0.0569541416622 0)
(0.00815817611175 0.0545517627696 0)
(0.00798237839385 0.052201708002 0)
(0.00780404084588 0.049904783652 0)
(0.00762451536063 0.0476613571132 0)
(0.00744499715055 0.0454713977241 0)
(0.00726649541708 0.0433345220708 0)
(0.0070898100222 0.0412500541717 0)
(0.0069154939715 0.0392170923655 0)
(0.006743841524 0.0372345932543 0)
(0.00657485519735 0.0353014612933 0)
(0.00640826270302 0.0334166519643 0)
(0.00624350812515 0.0315792720467 0)
(0.00607981708479 0.0297886799609 0)
(0.0059162277708 0.0280445651584 0)
(0.00575170886846 0.0263470049349 0)
(0.00558522098107 0.0246964792204 0)
(0.00541585559852 0.0230938440684 0)
(0.00524287782981 0.0215402573591 0)
(0.00506581957968 0.0200370687053 0)
(0.0048844365564 0.0185856860018 0)
(0.0046986933254 0.0171874391741 0)
(0.0045085950083 0.0158434623589 0)
(0.00431403831491 0.0145546092157 0)
(0.00411450532971 0.0133214172497 0)
(0.00390875506304 0.0121441261173 0)
(0.00369433105701 0.011022753819 0)
(0.00346701252851 0.0099573531791 0)
(0.00322003179328 0.00894776954733 0)
(0.00294365959274 0.00800748159369 0)
(0.0026268332735 0.00699305355008 0)
(0.00252883627363 0.00618915830412 0)
(0.0027168105087 0.00541948923945 0)
(0.00311804020807 0.00458574352559 0)
(0.00351871112637 0.00344749731932 0)
(0.00402932745221 0.00234090927965 0)
(0.00444076629918 0.0013305312211 0)
(0.00457774992529 0.000428740148081 0)
(-0.0353135607821 0.00394746203302 0)
(-0.0372203957094 0.0126679616505 0)
(-0.0368620275187 0.0212560892462 0)
(-0.0362323875088 0.0297951945004 0)
(-0.0354028026479 0.0381459487189 0)
(-0.0343883812371 0.0462681600831 0)
(-0.033204958881 0.0541186288863 0)
(-0.0318701868989 0.061659025357 0)
(-0.0304029845632 0.0688559141176 0)
(-0.0288229578413 0.0756809825456 0)
(-0.0271498606686 0.08211106636 0)
(-0.0254031212878 0.08812804297 0)
(-0.0236014410974 0.0937186094411 0)
(-0.0217624775248 0.0988739708752 0)
(-0.0199026070293 0.103589465111 0)
(-0.0180367713951 0.107864147876 0)
(-0.0161783949715 0.111700360941 0)
(-0.0143393706982 0.115103302468 0)
(-0.0125300968522 0.118080616062 0)
(-0.0107595596176 0.120642010704 0)
(-0.00903544020877 0.122798920254 0)
(-0.00736424194018 0.124564206325 0)
(-0.00575141623442 0.125951904845 0)
(-0.00420148726212 0.126977012418 0)
(-0.00271815819295 0.127655306717 0)
(-0.00130440603149 0.128003193195 0)
(3.7446896449e-05 0.128037569951 0)
(0.00130567132992 0.127775710998 0)
(0.00249908722808 0.127235143938 0)
(0.00361701944751 0.126433541629 0)
(0.00465927258494 0.125388627964 0)
(0.00562609379356 0.124118067682 0)
(0.00651814497014 0.122639372417 0)
(0.00733646542472 0.120969810081 0)
(0.00808244130005 0.119126321966 0)
(0.00875776456875 0.117125447981 0)
(0.00936440039402 0.11498326127 0)
(0.0099045448256 0.112715312077 0)
(0.0103805933961 0.110336581277 0)
(0.0107951010828 0.107861442688 0)
(0.0111507554126 0.105303633956 0)
(0.0114503413729 0.102676234695 0)
(0.0116967208319 0.0999916513524 0)
(0.0118928034138 0.0972616074826 0)
(0.0120415323814 0.0944971388946 0)
(0.0121458611241 0.0917085925836 0)
(0.0122087446042 0.0889056290149 0)
(0.0122331204852 0.0860972270136 0)
(0.0122219048895 0.0832916908899 0)
(0.012177977137 0.0804966593574 0)
(0.0121041785838 0.077719115819 0)
(0.0120033000718 0.0749653998899 0)
(0.0118780826225 0.0722412195919 0)
(0.0117312066575 0.0695516643896 0)
(0.0115652930589 0.0669012183303 0)
(0.0113828928846 0.0642937738876 0)
(0.0111864867119 0.0617326456371 0)
(0.0109784728966 0.0592205849133 0)
(0.0107611622709 0.0567597945858 0)
(0.0105367622371 0.0543519459052 0)
(0.0103073631668 0.0519981967704 0)
(0.0100749152314 0.0496992143698 0)
(0.00984120299628 0.0474552019982 0)
(0.00960781302378 0.0452659342188 0)
(0.00937609566491 0.04313080051 0)
(0.00914712581701 0.0410488625954 0)
(0.00892165766473 0.0390189249721 0)
(0.0087000901817 0.0370396236669 0)
(0.00848243245958 0.0351095297257 0)
(0.00826829840416 0.0332272691217 0)
(0.00805691273934 0.0313916493179 0)
(0.00784716681846 0.0296017863158 0)
(0.00763769359548 0.0278572144692 0)
(0.00742699932262 0.0261579648032 0)
(0.00721359961683 0.0245045925104 0)
(0.00699618680047 0.0228981418913 0)
(0.00677375380635 0.0213400449746 0)
(0.00654569727725 0.019831961499 0)
(0.00631182346645 0.0183755817659 0)
(0.00607229780624 0.0169724179673 0)
(0.0058274808712 0.0156236109013 0)
(0.00557771039058 0.0143297699943 0)
(0.00532297819395 0.0130908530751 0)
(0.00506254706598 0.0119060837386 0)
(0.0047944266569 0.0107738892282 0)
(0.00451469989223 0.00969195132763 0)
(0.00421653280428 0.00865679691268 0)
(0.00388927401343 0.00767476031025 0)
(0.003519683266 0.00662499392703 0)
(0.003388768542 0.00571902253467 0)
(0.00364895540081 0.00490001569997 0)
(0.00407116502644 0.00391473856979 0)
(0.00465817391155 0.00296783008268 0)
(0.00497730815901 0.00193437720938 0)
(0.00523191361559 0.00110126310595 0)
(0.00532403493101 0.000358547282149 0)
(-0.0436768678157 0.00405247368522 0)
(-0.0460316854081 0.0130265845211 0)
(-0.0455798245637 0.0218484871921 0)
(-0.0447880509416 0.0306163507583 0)
(-0.0437454394472 0.0391819821853 0)
(-0.0424715923611 0.047502510477 0)
(-0.0409870256516 0.0555323048942 0)
(-0.0393144948217 0.0632312932954 0)
(-0.0374782818933 0.0705649680041 0)
(-0.0355034384574 0.0775045815009 0)
(-0.0334150892743 0.0840271093581 0)
(-0.0312378239157 0.0901150635235 0)
(-0.0289951905723 0.0957561795408 0)
(-0.0267093006876 0.100943010132 0)
(-0.0244005431617 0.105672456126 0)
(-0.0220874050239 0.109945263377 0)
(-0.0197863877241 0.113765511391 0)
(-0.0175120088663 0.117140115788 0)
(-0.0152768724422 0.120078362909 0)
(-0.0130917930565 0.122591490308 0)
(-0.0109659537834 0.124692321979 0)
(-0.00890708228544 0.126394961658 0)
(-0.00692162604589 0.127714542344 0)
(-0.00501491619758 0.128667025407 0)
(-0.00319130783493 0.129269039547 0)
(-0.00145429578696 0.129537748414 0)
(0.000193397338268 0.129490734573 0)
(0.00174975448187 0.129145902343 0)
(0.00321341099742 0.128521358791 0)
(0.00458361433273 0.12763532335 0)
(0.00586019208561 0.126506030765 0)
(0.00704351494 0.125151622439 0)
(0.00813446125953 0.123590051121 0)
(0.0091343761802 0.12183898819 0)
(0.0100450299589 0.11991573849 0)
(0.0108685709656 0.117837164081 0)
(0.0116074798892 0.115619618133 0)
(0.0122645208442 0.113278889333 0)
(0.0128426966637 0.110830156837 0)
(0.0133452034703 0.108287955092 0)
(0.0137753917965 0.105666147703 0)
(0.0141367282894 0.102977909098 0)
(0.0144327650193 0.100235712935 0)
(0.0146671094248 0.0974513259662 0)
(0.0148434017872 0.094635806446 0)
(0.014965292606 0.0917995061261 0)
(0.0150364268854 0.0889520751903 0)
(0.0150604274097 0.0861024695169 0)
(0.0150408842255 0.083258959822 0)
(0.0149813423579 0.0804291423065 0)
(0.0148852951011 0.0776199504236 0)
(0.0147561750014 0.0748376675263 0)
(0.0145973497266 0.0720879399748 0)
(0.014412115131 0.0693757905676 0)
(0.0142036922274 0.0667056318296 0)
(0.0139752206871 0.0640812791856 0)
(0.0137297546844 0.0615059636078 0)
(0.0134702542117 0.0589823440528 0)
(0.0131995763942 0.0565125195507 0)
(0.0129204607547 0.0540980417962 0)
(0.0126355113239 0.0517399287608 0)
(0.0123471709827 0.0494386810326 0)
(0.0120576892206 0.0471943025079 0)
(0.0117690812885 0.0450063284333 0)
(0.011483078727 0.0428738638598 0)
(0.01120107379 0.0407956367743 0)
(0.0109240580583 0.038770069725 0)
(0.0106525647827 0.0367953743461 0)
(0.0103866177366 0.034869670132 0)
(0.0101257045374 0.0329911282757 0)
(0.00986877955498 0.0311581330449 0)
(0.00961431898296 0.0293694510842 0)
(0.00936042737416 0.0276243866864 0)
(0.00910500877685 0.0259228997028 0)
(0.0088459787889 0.0242656559818 0)
(0.00858150407309 0.0226539887121 0)
(0.00831021470693 0.0210897599003 0)
(0.00803136064383 0.0195751322917 0)
(0.00774485827352 0.0181122824043 0)
(0.00745122888381 0.0167030943504 0)
(0.00715141481777 0.0153488744666 0)
(0.00684651122404 0.0140501076053 0)
(0.00653741662976 0.0128062562957 0)
(0.00622442452992 0.011615578001 0)
(0.00590670944781 0.010474910655 0)
(0.00558163045329 0.00937945628794 0)
(0.00524356588381 0.00832208767095 0)
(0.00488237673928 0.00730199206592 0)
(0.00448072446661 0.00620676063433 0)
(0.00440589902625 0.00529501297884 0)
(0.00463726347851 0.00434402991991 0)
(0.00504399900835 0.00336233172845 0)
(0.00551214800646 0.00249451658332 0)
(0.00579270214301 0.00168328385973 0)
(0.00593671266197 0.000959742414539 0)
(0.00599982207318 0.000313411679289 0)
(-0.0523001775628 0.00418214604532 0)
(-0.0551131792017 0.0134702509421 0)
(-0.0545589465461 0.0225815410747 -5.06270598575e-28)
(-0.0535915065532 0.0316320525892 0)
(-0.0523186254277 0.0404624716237 0)
(-0.0507650567984 0.0490265692931 0)
(-0.0489567434417 0.0572757274239 0)
(-0.0469223192501 0.0651677805731 0)
(-0.0446921800725 0.0726669943927 0)
(-0.0422975144158 0.079744212536 0)
(-0.039769423357 0.0863767317876 0)
(-0.037138162314 0.0925480052523 0)
(-0.0344325217817 0.0982472074086 0)
(-0.0316793536879 0.103468702144 0)
(-0.0289032407289 0.108211451432 0)
(-0.0261263009515 0.112478398385 0)
(-0.023368114347 0.116275854319 0)
(-0.0206457558204 0.119612915103 0)
(-0.0179739146132 0.122500927685 0)
(-0.0153650788857 0.124953022345 0)
(-0.0128297609329 0.126983720277 0)
(-0.0103767396047 0.12860861905 0)
(-0.00801329676192 0.129844151455 0)
(-0.00574543051091 0.130707406764 0)
(-0.00357803255793 0.131215999184 0)
(-0.00151502616281 0.131387966759 0)
(0.000440534205601 0.131241683003 0)
(0.00228639577117 0.130795785999 0)
(0.00402104976139 0.130069062011 0)
(0.00564370248866 0.129080380091 0)
(0.00715424024607 0.127848585808 0)
(0.0085531935682 0.126392394554 0)
(0.00984169749736 0.124730292328 0)
(0.0110214453109 0.122880438834 0)
(0.012094637369 0.120860578488 0)
(0.0130639248159 0.118687961514 0)
(0.013932351612 0.116379276687 0)
(0.0147032953103 0.113950596285 0)
(0.0153804103422 0.111417333085 0)
(0.0159675737032 0.10879420851 0)
(0.016468836152 0.106095230645 0)
(0.0168883777054 0.103333680567 0)
(0.0172304696579 0.100522105451 0)
(0.017499440923 0.0976723170113 0)
(0.01769965038 0.0947953940735 0)
(0.0178354625346 0.0919016883235 0)
(0.0179112280857 0.0890008324885 0)
(0.0179312666477 0.0861017504216 0)
(0.0178998533796 0.0832126686685 0)
(0.0178212068979 0.0803411291932 0)
(0.0176994803829 0.0774940029302 0)
(0.0175387533674 0.0746775038865 0)
(0.0173430261066 0.0718972034174 0)
(0.0171162140316 0.0691580443658 0)
(0.0168621439402 0.0664643546361 0)
(0.0165845493273 0.0638198599124 0)
(0.0162870660094 0.0612276951483 0)
(0.0159732252524 0.0586904146963 0)
(0.0156464448287 0.056210001034 0)
(0.0153100150072 0.0537878724074 0)
(0.014967079016 0.0514248901767 0)
(0.0146206049892 0.0491213671072 0)
(0.0142733482264 0.0468770789974 0)
(0.0139278016456 0.0446912826106 0)
(0.0135861334459 0.0425627445901 0)
(0.0132501129322 0.0404897868723 0)
(0.0129210260149 0.0384703551272 0)
(0.0125995882767 0.0365021177443 0)
(0.0122858635409 0.0345826002888 0)
(0.0119792064381 0.0327093594508 0)
(0.0116782456773 0.0308801913427 0)
(0.0113809338482 0.029093362161 0)
(0.0110846798627 0.0273478340556 0)
(0.0107865765402 0.0256434489656 0)
(0.0104837094043 0.0239810245024 0)
(0.0101735125937 0.0223623192032 0)
(0.00985410677843 0.0207898481223 0)
(0.00952454864968 0.0192665570507 0)
(0.00918492937081 0.017795407393 0)
(0.00883630366843 0.0163789371084 0)
(0.00848046342893 0.0150188607216 0)
(0.00811960795702 0.0137157437587 0)
(0.00775596028865 0.0124687423515 0)
(0.00739137785034 0.0112753560723 0)
(0.00702695624528 0.0101310775031 0)
(0.00666258724482 0.00902878398385 0)
(0.00629626199081 0.00795722434444 0)
(0.00592325451713 0.00690153441984 0)
(0.00552876608016 0.00579686907218 0)
(0.00530638614829 0.0046821860964 0)
(0.00562782122501 0.00382979108514 0)
(0.0059361459166 0.00291411116497 0)
(0.00619994041789 0.00212473892769 0)
(0.00648299113797 0.00147589481844 0)
(0.00656438973015 0.000842948250818 0)
(0.00659579761657 0.000273897636088 0)
(-0.0612411453638 0.0043388807688 0)
(-0.0645250043232 0.0140070784308 0)
(-0.0638571004725 0.0234681369706 5.061942105e-28)
(-0.0626967445362 0.0328596247943 0)
(-0.0611716862483 0.0420084976552 0)
(-0.0593127321749 0.0508643745035 0)
(-0.057152233973 0.0593750307759 0)
(-0.0547257065715 0.0674958577469 0)
(-0.0520706212973 0.0751897895471 0)
(-0.0492251776243 0.0824273721006 0)
(-0.0462272077778 0.0891865127765 0)
(-0.043113250982 0.0954520329233 0)
(-0.0399178141722 0.101215070613 0)
(-0.036672822001 0.106472385687 0)
(-0.0334072489857 0.111225612484 0)
(-0.0301469207254 0.115480499476 0)
(-0.0269144666493 0.11924616946 0)
(-0.0237294036862 0.122534429133 0)
(-0.0206083263912 0.125359152015 0)
(-0.0175651757204 0.127735753094 0)
(-0.0146115550754 0.129680766163 0)
(-0.0117570612914 0.131211525848 0)
(-0.00900959970353 0.132345946295 0)
(-0.00637565875204 0.133102379373 0)
(-0.0038605285592 0.1334995289 0)
(-0.00146845953232 0.133556395854 0)
(0.000797233433049 0.133292229338 0)
(0.0029341131574 0.132726489866 0)
(0.00494056394782 0.131878734024 0)
(0.00681578611232 0.130768581323 0)
(0.0085597605564 0.129415589131 0)
(0.0101732177407 0.127839147478 0)
(0.0116575954155 0.126058371751 0)
(0.0130149861611 0.124091998529 0)
(0.0142480761633 0.121958290393 0)
(0.0153600771685 0.119674952867 0)
(0.0163546549989 0.117259065396 0)
(0.017235857305 0.114727027006 0)
(0.0180080439155 0.112094516177 0)
(0.0186758216384 0.10937646357 0)
(0.0192439856184 0.106587035712 0)
(0.0197174675415 0.103739627481 0)
(0.0201012913465 0.100846861358 0)
(0.0204005354809 0.097920591618 0)
(0.0206203015489 0.0949719120568 0)
(0.0207656879119 0.0920111662079 0)
(0.0208417680031 0.0890479593363 0)
(0.0208535720277 0.086091171763 0)
(0.0208060720785 0.0831489731991 0)
(0.0207041696279 0.0802288378687 0)
(0.0205526856865 0.0773375601524 0)
(0.0203563527754 0.0744812704979 0)
(0.0201198090582 0.0716654511913 0)
(0.0198475937514 0.0688949516102 0)
(0.0195441439687 0.0661740023875 0)
(0.019213791856 0.0635062280199 0)
(0.0188607617305 0.0608946573128 0)
(0.0184891655832 0.0583417312517 0)
(0.0181029959824 0.0558493079546 0)
(0.0177061140103 0.0534186646709 0)
(0.01730223038 0.0510504973519 0)
(0.0168948766054 0.0487449187899 0)
(0.0164873635071 0.0465014578179 0)
(0.0160827238162 0.0443190627562 0)
(0.0156836362759 0.0421961152366 0)
(0.015292330188 0.0401304611693 0)
(0.0149104713083 0.0381194696033 0)
(0.0145390353751 0.0361601303106 0)
(0.0141781806778 0.034249202044 0)
(0.0138271407855 0.0323834210605 0)
(0.0134841659869 0.0305597697102 0)
(0.0131465508097 0.0287757948873 0)
(0.0128107835658 0.0270299410671 0)
(0.0124728434464 0.0253218445636 0)
(0.0121286413016 0.0236525123005 0)
(0.0117745539826 0.0220243122959 0)
(0.0114079539712 0.0204407287545 0)
(0.0110276108734 0.0189058945631 0)
(0.0106338593267 0.0174239839617 0)
(0.0102285051558 0.0159985815359 0)
(0.00981451088595 0.0146321380235 0)
(0.00939555532714 0.0133255693196 0)
(0.00897557669353 0.0120779960252 0)
(0.00855840368803 0.0108865481578 0)
(0.00814754121322 0.00974609790332 0)
(0.00774617112088 0.00864873932184 0)
(0.0073574678309 0.00758261276208 0)
(0.00698587128192 0.00653040254231 0)
(0.006637153123 0.00545829139744 0)
(0.00637504892524 0.0043370644056 0)
(0.00640937193561 0.00335520617517 0)
(0.00668537338998 0.00256692601173 0)
(0.00686220096095 0.00185526328508 0)
(0.00710115014517 0.00128288190925 0)
(0.00713394734224 0.000732296492915 0)
(0.00711258307026 0.000231744091033 0)
(-0.0705633912599 0.00452560380122 0)
(-0.0743330880257 0.0146471953664 0)
(-0.0735372850397 0.0245245374116 0)
(-0.0721623340894 0.0343209137661 0)
(-0.070357655224 0.0438465462991 0)
(-0.0681613184154 0.0530459847785 0)
(-0.0656133731907 0.0618627236561 0)
(-0.062757507756 0.070249379799 0)
(-0.059639487718 0.0781675299159 0)
(-0.0563056120325 0.0855876549669 0)
(-0.0528013664384 0.0924887102327 0)
(-0.0491703126179 0.098857472511 0)
(-0.0454532253182 0.104687729557 0)
(-0.0416874723777 0.109979376771 0)
(-0.0379066224233 0.114737474684 0)
(-0.0341402599779 0.11897131138 0)
(-0.0304139850461 0.12269350704 0)
(-0.0267495718519 0.125919192833 0)
(-0.0231652574598 0.128665292238 0)
(-0.019676125672 0.130949927301 0)
(-0.0162945457485 0.132791963949 0)
(-0.0130306220096 0.13421069838 0)
(-0.00989261153562 0.135225672269 0)
(-0.00688727530252 0.135856590511 0)