/*--------------------------------*- C++ -*----------------------------------*\
| =========                 |                                                 |
| \\      /  F ield         | OpenFOAM: The Open Source CFD Toolbox           |
|  \\    /   O peration     | Version:  v1906                                 |
|   \\  /    A nd           | Web:      www.OpenFOAM.com                      |
|    \\/     M anipulation  |                                                 |
\*---------------------------------------------------------------------------*/
FoamFile
{
    version     2.0;
    format      ascii;
    class       volVectorField;
    location    "164";
    object      U;
}
// * * * * * * * * * * * * * * * * * * * * * * * * * * * * * * * * * * * * * //

dimensions      [0 1 -1 0 0 0 0];


internalField   nonuniform List<vector> 
9216
(
(-0.0937712308969 0.0938353033147 0)
(-0.096434048144 0.291976068296 4.51344042295e-26)
(-0.0959830301891 0.491545202385 -6.50439262544e-30)
(-0.0948955677065 0.690495738867 0)
(-0.0934090938294 0.886693475387 0)
(-0.0915606373895 1.07944668704 0)
(-0.0893827626293 1.26804207207 0)
(-0.0869041821602 1.45182249069 0)
(-0.0841537702586 1.63018941359 0)
(-0.0811613720254 1.80260466482 0)
(-0.0779576010436 1.96859256343 0)
(-0.0745734217136 2.12774127036 0)
(-0.0710395972555 2.27970307362 0)
(-0.0673862367568 2.42419358182 0)
(-0.0636423199913 2.56098995361 0)
(-0.0598353789137 2.68992827457 0)
(-0.0559911698271 2.81090026607 0)
(-0.0521335118459 2.92384946174 0)
(-0.0482841043572 3.02876702902 0)
(-0.0444625042711 3.12568735657 0)
(-0.0406860617409 3.21468355283 0)
(-0.0369700023654 3.29586294623 0)
(-0.0333274462311 3.36936269176 0)
(-0.0297695590634 3.43534554135 0)
(-0.0263056208797 3.49399584377 0)
(-0.0229432146299 3.54551580258 0)
(-0.0196883175589 3.59012202602 0)
(-0.0165455043885 3.62804237651 0)
(-0.013518045464 3.65951313276 0)
(-0.0106081187731 3.68477646574 0)
(-0.00781693404866 3.70407825051 0)
(-0.00514503963078 3.71766625899 0)
(-0.00259281906972 3.7257894286 0)
(-0.000162307428523 3.72869117254 0)
(0.00215223068996 3.7266388521 0)
(0.00435860069405 3.71984906738 0)
(0.00645723569969 3.70855388808 0)
(0.00844926879658 3.69298002292 0)
(0.0103371094523 3.67334892849 0)
(0.0121236995373 3.64987619482 0)
(0.0138122778625 3.62277080111 0)
(0.0154062054987 3.5922347382 0)
(0.0169089503282 3.55846279753 0)
(0.0183239924285 3.52164246079 0)
(0.0196548443632 3.48195385622 0)
(0.0209049769877 3.43956977427 0)
(0.0220778506072 3.39465572202 0)
(0.0231768506175 3.34737001773 0)
(0.0242053242605 3.29786390821 0)
(0.0251665231959 3.24628171388 0)
(0.0260636436459 3.19276098534 0)
(0.0268997743914 3.13743267899 0)
(0.0276779388681 3.08042133603 0)
(0.0284010474943 3.02184527429 0)
(0.0290719405948 2.9618167776 0)
(0.0296933442788 2.9004422939 0)
(0.0302679133515 2.83782262678 0)
(0.0307981901349 2.77405313303 0)
(0.0312866466963 2.70922391097 0)
(0.0317356462001 2.64341999311 0)
(0.0321474839716 2.57672152793 0)
(0.0325243510671 2.50920396521 0)
(0.0328683737883 2.44093822948 0)
(0.0331815792894 2.37199089664 0)
(0.0334659332795 2.30242435849 0)
(0.0337233075348 2.23229699043 0)
(0.0339555155793 2.16166330694 0)
(0.0341642820535 2.09057412063 0)
(0.0343512762412 2.01907668934 0)
(0.0345180832646 1.94721486711 0)
(0.0346662353504 1.87502924368 0)
(0.0347971848721 1.80255728834 0)
(0.0349123332954 1.72983348268 0)
(0.0350130060918 1.65688945838 0)
(0.0351004793086 1.5837541242 0)
(0.0351759564075 1.51045379862 0)
(0.0352405924326 1.43701233216 0)
(0.0352954728152 1.36345123577 0)
(0.0353416351042 1.2897897994 0)
(0.0353800497865 1.21604521713 0)
(0.035411639534 1.14223270288 0)
(0.035437262033 1.06836561325 0)
(0.0354577266097 0.994455561482 0)
(0.0354737788889 0.92051253938 0)
(0.0354861142602 0.84654503155 0)
(0.0354953632734 0.772560139877 0)
(0.0355020992323 0.698563704812 0)
(0.0355068177988 0.624560446928 0)
(0.0355099216482 0.55055412934 0)
(0.035511648714 0.47654779817 0)
(0.0355119013621 0.402544233775 0)
(0.0355097636123 0.328546725853 0)
(0.0355015330257 0.254563054381 0)
(0.0354823426939 0.180571250615 0)
(0.0353795589038 0.107054147048 0)
(0.0343259321536 0.034326091455 0)
(-0.292338183619 0.0970775941052 0)
(-0.308635296411 0.310103308483 0)
(-0.307122222203 0.522294645415 -4.56922894672e-26)
(-0.30360563532 0.733970697309 0)
(-0.29885064572 0.942555605466 0)
(-0.292969530566 1.14741985525 0)
(-0.286044515168 1.34783123897 0)
(-0.278159969316 1.54309887144 0)
(-0.269405308101 1.73258899735 0)
(-0.259874502904 1.91573068665 0)
(-0.249664566571 2.09201933978 0)
(-0.238873855923 2.26101851082 0)
(-0.22760027488 2.42236028452 0)
(-0.215939724226 2.57574439056 0)
(-0.203984643799 2.72093624213 0)
(-0.191822911792 2.85776406482 0)
(-0.179536868815 2.98611530763 0)
(-0.167202712853 3.10593250343 0)
(-0.15488999012 3.21720875576 0)
(-0.142661425368 3.31998299577 0)
(-0.130572792998 3.41433515162 0)
(-0.118673078584 3.50038133705 0)
(-0.107004618819 3.57826915956 0)
(-0.0956034813294 3.64817321634 0)
(-0.0844997668589 3.71029083869 0)
(-0.0737181082996 3.76483811972 0)
(-0.0632780484694 3.81204625394 0)
(-0.0531945838482 3.85215819764 0)
(-0.043478559505 3.88542565394 0)
(-0.0341372172204 3.91210636814 0)
(-0.0251745967342 3.93246169811 0)
(-0.0165921347939 3.94675436725 0)
(-0.00838922568363 3.95524575168 0)
(-0.000564825252061 3.95819766783 0)
(0.00688949983104 3.95584542863 0)
(0.0139844806864 3.94846195095 0)
(0.0207264675101 3.93629904383 0)
(0.0271230602437 3.91960104266 0)
(0.0331834135342 3.89860483224 0)
(0.0389175559713 3.87353986037 0)
(0.0443361252903 3.84462812487 0)
(0.0494500852752 3.81208402517 0)
(0.0542706506648 3.77611422643 0)
(0.0588091007999 3.73691757993 0)
(0.0630767622497 3.69468509623 0)
(0.067084864756 3.64959997152 0)
(0.0708445532148 3.60183765372 0)
(0.0743667703593 3.5515659471 0)
(0.0776622879368 3.49894514237 0)
(0.0807416089482 3.44412817283 0)
(0.0836150120008 3.38726078484 0)
(0.0862924683382 3.32848172505 0)
(0.0887836949849 3.26792293381 0)
(0.0910980829705 3.20570974864 0)
(0.0932447558778 3.14196110815 0)
(0.0952325065532 3.07678976131 0)
(0.0970698584799 3.01030247332 0)
(0.0987650089213 2.94260023376 0)
(0.100325891143 2.87377845872 0)
(0.101760122502 2.8039271934 0)
(0.103075066065 2.73313130715 0)
(0.104277782562 2.66147068787 0)
(0.105375090316 2.58902042821 0)
(0.106373520338 2.51585101054 0)
(0.107279373805 2.4420284836 0)
(0.108098679812 2.3676146378 0)
(0.108837249852 2.29266717234 0)
(0.109500637947 2.21723986129 0)
(0.110094191776 2.14138271169 0)
(0.110623015036 2.06514212112 0)
(0.111092014982 1.98856102775 0)
(0.111505866977 1.91167906027 0)
(0.111869058324 1.8345326809 0)
(0.112185855023 1.75715532885 0)
(0.112460341816 1.67957755727 0)
(0.112696391239 1.60182717124 0)
(0.112897699845 1.52392935978 0)
(0.113067759643 1.44590682942 0)
(0.113209890466 1.36777993223 0)
(0.113327213887 1.28956679584 0)
(0.113422681666 1.2112834485 0)
(0.113499052097 1.13294394653 0)
(0.113558914253 1.05456049732 0)
(0.113604666317 0.976143585209 0)
(0.113638534438 0.897702093628 0)
(0.113662550729 0.819243430788 0)
(0.113678561481 0.740773652211 0)
(0.113688193299 0.662297586185 0)
(0.1136928239 0.583818950354 0)
(0.113693473179 0.505340441133 0)
(0.113690580322 0.426863756869 0)
(0.113683446692 0.348388912995 0)
(0.113668530697 0.26991456733 0)
(0.113632196317 0.191375239814 0)
(0.11335592135 0.113400535861 0)
(0.107078898356 0.0354027836237 0)
(-0.494481669598 0.0980981688691 0)
(-0.522280953529 0.313233190168 0)
(-0.519329709184 0.527177295004 -4.54001941922e-26)
(-0.513253039764 0.74077778557 0)
(-0.505154885489 0.951227925414 0)
(-0.495173977482 1.15786897257 0)
(-0.483432196442 1.35994877769 0)
(-0.470066792237 1.55676382089 0)
(-0.455227902587 1.74767099624 0)
(-0.439074947992 1.93209275267 0)
(-0.421773075255 2.10952052914 0)
(-0.403489796293 2.27951648935 0)
(-0.384391831427 2.44171371124 0)
(-0.364642330823 2.59581504088 0)
(-0.344398445719 2.74159081825 0)
(-0.323809376627 2.87887567512 0)
(-0.303014807205 3.00756461011 0)
(-0.282143810588 3.12760853082 0)
(-0.261314093716 3.23900944472 0)
(-0.240631646168 3.34181545585 0)
(-0.220190636252 3.43611570792 0)
(-0.200073617052 3.52203538694 0)
(-0.180351879074 3.59973087847 0)
(-0.161086018791 3.66938514914 0)
(-0.142326563171 3.73120340648 0)
(-0.124114731584 3.78540907095 0)
(-0.106483183046 3.83224008165 0)
(-0.0894568432173 3.87194554309 0)
(-0.0730536677504 3.90478271123 0)
(-0.0572854464001 3.9310143065 0)
(-0.042158506029 3.95090613372 0)
(-0.0276744001876 3.96472499007 0)
(-0.013830355103 3.97273678683 0)
(-0.000619034031466 3.97520564261 0)
(0.0119679030648 3.97239362543 0)
(0.0239396440734 3.96455434112 0)
(0.03531059693 3.95193833682 0)
(0.0460964153478 3.93479017029 0)
(0.0563136623463 3.91334753548 0)
(0.0659797790621 3.88784084448 0)
(0.0751129362914 3.85849296322 0)
(0.0837317957572 3.82551901295 0)
(0.0918553470725 3.78912624021 0)
(0.09950271124 3.74951395241 0)
(0.106693028226 3.70687350974 0)
(0.113445310618 3.66138836649 0)
(0.11977837525 3.61323415255 0)
(0.125710736664 3.56257878911 0)
(0.131260571998 3.50958263058 0)
(0.136445644428 3.45439862859 0)
(0.14128329237 3.39717251152 0)
(0.145790375057 3.3380429771 0)
(0.14998327901 3.27714189276 0)
(0.153877879637 3.2145945025 0)
(0.157489559506 3.15051963608 0)
(0.160833181248 3.08502992029 0)
(0.163923113447 3.01823198881 0)
(0.166773211296 2.95022669123 0)
(0.169396846936 2.88110929827 0)
(0.171806895233 2.81096970442 0)
(0.17401576624 2.73989262536 0)
(0.17603539419 2.66795779189 0)
(0.177877270391 2.59524013794 0)
(0.179552434094 2.52180998469 0)
(0.181071504658 2.44773321874 0)
(0.182444673386 2.37307146623 0)
(0.183681734153 2.29788226133 0)
(0.184792075648 2.22221921089 0)
(0.185784709962 2.14613215383 0)
(0.186668264903 2.06966731723 0)
(0.187451010251 1.99286746747 0)
(0.188140849995 1.9157720588 0)
(0.188745346119 1.83841737736 0)
(0.189271710734 1.76083668322 0)
(0.189726827347 1.6830603484 0)
(0.190117242955 1.6051159935 0)
(0.190449186822 1.52702862077 0)
(0.190728562618 1.44882074629 0)
(0.19096096476 1.37051252912 0)
(0.191151670679 1.29212189997 0)
(0.191305654713 1.21366468728 0)
(0.191427580487 1.13515474321 0)
(0.191521812133 1.05660406734 0)
(0.191592406356 0.978022930545 0)
(0.191643120026 0.899419996652 0)
(0.191677400178 0.820802443746 0)
(0.191698384653 0.742176081595 0)
(0.191708884254 0.663545464053 0)
(0.191711367176 0.584913985936 0)
(0.191707922327 0.506283941732 0)
(0.191700228139 0.427656551688 0)
(0.191689581108 0.349031423018 0)
(0.191676947915 0.270408755805 0)
(0.191657255727 0.191726623038 0)
(0.191334013293 0.113693898 0)
(0.180645191721 0.0355088959446 0)
(-0.699856774643 0.0992967648562 0)
(-0.73947723135 0.316999691624 0)
(-0.735250777386 0.533394668291 4.50580466994e-26)
(-0.726562626443 0.749429403271 0)
(-0.714995424211 0.962215050443 0)
(-0.700752541131 1.17106338112 0)
(-0.684008218033 1.37519595168 0)
(-0.664958861921 1.57389011828 0)
(-0.643819929916 1.76648884157 0)
(-0.620820423888 1.95240528219 0)
(-0.596197501635 2.13112593447 0)
(-0.570191435932 2.30221204517 0)
(-0.54304100513 2.46529940905 0)
(-0.51497944245 2.62009675749 0)
(-0.486230981873 2.76638297007 0)
(-0.457008065372 2.90400334099 0)
(-0.427509177706 3.03286512969 0)
(-0.397917314121 3.15293260895 0)
(-0.368398996234 3.26422180552 0)
(-0.339103808249 3.36679510194 0)
(-0.310164345411 3.46075584356 0)
(-0.281696538118 3.54624306628 0)
(-0.253800241441 3.62342643657 0)
(-0.226560060832 3.69250147048 0)
(-0.20004631397 3.75368507895 0)
(-0.174316114566 3.80721146765 0)
(-0.149414493006 3.85332840585 0)
(-0.125375556115 3.89229386584 0)
(-0.102223615307 3.9243730257 0)
(-0.0799742987031 3.94983562055 0)
(-0.0586355851842 3.96895362311 0)
(-0.0382087817409 3.98199924968 0)
(-0.018689345905 3.98924316561 0)
(-6.80414820138e-05 3.99095307684 0)
(0.0176690344232 3.98739678619 0)
(0.0345374277151 3.97882788846 0)
(0.0505569056977 3.96549969087 0)
(0.0657494717511 3.94765824163 0)
(0.0801387695517 3.92554245715 0)
(0.0937497477709 3.89938375101 0)
(0.106608333705 3.86940572607 0)
(0.118741115571 3.83582399426 0)
(0.130175084066 3.79884607831 0)
(0.14093739327 3.75867137877 0)
(0.151055176644 3.71549119554 0)
(0.160555376499 3.66948879531 0)
(0.169464620919 3.62083951648 0)
(0.177809107167 3.56971090463 0)
(0.185614525151 3.51626287215 0)
(0.192905981469 3.46064787679 0)
(0.199707957287 3.40301111419 0)
(0.206044262159 3.34349072088 0)
(0.211938016641 3.28221798398 0)
(0.21741162733 3.21931755525 0)
(0.222486786638 3.15490766676 0)
(0.227184462479 3.08910034692 0)
(0.231524909428 3.02200163466 0)
(0.235527668039 2.95371179133 0)
(0.239211583062 2.88432550871 0)
(0.242594808706 2.81393211309 0)
(0.245694830709 2.74261576439 0)
(0.248528474869 2.67045565053 0)
(0.251111930693 2.59752617632 0)
(0.2534607613 2.52389714742 0)
(0.255589927062 2.44963394867 0)
(0.257513795616 2.37479771775 0)
(0.259246164427 2.29944551344 0)
(0.260800270098 2.22363047949 0)
(0.262188809212 2.14740200362 0)
(0.263423946449 2.07080587261 0)
(0.264517333348 1.99388442305 0)
(0.265480115013 1.91667668877 0)
(0.266322946638 1.83921854444 0)
(0.267055998742 1.76154284649 0)
(0.267688971454 1.68367957075 0)
(0.26823109834 1.60565594795 0)
(0.268691158521 1.52749659647 0)
(0.269077479216 1.44922365346 0)
(0.269397945808 1.37085690372 0)
(0.269660003239 1.29241390726 0)
(0.269870664112 1.2139101252 0)
(0.270036509002 1.13535904451 0)
(0.270163692543 1.05677230139 0)
(0.270257942501 0.978159803588 0)
(0.270324563491 0.899529851068 0)
(0.27036843424 0.820889254877 0)
(0.270394008241 0.74224345238 0)
(0.270405309107 0.663596616711 0)
(0.27040593082 0.584951755088 0)
(0.270399043421 0.506310783359 0)
(0.270387432038 0.427674623287 0)
(0.270373619684 0.349042855989 0)
(0.270359840771 0.270416782677 0)
(0.270337406667 0.191736026386 0)
(0.269883660229 0.113724568567 0)
(0.254692794166 0.0355262433747 0)
(-0.908038917579 0.100881327957 0)
(-0.959466964403 0.32203341916 0)
(-0.953914857559 0.541811602994 0)
(-0.94251665298 0.761147611014 0)
(-0.927343873981 0.977088651037 0)
(-0.908671094503 1.18891281627 0)
(-0.886731614792 1.39580864233 0)
(-0.861787075231 1.5970278621 0)
(-0.834123892844 1.79189453969 0)
(-0.804045970481 1.97980938887 0)
(-0.771867436172 2.16025255819 0)
(-0.737905840971 2.33278457362 0)
(-0.702475996764 2.49704553647 0)
(-0.665884597601 2.65275282218 0)
(-0.628425698099 2.79969754792 0)
(-0.590377090621 2.93774008198 0)
(-0.551997557811 3.06680485824 0)
(-0.513524961255 3.18687473765 0)
(-0.475175079596 3.29798513045 0)
(-0.437141114325 3.40021806067 0)
(-0.399593751129 3.49369632111 0)
(-0.362681685873 3.57857783521 0)
(-0.326532505313 3.65505031238 0)
(-0.291253843443 3.72332625738 0)
(-0.256934720758 3.78363837181 0)
(-0.223647008412 3.83623536729 0)
(-0.191446946534 3.88137819505 0)
(-0.160376680773 3.9193366851 0)
(-0.130465766733 3.95038657969 0)
(-0.101732624766 3.97480694041 0)
(-0.074185909873 3.99287790254 0)
(-0.0478257971225 4.0048787941 0)
(-0.0226450921519 4.0110860581 0)
(0.00136892836049 4.01177338494 0)
(0.0242358207188 4.00721162837 0)
(0.0459773160614 3.99765811857 0)
(0.0666194963597 3.98336933059 0)
(0.0861913859351 3.96459360803 0)
(0.104724172847 3.94157157711 0)
(0.122250675517 3.91453593669 0)
(0.138804889679 3.88371119984 0)
(0.154421590108 3.84931356088 0)
(0.169135994694 3.81155084343 0)
(0.182983473762 3.77062251 0)
(0.195999311245 3.72671972235 0)
(0.208218501201 3.68002544345 0)
(0.219675586193 3.63071457282 0)
(0.230404521674 3.5789541085 0)
(0.240438573285 3.52490332961 0)
(0.249810232195 3.46871399445 0)
(0.258551155964 3.4105305499 0)
(0.266692121063 3.35049034846 0)
(0.274262995016 3.28872386984 0)
(0.281292715229 3.22535494488 0)
(0.28780928284 3.16050097938 0)
(0.293839759491 3.09427317657 0)
(0.29941027556 3.02677675674 0)
(0.304546038578 2.95811117307 0)
(0.309271350374 2.88837032299 0)
(0.31360962244 2.81764275442 0)
(0.317583398009 2.74601186666 0)
(0.321214370984 2.67355610568 0)
(0.324523410095 2.60034915367 0)
(0.327530579027 2.52646011305 0)
(0.33025516068 2.45195368476 0)
(0.332715676903 2.37689034133 0)
(0.334929911568 2.30132649464 0)
(0.336914928887 2.22531465889 0)
(0.338687094507 2.14890360877 0)
(0.340262091831 2.07213853352 0)
(0.341654940714 1.99506118665 0)
(0.342880011505 1.91771003227 0)
(0.343951041189 1.84012038771 0)
(0.344881145102 1.76232456323 0)
(0.345682830533 1.6843519988 0)
(0.3463680062 1.60622939842 0)
(0.34694799345 1.52798086204 0)
(0.347433533674 1.44962801563 0)
(0.347834797292 1.37119013929 0)
(0.348161389321 1.29268429385 0)
(0.348422356339 1.21412544603 0)
(0.348626190402 1.13552659225 0)
(0.348780834167 1.05689888133 0)
(0.348893683318 0.978251735808 0)
(0.348971590067 0.899592971968 0)
(0.349020864527 0.820928917985 0)
(0.349047277639 0.742264529534 0)
(0.349056064221 0.663603501774 0)
(0.34905193193 0.584948376648 0)
(0.349039081207 0.506300640726 0)
(0.349021252015 0.427660879038 0)
(0.349001811956 0.349028524536 0)
(0.348983461336 0.27040523338 0)
(0.348953352722 0.191730610225 0)
(0.348363097439 0.113728875089 0)
(0.328726807996 0.0355311988521 0)
(-1.11997111493 0.102886241657 0)
(-1.18335377543 0.328435989729 0)
(-1.17639418362 0.552550060624 0)
(-1.16214490048 0.776104419014 0)
(-1.1431797777 0.996068235681 0)
(-1.11985073881 1.2116782962 0)
(-1.09245724607 1.42208252939 0)
(-1.06133364832 1.62650057712 0)
(-1.02684477879 1.82423286271 0)
(-0.989376640327 2.01466482256 0)
(-0.949327069053 2.19726930693 0)
(-0.907097002359 2.3716068834 0)
(-0.863082629181 2.53732420731 0)
(-0.817668604532 2.69415076971 0)
(-0.771222423445 2.84189435299 0)
(-0.724089983116 2.98043552345 0)
(-0.676592295919 3.10972147061 0)
(-0.629023276333 3.22975946998 0)
(-0.581648486963 3.34061020673 0)
(-0.534704716889 3.44238115455 0)
(-0.488400251765 3.53522016257 0)
(-0.442915703117 3.61930936389 0)
(-0.398405265317 3.69485948526 0)
(-0.354998287507 3.76210460769 0)
(-0.312801055094 3.82129740382 0)
(-0.271898697683 3.87270485886 0)
(-0.232357148306 3.91660446691 0)
(-0.194225100073 3.95328088439 0)
(-0.157535911995 3.98302301441 0)
(-0.122309434046 4.00612149262 0)
(-0.0885537232954 4.02286653694 0)
(-0.0562666451704 4.03354620893 0)
(-0.0254372443792 4.03844391626 0)
(0.0039521326456 4.03784105275 0)
(0.0319270442342 4.03201186709 0)
(0.0585159687807 4.02121837946 0)
(0.0837522888282 4.00572076198 0)
(0.107672737547 3.98577010123 0)
(0.130316583355 3.96160909657 0)
(0.15172497037 3.93347196719 0)
(0.171940359467 3.90158427187 0)
(0.191006050874 3.86616284459 0)
(0.208965780269 3.82741580372 0)
(0.225863376629 3.78554261598 0)
(0.241742478046 3.74073420527 0)
(0.256646295519 3.69317309725 0)
(0.270617421879 3.64303359209 0)
(0.283697676881 3.59048195892 0)
(0.295927986564 3.53567664638 0)
(0.307348288995 3.47876850466 0)
(0.317997465438 3.41990101531 0)
(0.327913290106 3.35921052546 0)
(0.337132398325 3.29682648378 0)
(0.345690267213 3.2328716763 0)
(0.353621209383 3.16746245999 0)
(0.360958374499 3.10070899317 0)
(0.367733759772 3.03271546131 0)
(0.37397822487 2.96358029786 0)
(0.379721512695 2.8933963992 0)
(0.384992272073 2.82225133365 0)
(0.389818084094 2.75022754417 0)
(0.394225488573 2.67740254476 0)
(0.398240012582 2.60384911058 0)
(0.401886197909 2.529635462 0)
(0.405187629478 2.45482544257 0)
(0.408166961927 2.37947869143 0)
(0.410845946431 2.30365081021 0)
(0.413245455225 2.22739352486 0)
(0.415385505923 2.15075484275 0)
(0.417285283333 2.07377920525 0)
(0.418963160812 1.99650763627 0)
(0.420436719073 1.91897788712 0)
(0.421722764432 1.84122457778 0)
(0.422837344578 1.76327933527 0)
(0.423795763766 1.6851709291 0)
(0.424612595696 1.60692540429 0)
(0.425301695851 1.52856621214 0)
(0.425876211727 1.45011433907 0)
(0.426348592592 1.37158843369 0)
(0.42673059737 1.29300493235 0)
(0.427033302142 1.21437818333 0)
(0.427267106016 1.13572056984 0)
(0.427441736725 1.05704263181 0)
(0.42756625493 0.978353186645 0)
(0.427649058506 0.899659448815 0)
(0.427697886212 0.82096714817 0)
(0.427719822337 0.742280646848 0)
(0.427721302819 0.663603054758 0)
(0.427708125912 0.584936344827 0)
(0.427685470591 0.50628146574 0)
(0.427657927622 0.427638520878 0)
(0.427629532981 0.34900653596 0)
(0.427603244384 0.270386938875 0)
(0.427562291691 0.191718467295 0)
(0.426833616817 0.113722586472 0)
(0.402766130522 0.0355292101289 0)
(-1.33656746277 0.10534865794 0)
(-1.41212078025 0.336303099996 0)
(-1.4036425859 0.565750911345 4.4258548616e-26)
(-1.38635546113 0.794490503687 0)
(-1.36335504848 1.01939075258 0)
(-1.33507832811 1.23963667364 0)
(-1.30189944186 1.4543265686 0)
(-1.26423474108 1.66264103138 0)
(-1.2225369706 1.86385212665 0)
(-1.17728347652 2.05732755022 0)
(-1.12896444469 2.24253252256 0)
(-1.07807197913 2.41902922344 0)
(-1.02509038576 2.58647404145 0)
(-0.970487881982 2.74461304896 0)
(-0.914709836629 2.8932761223 0)
(-0.858173548945 3.03237011234 0)
(-0.801264497099 3.16187143456 0)
(-0.744333932488 3.28181839783 0)
(-0.687697658928 3.39230353556 0)
(-0.631635819399 3.49346614632 0)
(-0.576393507145 3.58548519815 0)
(-0.522182026201 3.66857270358 0)
(-0.469180638331 3.74296763251 0)
(-0.417538653241 3.80893039705 0)
(-0.367377737265 3.86673791703 0)
(-0.318794338171 3.91667925542 0)
(-0.271862141497 3.95905179918 0)
(-0.226634493814 3.99415795179 0)
(-0.183146742334 4.02230229828 0)
(-0.141418455912 4.04378920194 0)
(-0.101455500815 4.05892078219 0)
(-0.063251962424 4.06799536651 0)
(-0.0267917581432 4.07130443871 0)
(0.00794927476026 4.06913892664 0)
(0.0410031529678 4.06177592918 0)
(0.0724062242266 4.04948370818 0)
(0.102200073152 4.03252642825 0)
(0.130429920473 4.01115823114 0)
(0.157143774638 3.98562414034 0)
(0.182391666076 3.95616004498 0)
(0.206224999416 3.92299261395 0)
(0.228696006104 3.88633931635 0)
(0.249857282393 3.84640850456 0)
(0.26976140158 3.80339954351 0)
(0.288460592596 3.75750297699 0)
(0.306006475821 3.70890072269 0)
(0.322449849616 3.6577662889 0)
(0.337840519899 3.60426500685 0)
(0.352227167581 3.54855427395 0)
(0.36565724752 3.49078380375 0)
(0.378176915035 3.43109587925 0)
(0.389830974805 3.36962560701 0)
(0.400662849267 3.30650116966 0)
(0.410714562338 3.24184407531 0)
(0.420026736409 3.17576940231 0)
(0.428638599349 3.10838603853 0)
(0.436588000095 3.03979691423 0)
(0.443911430244 2.97009922832 0)
(0.450644050831 2.8993846674 0)
(0.45681972218 2.82773961758 0)
(0.462471036479 2.75524536917 0)
(0.467629351358 2.68197831414 0)
(0.472324824465 2.60801013668 0)
(0.476586447646 2.53340799706 0)
(0.480442080947 2.4582347091 0)
(0.483918485314 2.38254891159 0)
(0.487041354372 2.30640523404 0)
(0.489835344362 2.22985445708 0)
(0.492324102731 2.15294366803 0)
(0.494530294611 2.07571641184 0)
(0.496475627736 1.99821283799 0)
(0.498180875189 1.92046984352 0)
(0.499665896545 1.84252121277 0)
(0.500949656883 1.76439775396 0)
(0.502050244263 1.68612743306 0)
(0.502984885238 1.60773550532 0)
(0.503769958936 1.5292446445 0)
(0.504421009381 1.45067507037 0)
(0.504952756573 1.37204467445 0)
(0.50537910601 1.29336914441 0)
(0.505713157186 1.21466208713 0)
(0.505967210791 1.13593515072 0)
(0.506152775131 1.05719814554 0)
(0.506280571605 0.978459164283 0)
(0.506360539806 0.899724701328 0)
(0.506401842331 0.820999771273 0)
(0.506412870124 0.74228802698 0)
(0.506401248941 0.663591877588 0)
(0.506373848281 0.584912608106 0)
(0.506336793724 0.506250498161 0)
(0.506295481991 0.427605007295 0)
(0.506254577939 0.348974528169 0)
(0.506217334279 0.270359926757 0)
(0.506163408912 0.191698767 0)
(0.505295849084 0.113709297196 0)
(0.476801950048 0.0355239307812 0)
(-1.55881789627 0.108305381001 0)
(-1.64681350403 0.34574558503 0)
(-1.6366783349 0.581591972176 -4.38962590956e-26)
(-1.61611855732 0.81654747379 0)
(-1.58877806659 1.04735504186 0)
(-1.55518948942 1.27313546221 0)
(-1.51581261058 1.4929270413 0)
(-1.47115757607 1.70586378002 0)
(-1.42177704896 1.91118468224 0)
(-1.36825135734 2.10823772571 0)
(-1.31117384171 2.29648101152 0)
(-1.25113740385 2.47548099543 0)
(-1.18872270435 2.64490822508 0)
(-1.12448825969 2.80453113162 0)
(-1.05896253505 2.95420841633 0)
(-0.992638004087 3.09388053514 0)
(-0.925967051338 3.22356072308 0)
(-0.859359529358 3.34332592695 0)
(-0.793181744423 3.45330793694 0)
(-0.727756630884 3.5536849339 0)
(-0.663364876003 3.64467360272 0)
(-0.600246772515 3.72652190516 0)
(-0.538604597989 3.79950255991 0)
(-0.478605347145 3.86390724146 0)
(-0.420383670483 3.92004148291 0)
(-0.364044900274 3.96822024913 0)
(-0.309668069495 4.00876413464 0)
(-0.257308852353 4.04199613368 0)
(-0.207002373809 4.06823892677 0)
(-0.158765852439 4.08781263039 0)
(-0.112601052447 4.10103294516 0)
(-0.0684965345203 4.10820985248 0)
(-0.0264295205021 4.10964391879 0)
(0.0136326106117 4.10563736248 0)
(0.0517287528961 4.09646914707 0)
(0.0879045858845 4.08241545675 0)
(0.12221091716 4.06374458093 0)
(0.154702325163 4.04071391294 0)
(0.185436311391 4.01357094357 0)
(0.214472437086 3.98255328534 0)
(0.241871599531 3.94788869767 0)
(0.267695425361 3.90979520615 0)
(0.292005760707 3.86848127103 0)
(0.314864246328 3.82414599174 0)
(0.336331967549 3.77697933924 0)
(0.356469169118 3.72716240863 0)
(0.375335026518 3.67486768561 0)
(0.392987465689 3.62025932184 0)
(0.409483024404 3.56349341486 0)
(0.424876748873 3.50471828925 0)
(0.439222120296 3.44407477638 0)
(0.452571006305 3.38169649042 0)
(0.464973633279 3.3177100993 0)
(0.476478575603 3.25223558895 0)
(0.487132758886 3.18538652028 0)
(0.496981474126 3.11727027811 0)
(0.506068400674 3.04798831166 0)
(0.514435635704 2.97763636641 0)
(0.522123728702 2.90630470749 0)
(0.529171719253 2.83407833433 0)
(0.535617177143 2.76103718718 0)
(0.541496243508 2.68725634549 0)
(0.546843672413 2.61280621864 0)
(0.551692871968 2.53775272936 0)
(0.556075944618 2.46215749032 0)
(0.560023725996 2.3860779742 0)
(0.563565822187 2.30956767793 0)
(0.566730644976 2.23267628129 0)
(0.569545445092 2.15544980051 0)
(0.572036343157 2.07793073724 0)
(0.574228358466 2.00015822336 0)
(0.576145435402 1.922168162 0)
(0.577810467695 1.84399336513 0)
(0.579245320386 1.76566368826 0)
(0.580470849761 1.68720616236 0)
(0.581506921165 1.60864512352 0)
(0.582372424977 1.53000234051 0)
(0.583085290705 1.45129714063 0)
(0.583662499467 1.37254653393 0)
(0.584120094867 1.29376533629 0)
(0.584473192526 1.21496629116 0)
(0.584735988307 1.13616019056 0)
(0.584921765508 1.05735599513 0)
(0.585042901127 0.978560953562 0)
(0.585110871511 0.899780721525 0)
(0.585136257622 0.821019480221 0)
(0.585128750342 0.742280054948 0)
(0.585097156155 0.663564034178 0)
(0.585049403557 0.58487189068 0)
(0.584992549927 0.506203100973 0)
(0.584932786368 0.427556328404 0)
(0.584875416595 0.348929156197 0)
(0.584824059567 0.27032169533 0)
(0.584755009437 0.191670217318 0)
(0.58374773804 0.113689721061 0)
(0.550829058625 0.0355163053963 0)
(-1.78779349697 0.111799307584 0)
(-1.88855540599 0.356897459745 0)
(-1.87659313781 0.600293473443 0)
(-1.85247106347 0.842575362068 0)
(-1.8204148634 1.08033148515 0)
(-1.78106682514 1.31260402553 0)
(-1.73498652665 1.53835957899 0)
(-1.68279289233 1.75667742935 0)
(-1.62515360557 1.96675894539 0)
(-1.56276647284 2.16793112538 0)
(-1.49634129685 2.35964662756 0)
(-1.42658347972 2.54148032178 0)
(-1.35417988362 2.71312298823 0)
(-1.27978721362 2.87437289728 0)
(-1.20402298512 3.02512596771 0)
(-1.12745898033 3.16536512841 0)
(-1.05061698526 3.29514941191 0)
(-0.973966528566 3.4146032006 0)
(-0.897924308519 3.52390594118 0)
(-0.822854988628 3.62328254657 0)
(-0.749073056254 3.71299462221 0)
(-0.676845466084 3.79333258678 0)
(-0.606394824984 3.86460870531 0)
(-0.537902912586 3.92715101473 0)
(-0.471514369196 3.98129809565 0)
(-0.407340417684 4.02739462742 0)
(-0.345462517296 4.06578765432 0)
(-0.285935874588 4.09682348744 0)
(-0.228792759736 4.12084516728 0)
(-0.174045595727 4.13819041786 0)
(-0.121689804533 4.14919001516 0)
(-0.0717063985081 4.15416677256 0)
(-0.0240641842836 4.15343122781 0)
(0.0212802507162 4.14729858138 0)
(0.0643731348279 4.13604823494 0)
(0.105271212376 4.1199660302 0)
(0.144035631727 4.09932428947 0)
(0.180731291225 4.07438373336 0)
(0.215426023607 4.04539435008 0)
(0.248189638427 4.01259542168 0)
(0.279093134438 3.97621568208 0)
(0.308208045563 3.93647354922 0)
(0.335605894658 3.89357738961 0)
(0.361357741946 3.84772580738 0)
(0.385533816048 3.79910795031 0)
(0.408203216442 3.74790382625 0)
(0.429433677488 3.69428462463 0)
(0.449291385153 3.63841303897 0)
(0.467840838676 3.58044358692 0)
(0.485144750184 3.5205229254 0)
(0.501263976265 3.45879015883 0)
(0.516257476075 3.39537713889 0)
(0.530182291403 3.33040875496 0)
(0.543093544578 3.26400321434 0)
(0.555044450793 3.19627231197 0)
(0.566086341748 3.12732168941 0)
(0.576268698119 3.05725108311 0)
(0.585639188571 2.98615456207 0)
(0.594243713516 2.91412075527 0)
(0.602126451993 2.84123306913 0)
(0.609329910414 2.76756989547 0)
(0.615894972043 2.69320481054 0)
(0.621860946366 2.61820676548 0)
(0.627265617593 2.54264026892 0)
(0.632145291783 2.46656556221 0)
(0.63653484208 2.39003878775 0)
(0.640467751803 2.3131121512 0)
(0.643976155091 2.23583407783 0)
(0.647090874998 2.15824936378 0)
(0.649841458892 2.08039932257 0)
(0.652256211181 2.00232192742 0)
(0.654362223314 1.92405194981 0)
(0.656185401162 1.84562109473 0)
(0.657750489807 1.76705813294 0)
(0.659081095888 1.68838903074 0)
(0.660199707575 1.60963707744 0)
(0.661127712352 1.53082301098 0)
(0.661885412716 1.45196514184 0)
(0.662492039979 1.37307947565 0)
(0.662965766302 1.29417983458 0)
(0.663323715155 1.21527797776 0)
(0.66358197035 1.13638372099 0)
(0.663755583855 1.05750505575 0)
(0.663858582558 0.978648267785 0)
(0.663903974213 0.899818055435 0)
(0.663903752771 0.821017647837 0)
(0.663868903312 0.742248923373 0)
(0.663809406708 0.663512528795 0)
(0.663734243928 0.584808000031 0)
(0.66365139941 0.506133880009 0)
(0.663567860911 0.42748789851 0)
(0.66348959072 0.348866686336 0)
(0.663420626916 0.27026946353 0)
(0.663334000013 0.191631136251 0)
(0.662185721466 0.113663424311 0)
(0.624842891372 0.0355064381971 0)
(-2.02466295901 0.115882140954 0)