/*--------------------------------*- C++ -*----------------------------------*\
| =========                 |                                                 |
| \\      /  F ield         | OpenFOAM: The Open Source CFD Toolbox           |
|  \\    /   O peration     | Version:  v1906                                 |
|   \\  /    A nd           | Web:      www.OpenFOAM.com                      |
|    \\/     M anipulation  |                                                 |
\*---------------------------------------------------------------------------*/
FoamFile
{
    version     2.0;
    format      ascii;
    class       volVectorField;
    location    "200";
    object      U;
}
// * * * * * * * * * * * * * * * * * * * * * * * * * * * * * * * * * * * * * //

dimensions      [0 1 -1 0 0 0 0];


internalField   nonuniform List<vector> 
9216
(
(0.00271367237112 -0.0027154672942 0)
(0.00286125740956 -0.00876308089796 1.17906847764e-27)
(0.00285316480754 -0.0149049620011 1.84272138256e-31)
(0.00281601083347 -0.0210474588734 0)
(0.00276436343548 -0.0270874450406 0)
(0.00269980045496 -0.0330006759755 0)
(0.002623874275 -0.0387614500938 0)
(0.00253808242257 -0.0443468138818 0)
(0.00244355562871 -0.0497367187108 0)
(0.0023417549437 -0.0549137874103 0)
(0.00223373928133 -0.0598634997716 0)
(0.00212093705751 -0.0645739081411 0)
(0.00200426383343 -0.069035733853 0)
(0.00188503407351 -0.073241993173 0)
(0.00176395409536 -0.07718801549 0)
(0.00164217775517 -0.0808710226031 0)
(0.00152017741364 -0.084290115135 0)
(0.00139893868042 -0.0874458533471 0)
(0.00127871107524 -0.0903402457163 0)
(0.00116033230329 -0.0929763621114 0)
(0.00104385972579 -0.0953583451641 0)
(0.000930015044664 -0.0974910739197 0)
(0.000818702026805 -0.0993802003674 0)
(0.000710560183927 -0.101031865778 0)
(0.000605375154673 -0.102452758655 0)
(0.000503731309435 -0.103649882039 0)
(0.000405325750369 -0.104630620423 0)
(0.000310707364759 -0.105402549475 0)
(0.000219505851429 -0.105973503333 0)
(0.000132246736378 -0.106351423547 0)
(4.85122502591e-05 -0.106544408106 0)
(-3.11957273577e-05 -0.106560626876 0)
(-0.000107364134851 -0.106408306357 0)
(-0.000179514311247 -0.106095583563 0)
(-0.000248142333484 -0.105630657324 0)
(-0.000312782243962 -0.105021653374 0)
(-0.000373968382534 -0.104276635606 0)
(-0.00043125932454 -0.103403560737 0)
(-0.000485213918949 -0.102410257245 0)
(-0.000535413012532 -0.10130440775 0)
(-0.000582432797532 -0.100093510962 0)
(-0.000625876252237 -0.0987848911945 0)
(-0.000666328869633 -0.0973856424908 0)
(-0.000703414036426 -0.0959026625657 0)
(-0.000737719242465 -0.0943425835277 0)
(-0.000768886916779 -0.0927118305801 0)
(-0.000797498448403 -0.0910165390819 0)
(-0.000823212834513 -0.0892626344368 0)
(-0.00084659860725 -0.0874557392994 0)
(-0.000867329697325 -0.0856012740895 0)
(-0.000885955040993 -0.0837043536037 0)
(-0.000902161487505 -0.0817699037456 0)
(-0.000916473553598 -0.0798025507887 0)
(-0.000928590339638 -0.0778067527206 0)
(-0.000939007767966 -0.0757866801964 0)
(-0.000947436656009 -0.0737463576177 0)
(-0.00095434241847 -0.0716895384989 0)
(-0.000959448583189 -0.0696198540863 0)
(-0.000963189070366 -0.0675406822899 0)
(-0.000965301420296 -0.0654552990006 0)
(-0.00096618918136 -0.0633667430829 0)
(-0.000965606406537 -0.0612779684621 0)
(-0.000963928017133 -0.0591917047507 0)
(-0.000960926997722 -0.0571106061513 0)
(-0.000956952734461 -0.0550371105511 0)
(-0.000951799993149 -0.0529735841413 0)
(-0.000945795529576 -0.0509221792991 0)
(-0.000938757922245 -0.0488849726066 0)
(-0.000930994538151 -0.0468638245867 0)
(-0.000922349377548 -0.0448605112091 0)
(-0.000913112688256 -0.0428765863556 0)
(-0.000903154143999 -0.0409135061218 0)
(-0.000892748656233 -0.03897249672 0)
(-0.000881791043173 -0.0370546728111 0)
(-0.000870541401584 -0.0351609114057 0)
(-0.000858917821427 -0.0332919646321 0)
(-0.00084716535841 -0.0314483414592 0)
(-0.000835222831831 -0.0296304167712 0)
(-0.000823318776364 -0.0278383206805 0)
(-0.000811409128981 -0.0260720451868 0)
(-0.000799703377207 -0.0243313420653 0)
(-0.000788169794538 -0.0226158298968 0)
(-0.000776993809176 -0.0209249012856 0)
(-0.00076614746798 -0.0192578346467 0)
(-0.00075577991662 -0.0176137174646 0)
(-0.000745844091516 -0.0159915776173 0)
(-0.000736409395517 -0.0143903486316 0)
(-0.000727317643393 -0.0128090818194 0)
(-0.000718352880736 -0.0112470918785 0)
(-0.000708763165442 -0.00970456088124 0)
(-0.000696887630992 -0.00818371423073 0)
(-0.000678432371272 -0.0066926405289 0)
(-0.000636706181319 -0.00526668530606 0)
(-0.000555919400629 -0.00370620038126 0)
(-0.000749928170381 -0.00270051370642 0)
(-0.0012183371963 -0.00121632258193 0)
(0.00878495984033 -0.00289062588579 0)
(0.00971382998908 -0.00978183833743 0)
(0.00969167642482 -0.0166603363174 -1.23815615584e-27)
(0.00956261210104 -0.0235444910388 0)
(0.00938389635407 -0.0303044272257 0)
(0.0091630638242 -0.0369184605935 0)
(0.00890431636826 -0.0433592748856 0)
(0.00861209627356 -0.0496016939386 0)
(0.00829045887649 -0.05562342361 0)
(0.00794400575683 -0.0614051899164 0)
(0.00757672067197 -0.0669308582603 0)
(0.00719305627092 -0.0721872841937 0)
(0.0067965765815 -0.0771642644513 0)
(0.00639127585844 -0.0818542593916 0)
(0.00598006140839 -0.0862522522229 0)
(0.00556630903065 -0.0903554161313 0)
(0.00515218648478 -0.0941629439857 0)
(0.00474043157305 -0.0976757151886 0)
(0.0043325106028 -0.100896138645 0)
(0.00393059778172 -0.103827854164 0)
(0.00353556346211 -0.106475611363 0)
(0.00314913417335 -0.108845021275 0)
(0.00277171235976 -0.110942476109 0)
(0.00240469641835 -0.112774952193 0)
(0.00204813879072 -0.114349965205 0)
(0.00170320835706 -0.115675417441 0)
(0.00136970129965 -0.116759577107 0)
(0.00104862766456 -0.117610959964 0)
(0.00073959259989 -0.118238320952 0)
(0.000443490913548 -0.118650559805 0)
(0.000159782517604 -0.118856718882 0)
(-0.000110735843695 -0.118865876886 0)
(-0.000368752503212 -0.118687189342 0)
(-0.000613559417396 -0.118329879564 0)
(-0.000845928087874 -0.11780310252 0)
(-0.00106522589885 -0.117115955196 0)
(-0.00127232542105 -0.116277446628 0)
(-0.0014666755978 -0.115296468517 0)
(-0.00164922926202 -0.114181764735 0)
(-0.00181950951251 -0.112941912968 0)
(-0.00197853218107 -0.111585288965 0)
(-0.00212588673115 -0.110120061741 0)
(-0.00226263236663 -0.108554154118 0)
(-0.00238841406935 -0.106895251332 0)
(-0.00250431436383 -0.105150759747 0)
(-0.00261002226746 -0.103327828997 0)
(-0.00270662263713 -0.101433309153 0)
(-0.00279383585561 -0.0994737853428 0)
(-0.00287272992002 -0.097455534709 0)
(-0.00294304549846 -0.0953845721893 0)
(-0.00300581611224 -0.093266607045 0)
(-0.00306079268896 -0.0911070978842 0)
(-0.00310896059002 -0.088911209138 0)
(-0.00315007451995 -0.08668387353 0)
(-0.00318506142207 -0.0844297475665 0)
(-0.00321367600767 -0.082153278844 0)
(-0.00323678186131 -0.0798586605106 0)
(-0.00325413431934 -0.0775499011894 0)
(-0.00326653281854 -0.0752307773094 0)
(-0.00327373702957 -0.0729049028703 0)
(-0.00327648641959 -0.0705756797236 0)
(-0.00327455223835 -0.068246365275 0)
(-0.00326862114638 -0.06592001983 0)
(-0.00325848467864 -0.0635995704165 0)
(-0.00324478648748 -0.0612877557633 0)
(-0.00322734808198 -0.0589871855233 0)
(-0.00320678005896 -0.0567002828906 0)
(-0.00318294221229 -0.0544293384695 0)
(-0.00315642149545 -0.0521764524389 0)
(-0.00312712241143 -0.0499435831117 0)
(-0.00309561504652 -0.0477324896935 0)
(-0.00306185148963 -0.045544776233 0)
(-0.0030263889302 -0.0433818365093 0)
(-0.00298922667142 -0.0412448948933 0)
(-0.00295090934671 -0.0391349543212 0)
(-0.0029114791787 -0.0370528351391 0)
(-0.00287146538475 -0.0349991276357 0)
(-0.00283094601245 -0.0329742303596 0)
(-0.00279042850361 -0.0309783076684 0)
(-0.00275001633171 -0.0290113288841 0)
(-0.0027101853489 -0.0270730316912 0)
(-0.00267104994235 -0.0251629637299 0)
(-0.00263303782131 -0.0232804531114 0)
(-0.00259624950176 -0.0214246546605 0)
(-0.00256102893932 -0.0195945304899 0)
(-0.00252740182571 -0.0177889066425 0)
(-0.00249551901889 -0.0160064681928 0)
(-0.00246511692453 -0.014245831304 0)
(-0.00243571110984 -0.0125055476859 0)
(-0.00240578835675 -0.010784125222 0)
(-0.0023720794648 -0.00907981531024 0)
(-0.00232678291455 -0.00738981126512 0)
(-0.00225130869175 -0.00571165664205 0)
(-0.00210059941617 -0.00391916554955 0)
(-0.00225844681815 -0.00225055863922 0)
(-0.00269829882985 -0.000745158060246 0)
(0.0150388236085 -0.00293644337962 0)
(0.0166517961881 -0.00994247667361 0)
(0.0165915477762 -0.0169111012201 -1.23611046002e-27)
(0.0163611585338 -0.0238957843284 0)
(0.0160502124236 -0.0307525773868 0)
(0.0156685617231 -0.0374582991872 0)
(0.0152226331157 -0.0439845805804 0)
(0.0147194603532 -0.0503057099184 0)
(0.0141662683854 -0.0563990544473 0)
(0.0135706304509 -0.0622452211888 0)
(0.0129398172262 -0.0678280907906 0)
(0.0122810910397 -0.0731347069205 0)
(0.0116010454218 -0.0781551370307 0)
(0.01090605583 -0.0828822271996 0)
(0.010201617876 -0.0873113705656 0)
(0.00949294902531 -0.0914402095349 0)
(0.00878431370318 -0.0952683829204 0)
(0.00807975354483 -0.098797235239 0)
(0.00738237833188 -0.102029588254 0)
(0.00669519703659 -0.104969491367 0)
(0.00602035494575 -0.107622040314 0)
(0.00536004095993 -0.109993181489 0)
(0.00471565847132 -0.112089580656 0)
(0.00408879033109 -0.113918478487 0)
(0.00348029925652 -0.115487602101 0)
(0.00289133828507 -0.116805062005 0)
(0.00232238406193 -0.117879293316 0)
(0.00177428472451 -0.118718981164 0)
(0.00124723427289 -0.119333019934 0)
(0.000741852349236 -0.119730456951 0)
(0.000258109462078 -0.119920460389 0)
(-0.000203560790923 -0.11991227362 0)
(-0.000643368501984 -0.119715181046 0)
(-0.00106104336859 -0.119338477966 0)
(-0.00145696957521 -0.118791430623 0)
(-0.00183103223429 -0.118083247272 0)
(-0.00218376380595 -0.117223044074 0)
(-0.00251519024444 -0.116219817318 0)
(-0.00282597773847 -0.115082411462 0)
(-0.00311627822166 -0.113819497299 0)
(-0.0033868698017 -0.112439541742 0)
(-0.00363801018061 -0.11095079347 0)
(-0.00387056289641 -0.10936125505 0)
(-0.00408486710687 -0.107678676338 0)
(-0.00428184280783 -0.105910530801 0)
(-0.00446188433804 -0.104064017157 0)
(-0.00462593798757 -0.102146039669 0)
(-0.00477442668587 -0.100163217523 0)
(-0.00490829449122 -0.0981218695102 0)
(-0.0050279684517 -0.0960280308896 0)
(-0.00513436491225 -0.0938874417562 0)
(-0.00522789419685 -0.0917055693898 0)
(-0.00530942468181 -0.0894876001512 0)
(-0.00537933467677 -0.087238466702 0)
(-0.00543843059342 -0.0849628414807 0)
(-0.00548704988507 -0.0826651662997 0)
(-0.00552593060438 -0.0803496471581 0)
(-0.00555536779956 -0.0780202845753 0)
(-0.0055760321938 -0.075680867671 0)
(-0.00558818177611 -0.0733350030709 0)
(-0.00559242813846 -0.0709861076047 0)
(-0.00558900363498 -0.0686374344148 0)
(-0.00557847424369 -0.0662920627962 0)
(-0.00556106197071 -0.0639529200488 0)
(-0.00553730397788 -0.0616227685649 0)
(-0.00550742884342 -0.0593042231003 0)
(-0.00547196209343 -0.0569997346584 0)
(-0.0054311544884 -0.0547116030811 0)
(-0.00538553499978 -0.0524419589719 0)
(-0.00533538873087 -0.0501927723713 0)
(-0.00528125873533 -0.0479658332892 0)
(-0.00522347123911 -0.0457627577152 0)
(-0.00516258849918 -0.0435849682691 0)
(-0.00509897865155 -0.0414336986972 0)
(-0.00503322205115 -0.039309976414 0)
(-0.00496572343938 -0.0372146263337 0)
(-0.0048970744335 -0.0351482562735 0)
(-0.00482770569987 -0.0331112623585 0)
(-0.0047582079424 -0.0311038175788 0)
(-0.00468902195564 -0.0291258792417 0)
(-0.00462072013403 -0.0271771822582 0)
(-0.00455373176119 -0.0252572489833 0)
(-0.00448858522668 -0.0233653867729 0)
(-0.00442566466388 -0.0215007012285 0)
(-0.00436540901091 -0.0196620961777 0)
(-0.00430808924811 -0.0178482860074 0)
(-0.00425394738072 -0.016057784999 0)
(-0.00420296199579 -0.0142888848754 0)
(-0.00415487132048 -0.0125395490854 0)
(-0.00410883565755 -0.0108071419192 0)
(-0.00406324181207 -0.00908772234073 0)
(-0.00401519822805 -0.00737406533685 0)
(-0.00396055696058 -0.00565232269637 0)
(-0.00389266141383 -0.00386606052802 0)
(-0.00392411414276 -0.00208117738032 0)
(-0.00369977003923 -0.000549753973678 0)
(0.0214404345032 -0.00298168730379 0)
(0.0237582279632 -0.0100925708701 0)
(0.0236691744474 -0.0171564958958 1.23553571794e-27)
(0.023335421896 -0.0242371942601 0)
(0.0228858737764 -0.0311846430313 0)
(0.0223350180537 -0.0379741748797 0)
(0.0216922812675 -0.0445762363938 0)
(0.0209677895618 -0.0509644171868 0)
(0.0201721769186 -0.0571157279032 0)
(0.0193163377648 -0.0630107286692 0)
(0.0184109648955 -0.0686334955908 0)
(0.0174664185256 -0.0739714814052 0)
(0.0164923597559 -0.0790153071841 0)
(0.0154977672807 -0.0837584868085 0)
(0.0144906687578 -0.0881971315546 0)
(0.0134782907889 -0.0923296311465 0)
(0.0124668627283 -0.0961563507191 0)
(0.0114618652095 -0.0996793328691 0)
(0.0104678695351 -0.102902035493 0)
(0.0094888457474 -0.105829088594 0)
(0.00852800372965 -0.108466092638 0)
(0.00758812934399 -0.110819438316 0)
(0.00667140411169 -0.112896164667 0)
(0.00577974856603 -0.114703834654 0)
(0.00491460878787 -0.116250441217 0)
(0.00407729684715 -0.117544324126 0)
(0.00326874242406 -0.118594108204 0)
(0.00248982735541 -0.119408646716 0)
(0.00174110669751 -0.119996977561 0)
(0.00102313896938 -0.12036828094 0)
(0.000336183943977 -0.120531842548 0)
(-0.00031946584401 -0.120497025542 0)
(-0.000943800447477 -0.120273218485 0)
(-0.00153676389403 -0.119869811896 0)
(-0.0020985798371 -0.11929616944 0)
(-0.00262941525366 -0.118561592166 0)
(-0.00312970556329 -0.117675285285 0)
(-0.00359982075882 -0.116646328831 0)
(-0.00404038720386 -0.115483646249 0)
(-0.00445195428284 -0.114195979683 0)
(-0.0048353106706 -0.112791862109 0)
(-0.00519115397906 -0.11127959792 0)
(-0.0055203994344 -0.109667240127 0)
(-0.00582385572543 -0.107962577143 0)
(-0.00610252473234 -0.106173115996 0)
(-0.00635728620846 -0.10430607628 0)
(-0.00658918710193 -0.102368378689 0)
(-0.00679913805789 -0.100366646247 0)
(-0.00698819157976 -0.0983071988163 0)
(-0.00715725221891 -0.0961960602082 0)
(-0.00730734267482 -0.0940389581024 0)
(-0.00743933000181 -0.0918413363288 0)
(-0.00755417911358 -0.089608359128 0)
(-0.00765269623616 -0.0873449272731 0)
(-0.00773576933822 -0.0850556850245 0)
(-0.00780413018957 -0.0827450386628 0)
(-0.00785858147244 -0.0804171648331 0)
(-0.00789977766812 -0.0780760291204 0)
(-0.00792843836903 -0.0757253942296 0)
(-0.00794514832894 -0.0733688369654 0)
(-0.00795055658013 -0.0710097545507 0)
(-0.00794519474287 -0.0686513784715 0)
(-0.00792966136661 -0.0662967776151 0)
(-0.00790445755213 -0.0639488678627 0)
(-0.00787015602039 -0.0616104115161 0)
(-0.007827252441 -0.059284022241 0)
(-0.00777631879712 -0.0569721604436 0)
(-0.00771786867605 -0.0546771338781 0)
(-0.00765249495351 -0.0524010900793 0)
(-0.0075807474493 -0.0501460132024 0)
(-0.00750325502093 -0.047913714416 0)
(-0.00742061418057 -0.045705826577 0)
(-0.00733349655702 -0.0435237940111 0)
(-0.00724254717122 -0.0413688665479 0)
(-0.00714847808386 -0.039242089931 0)
(-0.00705197575927 -0.0371443006106 0)
(-0.00695378219037 -0.0350761185393 0)
(-0.00685461054071 -0.0330379436175 0)
(-0.00675521497604 -0.0310299515388 0)
(-0.00665631398104 -0.0290520928889 0)
(-0.00655864976482 -0.0271040924218 0)
(-0.00646291843086 -0.0251854509808 0)
(-0.00636981847147 -0.0232954474257 0)
(-0.00627998603479 -0.0214331421976 0)
(-0.00619403070162 -0.019597377901 0)
(-0.0061124714758 -0.0177867771092 0)
(-0.0060357553538 -0.0159997251669 0)
(-0.00596419115457 -0.0142343268798 0)
(-0.00589796195419 -0.012488310326 0)
(-0.00583710907804 -0.0107588247611 0)
(-0.00578173818713 -0.00904207331719 0)
(-0.00573263452126 -0.00733265467074 0)
(-0.00569336193174 -0.00562341259725 0)
(-0.00567354227949 -0.003899866119 0)
(-0.00570127390132 -0.00221165045733 0)
(-0.00524245832093 -0.000624538291416 0)
(0.0279486329469 -0.00304109373598 0)
(0.0309730982942 -0.0102899072424 0)
(0.0308526214542 -0.0174860540414 0)
(0.0304101702145 -0.0246957984275 0)
(0.0298147245278 -0.0317642715443 0)
(0.0290858898548 -0.0386650915111 0)
(0.0282365473432 -0.0453672724626 0)
(0.0272803925658 -0.0518434903842 0)
(0.026231803575 -0.0580703135178 0)
(0.0251053754832 -0.0640282820145 0)
(0.0239154363054 -0.0697018048818 0)
(0.0226757141998 -0.0750789531436 0)
(0.021399018833 -0.0801511723014 0)
(0.0200970927583 -0.084912939679 0)
(0.0187804581321 -0.0893613989584 0)
(0.0174584269131 -0.0934959904401 0)
(0.0161390709333 -0.0973180989628 0)
(0.0148293384481 -0.100830727987 0)
(0.0135350922809 -0.104038211084 0)
(0.0122612785737 -0.106945960944 0)
(0.0110119848913 -0.109560259493 0)
(0.0097906197215 -0.11188808398 0)
(0.00859995823352 -0.113936968054 0)
(0.00744230764579 -0.115714890823 0)
(0.00631952459878 -0.117230190721 0)
(0.00523315601369 -0.118491497867 0)
(0.00418442481469 -0.119507680577 0)
(0.00317434630915 -0.120287802139 0)
(0.00220368693038 -0.120841083412 0)
(0.00127306192785 -0.121176870323 0)
(0.000382875339697 -0.121304599262 0)
(-0.00046659348123 -0.121233780106 0)
(-0.00127525621325 -0.120973932947 0)
(-0.00204313667606 -0.120534582129 0)
(-0.00277044352711 -0.119925218749 0)
(-0.00345748849148 -0.11915526608 0)
(-0.00410475705057 -0.118234046432 0)
(-0.00471282657237 -0.117170750126 0)
(-0.00528243323022 -0.115974404157 0)
(-0.00581438898253 -0.114653844472 0)
(-0.00630964391294 -0.11321768935 0)
(-0.0067692029024 -0.11167431657 0)
(-0.007194183476 -0.11003184278 0)
(-0.0075857337853 -0.108298106975 0)
(-0.00794508621534 -0.106480656336 0)
(-0.00827347839605 -0.104586737159 0)
(-0.0085722032501 -0.102623287008 0)
(-0.00884253425913 -0.100596932843 0)
(-0.00908577265961 -0.098513989534 0)
(-0.00930317827042 -0.0963804646687 0)
(-0.00949601436357 -0.0942020627943 0)
(-0.0096654852273 -0.091984195261 0)
(-0.00981277919295 -0.089731989531 0)
(-0.00993901374573 -0.0874503029165 0)
(-0.0100452772757 -0.085143735146 0)
(-0.0101325822488 -0.0828166440645 0)
(-0.010201906157 -0.0804731599749 0)
(-0.0102541527579 -0.0781172016327 0)
(-0.0102901920718 -0.0757524898065 0)
(-0.0103108295695 -0.0733825617447 0)
(-0.0103168449126 -0.0710107823876 0)
(-0.0103089678893 -0.0686403554562 0)
(-0.0102879152357 -0.0662743308443 0)
(-0.0102543719858 -0.0639156110063 0)
(-0.0102090253268 -0.0615669539482 0)
(-0.010152549964 -0.0592309745172 0)
(-0.0100856375741 -0.0569101423419 0)
(-0.010008984149 -0.054606779023 0)
(-0.00992331490812 -0.0523230521247 0)
(-0.00982937229886 -0.050060968294 0)
(-0.00972793528301 -0.0478223649884 0)
(-0.00961980693834 -0.0456089013595 0)
(-0.00950582869045 -0.0434220490946 0)
(-0.00938686688299 -0.041263082838 0)
(-0.00926382196214 -0.0391330716708 0)
(-0.00913761413632 -0.0370328707241 0)
(-0.00900918858328 -0.0349631148368 0)
(-0.00887950025469 -0.03292421239 0)
(-0.0087495157162 -0.0309163417765 0)
(-0.00862019738742 -0.028939448463 0)
(-0.00849250294334 -0.0269932445714 0)
(-0.00836736902961 -0.0250772087816 0)
(-0.00824570828514 -0.023190588298 0)
(-0.00812839255739 -0.021332399441 0)
(-0.0080162480426 -0.0195014285286 0)
(-0.00791003883519 -0.0176962269755 0)
(-0.00781046432386 -0.0159150986569 0)
(-0.00771815493662 -0.0141560705017 0)
(-0.00763370352542 -0.0124168377884 0)
(-0.00755774947486 -0.010694685792 0)
(-0.00749120701444 -0.00898641120755 0)
(-0.00743576794717 -0.00728832781157 0)
(-0.00739486323552 -0.00559691367734 0)
(-0.00737299569876 -0.00390820493759 0)
(-0.0073476872002 -0.00225980005271 0)
(-0.00663596536609 -0.000658078038678 0)
(0.0346012564932 -0.0031163765049 0)
(0.0383433190175 -0.0105425361361 0)
(0.0381867980831 -0.0179103317326 0)
(0.0376276225663 -0.0252863958685 0)
(0.036875894948 -0.0325101573014 0)
(0.0359568484188 -0.03955314183 0)
(0.0348873685035 -0.0463826220477 0)
(0.0336852936504 -0.0529701744189 0)
(0.0323692454574 -0.0592918803146 0)
(0.0309579864407 -0.0653283479094 0)
(0.0294698277568 -0.0710645198375 0)
(0.0279221661729 -0.0764893669845 0)
(0.02633112898 -0.0815954958416 0)
(0.0247113577531 -0.0863787076496 0)
(0.0230758833986 -0.0908375442188 0)
(0.0214361136675 -0.0949728456465 0)
(0.0198018729189 -0.0987873407452 0)
(0.0181815169523 -0.102285281214 0)
(0.0165820592396 -0.105472127143 0)
(0.0150093393922 -0.1083542839 0)
(0.0134681717279 -0.110938889728 0)
(0.0119625145804 -0.113233647896 0)
(0.0104956005979 -0.115246698843 0)
(0.00907007743621 -0.116986524375 0)
(0.00768810091582 -0.118461877731 0)
(0.00635143699416 -0.119681732587 0)
(0.00506151532956 -0.12065524567 0)
(0.00381949519169 -0.121391726864 0)
(0.00262628666942 -0.121900614358 0)
(0.00148259043651 -0.122191450745 0)
(0.000388897818969 -0.122273854857 0)
(-0.000654487019409 -0.122157515846 0)
(-0.00164744728413 -0.121852114664 0)
(-0.00259004411119 -0.121367343976 0)
(-0.00348252410769 -0.120712854528 0)
(-0.00432530124982 -0.119898224333 0)
(-0.00511896565342 -0.118932924479 0)
(-0.00586426174182 -0.117826285715 0)
(-0.00656209272272 -0.116587466534 0)
(-0.00721349561916 -0.115225422852 0)
(-0.00781964124823 -0.113748880945 0)
(-0.00838180684422 -0.112166312655 0)
(-0.00890137230458 -0.110485914393 0)
(-0.00937979205109 -0.108715589753 0)
(-0.00981858879283 -0.106862935464 0)
(-0.0102193259423 -0.104935231522 0)
(-0.0105836002397 -0.10293943482 0)
(-0.0109130162255 -0.100882176751 0)
(-0.0112091788981 -0.0987697636606 0)
(-0.0114736712641 -0.0966081815593 0)
(-0.0117080481248 -0.0944031025714 0)
(-0.0119138179303 -0.092159895755 0)
(-0.0120924386203 -0.0898836386578 0)
(-0.0122453045583 -0.0875791321344 0)
(-0.0123737452085 -0.0852509157432 0)
(-0.0124790178067 -0.0829032847217 0)
(-0.0125623095579 -0.08054030716 0)
(-0.012624736168 -0.0781658412421 0)
(-0.0126673474567 -0.0757835515504 0)
(-0.0126911313867 -0.0733969244353 0)
(-0.0126970228106 -0.0710092816631 0)
(-0.0126859115817 -0.0686237917314 0)
(-0.0126586533027 -0.0662434788767 0)
(-0.0126160806626 -0.0638712299774 0)
(-0.0125590136008 -0.0615097962759 0)
(-0.0124882720423 -0.0591617960609 0)
(-0.0124046846381 -0.056829711168 0)
(-0.0123091000522 -0.0545158832171 0)
(-0.0122023933096 -0.0522225059443 0)
(-0.0120854744643 -0.0499516173233 0)
(-0.0119592907811 -0.0477050893523 0)
(-0.0118248319515 -0.0454846173292 0)
(-0.0116831284154 -0.0432917086986 0)
(-0.0115352526968 -0.041127672338 0)
(-0.0113823137823 -0.0389936081432 0)
(-0.0112254548922 -0.0368903971746 0)
(-0.0110658448599 -0.0348186940735 0)
(-0.0109046733392 -0.0327789200831 0)
(-0.0107431399876 -0.030771258591 0)
(-0.0105824473195 -0.0287956512329 0)
(-0.01042378882 -0.0268517968356 0)
(-0.0102683409034 -0.0249391513789 0)
(-0.0101172504399 -0.0230569289119 0)
(-0.00997162666126 -0.0212041032199 0)
(-0.00983253067339 -0.0193794094572 0)
(-0.00970097044485 -0.0175813430021 0)
(-0.00957789902888 -0.0158081556024 0)
(-0.00946422731582 -0.0140578460355 0)
(-0.00936085892441 -0.0123281483978 0)
(-0.00926877167112 -0.0106165373036 0)
(-0.00918916082457 -0.0089202656825 0)
(-0.00912368562709 -0.00723657267393 0)
(-0.00907465084343 -0.00556327554076 0)
(-0.00904256046936 -0.00389797389934 0)
(-0.00898443816747 -0.00227083935945 0)
(-0.00807513781386 -0.000666375604875 0)
(0.0414353001917 -0.00320962944143 0)
(0.0459108001862 -0.0108561749819 0)
(0.0457117866818 -0.0184376639846 1.22594019339e-27)
(0.0450250181627 -0.0260201169771 0)
(0.0441031954368 -0.0334358302477 0)
(0.0429778539525 -0.0406536916935 0)
(0.0416705980087 -0.0476388666371 0)
(0.0402041356343 -0.0543616566828 0)
(0.0386019990859 -0.0607976698384 0)
(0.0368877049916 -0.0669277546398 0)
(0.035084010949 -0.0727376857503 0)
(0.0332123353336 -0.0782177180845 0)
(0.0312923442403 -0.0833620522394 0)
(0.0293417042189 -0.0881682619451 0)
(0.0273759745003 -0.0926367247263 0)
(0.0254086201914 -0.0967700873992 0)
(0.0234511106878 -0.100572786733 0)
(0.0215130834349 -0.104050637092 0)
(0.0196025404117 -0.107210488169 0)
(0.0177260649276 -0.11005995183 0)
(0.0158890340225 -0.112607191254 0)
(0.0140958230172 -0.114860765416 0)
(0.0123499855996 -0.116829518659 0)
(0.0106544130091 -0.118522506898 0)
(0.00901146196186 -0.119948950163 0)
(0.00742305980174 -0.121118204752 0)
(0.00589078016209 -0.122039745797 0)
(0.00441590065339 -0.122723156057 0)
(0.0029994383441 -0.123178115061 0)
(0.00164217466978 -0.123414387148 0)
(0.000344666693239 -0.123441800269 0)
(-0.000892752170123 -0.123270253811 0)
(-0.00206995107945 -0.122909616527 0)
(-0.00318702047822 -0.122369784269 0)
(-0.00424426150776 -0.121660599956 0)
(-0.00524218427933 -0.120791830346 0)
(-0.0061815030059 -0.119773128161 0)
(-0.00706312669589 -0.11861399681 0)
(-0.00788814881905 -0.11732375586 0)
(-0.00865783282364 -0.115911508896 0)
(-0.00937359646916 -0.114386114334 0)
(-0.0100369935447 -0.112756159286 0)
(-0.0106496944274 -0.11102993748 0)
(-0.0112134655911 -0.109215430718 0)
(-0.0117301483002 -0.107320295204 0)
(-0.0122016378481 -0.105351851262 0)
(-0.0126298620081 -0.103317077665 0)
(-0.013016761562 -0.101222609409 0)
(-0.0133642700435 -0.0990747400517 0)
(-0.0136742969626 -0.0968794269449 0)
(-0.0139487100623 -0.0946423000797 0)
(-0.0141893224776 -0.0923686740127 0)
(-0.0143978787416 -0.0900635619647 0)
(-0.0145760469814 -0.0877316928465 0)
(-0.0147254097409 -0.0853775293062 0)
(-0.0148474619073 -0.0830052869096 0)
(-0.0149436071158 -0.0806189544982 0)
(-0.0150151619026 -0.0782223132787 0)
(-0.0150633575999 -0.0758189564848 0)
(-0.0150893501658 -0.0734123062203 0)
(-0.0150942272104 -0.0710056294281 0)
(-0.0150790225264 -0.068602051292 0)
(-0.0150447256605 -0.0662045632507 0)
(-0.0149922996948 -0.063816032721 0)
(-0.014922692038 -0.0614392046373 0)
(-0.0148368518186 -0.0590767023883 0)
(-0.0147357404808 -0.05673102503 0)
(-0.0146203464292 -0.0544045403061 0)
(-0.0144916925678 -0.052099476915 0)
(-0.0143508475768 -0.0498179139428 0)
(-0.0141989284521 -0.0475617685853 0)
(-0.0140371068835 -0.045332783152 0)
(-0.0138666072984 -0.0431325119516 0)
(-0.0136887077861 -0.0409623081967 0)
(-0.0135047337023 -0.0388233115422 0)
(-0.0133160543918 -0.0367164374814 0)
(-0.0131240727776 -0.0346423669981 0)
(-0.0129302187641 -0.0326015391913 0)
(-0.012735936751 -0.030594145215 0)
(-0.0125426767173 -0.0286201247583 0)
(-0.0123518805782 -0.0266791635475 0)
(-0.012164972409 -0.0247706937932 0)
(-0.0119833453911 -0.0228938954968 0)
(-0.0118083526144 -0.0210476990753 0)
(-0.0116412973415 -0.0192307896379 0)
(-0.0114834286091 -0.0174416106319 0)
(-0.0113359405898 -0.0156783689213 0)
(-0.0111999835036 -0.0139390417632 0)
(-0.0110766883709 -0.0122213889299 0)
(-0.0109672157437 -0.0105229889049 0)
(-0.0108728211793 -0.0088413353057 0)
(-0.0107949099316 -0.00717399155483 0)
(-0.0107348836133 -0.00551892943183 0)
(-0.0106910126477 -0.0038733128865 0)
(-0.0106087880458 -0.0022633467372 0)
(-0.00951997436861 -0.000666097359721 0)
(0.0484918216246 -0.00332297960415 0)
(0.0537206721995 -0.0112374638235 0)
(0.053470793327 -0.0190785604246 -1.22528692224e-27)
(0.0526423365147 -0.0269110169842 0)
(0.0515325874641 -0.0345582197848 0)
(0.0501803306711 -0.0419857776053 0)
(0.0486128477206 -0.049156328932 0)
(0.0468586648747 -0.0560387581806 0)
(0.04494709155 -0.0626082948201 0)
(0.0429071373691 -0.0688463192796 0)
(0.0407665848427 -0.0747398723728 0)
(0.0385512881059 -0.0802810164384 0)
(0.0362847037371 -0.0854661097493 0)
(0.0339876362163 -0.090295060478 0)
(0.0316781663251 -0.0947706118179 0)
(0.0293717240103 -0.0988976936764 0)
(0.027081265568 -0.102682862526 0)
(0.0248175180698 -0.106133837406 0)
(0.02258925902 -0.109259132524 0)
(0.0204036057592 -0.112067778227 0)
(0.0182662952322 -0.11456912071 0)
(0.0161819410279 -0.116772686599 0)
(0.0141542587821 -0.118688100519 0)
(0.0121862558478 -0.120325040881 0)
(0.0102803839338 -0.121693225076 0)
(0.00843865593797 -0.122802409837 0)
(0.00666273022881 -0.123662401562 0)
(0.0049539673663 -0.124283066771 0)
(0.00331346436357 -0.124674339795 0)
(0.0017420724612 -0.124846222658 0)
(0.000240406389569 -0.124808774428 0)
(-0.00119117298164 -0.124572133185 0)
(-0.00255252550164 -0.124146381146 0)
(-0.00384376843509 -0.123541652026 0)
(-0.00506526425531 -0.122768015373 0)
(-0.00621762177134 -0.12183546236 0)
(-0.00730169085572 -0.120753862872 0)
(-0.00831855311457 -0.119532927011 0)
(-0.00926950903966 -0.118182167469 0)
(-0.0101560614428 -0.116710864788 0)
(-0.0109798960406 -0.115128035455 0)
(-0.0117428596729 -0.113442403922 0)
(-0.0124469364486 -0.111662379302 0)
(-0.0130942231308 -0.109796036091 0)
(-0.0136869033526 -0.10785109982 0)
(-0.0142272225194 -0.105834936979 0)
(-0.0147174621355 -0.103754549975 0)
(-0.0151599160255 -0.101616575967 0)
(-0.0155568665079 -0.0994272900058 0)
(-0.0159105636488 -0.0971926123306 0)
(-0.0162232046067 -0.094918118671 0)
(-0.0164969173183 -0.0926090549816 0)
(-0.0167337446442 -0.0902703536355 0)
(-0.0169356336273 -0.08790665362 0)
(-0.0171044258638 -0.0855223210516 0)
(-0.017241853487 -0.0831214725742 0)
(-0.0173495365397 -0.0807079976695 0)
(-0.017428986354 -0.078285582304 0)
(-0.0174816098717 -0.0758577305999 0)
(-0.0175087204049 -0.0734277855283 0)
(-0.0175115483413 -0.0709989461148 0)
(-0.0174912567411 -0.0685742827395 0)
(-0.0174489566914 -0.0661567490751 0)
(-0.0173857261237 -0.0637491893212 0)
(-0.0173026267364 -0.0613543416397 0)
(-0.0172007230218 -0.0589748380299 0)
(-0.0170810977002 -0.0566131993821 0)
(-0.0169448682343 -0.0542718292795 0)
(-0.016793197901 -0.0519530012516 0)
(-0.0166273076145 -0.0496588475375 0)
(-0.0164484814251 -0.0473913434046 0)
(-0.0162580715973 -0.0451522910585 0)
(-0.0160574986023 -0.0429433048123 0)
(-0.0158482497032 -0.0407657943662 0)
(-0.0156318728741 -0.038620950551 0)
(-0.0154099706855 -0.0365097321492 0)
(-0.0151841895253 -0.0344328545524 0)
(-0.0149562094935 -0.0323907803129 0)
(-0.0147277311725 -0.0303837129599 0)
(-0.0145004631724 -0.0284115915413 0)
(-0.0142761074817 -0.0264740890213 0)
(-0.0140563471662 -0.0245706126149 0)
(-0.0138428318728 -0.0227003055025 0)
(-0.0136371670977 -0.0208620516609 0)
(-0.013440903051 -0.0190544819706 0)
(-0.0132555285283 -0.017275982634 0)
(-0.0130824676236 -0.0155247069359 0)
(-0.012923083314 -0.013798589752 0)
(-0.0127786890869 -0.0120953748599 0)
(-0.0126505658549 -0.0104126588119 0)
(-0.0125399760122 -0.00874795884197 0)
(-0.0124481419756 -0.00709883995212 0)