/*--------------------------------*- C++ -*----------------------------------*\
| =========                 |                                                 |
| \\      /  F ield         | OpenFOAM: The Open Source CFD Toolbox           |
|  \\    /   O peration     | Version:  v1906                                 |
|   \\  /    A nd           | Web:      www.OpenFOAM.com                      |
|    \\/     M anipulation  |                                                 |
\*---------------------------------------------------------------------------*/
FoamFile
{
    version     2.0;
    format      ascii;
    class       volScalarField;
    location    "39";
    object      p;
}
// * * * * * * * * * * * * * * * * * * * * * * * * * * * * * * * * * * * * * //

dimensions      [0 2 -2 0 0 0 0];


internalField   nonuniform List<scalar> 
9216
(
319.918672009
320.026887875
320.281329022
320.656244699
321.154581139
321.776350961
322.52068897
323.383550595
324.363430427
325.458182347
326.664217735
327.973052661
329.384128717
330.889240875
332.482873493
334.16786465
335.946002575
337.817695225
339.772190157
341.799664271
343.903804148
346.065407578
348.270623939
350.525819318
352.826406143
355.17309282
357.550752878
359.952193296
362.382485604
364.828946007
367.28736021
369.733206084
372.162379579
374.620910862
377.085522163
379.538632848
381.975618027
384.37700735
386.737912992
389.056985331
391.327610797
393.545515106
395.690380853
397.761853916
399.770862826
401.717425892
403.585907958
405.375925316
407.080106399
408.694010786
410.212467693
411.638337223
412.966418891
414.195783465
415.321082367
416.345341693
417.267550453
418.089616379
418.809238297
419.427031718
419.949776002
420.390755914
420.761816888
421.076388894
421.343947381
421.572440987
421.769222902
421.94505015
422.105140065
422.252797844
422.389960181
422.519845171
422.643955432
422.765486353
422.884556798
423.000625934
423.113366399
423.224471181
423.333447838
423.438934123
423.539469541
423.636102873
423.729579489
423.819177614
423.901920918
423.978914562
424.050949144
424.115084929
424.16664978
424.205439524
424.232403777
424.250927641
424.264321711
424.272834991
424.276768998
424.277647071
319.809854321
319.918309226
320.164053807
320.537919971
321.037066359
321.660337244
322.406620971
323.271811164
324.253302384
325.349682168
326.556907279
327.871605954
329.288204304
330.7970471
332.394752741
334.085645065
335.870185734
337.744219774
339.700490752
341.727299296
343.830758553
346.00247162
348.221018793
350.481951097
352.783165896
355.126957223
357.505216955
359.91269125
362.351062152
364.806926244
367.263154017
369.721128434
372.181067758
374.647379304
377.11388884
379.570555206
382.00985422
384.413896714
386.778584655
389.100312439
391.369552387
393.58760732
395.744580931
397.828520148
399.840661959
401.787492184
403.660732259
405.454898738
407.165613319
408.784352866
410.306799163
411.734715509
413.066264313
414.295041163
415.416453611
416.43663683
417.356775836
418.177634883
418.893000834
419.502199364
420.015695919
420.446819305
420.807858944
421.113538539
421.375148952
421.597856695
421.789294667
421.959754289
422.116301345
422.261721411
422.397460371
422.525483448
422.648108936
422.768225667
422.886927018
423.002067132
423.113980738
423.224189797
423.333524912
423.439841303
423.540959979
423.636781618
423.7289995
423.818524465
423.902468446
423.979897565
424.05121102
424.114436017
424.167598295
424.208157143
424.234572273
424.252632344
424.266468002
424.274385718
424.277639225
424.278707289
319.553381736
319.671888722
319.919157457
320.29528209
320.797351897
321.423620387
322.173283587
323.043191252
324.030082135
325.132508929
326.345239088
327.664073007
329.086770184
330.609584325
332.216864777
333.913022575
335.708228139
337.58964688
339.553146191
341.591599114
343.702125854
345.876832791
348.108703354
350.382673751
352.69599407
355.05178882
357.436693005
359.847733415
362.285742244
364.75134447
367.226491193
369.709368743
372.190773394
374.666834842
377.14514046
379.613328969
382.058980414
384.471372552
386.846158118
389.178733999
391.461541194
393.691683686
395.853882729
397.948885687
399.974312393
401.92853017
403.809930819
405.612628786
407.336121106
408.957557337
410.480914738
411.91160072
413.243990419
414.471230972
415.592916414
416.609641355
417.522657349
418.332870833
419.03821376
419.637727209
420.136544562
420.550891703
420.895919679
421.186594148
421.43434334
421.645535327
421.828517081
421.992396254
422.14320713
422.282445874
422.410892571
422.53413504
422.653181561
422.77134118
422.891106347
423.005682497
423.118151
423.229127984
423.337174005
423.441406976
423.542514806
423.638646557
423.730634639
423.820114637
423.904746155
423.982858548
424.051341113
424.112610141
424.168057175
424.211176206
424.237342215
424.256104063
424.269772859
424.27718276
424.281130554
424.283117694
319.172030254
319.294302543
319.544618089
319.924177132
320.431201287
321.063112083
321.819218014
322.696614782
323.691615236
324.801201992
326.023218325
327.35286609
328.786810455
330.316347362
331.93649072
333.650626156
335.458079455
337.352373499
339.329303614
341.382111171
343.509013827
345.697416877
347.940843984
350.232113818
352.555914921
354.918214307
357.312360168
359.742833397
362.19929015
364.673456038
367.167867533
369.673139079
372.180416233
374.684403772
377.186075186
379.680240818
382.141864275
384.565907055
386.957139906
389.314209381
391.612027112
393.841359988
396.003095888
398.101023167
400.140187123
402.107291955
404.002990004
405.820083876
407.552299368
409.197780811
410.738321768
412.175145658
413.515298547
414.743966404
415.865757638
416.877806321
417.779840743
418.57312635
419.261090666
419.843444417
420.319299812
420.707181032
421.02380689
421.28927804
421.517842911
421.714715357
421.885221684
422.037558611
422.178119461
422.30972718
422.432816358
422.551236179
422.664582847
422.779523193
422.895842102
423.009324874
423.122962745
423.235738981
423.344976058
423.450697379
423.551406396
423.644357773
423.734171996
423.82347755
423.908647535
423.986083477
424.053431364
424.114876637
424.168619111
424.211264417
424.242365198
424.262501902
424.275772223
424.283808422
424.288062526
424.290069499
318.660580887
318.785628914
319.039780317
319.424045212
319.937675388
320.577715608
321.34297882
322.230046226
323.235799713
324.357895499
325.592926924
326.937706332
328.382254919
329.923234895
331.56138582
333.294039941
335.119462859
337.031516153
339.028894512
341.100863038
343.242477403
345.45226053
347.714406015
350.018686251
352.352213643
354.729016808
357.145317229
359.590937279
362.071155274
364.576371451
367.099986805
369.640014952
372.177410825
374.704789794
377.233424612
379.749780378
382.23946055
384.701460062
387.106244692
389.441049708
391.73168631
393.981365344
396.174772842
398.31291038
400.373662553
402.351848966
404.268301725
406.106259311
407.85430902
409.51289282
411.071691197
412.537978703
413.889690611
415.116256868
416.239562294
417.24878645
418.139737029
418.915697433
419.578798919
420.128908528
420.56785273
420.914315998
421.184934714
421.414562666
421.618117996
421.793143697
421.948447177
422.085935983
422.214465038
422.335823014
422.452165588
422.565073344
422.675086882
422.784243696
422.895179536
423.007772882
423.126189551
423.243892091
423.355111816
423.462512679
423.563077875
423.655451455
423.745187656
423.834010587
423.917646931
423.993064936
424.059023574
424.118726011
424.173291514
424.216917434
424.249144582
424.271669348
424.285796306
424.294255963
424.298593134
424.300863002
318.01720284
318.144782827
318.403690563
318.794433284
319.316044653
319.966445702
320.743234385
321.642830775
322.662988451
323.800648693
325.052728044
326.412249525
327.873462502
329.432827555
331.090423568
332.844231585
334.69360045
336.628008436
338.643229543
340.739512129
342.911480812
345.142897574
347.420192537
349.737271086
352.087236741
354.48274545
356.926715159
359.407528196
361.919251466
364.462515483
367.018567867
369.580414629
372.153765209
374.72452795
377.296226556
379.853384028
382.342920378
384.795770085
387.211384424
389.572950678
391.901112927
394.188493559
396.4085895
398.558215747
400.645921711
402.659840057
404.613245562
406.473253679
408.235606409
409.916579676
411.49635433
412.98340232
414.346873007
415.581250095
416.716213682
417.714620432
418.593788356
419.339360414
419.966851406
420.476019493
420.833803153
421.10095015
421.3033024
421.486118093
421.658920311
421.816175745
421.954836309
422.08506218
422.211609464
422.335208942
422.455471031
422.571932799
422.684451054
422.79565755
422.904366893
423.016219098
423.138061446
423.252607734
423.362476618
423.470608446
423.572122881
423.665370856
423.754291275
423.841371665
423.926413088
424.002490182
424.07158878
424.133803732
424.18605849
424.226229332
424.258983175
424.283998529
424.298894235
424.309265057
424.314275613
424.316990252
317.239170511
317.369444407
317.633871023
318.033129288
318.565145252
319.228351039
320.019547843
320.934367001
321.971782328
323.128466857
324.400693526
325.779220488
327.259559313
328.843943285
330.525692915
332.301425699
334.17304379
336.133958487
338.178477368
340.303599853
342.506785011
344.763331688
347.052022917
349.38188796
351.760232453
354.192417596
356.671953771
359.194093364
361.740050497
364.307828655
366.903096762
369.512900026
372.135738103
374.747279562
377.353086128
379.922082522
382.419406342
384.891543025
387.337918384
389.75212505
392.112632489
394.412008513
396.666393153
398.871545305
400.99062229
403.025647443
404.999990492
406.892191677
408.699499659
410.403852956
412.000844756
413.506084265
414.88424113
416.134592713
417.26393928
418.249515881
419.114946759
419.840132183
420.376941566
420.70428148
420.944263417
421.133797359
421.301502643
421.472699059
421.635320388
421.788422839
421.931832049
422.068054943
422.199062471
422.326699998
422.450825343
422.570981904
422.687335848
422.802210387
422.916640751
423.035044282
423.155272758
423.270124377
423.380664672
423.487172344
423.584645358
423.676976714
423.766754295
423.850672754
423.931714561
424.011845686
424.086714555
424.150049005
424.201619987
424.243566423
424.276821293
424.302005279
424.318156666
424.329278313
424.335119768
424.337902504
316.323821136
316.456772945
316.727575321
317.137331794
317.680553622
318.359039281
319.168692664
320.102955063
321.160666988
322.340977339
323.634828983
325.036210001
326.542354817
328.151575229
329.859337587
331.665073558
333.565501613
335.556010196
337.632252057
339.792367702
342.021837205
344.299756573
346.607569667
348.963580469
351.381339182
353.853291866
356.37624514
358.931538184
361.512974987
364.129816907
366.773627851
369.435906883
372.096793688
374.755975423
377.385086954
379.952402863
382.490775351
385.02130708
387.501360566
389.932988899
392.332871618
394.683175763
396.987006902
399.217909902
401.365231472
403.451655719
405.470487732
407.393542511
409.216703117
410.953753454
412.582894841
414.100278605
415.492041719
416.755194919
417.884226006
418.870746491
419.725626753
420.193971048
420.493154365
420.721513375
420.921615585
421.097467311
421.262881391
421.42956118
421.593286807
421.750480037
421.900622956
422.044377825
422.182525092
422.316227777
422.445585819
422.570808974
422.692571669
422.812363627
422.931330936
423.050985914
423.169598723
423.283977534
423.394469466
423.500276292
423.599316412
423.693375689
423.783115784
423.869011475
423.951980619
424.031500948
424.103557424
424.164902485
424.219414186
424.268020842
424.30181009
424.327598652
424.3451097
424.354270845
424.361720953
424.364372608
315.26706079
315.40305431
315.680841114
316.102342967
316.660586158
317.355875213
318.186292128
319.144330605
320.226873884
321.433484479
322.755262336
324.185115941
325.717867898
327.355136754
329.094774724
330.932935154
332.86623391
334.890595397
337.002123775
339.198093986
341.453112632
343.749248995
346.090365392
348.486325009
350.946766714
353.465485787
356.024946192
358.618877758
361.25329542
363.923686062
366.626747184
369.330417718
372.042201571
374.734132307
377.367169153
379.97887146
382.585281138
385.148702239
387.66112742
390.150288674
392.612314299
395.001514662
397.322631083
399.594826253
401.814586262
403.940711465
405.97809035
407.943964037
409.805987647
411.561941244
413.208263257
414.751968406
416.157065412
417.448762741
418.591344613
419.477917222
419.94403758
420.221741798
420.454362406
420.659803796
420.849413372
421.031098331
421.206311275
421.378923201
421.547922616
421.711446212
421.868904038
422.020322892
422.165860492
422.306055602
422.44101405
422.571370318
422.698213152
422.8224918
422.944760486
423.065523685
423.184164281
423.299191836
423.410308628
423.516765983
423.617731743
423.713692249
423.804999498
423.892455952
423.975361458
424.053038695
424.12383995
424.187664092
424.245517679
424.295146591
424.333308082
424.36017911
424.377585253
424.385180112
424.393854848
424.396005102
314.063330414
314.204129369
314.490597592
314.924692882
315.501131757
316.217643112
317.072517424
318.057569776
319.168893553
320.403998815
321.757005472
323.218156106
324.785772676
326.456035481
328.230654113
330.104761821
332.074885889
334.137239864
336.290819815
338.520347841
340.800404496
343.118447759
345.498668922
347.944871706
350.455545348
353.014531185
355.616070461
358.266830423
360.956736362
363.690688524
366.451414952
369.20176806
371.943956735
374.654993047
377.338402756
380.024465862
382.671774368
385.275517345
387.853241034
390.405806446
392.90230595
395.328187112
397.708932824
400.040165571
402.294348937
404.464368429
406.543854876
408.540402783
410.422287986
412.198659787
413.886615312
415.458491822
416.896549122
418.228795403
419.12916178
419.60652053
419.9152079
420.144919338
420.357721786
420.564462742
420.762635069
420.954861011
421.14173287
421.32404176
421.501447822
421.67306786
421.838460637
421.997526478
422.150252356
422.296883469
422.437433424
422.572715665
422.704115124
422.832405371
422.957902768
423.080871055
423.201067603
423.317686058
423.430223606
423.538107418
423.640866414
423.738493506
423.83113461
423.919010192
424.00168948
424.078983491
424.15026268
424.214850589
424.272954946
424.324138986
424.367673732
424.400935518
424.416941682
424.423539746
424.43056983
424.43347685
312.708810029
312.855730446
313.152751388
313.602536205
314.199706784
314.941027759
315.824480815
316.841161145
317.987492295
319.256489792
320.643643361
322.138474601
323.741949392
325.452015546
327.265747831
329.179473643
331.189852797
333.293376186
335.491591807
337.748008383
340.05305397
342.416947504
344.843184769
347.341700249
349.895006341
352.499090029
355.160725486
357.875918195
360.622812376
363.401235604
366.221761865
369.018682397
371.800272029
374.572173985
377.325245038
380.0568101
382.752804636
385.441132494
388.073384871
390.653485982
393.20353014
395.715662919
398.141144711
400.493144714
402.802565476
405.012992854
407.135555821
409.160839952
411.085456866
412.899270146
414.616030862
416.208128707
417.705529869
418.761149946
419.205721587
419.516073401
419.784019681
420.016509621
420.239182213
420.456697397
420.667938989
420.873318744
421.072886034
421.266522641
421.453945135
421.634713327
421.808561288
421.975409503
422.135271627
422.288311724
422.434472829
422.574653994
422.710497592
422.842819174
422.971884465
423.0978325
423.22050035
423.339368845
423.453937011
423.563725349
423.668357442
423.767661347
423.861610918
423.950182954
424.033185056
424.110438045
424.181495276
424.245887509
424.303894311
424.356441767
424.403564513
424.442530128
424.465173522
424.469766771
424.47298617
424.47760054
311.200315696
311.353945095
311.662349021
312.13055505
312.75194569
313.522278005
314.438875228
315.491878319
316.676995451
317.986794089
319.41366229
320.948998354
322.591765577
324.343691244
326.199811138
328.156393786
330.209988396
332.358460677
334.593779193
336.889640465
339.224440028
341.632037617
344.119067534
346.662898182
349.262606053
351.927941679
354.654921835
357.423872527
360.228545921
363.091302486
365.947613311
368.790078586
371.634122
374.469102536
377.283836613
380.07163688
382.858854841
385.596955564
388.280238698
390.935899039
393.56054013
396.115076232
398.579197226
400.999974811
403.338645966
405.592441812
407.752412375
409.819176415
411.777294681
413.626700336
415.360497697
417.011278168
418.255528696
418.778466311
419.073024714
419.346938904
419.615406936
419.866409481
420.106997659
420.340772848
420.567855296
420.788126284
421.001343577
421.207202606
421.405471416
421.59595733
421.778571283
421.953336318
422.120356124
422.279816076
422.431637269
422.576799787
422.71718452
422.853741206
422.986712869
423.116145194
423.24188197
423.363534603
423.480655698
423.59281517
423.699658683
423.800944099
423.896531149
423.986286959
424.070033898
424.147546445
424.218515634
424.282758341
424.340657861
424.393122746
424.4408401
424.482167265
424.513185631
424.523061593
424.521263093
424.52576318
309.524024121
309.686753278
310.013265884
310.502937305
311.152960495
311.957311885
312.912421106
314.007254438
315.236003362
316.590619838
318.062878181
319.643855541
321.331994734
323.129971495
325.032332724
327.035254825
329.136273958
331.335034124
333.596816903
335.927664717
338.315246015
340.771689661
343.309973578
345.911144956
348.567637729
351.298217649
354.080278742
356.907014125
359.789831136
362.709048843
365.626479883
368.529012217
371.440910638
374.339864495
377.218627108
380.105594102
382.950680677
385.747666737
388.533364078
391.251678163
393.910867119
396.538649322
399.066159703
401.508242985
403.894606855
406.188336833
408.395831518
410.501343293
412.504150162
414.382807449
416.14014934
417.664017493
418.261906519
418.585950543
418.871145483
419.156616815
419.437223108
419.707010685
419.967406521
420.219817557
420.464231163
420.700327258
420.927793019
421.146368611
421.355935147
421.556475795
421.748069848
421.930873284
422.10510566
422.271009008
422.428547049
422.578811101
422.723911914
422.864951216
423.002132435
423.135434018
423.264691676
423.389580941
423.509703392
423.624660706
423.73409968
423.837734524
423.935342111
424.026711303
424.111616524
424.189812599
424.261074602
424.325352018
424.383000411
424.434771877
424.481464407
424.522651521
424.556649373
424.581979584
424.574362503
424.577109952
307.670560883
307.843859945
308.192887311
308.713729656
309.39723378
310.241643409
311.241715591
312.3851539
313.663119431
315.067148247
316.591341626
318.223736213
319.962412949
321.810582281
323.762821742
325.814934506
327.962079383
330.206183957
332.512139217
334.875576195
337.319057399
339.835507167
342.421507557
345.074881649
347.803441537
350.591316242
353.434463246
356.34258118
359.293612544
362.270222717
365.239841969
368.227410464
371.211672894
374.178331255
377.164031936
380.116140811
383.027315884
385.931884882
388.773235773
391.549538573
394.308267746
396.979535332
399.565744055
402.057974727
404.456620142
406.800300327
409.052279048
411.20950854
413.262047931
415.202874307
416.962461496
417.658814332
418.020725503
418.335658095
418.64586804
418.952268025
419.251720895
419.542215232
419.823507743
420.095553961
420.357958134
420.610319211
420.852360798
421.083945336
421.305086541
421.515921905
421.716679631
421.907655999
422.08919167
422.261603839
422.424903775
422.580398893
422.73048941
422.876307224
423.017994697
423.155490748
423.288628561
423.417118119
423.540598904
423.65869527
423.771053104
423.877354039
423.977315369
424.070663967
424.157127322
424.236440518
424.308399655
424.372968773
424.430413811
424.481305144
424.526414839
424.566322045
424.600840998
424.628597549
424.630422155
424.63057213
305.635711616
305.822764156
306.192268714
306.75013518
307.479654808
308.37058038
309.423473682
310.62504702
311.957506151
313.41897422
314.998718833
316.68909037
318.483520202
320.386319779
322.393722806
324.493971403
326.691434708
328.975938358
331.332010931
333.737483648
336.227581252
338.802391303
341.45103235
344.171476166
346.956829201
349.804537689
352.730891423
355.707896807
358.708174585
361.749499101
364.807951756
367.878503934
370.952967148
374.020424609
377.077498395
380.103936869
383.13343942
386.100343023
389.003699316
391.894813101
394.704559853
397.435276751
400.070981152
402.616051147
405.053177941
407.402087543
409.718284011
411.924808413
414.073076778
416.128960048
416.959161017
417.372748425
417.72385547
418.068536784
418.406918459
418.737606174
419.060021378
419.373183262
419.67619995
419.968357225
420.249065967
420.517930562
420.774770719
421.019580549
421.252515424
421.4738504
421.683954163
421.883256285
422.072218377
422.251235584
422.420376461
422.581312695
422.736779932
422.887736286
423.03424575
423.176238084
423.313554654
423.445931853
423.573040125
423.694527218
423.810042222
423.919247791
424.021820024
424.117440876
424.20579733
424.286599073
424.359625826
424.424806606
424.482309232
424.532578321
424.576316254
424.614456823
424.647509264
424.673292529
424.692851974
424.68770685
303.404376185
303.606204863
304.006455995
304.602088958
305.386821251
306.338212784
307.452640803
308.723106877
310.121292226
311.646208889
313.286620513
315.041127448
316.896101055
318.856661264
320.916813589
323.073142612
325.319989925
327.64665028
330.047127333
332.510676856
335.057803609
337.681671867
340.381715929
343.169026163
346.027570697
348.950704663
351.953560909
354.984196804
358.061930024
361.178900263
364.32282132
367.482222534
370.650774465
373.811793212
376.955168257
380.112305213
383.218849292
386.256055491
389.276802562
392.229716727
395.108355923
397.894816684
400.588438193
403.171642231
405.633801856
408.053169102
410.37981031
412.633218152
414.902680294
416.140416923
416.652031264
417.036116245
417.416138589
417.791370832
418.157795591
418.515073692
418.862794804
419.199877016
419.52514803
419.837698597
420.136917057
420.422485724
420.694333053
420.952588287
421.197537355
421.429589935
421.64924457
421.857060467
422.053615096
422.239378414
422.414506044
422.581236454
422.74260215
422.899140427
423.050834789
423.197635459
423.339406146
423.475910015
423.606851694
423.731907348
423.850741186
423.963010528
424.068369922
424.166470402
424.256968496
424.339545788
424.413953025
424.480073441
424.537998215
424.588077915
424.630973965
424.667673008
424.698874258
424.723011323
424.753428088
424.746437746
300.962983363
301.178088879
301.616477019
302.26639006
303.113563022
304.140048373
305.327769441
306.674439434
308.153502478
309.753344337
311.462022858
313.281740862
315.203724877
317.227702097
319.341412058
321.551436986
323.848501685
326.217133929
328.657205079
331.182001354
333.782169417
336.470782723
339.233097533
342.077920071
345.000951909
347.996360366
351.06743316
354.195137618
357.342954649
360.54527987
363.778119379
367.03550711
370.300115111
373.558274867
376.844155007
380.093177258
383.302864277
386.446982484
389.517510396
392.562077797
395.510680119
398.366822004
401.112660079
403.751483061
406.264558038
408.672053906
411.025171725
413.264054767
415.209146083
415.868721284
416.277816694
416.687412186
417.099383931
417.504497573
417.900097393
418.285486891
418.659651643
419.021255087
419.369076011
419.702221825
420.020161402
420.322671961
420.609795983
420.881777942
421.139026815
421.38207398
421.611545495
421.828124906
422.032497679
422.225193979
422.406605422
422.579767029
422.747692898
422.910339876
423.067641898
423.219598433
423.366104962
423.506958945
423.641905431
423.77066105
423.892917658
424.008345118
424.116593049
424.217298325
424.310096088
424.39464436
424.470661849
424.537983604
424.59663042
424.64687826
424.6893142
424.724849592
424.754381451
424.778780967
424.812333195
424.80593092
298.287551518
298.524408199
299.004628426
299.720639077
300.647592792
301.767350015
303.046053166
304.480556689
306.049482089
307.736947542
309.527958609
311.418806586
313.409334993
315.493711807
317.669113983
319.931952491
322.279268621
324.69780697
327.180997824
329.758388756
332.411795642
335.159450039
337.983774505
340.890934841
343.880661367
346.95163239
350.109338242
353.297108202
356.540905771
359.835489164
363.168143818
366.5255299
369.891700615
373.301613143
376.688730428
380.050101315
383.365230034
386.622017693
389.797032362
392.879670532
395.918917778
398.839757869
401.650131875
404.329304107
406.889360858
409.329864687
411.706798261
413.933495046
414.933134274
415.43745134
415.874429767
416.32310477
416.769596863
417.206967861
417.633368753
418.047717373
418.448714569
418.835032258
419.205556962
419.559516017
419.896472335
420.216294769
420.519107375
420.805248454
421.075224864
421.329678426
421.569353104
421.795051199
422.00754668
422.207402959
422.395770915
422.576484145
422.751722684
422.92105008
423.084433025
423.241933747
423.393484198
423.538920482
423.678038645
423.810606481
423.936359842
424.054996465
424.166180116
424.269547947
424.364727668
424.451360323
424.529137824
424.597852184
424.657465087
424.708182658
424.750526994
424.785357787
424.814122698
424.838977636
424.865190321
424.865366121
295.354840705
295.622995527
296.15904338
296.952647512
297.976021388
299.20698596
300.606914425
302.14789314
303.817934138
305.60244487
307.484427377
309.455755652
311.521012837
313.666379545
315.895574661
318.207364346
320.600876723
323.071307901
325.607832917
328.227985275
330.941328491
333.739914043
336.643455364
339.60233291
342.657203654
345.79902686
349.025911471
352.325190812
355.651762508
359.04786401
362.480594086
365.943760936
369.465242382
372.986248396
376.49507536
379.970986316
383.410061696
386.776073208
390.064872032
393.250244231
396.316447277
399.323384177
402.190489905
404.918537112
407.495060198
409.964537263
412.386641226
413.795307054
414.45347294
414.954457152
415.449760936
415.94331862
416.427005966
416.898065854
417.355605832
417.798719274
418.226296086
418.637225663
419.030581672
419.405693942
419.76218552
420.099950642
420.419146596
420.720154048
421.003549088
421.270060696
421.520542943
421.755910931
421.977027002
422.184556256
422.381093225
422.570780798
422.754168856
422.930801268
423.100793092
423.264278947
423.421223357
423.571506406
423.714982463
423.851484309
423.98080459
424.102686599
424.216823441
424.32287008
424.420459145
424.509227464
424.588848768
424.659081853
424.71983744
424.771264816
424.813811979
424.848284879
424.87625917
424.900226317
424.920766936
424.928111554
292.142239667
292.448753485
293.057510322
293.952482799
295.097278535
296.458860964
298.001474305
299.677931253
301.468066872
303.361025733
305.341615014
307.399496373
309.537892865
311.756823859
314.040640016
316.398564497
318.826987889
321.335724592
323.934427418
326.596986797
329.355728659
332.208576391
335.162956096
338.207818312
341.322977899
344.541346964
347.8522238
351.220186268
354.661058812
358.164585258
361.698330849
365.324110913
368.957235397
372.615198793
376.248129804
379.855518943
383.424515853
386.918754945
390.314349411
393.617321058
396.781556094
399.802232874
402.756515312
405.521440712
408.112556319
410.553369843
412.583024574
413.384770377
413.930218439
414.473566874
415.018199632
415.552425116
416.071601373
416.574864722
417.062026861
417.532666428
417.986072066
418.421415462
418.8378919
419.234843246
419.611823342
419.968649048
420.305407829
420.622455288
420.920385349
421.199989787
421.462217646
421.70809681
421.938635969
422.155029651
422.361728214
422.561792057
422.754245476
422.938885487
423.11608875
423.286066224
423.448812687
423.604254586
423.752315873
423.892904397
424.025884671
424.151058314
424.268164764
424.376890311
424.476888496
424.567803451
424.649304236
424.721129282
424.783154477
424.835484952
424.878538988
424.913062778
424.940537958
424.964060407
424.985208206
424.993546496
288.609198444
288.966564785
289.67155306
290.698861294
291.999035612
293.526306796
295.233822546
297.068891162
299.002994085
301.021495665
303.11078761
305.262937236
307.47403856
309.749857899
312.091981104
314.495900822
316.97425738
319.512019413
322.142045621
324.870784046
327.666264649
330.569584859
333.587905966
336.676074981
339.868297455
343.168190833
346.543205427
350.016037554
353.566778563
357.197960739
360.882057567
364.617002614
368.388807564
372.181443226
375.953418525
379.661989339
383.410176153
387.036296611
390.555274325
393.973407835
397.252330343
400.367251079
403.357434396
406.129751083
408.77387523
411.169006752
412.192896971
412.805534056
413.39211115
413.988795122
414.576770263
415.146914201
415.697601632
416.229490193
416.743385643
417.239609897
417.717939575
418.177733694
418.618148788
419.038318708
419.437534805
419.815346516
420.171637718
420.506627952
420.820864822
421.115169975
421.390561215
421.648184564
421.88934602
422.117485545
422.337300199
422.548807595
422.751035465
422.944378849
423.129456597
423.306505266
423.475529124
423.636505414
423.789435517
423.934315635
424.07109207
424.199639206
424.319754256
424.431170202
424.533573065
424.626628676
424.710012354
424.783453614
424.846803101
424.900133561
424.943823238
424.978575954
425.005706896
425.02866718
425.051201881
425.058329299
284.703753478
285.130617133
285.965631582
287.168529954
288.670406491
290.408246786
292.320639052
294.343203976
296.440542327
298.600553212
300.807125601
303.054947265
305.348678097
307.681003661
310.066333374
312.501506107
315.009901528
317.594330762
320.250819458
323.00683739
325.863577633
328.805721705
331.866227229
335.034960126
338.290671245
341.648823831
345.113343132
348.687888638
352.351548125
356.109586951
359.940403905
363.804080478
367.726220335
371.680547586
375.61933564
379.518903988
383.38184236
387.138566542
390.74284594
394.331615997
397.715791493
400.920937605
403.963553747
406.776918751
409.439619341
410.820934938
411.571733965
412.206761555
412.853208651
413.495842471
414.11871437
414.717365434
415.292886747
415.84784041
416.38445596
416.90398899
417.406616593
417.89165705
418.357888495
418.803905617
419.228407582
419.630418764
420.009410058
420.365336666
420.698617615
421.010069725
421.300815379
421.57234107
421.827433768
422.071408675
422.306234239
422.530124782
422.742980789
422.945921279
423.139703182
423.324528173
423.500406558
423.667378141
423.82553959
423.974986724
424.115761292
424.24781955