/*--------------------------------*- C++ -*----------------------------------*\
| =========                 |                                                 |
| \\      /  F ield         | OpenFOAM: The Open Source CFD Toolbox           |
|  \\    /   O peration     | Version:  v1906                                 |
|   \\  /    A nd           | Web:      www.OpenFOAM.com                      |
|    \\/     M anipulation  |                                                 |
\*---------------------------------------------------------------------------*/
FoamFile
{
    version     2.0;
    format      ascii;
    class       volScalarField;
    location    "508";
    object      pa;
}
// * * * * * * * * * * * * * * * * * * * * * * * * * * * * * * * * * * * * * //

dimensions      [0 2 -2 0 0 0 0];


internalField   nonuniform List<scalar> 
9216
(
916.243866762
915.938249674
915.306014248
914.34164827
913.050561444
911.438784063
909.513858321
907.284653608
904.761298954
901.954980646
898.877885064
895.542981899
891.9639725
888.155067627
884.130947564
879.906545454
875.497023913
870.917572403
866.183402172
861.309563099
856.31095614
851.202172229
845.997519365
840.710884139
835.355769545
829.945178455
824.491658013
819.007203986
813.503308062
807.990881874
802.480303932
796.981364063
791.503308062
786.054795874
780.643943482
775.278300582
769.964885754
764.710178589
759.520148661
754.400261694
749.355501405
744.390388317
739.50899403
734.714971273
730.011560396
725.401629226
720.887671733
716.471856243
712.156016335
707.941705969
703.830182822
699.822468894
695.919326579
692.121323431
688.428801421
684.841944614
681.360742214
677.985058088
674.714588382
671.548931946
668.487543456
665.529803995
662.674970757
659.922247146
657.270730211
654.719479754
652.267464717
649.913630798
647.656846985
645.495971235
643.429798275
641.457122888
639.576689962
637.787254913
636.087536851
634.476275627
632.952188789
631.514024757
630.160524086
628.890468259
627.702645591
626.595895175
625.569077605
624.621113603
623.750959592
622.957640501
622.240229923
621.597876284
621.029786334
620.535241845
620.113579718
619.764184563
619.486425039
619.279462503
619.139880214
619.083905838
916.548512365
916.241171353
915.607293191
914.638582101
913.34130123
911.721773332
909.787699481
907.54810212
905.013240037
902.194454561
899.104065031
895.7551999
892.161690324
888.33789998
884.2986272
880.058943918
875.634113039
871.03944349
866.290226238
861.401609196
856.388552361
851.265723572
846.047471019
840.747738903
835.380054349
829.957461007
824.492517091
818.997244823
813.483136665
807.961118811
802.441563498
796.934263755
791.448449924
785.992777893
780.575346609
775.203694621
769.884819755
764.625184713
759.430736585
754.306919901
749.258695294
744.290558921
739.406559585
734.610323476
729.905069172
725.293636683
720.778499847
716.361798681
712.04534879
707.830676044
703.71902269
699.71138345
695.808508117
692.010938257
688.319006189
684.732871605
681.252516997
677.877783656
674.608363768
671.443835433
668.383651814
665.427174973
662.573662614
659.822300651
657.172188187
654.622368831
652.1718146
649.819456048
647.564165777
645.404787432
643.340119461
641.368942996
639.49000641
637.702052043
636.003801998
634.393983603
632.871316751
631.434537946
630.082389377
628.813641322
627.62708304
626.521543288
625.495883013
624.549013706
623.679891786
622.887534498
622.171015792
621.529479451
620.962136279
620.468274628
620.047260687
619.698554304
619.421737597
619.216638512
619.083761481
619.027884817
917.182254968
916.870192773
916.230567011
915.253175521
913.944376632
912.310632601
910.35983395
908.101226595
905.545301293
902.703652644
899.588849228
896.21428084
892.594025154
888.742696413
884.675320353
880.407194544
875.953779204
871.330575547
866.55303646
861.636465768
856.595949581
851.446276483
846.201887947
840.876817539
835.484657483
830.038514103
824.550987374
819.034139926
813.499486865
807.957976187
802.419986815
796.895318319
791.393195853
785.922268603
780.490619151
775.10576889
769.774691454
764.503824024
759.29908344
754.165882231
749.109146469
744.133335547
739.242460969
734.440108961
729.729459481
725.113310821
720.594098184
716.173919473
711.854552828
707.637482839
703.523916517
699.514809214
695.610878573
691.812629554
688.120366027
684.534214428
681.054132814
677.679932841
674.411286282
671.247745187
668.18874604
665.233628137
662.381635705
659.631934674
656.983613188
654.435697033
651.98714904
649.636883467
647.383764777
645.226621264
643.164243673
641.195398276
639.318825703
637.533253632
635.83739609
634.229965812
632.709674168
631.275243171
629.925406079
628.65891895
627.474561894
626.371150006
625.347535175
624.402616208
623.535341045
622.744715897
622.029807762
621.389752532
620.823758081
620.331112238
619.911188968
619.563462327
619.287528363
619.083165644
618.950622156
618.888404473
918.156521787
917.839025346
917.190419917
916.19946694
914.872718092
913.216867017
911.240095955
908.951988128
906.363399408
903.486312512
900.333691315
896.919326135
893.25768573
889.363766556
885.252954804
880.940889937
876.443344756
871.776109362
866.95489324
861.995232001
856.912411978
851.721398974
846.436783263
841.072727538
835.642928855
830.160582268
824.638356199
819.088368662
813.522173279
807.950745812
802.384478867
796.833177078
791.306059425
785.811760987
780.358341019
774.953291619
769.603550075
764.315512327
759.095048833
753.947521811
748.877803638
743.890296921
738.988954581
734.177301931
729.458457685
724.835157261
720.309774018
715.884343035
711.560581911
707.339914313
703.223489705
699.212206007
695.306727722
691.507507132
687.814800386
684.228686827
680.749082769
677.37575871
674.108350723
670.946375501
667.889239474
664.936251826
662.08663161
659.339519012
656.69398087
654.149020555
651.703582347
649.356560341
647.106802141
644.95311717
642.89428009
640.929038823
639.056118026
637.27422704
635.582063622
633.978321939
632.461696667
631.030891031
629.684621281
628.421624705
627.240664396
626.140537111
625.120078198
624.178169124
623.313742421
622.525788737
621.813361722
621.175584636
620.61165543
620.120853616
619.702547022
619.356201059
619.081389917
618.877815375
618.745561875
618.682039226
919.475335246
919.150850645
918.489971352
917.480446609
916.129125157
914.443036715
912.430770711
910.102375421
907.469212507
904.543798587
901.339643937
897.871087879
894.15313764
890.201310908
886.0314878
881.659771168
877.102359858
872.375432726
867.495046948
862.477047498
857.336990382
852.090075849
846.751093505
841.334375349
835.853758329
830.322552767
824.753518208
819.158843666
813.550133851
807.93839896
802.334049485
796.746894191
791.186142847
785.660409448
780.177721229
774.7455291
769.370720599
764.059634722
758.818078574
753.651345565
748.564234761
743.561071542
738.64572883
733.821649414
729.091868301
724.459035986
719.925441203
715.493034415
711.163450276
706.93803063
702.817846007
698.803717477
694.896236559
691.09578536
687.402554425
683.816560717
680.3376631
676.965577941
673.699892114
670.540076204
667.48549515
664.535419239
661.689032673
658.945442709
656.303686575
653.762739196
651.321518955
648.978894475
646.733689712
644.584690236
642.530648072
640.570287843
638.702311673
636.925405443
635.238243959
633.639497439
632.127837027
630.701941535
629.360503272
628.102234962
626.925875792
625.830198356
624.814014762
623.876183441
623.015615141
622.231279443
621.522210539
620.887513423
620.326369533
619.838042804
619.421885491
619.077343952
618.803962767
618.601388858
618.469636121
618.405922888
921.145327096
920.8120018
920.135402978
919.102053217
917.719209516
915.99435383
913.936613777
911.556646273
908.866473332
905.87930514
902.609360908
899.071688718
895.281990077
891.256451039
887.011584239
882.564082239
877.930685309
873.128062759
868.172709778
863.080857811
857.868399388
852.550824628
847.143169633
841.659973725
836.115245547
830.522435355
824.894413772
819.243455028
813.581225317
807.91877485
802.266534348
796.634314934
791.031312569
785.466112206
779.946698902
774.480469627
769.07424756
763.734298242
758.466347451
753.275600497
748.166762709
743.144061011
738.211266231
733.371716217
728.628339262
723.983678044
719.43991347
714.998888731
710.66213284
706.430884079
702.306112523
698.288542164
694.378671767
690.576795058
686.883019356
683.29728338
679.819373309
676.44893796
673.185502166
670.028479335
666.97718228
664.03083338
661.188573212
658.449468736
655.812520203
653.276667897
650.84079786
648.503747743
646.264311897
644.121246815
642.073276057
640.119095678
638.257379323
636.486783914
634.8059551
633.213533339
631.708159773
630.288482694
628.953163809
627.700884989
626.530354792
625.440315334
624.42954888
623.496884641
622.641205239
621.861453245
621.156637343
620.525838473
619.968215577
619.483011195
619.069556514
618.727275136
618.455685193
618.254401151
618.123407955
618.059950591
923.174916333
922.830698085
922.134694613
921.071922047
919.650161696
917.877477091
915.763681681
913.320203643
910.559897814
907.496845423
904.146152393
900.523749706
896.646200145
892.530515391
888.193985906
883.65402605
878.928035353
874.033277083
868.986773674
863.80521891
858.504905254
853.101665167
847.61082407
842.047163348
836.424891122
830.757619541
825.058347091
819.339445459
813.612650281
807.889055808
802.179113329
796.492633263
790.838791219
785.226133881
779.662592358
774.155495658
768.711586608
763.337039624
758.037480018
752.818004647
747.683203684
742.637183352
737.683589438
732.825631437
728.066107149
723.407427572
718.851641895
714.400462437
710.055289295
705.817234573
701.687145925
697.665629308
693.75307069
689.949656645
686.255393616
682.670125845
679.193551795
675.825239158
672.56463832
669.411094462
666.363858244
663.422095292
660.584894497
657.851275395
655.220194651
652.690551945
650.261195283
647.930926018
645.698503603
643.562650316
641.522055965
639.575382752
637.721270298
635.95834093
634.285205215
632.7004678
631.202733504
629.790613689
628.462732838
627.217735329
626.05429233
624.971108791
623.966930428
623.040550695
622.190817628
621.416640562
620.716996598
620.090936835
619.537592226
619.056178948
618.646003121
618.306464278
618.03705695
617.837373743
617.707385569
617.64441895
925.574465206
925.21710112
924.49770443
923.399465812
921.930823534
920.100569975
917.919374598
915.399622753
912.555198019
909.401251818
905.953974535
902.230371206
898.248047591
894.025009637
889.579479978
884.929732598
880.093947773
875.090086923
869.935788059
864.648280019
859.244314689
853.740114182
848.151331095
842.49301839
836.779607089
831.024889095
825.242004422
819.443431556
813.640981308
807.845793718
802.068339361
796.318422608
790.605190218
784.93713977
779.322134856
773.767420777
768.279642471
762.864864085
757.528589982
752.275786936
747.110907349
742.037913352
737.060301626
732.181128827
727.403037423
722.728281837
718.158754639
713.696012705
709.341303017
705.09558802
700.959570206
696.933715837
693.018277484
689.213315339
685.518717015
681.934215865
678.459407595
675.093765297
671.83665275
668.687336217
665.644994645
662.708728583
659.877567783
657.150477845
654.52636589
652.004085659
649.582442024
647.260195277
645.036065174
642.908735076
640.876856099
638.939051594
637.093921796
635.340048936
633.676002598
632.100345563
630.611639906
629.208453521
627.889366849
626.652979918
625.497919494
624.422846398
623.426462817
622.507519622
621.664823553
620.89724425
620.203721027
619.583269323
619.034986717
618.558058421
618.15176206
617.815471051
617.548657199
617.350895324
617.222143565
617.159825917
928.356458183
927.983463497
927.236304936
926.095998508
924.571793507
922.673385321
920.412498229
917.802691057
914.859100975
911.5981762
908.03741321
904.195103456
900.090094288
895.741568645
891.16884542
886.391203187
881.427727481
876.297182915
871.017908763
865.607737611
860.083933912
854.463150271
848.761396984
842.994021869
837.175696259
831.320405251
825.441440061
819.551392572
813.662151817
807.784903394
801.930133106
796.107632198
790.326508082
784.595195912
778.921476099
773.312492584
767.774773019
762.314250467
756.936286302
751.645694124
746.446764595
741.343291026
736.338595683
731.435556608
726.636634906
721.943902258
717.359068578
712.883509506
708.518293651
704.264209215
700.121789896
696.0913397
692.172956564
688.366554453
684.671883891
681.088550663
677.616032724
674.253695175
671.000803423
667.856534496
664.819986732
661.89018788
659.066101929
656.346634733
653.730638789
651.216917267
648.804227634
646.491284955
644.276765189
642.159308507
640.137522916
638.209988139
636.375259995
634.631875148
632.978356435
631.413218579
629.934974462
628.542141711
627.233249747
626.006847048
624.861508707
623.795844081
622.808504546
621.898191195
621.063662465
620.303741546
619.61732353
619.003382197
618.46097633
617.989255435
617.587464779
617.254949449
616.991157203
616.795644221
616.668354098
616.606816944
931.535710774
931.144316114
930.364558764
929.174889261
927.585555851
925.607365524
923.253334715
920.538450005
917.479363814
914.094080681
910.401654283
906.421899161
902.175123411
897.681885005
892.962775028
888.038228447
882.928364279
877.652854482
872.230821895
866.680764613
861.020504725
855.267156403
849.437109132
843.546020061
837.608811486
831.639669426
825.652042218
819.658638552
813.67142652
807.701634627
801.759757728
795.855564471
789.998109696
784.1957503
778.456165446
772.786377713
767.192775999
761.681139555
756.256662984
750.923982028
745.687200103
740.549915534
735.515249407
730.585873984
725.764041531
721.051613458
716.450089533
711.960637051
707.584119618
703.321125405
699.171994487
695.136845092
691.215598389
687.408001667
683.7136496
680.132003544
676.662408656
673.304108908
670.056259923
666.917939818
663.888158097
660.965862896
658.149946678
655.43925078
652.832568916
650.328650072
647.926200884
645.623887918
643.420339892
641.314150212
639.303879774
637.388060365
635.565198516
633.833780082
632.192275329
630.639144749
629.17284534
627.791837502
626.494592304
625.279599182
624.145373869
623.090466547
622.113470062
621.213028146
620.387843519
619.636685797
618.958399096
618.351909243
617.816230484
617.350471618
616.953841474
616.625653174
616.365328069
616.172402066
616.046799833
615.986166248
935.129622841
934.716709448
933.898934394
932.651750367
930.986633466
928.915758719
926.453720963
923.617237811
920.42478347
916.896218865
913.052440054
908.915050357
904.506060294
899.847618997
894.961777758
889.870287854
884.594432376
879.154893494
873.571653489
867.863928715
862.050131671
856.147856631
850.173880828
844.1441746
838.073912974
831.977484876
825.868497526
819.759777549
813.663370807
807.590544288
801.551793258
795.556851679
789.614705507
783.73361462
777.921135897
772.184147953
766.528877065
760.960923856
755.485290499
750.106408451
744.828166771
739.653941017
734.586622793
729.62864981
724.78203647
720.048404725
715.429015162
710.924797952
706.536383571
702.264132827
698.108166033
694.068390843
690.144528566
686.336138517
682.642640289
679.063333628
675.597415907
672.243997051
669.002112061
665.870731141
662.848767716
659.93508447
657.128497804
654.427780886
651.831665762
649.338844706
646.947971267
644.657661152
642.466493348
640.373011552
638.375726223
636.473117222
634.66363731
632.945716317
631.317766228
629.778186914
628.325372688
626.95771938
625.673632081
624.47153321
623.34987104
622.307128346
621.341831257
620.452558039
619.637947817
618.896709049
618.227627682
617.629574894
617.101514303
616.642508543
616.251725174
615.928441763
615.672049796
615.482061403
615.358379292
615.298772167
939.158491685
938.720503527
937.858572608
936.544663699
934.791769799
932.613751956
930.027134544
927.050730597
923.705198521
920.012603231
915.996008698
911.679104622
907.0858716
902.240284854
897.166057913
891.886425646
886.423968517
880.800477802
875.036862742
869.153096799
863.168199501
857.100245504
850.966391792
844.782911242
838.565223442
832.327915661
826.084752923
819.848679378
813.631816694
807.445464424
801.30010749
795.205429741
789.170328444
783.202943983
777.310686534
771.500265038
765.77771669
760.148436412
754.617206323
749.188225395
743.865139492
738.651071984
733.548654971
728.560061162
723.687036259
718.930931816
714.29273829
709.773118167
705.372438767
701.090804504
696.928088095
692.883960429
688.957918584
685.149311719
681.457364428
677.881197421
674.419845285
671.072271391
667.837379887
664.714025032
661.701018001
658.797131564
656.001102852
653.311634746
650.72739612
648.247021495
645.869110304
643.592226292
641.414897156
639.335614877
637.352836705
635.46498717
633.670460951
631.967626882
630.354832814
628.830411552
627.392687542
626.039984418
624.770633127
623.582980655
622.475399097
621.446295049
620.494119111
619.617375408
618.814631004
618.084525056
617.425777641
616.837198092
616.317692791
615.866272311
615.482057886
615.164286679
614.912316646
614.725633326
614.604113001
614.545657802
943.645899705
943.178735681
942.265611051
940.874454248
939.020141023
936.718621268
933.988783228
930.85197772
927.33147686
923.451953655
919.239010195
914.71875615
909.917436756
904.861109344
899.575365488
894.085099577
888.414323715
882.586032192
876.622115661
870.543325242
864.369280464
858.118512285
851.80852597
845.455868208
839.076182601
832.684244767
826.293975144
819.918436381
813.569824843
807.259466582
800.99782352
794.794509331
788.658308537
782.597215022
776.618463616
770.72856441
764.933336197
759.237938825
753.646904797
748.164170611
742.793108425
737.536558241
732.396860901
727.375891755
722.475095085
717.695519016
713.037850896
708.502452744
704.089396621
699.798499363
695.629356364
691.581373751
687.65379859
683.845746515
680.156226511
676.584162432
673.128411208
669.787777562
666.561025441
663.44688623
660.444064156
657.55123914
654.767067635
652.090181826
649.519187751
647.052662743
644.689152733
642.427169707
640.265189791
638.201652111
636.23495878
634.363475985
632.585536437
630.899442968
629.303473485
627.795886933
626.374930449
625.038847266
623.785885558
622.614307747
621.522400433
620.508484513
619.570925569
618.708144196
617.918626248
617.200932806
616.55370973
615.975696748
615.465735889
615.022779219
614.645895815
614.334277877
614.087245438
613.904253341
613.785148519
613.72797582
948.61919935
948.118066389
947.145582599
945.665015622
943.693601882
941.249895532
938.35569343
935.035423483
931.315482354
927.223618813
922.788392873
918.038704468
913.003386795
907.710855962
902.188813055
896.463995978
890.561984449
884.507061509
878.322137117
872.028734131
865.647033036
859.195961749
852.693310737
846.155847104
839.599404417
833.038932672
826.488508841
819.961320578
813.469642302
807.024822482
800.637283991
794.316544008
788.071245531
781.909202566
775.83744081
769.862238304
763.989163189
758.22310869
752.568326334
747.028458573
741.606571668
736.3051894
731.126327694
726.071530267
721.141905078
716.338161604
711.660648647
707.109392565
702.684135462
698.384372997
694.209391099
690.158301087
686.230072402
682.423562482
678.737543149
675.170723254
671.721767264
668.389309829
665.171966355
662.068339915
659.077024777
656.19660712
653.425663364
650.762756814
648.20643307
645.755214947
643.407597261
641.162042158
639.016975196
636.97078271
635.021810453
633.16836392
631.408710119
629.74108106
628.163678607
626.674680846
625.272249561
623.954538901
622.719704839
621.565915443
620.491361622
619.494268277
618.572905621
617.725600516
616.950747674
616.246820534
615.612381725
615.046092924
614.546724054
614.113161705
613.744416756
613.439630692
613.198081247
613.019189283
612.902767962
612.84701409
954.110122585
953.569345791
952.527901949
950.943699016
948.836964489
946.229529391
943.146787543
939.616905261
935.670009107
931.33746197
926.651251449
921.643474851
916.345903147
910.789609546
905.004651573
899.019805401
892.862355631
886.557951186
880.130536375
873.602364872
866.99409285
860.324936472
853.612862531
846.874772735
840.12664094
833.383579072
826.659833162
819.968736676
813.322655511
806.732957999
800.210008406
793.763194807
787.400979593
781.130955545
774.959899091
768.893818667
762.937996747
757.097026608
751.374846138
745.774770812
740.299527387
734.951288808
729.731710593
724.64196838
719.682796682
714.854528535
710.157136129
705.590272019
701.153310744
696.845390138
692.665451753
688.612279423
684.68453525
680.8807921
677.199562077
673.639320393
670.198524495
666.875628281
663.669091665
660.57738572
657.598993975
654.732410352
651.976134523
649.328665305
646.7884929
644.354090626
642.023906845
639.796357617
637.669820609
635.64263056
633.71307665
631.87940176
630.139803839
628.492439091
626.935427121
625.466857553
624.084798305
622.787304873
621.572430887
620.438239254
619.38281412
618.404273064
617.500779629
616.670555779
615.911894212
615.223170331
614.602853652
614.049518652
613.561854744
613.138675457
612.77892662
612.481693586
612.246206706
612.071848407
611.958394956
611.904203592
960.155558502
959.568315404
958.446465814
956.741771918
954.478308965
951.682073605
948.382935988
944.613611443
940.408669953
935.803698392
930.834628449
925.537191965
919.946471016
914.096513473
908.019998767
901.747949279
895.309497571
888.731726069
882.039601343
875.256018425
868.401959373
861.496746769
854.558348856
847.603670196
840.648759622
833.70888991
826.798516269
819.931166884
813.119331229
806.374397949
799.70664725
793.125292272
786.6385612
780.253773122
773.977407336
767.81516065
761.7719928
755.852163027
750.059262368
744.39624564
738.865465176
733.468706889
728.207228349
723.081798533
718.092738838
713.239965402
708.523032607
703.941177794
699.49336672
695.178339218
690.994654012
686.940731689
683.014894589
679.215402677
675.540484456
671.988362432
668.557272724
665.245478881
662.051280028
658.973013862
656.009055035
653.157809753
650.417707344
647.787189786
645.264699968
642.848669702
640.537508094
638.329591173
636.223253122
634.216779766
632.30840432
630.496305805
628.778609795
627.153391712
625.618682121
624.172474133
622.812732322
621.537403207
620.344426769
619.231748973
618.197334913
617.239182427
616.355335927
615.543900195
614.80305401
614.131063294
613.526293726
612.987222546
612.512449518
612.100706889
611.750868344
611.461956487
611.233149265
611.063786846
610.953604042
610.901126698
966.798556029
966.156512163
964.940393083
963.094958145
960.649315342
957.6348236
954.086958761
950.043976787
945.545719014
940.63267135
935.34525824
929.723301255
923.805580504
917.629454292
911.230510537
904.642248124
897.895803638
891.019756718
884.04005172
876.980071953
869.860881848
862.701620342
855.519981274
848.332674386
841.155743176
834.004653089
826.89416482
819.838103112
812.849143543
805.938701162
799.116929007
792.392795975
785.774221483
779.268182811
772.880805089
766.617427659
760.482650204
754.480364932
748.613783729
742.885466937
737.297356574
731.85081355
726.546657931
721.385211032
716.366338937
711.489497369
706.753778355
702.157958659
697.700549861
693.379849158
689.193989766
685.140989296
681.218794679
677.425322133
673.758491202
670.216252026
666.796605574
663.49761676
660.317420829
657.254223517
654.306295868
651.471964569
648.74959894
646.137595616
643.63436207
641.238300011
638.947789623
636.761175491
634.676754867
632.692768757
630.807396125
629.018751238
627.324884189
625.723784173
624.21338552
622.791575754
621.456205829
620.20510164
619.036077142
617.946948156
616.935547198
615.999738547
615.137433708
614.34660674
613.625309333
612.971685424
612.383985005
611.860577201
611.399962159
611.00078195
610.661830151
610.382060275
610.160592079
609.996718691
609.890129852
609.839527214
974.089643569
973.382423168
972.054946599
970.044060738
967.385596668
964.117909635
960.283538965
955.927480651
951.095784368
945.834549626
940.189246243
934.204232612
927.922373649
921.384687613
914.629987762
907.694516445
900.611602411
893.411394007
886.120737547
878.763267244
871.359751817
863.92868953
856.487065576
849.051095188
841.636726829
834.259724585
826.935361453
819.677954829
812.500478462
805.414377809
798.42959732
791.554752635
784.797345872
778.163923501
771.660189759
765.29107929
759.060797886
752.972842345
747.030016042
741.234451784
735.587644281
730.090489547
724.743328168
719.545990412
714.497842099
709.597831963
704.844541257
700.236236336
695.770924012
691.44640882
687.260350358
683.210318688
679.293845531
675.508469521
671.851773998
668.321416535
664.915149729
661.630833384
658.466438496
655.420043867
652.489826336
649.674045889
646.971026901
644.379136951
641.896764482
639.522296707
637.254098806
635.090495582
633.029756164
631.070082571
629.209602085
627.446363854
625.778339084
624.203424952
622.7194513
621.324190129
620.01536701
618.790674397
617.647786193
616.584373485
615.598121019
614.686744193
613.84800629
613.079735589
612.379842196
611.746334179
611.177332952
610.671087523
610.225987625
609.840575489
609.513556318
609.243807037
609.030383504
608.872527318
608.769878435
608.721321096
982.088595884
981.30301202
979.842683787
977.635665009
974.726986271
971.164267415
966.998986955
962.284301295
957.073478201
951.418931444
945.371677215
938.981009029
932.294238455
925.356405068
918.209908469
910.894068038
903.44465787
895.893504308
888.268257575
880.592460263
872.886010527
865.166047512
857.448152243
849.747578939
842.080094198
834.462024619
826.909573001
819.43791207
812.060495787
804.788778115
797.63233988
790.599257752
783.696456746
776.929938358
770.304911695
763.825863678
757.496583237
751.320153873
745.298947088
739.434636138
733.728229784
728.180116339
722.790112167
717.557510507
712.481129513
707.55936117
702.790223481
698.171417201
693.700387526
689.374389385
685.190553867
681.145952619
677.237657248
673.46279115
669.818572054
666.302344124
662.91159933
659.643988189
656.497320645
653.469558055
650.558797708
647.763251339
645.08121932
642.511062218
640.05117135
637.699939986
635.455736552
633.31688117
631.281626338
629.348142562
627.514509039
625.778709458
624.138632511
622.592076496
621.136757559
619.770320582
618.490352681
617.294398144
616.17997526
615.144593835
614.185773951
613.301064931
612.488064747
611.744439192
611.067940616
610.456426004
609.907873862
609.420400085
608.992272176
608.621922146
608.307957658
608.04917171
607.84454978
607.693276892
607.594938967
607.548608531
990.866859682
989.985750142
988.36490543
985.922887633
982.717690635
978.809382278
974.26076359
969.13475926
963.492848472
957.394340839
950.896157944
944.052811262
936.916363634
929.536246438
921.958879463
914.227107617
906.379531124
898.449857892
890.466455081
882.452307342
874.425583128
866.400924037
858.391364225
850.410435136
842.473665209
834.598534225
826.802992315
819.103717903
811.514913302
804.047943228
796.711713075
789.513430962
782.459215342
775.55438559
768.803581887
762.210815809
755.779460747
749.51218962
743.410928014
737.476857697
731.710458759
726.111564353
720.679418076
715.412727948
710.309715072
705.368162302
700.585467568
695.958704658
691.484692348
687.160070217
682.98137705
678.945127245
675.047880806
671.286303615
667.657215723
664.15762651
660.784756396
657.536045551
654.409150567
651.401930554
648.512424388
645.738821026
643.079424961
640.532618862
638.096825457
635.770470611
633.551949307
631.439596146
629.43166134
627.526293209
625.721527087
624.015280877
622.405356117
620.889444274
619.465136713
618.129938072
616.881281733
615.716547384
614.633079854
613.628209224
612.699271789
611.843631564
611.058702089
610.341967943
609.691005849
609.103504699
608.577284489
608.110313622
607.700724637
607.346828056
607.047124485
606.800314666
606.605307331
606.461225751
606.367597063
606.323687313
1000.51095778
999.511412349
997.69348552
994.966086741
991.406132013
987.090629787
982.096622217
976.498463817
970.366631975
963.767615575
956.76431407
949.416530999
941.781282322
933.912775748
925.862003089
917.675980747
909.396746556
901.060295748
892.695713239
884.324839314
875.962849285
867.620066551
859.305039668
851.028252889
842.805025965
834.655263235
826.600236755
818.659267007
810.847676704
803.176421175
795.653081667
788.283427479
781.072460501
774.024678896
767.144098706
760.434262327
753.898177871
747.538147433
741.355648705
735.351334493
729.5251041
723.876179545
718.403178224
713.104173373
707.976739532
703.017996477
698.224661163
693.593111594
689.119465175
684.799668667
680.629593089
676.605126292
672.722256899
668.977145222
665.366178552
661.886009667
658.53357854
655.306118001
652.201144853
649.216438319
646.350008134
643.60005462
640.964923341
638.443056817
636.032945778
633.733082398
631.54191754
629.457824098
627.479067548
625.603785037
623.82997277
622.155481746
620.578020447
619.095163406
617.704364211
616.402971524
615.188247741
614.057388855
613.007546323
612.035849446
611.139429321
610.315442956
609.561097939
608.873676776
608.250560457
607.689251107
607.187392798
606.7427909
606.353429055
606.017484307
605.733339871
605.499595907
605.315077384
605.178840723
605.090349377
605.049067032
1011.12738977
1009.97801323
1007.9131998
1004.8333138
1000.84414887
996.045917199
990.533169415
984.393055424
977.705279647
970.543206688
962.975293429
955.066373315
946.878462869
938.470957661
929.900166477
921.218245424
912.471680757
903.699550612
894.931912412
886.188819893
877.480647982
868.810469553
860.178946629
851.591036964
843.062076122
834.617112903
826.283754134
818.085913808
810.040441662
802.157033841
794.440614674
786.894526881
779.522310618
772.327573641
765.313701275
758.483830861
751.840749856
745.386494729
739.122102569
733.047638018
727.162346826
721.464769332
715.952836736
710.623939822
705.474960663
700.502303109
695.701938777
691.069472137
686.600230577
682.289374673
678.132016423
674.123334145
670.258674726
666.533637877
662.944139616
659.486454259
656.157235348
652.953516876
649.872696929
646.912506291
644.070964958
641.346329478
638.737034305
636.241630069
633.858721914
631.586910657
629.424739549
627.370648931
625.422940577
623.579753041
621.839047947
620.198606932
618.656037034
617.208783193
615.854145023
614.589296988
613.411310117
612.317175343
611.303827835
610.368172597
609.507111199