/*--------------------------------*- C++ -*----------------------------------*\
| =========                 |                                                 |
| \\      /  F ield         | OpenFOAM: The Open Source CFD Toolbox           |
|  \\    /   O peration     | Version:  v1906                                 |
|   \\  /    A nd           | Web:      www.OpenFOAM.com                      |
|    \\/     M anipulation  |                                                 |
\*---------------------------------------------------------------------------*/
FoamFile
{
    version     2.0;
    format      ascii;
    class       surfaceScalarField;
    location    "342";
    object      phi;
}
// * * * * * * * * * * * * * * * * * * * * * * * * * * * * * * * * * * * * * //

dimensions      [0 3 -1 0 0 0 0];
oriented        oriented;


internalField   nonuniform List<scalar> 
18240
(
-0.000352657741236
0.000352660348739
-0.000738806932926
0.000386151879323
-0.0011246157751
0.000385811702086
-0.00150547168423
0.000380858612459
-0.00187929691797
0.000373828176834
-0.00224436078788
0.000365066609036
-0.00259913983323
0.000354782060343
-0.00294228871867
0.000343151688422
-0.00327263534877
0.00033034971211
-0.00358918090613
0.000316548444068
-0.00389109627983
0.000301918511609
-0.00417771683173
0.000286623530552
-0.00444853316399
0.000270819507024
-0.00470318014303
0.000254650045052
-0.00494142429945
0.000238247342636
-0.00516314986752
0.00022172870407
-0.00536834582161
0.000205199122498
-0.00555709144659
0.00018874880077
-0.00572954517204
0.000172456845038
-0.00588593127193
0.000156389274012
-0.00602653155906
0.000140603328255
-0.00615167392036
0.000125145482108
-0.00626172699953
0.000110056015825
-0.00635709065919
9.53666682564e-05
-0.00643819315416
8.11053075264e-05
-0.00650548331631
6.72929941606e-05
-0.00655942939496
5.39487563759e-05
-0.00660051274467
4.10859389686e-05
-0.00662922744168
2.87172390512e-05
-0.00664607551051
1.68503492622e-05
-0.00665156688913
5.49379723196e-06
-0.006646214858
-5.35012183239e-06
-0.00663053280278
-1.5679736754e-05
-0.00660503450642
-2.5496815162e-05
-0.00657023195745
-3.48002913843e-05
-0.0065266355747
-4.35953779822e-05
-0.00647474839577
-5.18849333563e-05
-0.00641506990113
-5.96780047455e-05
-0.00634808735808
-6.69802431384e-05
-0.00627428342874
-7.38039805897e-05
-0.00619412389776
-8.01571047702e-05
-0.00610806973318
-8.60547701141e-05
-0.00601656056598
-9.15065249434e-05
-0.00592003189134
-9.65298332476e-05
-0.00581889367194
-0.000101135271707
-0.00571355331774
-0.000105342049351
-0.00560438882846
-0.000109161129412
-0.00549177812352
-0.000112612904439
-0.00537606615143
-0.000115708100798
-0.00525760104739
-0.000118467758413
-0.0051366947255
-0.00012090182334
-0.00501366623605
-0.000123031532224
-0.0048887954029
-0.000124865606734
-0.00476237362292
-0.000126425125041
-0.00463465025807
-0.000127717294453
-0.00450589097712
-0.000128762823502
-0.00437631670473
-0.000129567265198
-0.00424616944375
-0.000130150873898
-0.00411564380361
-0.000130517589841
-0.00398496006467
-0.000130687275113
-0.00385428845931
-0.000130662437062
-0.0037238290514
-0.000130462696527
-0.00359372923715
-0.000130089443156
-0.00346416980632
-0.000129562282513
-0.00333527632972
-0.000128881857674
-0.00320721056025
-0.000128067974909
-0.00308007670919
-0.000127120935808
-0.00295401711999
-0.000126060929493
-0.00282911463805
-0.000124888270945
-0.00270549128251
-0.000123623605971
-0.00258320822353
-0.000122267560428
-0.0024623659669
-0.000120841203782
-0.00234300359095
-0.000119345657834
-0.00222519880041
-0.000117802241923
-0.00210896828197
-0.000116212671425
-0.00199436584906
-0.000114598237504
-0.00188138579267
-0.000112961238805
-0.00177005729207
-0.000111322558039
-0.00166035269459
-0.000109684999864
-0.00155227636684
-0.000108068601218
-0.00144577972419
-0.000106476515156
-0.00134084280277
-0.00010492743242
-0.00123739779935
-0.000103424612939
-0.00113540182165
-0.0001019847884
-0.00103477061318
-0.000100610821008
-0.00093544139417
-9.93163851346e-05
-0.000837318860241
-9.81023412216e-05
-0.000740328676186
-9.69757585595e-05
-0.000644380916632
-9.59279664563e-05
-0.000549423982069
-9.49412655252e-05
-0.000455452975627
-9.39521710629e-05
-0.000362635147165
-9.28015666079e-05
-0.000271598520112
-9.10197345408e-05
-0.000184531897819
-8.70509277375e-05
-0.000102401806878
-8.21105598967e-05
-0.000102390364161
-0.000389806174479
0.000742469286792
-0.000825009431726
0.000821357995647
-0.00125774851247
0.000818553772699
-0.00168419335626
0.000807306400663
-0.00210241999196
0.000792057853371
-0.0025106516678
0.000773301290195
-0.00290723283886
0.000751366337545
-0.00329067490642
0.000726596834707
-0.00365967527532
0.000699353262556
-0.00401312480686
0.000670001137346
-0.00435010626897
0.000638903229669
-0.00466988853075
0.000606409036056
-0.00497191570382
0.000572849998344
-0.00525579441643
0.000538532070896
-0.00552127854289
0.000503734828211
-0.00576825370314
0.000468707223838
-0.00599672127627
0.000433670066118
-0.00620678317051
0.000398814067955
-0.00639862756265
0.000364304583672
-0.00657251572133
0.000330280778557
-0.00672877063019
0.000296861520797
-0.00686776653218
0.000264144656733
-0.00698992057691
0.000232213241303
-0.00709568499309
0.000201134234862
-0.00718554126866
0.00017096462308
-0.00725999447761
0.000141749181983
-0.00731956921403
0.000113526357542
-0.00736480551649
8.63250019874e-05
-0.00739625571901
6.01701045725e-05
-0.00741448140137
3.5078531974e-05
-0.00742004984377
1.10646813935e-05
-0.00741353341869
-1.18643413022e-05
-0.00739550830172
-3.3702640226e-05
-0.00736655162776
-5.44516036305e-05
-0.00732723655971
-7.41133721544e-05
-0.00727813325335
-9.26971333897e-05
-0.00721980445461
-0.000110211953205
-0.00715280711811
-0.000126674127098
-0.00707768671272
-0.000142099051204
-0.00699498047936
-0.000156509326124
-0.00690521039827
-0.000169925725998
-0.00680888843896
-0.000182376143924
-0.00670650799123
-0.000193885598926
-0.00659855140306
-0.000204486101269
-0.00648547966353
-0.000214205654898
-0.00636774248734
-0.000223079120125
-0.00624576602494
-0.000231136179838
-0.00611996570525
-0.000238413270464
-0.00599073175298
-0.000244940495807
-0.00585844495041
-0.000250754682806
-0.00572345974542
-0.00025588523487
-0.00558612303302
-0.000260368354053
-0.00544675466064
-0.000264231843064
-0.00530566926966
-0.000267510512034
-0.00516315403355
-0.000270229947051
-0.00501949353085
-0.000272423096782
-0.00487494460233
-0.00027411304401
-0.00472976416349
-0.000275330732892
-0.00458418113367
-0.000276096789159
-0.00443842702687
-0.000276440316629
-0.00429270499388
-0.00027637983316
-0.0041472229708
-0.00027594302219
-0.00400215998535
-0.00027514686723
-0.00385770157558
-0.000274018209308
-0.00371400363007
-0.000272573194164
-0.00357122973157
-0.000270838445313
-0.00342951293412
-0.000268829967702
-0.0032889946153
-0.000266574718066
-0.00314978471049
-0.000264089151832
-0.00301200159381
-0.000261400941031
-0.00287573140681
-0.000258527390509
-0.00274106841344
-0.00025549703623
-0.00260807413517
-0.000252328198633
-0.00247681756597
-0.000249050174232
-0.0023473348918
-0.000245682225698
-0.00221966889419
-0.000242254072112
-0.0020938300416
-0.00023878563629
-0.00196983438407
-0.000235306530944
-0.00184766680765
-0.000231836890804
-0.00172731671486
-0.000228405553748
-0.00160874418321
-0.000225032291127
-0.00149191275966
-0.000221744381268
-0.00137675922923
-0.000218560516667
-0.00126322291567
-0.000215505446465
-0.00115121970413
-0.00021259573715
-0.00104066734694
-0.000209852038587
-0.000931464304147
-0.000207286559139
-0.000823510430346
-0.000204911986559
-0.0007166898677
-0.000202729358813
-0.000610882147484
-0.0002007307255
-0.000505932697816
-0.000198882827058
-0.000401598911228
-0.000197117303035
-0.000297294495336
-0.000195306146975
-0.000191085699663
-0.000193242571047
-8.18497977587e-05
-0.000191329782298
-0.000184231831931
-0.00039676323066
0.00113923527356
-0.000837606378196
0.00126220411085
-0.00127659890965
0.00125754925697
-0.00170922616142
0.00123993664294
-0.00213336134593
0.00121619605809
-0.0025471390452
0.00118708203498
-0.00294885875148
0.00115308913708
-0.00333700502027
0.00111474622553
-0.00371026119032
0.00107261260789
-0.00406751498647
0.00102725814112
-0.00440785569008
0.000979247191278
-0.00473056668844
0.000929123324346
-0.00503511273459
0.000877399374924
-0.00532112550795
0.000824548201661
-0.00558838638108
0.000770999083484
-0.00583680974378
0.000717133986264
-0.00606642534731
0.000663289073706
-0.00627736268567
0.000609754814249
-0.00646983542779
0.00055678071472
-0.00664412861199
0.000504577338153
-0.00680058622425
0.000453322464918
-0.0069396017031
0.000403163433117
-0.00706160866357
0.000354223432305
-0.00716707440168
0.000306603145899
-0.00725649316066
0.000260386467313
-0.00733038194691
0.000215640970509
-0.00738927551916
0.000172422829106
-0.00743372377814
0.000130776050659
-0.00746428770247
9.07367068421e-05
-0.00748153772322
5.23310936689e-05
-0.00748605010095
1.55794886763e-05
-0.00747840597578
-1.95062016762e-05
-0.00745918772866
-5.29187244445e-05
-0.00742897848178
-8.46588795808e-05
-0.00738835823114
-0.000114731732213
-0.00733790381803
-0.000143149874992
-0.00727818483598
-0.000169929311919
-0.00720976428183
-0.000195093302493
-0.00713319417192
-0.000218667784928
-0.00704901692336
-0.000240685468625
-0.00695776067395
-0.000261180815758
-0.00685994153538
-0.000280194416001
-0.00675605860977
-0.000297767534794
-0.00664659723163
-0.000313946806323
-0.00653202364578
-0.000328778365615
-0.00641278932261
-0.000342312904772
-0.00628932524914
-0.000354599421397
-0.00616204736853
-0.00036569067654
-0.00603135040945
-0.000375636588853
-0.00589761446574
-0.000384490133488
-0.00576119828506
-0.000392300422038
-0.00562244697012
-0.000399119064662
-0.00548168462617
-0.000404992969397
-0.00533922313201
-0.000409971186312
-0.0051953540575
-0.000414097467199
-0.00505035842011
-0.000417417585422
-0.0049044977759
-0.00041997168365
-0.00475802485483
-0.000421802051926
-0.00461117376626
-0.0004229452937
-0.00446417138712
-0.000423440508571
-0.0043172266406
-0.00042332128897
-0.00417054250896
-0.000422624239834
-0.00402430441434
-0.00042138082347
-0.00387869272483
-0.000419626112901
-0.0037338703061
-0.000417390493337
-0.00358999540109
-0.000414708543227
-0.00344720850711
-0.000411610621059
-0.00330564550729
-0.00040813174713
-0.00316542406405
-0.000404303112693
-0.00302665688714
-0.000400160850899
-0.00288943790403
-0.000395737538808
-0.00275385553141
-0.00039107073907
-0.00261997888998
-0.000386194581064
-0.00248787093928
-0.000381147978862
-0.00235757503758
-0.000375966406685
-0.00222912777033
-0.000370689694298
-0.0021025461293
-0.000365354117498
-0.00197783985674
-0.000359999691274
-0.0018549995192
-0.000354662704723
-0.00173400816694
-0.000349382422186
-0.00161483053217
-0.00034419417794
-0.00149742380689
-0.000339135399837
-0.00138172817297
-0.000334239357587
-0.00126767648178
-0.00032954038973
-0.00115518622834
-0.000325068339464
-0.00104416782621
-0.000320852805229
-0.000934517830167
-0.000316918179183
-0.000826124780289
-0.000313286622098
-0.000718861631066
-0.00030997359699
-0.000612583740807
-0.000306989804482
-0.000507108098123
-0.00030433956386
-0.000402176128897
-0.000302030881281
-0.000297362262898
-0.000300102095164
-0.00019193593078
-0.00029865105971
-8.63066777778e-05
-0.000296941869965
-0.00027053035549
-0.000402959772804
0.0015421978085
-0.000849911286109
0.00170915848897
-0.00129499656826
0.00170263750969
-0.00173347367478
0.00167841671932
-0.00216308013349
0.00164580553576
-0.00258185970859
0.0016058646544
-0.00298805475657
0.00155928727608
-0.00338011727232
0.00150681186972
-0.00375671842568
0.00144921693998
-0.00411675087854
0.00138729381365
-0.00445932319899
0.00132182278063
-0.00478374913895
0.00125355257129
-0.00508953197242
0.00118318555736
-0.00537634690241
0.0011113665104
-0.00564402133626
0.00103867692506
-0.005892515802
0.000965631876386
-0.00612190467234
0.000892681379458
-0.00633235912025
0.000820212697076
-0.00652413084031
0.000748555859099
-0.0066975386863
0.000677988587782
-0.00685295624312
0.000608743390836
-0.00699080236646
0.000541012882695
-0.007111532329
0.000474956661812
-0.00721563165145
0.000410705669607
-0.00730360998016
0.000348367914254
-0.00737599727328
0.000288031293569
-0.00743333943205
0.000229767913244
-0.00747619593386
0.000173635368809
-0.00750513638501
0.000119679852402
-0.00752073893268
6.79362081961e-05
-0.00752358722416
1.84302125406e-05
-0.00751426901758
-2.88221180694e-05
-0.0074933731555
-7.38124366374e-05
-0.00746148856118
-0.000116541477151
-0.00741920123876
-0.000157017197441
-0.00736709338036
-0.000195256034729
-0.0073057402001
-0.000231280923705
-0.00723570940123
-0.000265122692566
-0.00715755804317
-0.000296817848052
-0.00707183240412
-0.000326409967255
-0.00697906493337
-0.000353947234282
-0.0068797746004
-0.000379483842008
-0.00677446397905
-0.000403077305279
-0.00666362015162
-0.00042478991246
-0.00654771194986
-0.000444685860879
-0.00642719145186
-0.000462832806687
-0.00630249137298
-0.000479298872431
-0.0061740271617
-0.000494154344879
-0.00604219451223
-0.000507468608425
-0.00590737203692
-0.000519312035372
-0.00576991884584
-0.000529752893587
-0.00563017774411
-0.000538859468526
-0.00548847280854
-0.000546696993714
-0.00534511303438
-0.000553330033374
-0.00520038981956
-0.000558819471462
-0.00505458096254
-0.000563225171837
-0.00490794796143
-0.000566603053071
-0.00476074025485
-0.000569008019726
-0.00461319224277
-0.000570491126565
-0.00446552765978
-0.000571102751384
-0.00431795624778
-0.000570889834627
-0.00417067816737
-0.000569899236391
-0.00402388028223
-0.000568175013281
-0.00387774053652
-0.000565761883619
-0.00373242385821
-0.000562702497125
-0.00358808646475
-0.000559040920094
-0.00344487143722
-0.000554819850296
-0.00330291294253
-0.000550084038288
-0.00316233157497
-0.000544877418534
-0.00302323850756
-0.000539246394684
-0.00288573072663
-0.000533236877701
-0.00274989512925
-0.000526897384921
-0.00261580379223
-0.000520276007005
-0.00248351803065
-0.000513423289682
-0.00235308384213
-0.000506389173338
-0.00222453592213
-0.000499225643747
-0.00209789341106
-0.000491983707615
-0.00197316384422
-0.000484715805758
-0.00185033931046
-0.000477472893594
-0.00172940028955
-0.000470306610702
-0.0016103123019
-0.000463266532647
-0.0014930295649
-0.000456402082584
-0.00137749217714
-0.000449760007086
-0.00126362948082
-0.000443386000667
-0.00115135772776
-0.000437322438812
-0.0010405828993
-0.000431609680587
-0.000931198521316
-0.000426284117562
-0.000823087183793
-0.000421379266996
-0.000716117157125
-0.000416924583349
-0.00061014022233
-0.000412947625085
-0.000504984055335
-0.000409476840295
-0.000400444715397
-0.000406551603344
-0.0002962895395
-0.000404238750939
-0.000192350245841
-0.000402572462185
-8.94863979037e-05
-0.000399788361422
-0.000360008260432
-0.000410948138635
0.00195314867069
-0.000866376916503
0.00216459022636
-0.00131971457032
0.0021559780802
-0.00176602689352
0.00212473202067
-0.00220291669533
0.00208269833407
-0.0026283222242
0.00203127322577
-0.00304041297241
0.00197138110675
-0.00343759890255
0.00190400093161
-0.00381853725143
0.00183015846794
-0.00418213092557
0.00175089071869
-0.00452751879368
0.00166721392632
-0.00485406014563
0.0015800972495
-0.00516131462962
0.00149044340714
-0.00544902012809
0.00139907541413
-0.00571706947474
0.00130672970376
-0.00596548801263
0.00121405387103
-0.00619441216099
0.00112160899397
-0.00640407042815
0.00102987443574
-0.00659476634666
0.000939255237539
-0.00676686435576
0.000850090039432
-0.00692077760506
0.000762660047872
-0.00705695850952
0.000677197152628
-0.00717589071765
0.000593892176619
-0.00727808331605
0.000512901506876
-0.00736406575616
0.000434353510938
-0.00743438445205
0.000358353053408
-0.00748959944192
0.000284985863451
-0.00753028227155
0.000214321043444
-0.00755701343407
0.000146413738132
-0.00757038077685
8.13061394966e-05
-0.00757097714591
1.90290348945e-05
-0.00755939872103
-4.03982392633e-05
-0.00753624280861
-9.69661891356e-05
-0.00750210618811
-0.000150676096758
-0.00745758267942
-0.000201538850663
-0.00740326166739
-0.000249575353763
-0.00733972554355
-0.000294815495481
-0.00726754841479
-0.000337298428487
-0.00718729366059
-0.000377071338262
-0.00709951292614
-0.000414189587352
-0.0070047438913
-0.000448715265338
-0.00690350964117
-0.000480717221413
-0.00679631672156
-0.000510269438827
-0.00668365494951
-0.000537451009062
-0.00656599579428
-0.000562344393939
-0.00644379265397
-0.000585035406292
-0.00631747957074
-0.00060561142969
-0.00618747196846
-0.000624161468512
-0.00605416567917
-0.00064077439067
-0.00591793810723
-0.000655539107073
-0.00577914752144
-0.000668542900887
-0.00563813458509
-0.000679871788319
-0.00549522184098
-0.000689608989292
-0.0053507155218
-0.000697835514615
-0.00520490513745
-0.000704628825611
-0.00505806545974
-0.000710063674464
-0.00491045610416
-0.000714210977561
-0.00476232357083
-0.000717138914549
-0.00461390071585
-0.000718912016928
-0.00446540873376
-0.00071959249474
-0.00431705642359
-0.000719239507151
-0.00416904201825
-0.000717910656112
-0.00402155218906
-0.0007156613803
-0.00387476366111
-0.000712546524872
-0.00372884193853
-0.000708619779203
-0.00358394268869
-0.000703935224265
-0.00344021022549
-0.000698546737288
-0.00329777868487
-0.000692509420231
-0.00315677033816
-0.000685878907378
-0.00301729661442
-0.000678712605588
-0.00287945634993
-0.000671068872713
-0.00274333672543
-0.000663008027698
-0.00260901155931
-0.000654591397486
-0.00247654222946
-0.000645882093395
-0.00234597611477
-0.000636943955248
-0.00221734755403
-0.000627842112355
-0.002090676512
-0.000618641869338
-0.00196596960979
-0.000609409090432
-0.00184321906917
-0.000600209079051
-0.00172240382046
-0.000591106824157
-0.00160348874179
-0.000582165920099
-0.00148642582524
-0.000573448712902
-0.00137115369233
-0.000565015299844
-0.00125759875133
-0.000556923605937
-0.00114567489095
-0.000549228504554
-0.00103528447283
-0.000541981885378
-0.000926317970858
-0.000535232014636
-0.000818654434952
-0.000529023831949
-0.000712160713891
-0.000523399097785
-0.00060669112137
-0.000518397911107
-0.0005020871731
-0.000514061486589
-0.000398182195576
-0.000510437751527
-0.000294820411942
-0.000507582228816
-0.000191939929019
-0.000505434474783
-9.02144254221e-05
-0.00050149598608
-0.000450214259707
-0.00042110544964
0.0023742568485
-0.000887545960094
0.0026310335448
-0.00135154764989
0.00261998270697
-0.0018079357311
0.00258112303766
-0.00225414974628
0.00252891534219
-0.00268800011271
0.00246512661825
-0.00310756760488
0.00239095167774
-0.00351121294145
0.00230764939476
-0.00389758089697
0.00221652960722
-0.00426559387484
0.00211890693203
-0.00461443630382
0.00201605964775
-0.00494353255832
0.00190919684448
-0.0052525205768
0.00179943481627
-0.0055412237761
0.00168778204209
-0.00580962280453
0.00157513219793
-0.00605782894084
0.00146226349563
-0.00628605973535
0.00134984329539
-0.0064946178696
0.00123843607963
-0.00668387304176
0.00112851391533
-0.00685424728457
0.00102046776766
-0.00700620303979
0.000914619259054
-0.00714023412211
0.000811231646001
-0.00725685867689
0.000710520086137
-0.00735661420598
0.000612660320794
-0.00744005371775
0.000517796224592
-0.00750774314714
0.000426045590796
-0.00756025915161
0.000337504867961
-0.0075981875733
0.000252252349841
-0.0076221217671
0.000170350686852
-0.00763266125222
9.18482463256e-05
-0.00763040999545
1.67802525105e-05
-0.00761597460695
-5.48312996562e-05
-0.00758996277168
-0.000122975855732
-0.00755298116862
-0.000187655684912
-0.00750563337636
-0.000248884793285
-0.00744851799643
-0.0003066890387
-0.00738222641135
-0.000361105549496
-0.00730734099942
-0.000412182458515
-0.00722443303423
-0.000459978077395
-0.00713406114129
-0.000504560390786
-0.00703676947207
-0.000546005985227
-0.00693308651588
-0.000584399345987
-0.0068235236367
-0.000619831604534
-0.00670857430837
-0.000652399715921
-0.00658871306035
-0.000682205109374
-0.00646439516303
-0.000709352831869
-0.00633605598885
-0.000733950186297
-0.00620411113967
-0.000756105923493
-0.00606895620102
-0.000775928947908
-0.00593096727489
-0.00079352763299
-0.00579050107537
-0.000809008666828
-0.00564789580286
-0.000822476560288
-0.00550347150535
-0.000834032700223
-0.00535753120347
-0.000843775110368
-0.00521036141352
-0.000851797765908
-0.00506223340909
-0.000858190651045
-0.00491340378347
-0.000863039367218
-0.00476411572094
-0.000866425499609
-0.00461459946821
-0.000868426514024
-0.00446507349051
-0.000869116405716
-0.00431574473787
-0.000868565837259
-0.00416680958679
-0.00086684299965
-0.00401845381962
-0.000864013901534
-0.0038708532953
-0.000860143339717
-0.0037241736125
-0.000855295226472
-0.00357857050695
-0.000849533551669
-0.0034341892226
-0.000842922630094
-0.00329116468337
-0.000835527948233
-0.00314962064595
-0.000827416236581
-0.00300966973163
-0.000818656124005
-0.00287141246342
-0.000809317976872
-0.00273493725862
-0.000799474327122
-0.00260031946308
-0.000789199467165
-0.00246762139993
-0.000778569658592
-0.0023368915016
-0.000767662511062
-0.00220816448661
-0.000756557010179
-0.0020814606663
-0.000745332737235
-0.00195678629153
-0.000734069768545
-0.00183413308049
-0.000722847804882
-0.00171347874332
-0.000711745995366
-0.00159478674564
-0.00070084204504
-0.00147800698738
-0.000690212009249
-0.00136307578168
-0.000679929443275
-0.0012499166287
-0.000670065210657
-0.00113844034143
-0.000660686747027
-0.00102854581984
-0.000651857954699
-0.000920120231069
-0.000643638721527
-0.000813039741909
-0.000636085114964
-0.000707169841283
-0.000629249484757
-0.000602366587127
-0.000623181536245
-0.000498479038653
-0.000617929692383
-0.000395355081828
-0.000613542603032
-0.000292856427907
-0.00061006181491
-0.000190912550379
-0.000607359937055
-9.00432107125e-05
-0.000602347426723
-0.000540248715318
-0.000433695696061
0.00280795521163
-0.000913849865059
0.00311119063507
-0.00139110621372
0.00309724191532
-0.00185997441481
0.00304999417548
-0.00231768678721
0.00298663067187
-0.00276189634737
0.00290933919268
-0.00319057821712
0.00281963660949
-0.00360203900805
0.0027191133082
-0.00399491707547
0.00260941085415
-0.00436816932408
0.00249216242381
-0.00472104735315
0.00236894097686
-0.00505306642132
0.00224121927305
-0.00536397050456
0.00211034230927
-0.00565369638691
0.00197751138429
-0.0059223389996
0.00184377830609
-0.00617011968589
0.00171004771103
-0.00639735830899
0.00157708546426
-0.00660444973794
0.00144553106647
-0.00679184466733
0.00131591239641
-0.0069600346145
0.00118866125335
-0.00710954054586
0.0010641286973
-0.00724090470208
0.000942599268346
-0.00735468490306
0.000824303695099
-0.00745145089001
0.000709429646596
-0.00753178199572
0.00059813058488
-0.0075962658281
0.000490532581047
-0.00764549736236
0.000386739451586
-0.00768007832653
0.000286836241425
-0.00770061641878
0.000190891576941
-0.00770772445406
9.89589360013e-05
-0.00770201923766
1.10775444785e-05
-0.00768411973265
-7.27284563832e-05
-0.00765464580704
-0.000152447590434
-0.00761421611497
-0.000228083356586
-0.00756344597547
-0.000299653074343
-0.00750294531599
-0.000367188013912
-0.00743331641046
-0.000430732930659
-0.00735515187406
-0.000490345641166
-0.00726903253973
-0.000546096208567
-0.00717552570271
-0.000598066184496
-0.0070751833044
-0.00064634747486
-0.00696854056049
-0.000691041323034
-0.00685611455645
-0.000732256953417
-0.00673840333316
-0.000770110401192
-0.00661588494267
-0.000804723044683
-0.00648901701556
-0.000836220389704
-0.00635823628372
-0.000864730596591
-0.00622395861733
-0.000890383317274
-0.00608657898884
-0.000913308311262
-0.0059464719385
-0.000933634424267
-0.00580399192712
-0.000951488380526
-0.00565947416219
-0.000966993985487
-0.00551323525729
-0.000980271175743
-0.00536557432023
-0.000991435521853
-0.00521677380716
-0.00100059760654
-0.00506710074484
-0.00100786288481
-0.00491680764013
-0.00101333143367
-0.00476613368842
-0.00101709818981
-0.00461530559018
-0.00101925307108
-0.00446453859827
-0.00101988155903
-0.00431403710629
-0.00101906513482
-0.00416399541443
-0.0010168821174
-0.0040145979977
-0.00101340830557
-0.00386601992106
-0.00100871793549
-0.00371842675559
-0.00100288438649
-0.00357197463803
-0.000995981102453
-0.00342680987275
-0.000988082217396
-0.00328306869286
-0.000979263296584
-0.00314087664112
-0.000969601765298
-0.00300034813478
-0.000959177368031
-0.00286158575454
-0.000948072335554
-0.00272467973415
-0.000936371516716
-0.00258970728955
-0.000924162275273
-0.00245673214797
-0.000911534308398
-0.00232580403019
-0.00089857931327
-0.00219695830752
-0.000885390549106
-0.00207021571158
-0.000872062341714
-0.00194558217502
-0.000858689470517
-0.0018230488024
-0.000845366587312
-0.0017025919165
-0.000832187513036
-0.00158417328392
-0.00081924463955
-0.00146774036054
-0.000806628215718
-0.00135322673376
-0.000794425791534
-0.00124055253624
-0.000782721567034
-0.00112962504026
-0.000771595940137
-0.00102033921568
-0.000761125009217
-0.000912578458424
-0.000751380320292
-0.000806215359387
-0.000742428656432
-0.000701112882948
-0.000734332184669
-0.000597125901059
-0.000727148638577
-0.000494103918985
-0.000720931775383
-0.000391896018051
-0.000715731105536
-0.000290359260368
-0.000711579741712
-0.000189395191685
-0.000708304936804
-8.9439156115e-05
-0.000702285029103
-0.000629679212657
-0.000448997240437
0.00325695511791
-0.000945825067725
0.00360802117876
-0.00143916265936
0.00359058238144
-0.00192311663732
0.00353395102462
-0.00239465779167
0.00345817476794
-0.0028512468875
0.0033659312709
-0.00329073604868
0.00325912881775
-0.00371137659781
0.0031397569633
-0.00411181293739
0.0030098503699
-0.00449105957755
0.00287141230419
-0.00484846558314
0.00272635029322
-0.00518367140238
0.00257642846333
-0.00549656243994
0.00242323678119
-0.00578722314587
0.00226817557375
-0.00605589423516
0.00211245292788
-0.00630293489919
0.00195709193951
-0.00652879080966
0.00180294496784
-0.00673396825148
0.00165071211131
-0.00691901401701
0.00150096176859
-0.00708450059292
0.00135415142032
-0.00723101578607
0.00121064745686
-0.00735915607152
0.00107074307714
-0.0074695227452
0.000934673837496
-0.00756272019922
0.000802630498259
-0.00763935553178
0.000674769230462
-0.00770003896531
0.000551219229533
-0.00774538450435
0.000432088092503
-0.00777601052618
0.000317465242659
-0.00779253999025
0.000207423882032
-0.00779560014869
0.000102021792506
-0.00778582214542
1.30208020028e-06
-0.00776383920589
-9.47090154524e-05
-0.00773028504578
-0.00018599954428
-0.00768579241592
-0.000272573947866
-0.00763099052154
-0.000354453112536
-0.00756650276234
-0.000431674086823
-0.00749294440724
-0.00050428978263
-0.0074109203071
-0.000572368403187
-0.00732102272267
-0.000635992631435
-0.00722382930397
-0.000695258594405
-0.00711990127937
-0.000750274653029
-0.00700978185959
-0.000801160030092
-0.00689399490195
-0.000848043339596
-0.00677304381746
-0.000891061022111
-0.00664741075755
-0.000930355754368
-0.00651755604607
-0.000966074827156
-0.00638391788817
-0.000998368560069
-0.00624691231081
-0.0010273887388
-0.00610693336341
-0.00105328714271
-0.00596435352368
-0.00107621414391
-0.00581952433296
-0.00109631744607
-0.00567277719717
-0.00111374094365
-0.00552442437008
-0.00112862376913
-0.00537476004488
-0.00114109950727
-0.00522406155946
-0.00115129563909
-0.00507259063666
-0.00115933318867
-0.00492059465098
-0.00116532662263
-0.0047683078475
-0.00116938396379
-0.00461595249049
-0.00117160714789
-0.0044637398892
-0.00117209257277
-0.00431187126198
-0.00117093184112
-0.00416053842939
-0.00116821263953
-0.00400992427492
-0.00116401972451
-0.00386020302957
-0.00115843596677
-0.00371154028498
-0.0011515433924
-0.00356409287554
-0.00114342420227
-0.00341800848199
-0.00113416167409
-0.00327342519454
-0.00112384098505
-0.00313047081563
-0.00111254981828
-0.00298926224183
-0.00110037887162
-0.00284990461441
-0.00108742207831
-0.00271249067649
-0.00107377676024
-0.00257709992702
-0.0010595434501
-0.00244379809344
-0.00104482571863
-0.002312636418
-0.00102972965156
-0.00218365134586
-0.0010143634298
-0.00205686403225
-0.000998836555977
-0.00193228029613
-0.000983259285856
-0.00180989039114
-0.000967741713043
-0.00168966923047
-0.000952393144406
-0.00157157642699
-0.00093732114579
-0.00145555676242
-0.000922630936895
-0.001341540474
-0.00090842448805
-0.00122944392494
-0.000894799995583
-0.00111917010346
-0.000881851110821
-0.00101060947405
-0.000869666552419
-0.000903640707117
-0.000858329550872
-0.000798131829013
-0.000847917665111
-0.000693941372011
-0.00083850245424
-0.000590920191815
-0.000830149515142
-0.000488913841838
-0.000822918146161
-0.000387765307412
-0.000816859880009
-0.000287320097317
-0.000812005192497
-0.000187456681062
-0.000808149337597
-8.85634044697e-05
-0.000801159862033
-0.000718233593758
-0.000467349030058
0.00372430672045
-0.000984153999595
0.00412482899218
-0.00149670629917
0.00410313744361
-0.00199860559919
0.00403585318217
-0.00248649690391
0.00394606895549
-0.00295760906625
0.0038370463865
-0.00340965507938
0.00371117784336
-0.00384083575849
0.00357094072966
-0.00424982350435
0.00341884127392
-0.004635724876
0.00325731691296
-0.00499802862191
0.00308865734763
-0.00533654594837
0.00291494917396
-0.00565134902144
0.00273804330171
-0.00594271229408
0.00255954235825
-0.00621105987554
0.00238080406922
-0.0064569206986
0.00220295636865
-0.00668089219584
0.00202692009812
-0.00688361225726
0.00185343582807
-0.00706573878337
0.00168309195148
-0.00722793575055
0.00151635203848
-0.00737086467072
0.00135358000102
-0.00749518024531
0.00119506223904
-0.0076015291511
0.0010410262738
-0.00769055093672
0.000891655745744
-0.0077628801739
0.000747101843055
-0.00781914911411
0.00060749144511
-0.00785999026478
0.000472932404269
-0.00788603847406
0.00034351648389
-0.00789793225038
0.000219320551523
-0.0078963142461
0.000100406527204
-0.00788183051425
-1.31790712315e-05
-0.00785513030063
-0.000121406822834
-0.00781686364138
-0.000224263969933
-0.00776767939433
-0.000321756148587
-0.00770822286464
-0.000413907775356
-0.00763913326386
-0.000500762013738
-0.00756104108876