/*--------------------------------*- C++ -*----------------------------------*\
| =========                 |                                                 |
| \\      /  F ield         | OpenFOAM: The Open Source CFD Toolbox           |
|  \\    /   O peration     | Version:  v1906                                 |
|   \\  /    A nd           | Web:      www.OpenFOAM.com                      |
|    \\/     M anipulation  |                                                 |
\*---------------------------------------------------------------------------*/
FoamFile
{
    version     2.0;
    format      ascii;
    class       volScalarField;
    location    "118";
    object      alpha;
}
// * * * * * * * * * * * * * * * * * * * * * * * * * * * * * * * * * * * * * //

dimensions      [0 0 -1 0 0 0 0];


internalField   nonuniform List<scalar> 
9216
(
99.9986203111
99.9990288742
99.9990084472
99.9990084472
99.9989055429
99.9989805601
99.9989805601
99.9989805601
99.9989805601
99.9989805601
99.9988972076
99.9987560495
99.9985992071
99.9985992071
99.9985992071
99.9985992071
99.9985992071
99.9985992071
99.9985992071
99.9985992071
99.9985992071
99.9985992071
99.9985992071
99.9985992071
99.9985992071
99.9985992071
99.9983840597
99.9983840597
99.9985409021
99.9986820603
99.9986820603
99.9980056898
99.9979276871
99.9983148784
99.9984884277
99.9984884277
99.9984884277
99.9983958138
99.9983958138
99.9983958138
99.9983958138
99.9981567612
99.9981567612
99.9981567612
99.9981567612
99.9981567612
99.9981567612
99.9981567612
99.9981567612
99.9981567612
99.9981567612
99.9981567612
99.9981567612
99.9981567612
99.9981567612
99.9981567612
99.9981567612
99.9983472651
99.9983958138
99.9983958138
99.9983958138
99.9983958138
99.9983958138
99.9983685882
99.9980648941
99.9974484105
99.9970587727
99.996980764
99.9967619381
99.9966205358
99.9964872439
99.9963839004
99.9962907086
99.9962605234
99.9962299644
99.9962085909
99.996146106
99.9960095316
99.9958062428
99.9955069732
99.9950168032
99.9940896622
99.992803325
99.9907647092
99.9878084434
99.9833810214
99.9812398976
99.9765857896
99.9335420521
99.5490483231
98.6708001804
95.8225528948
78.8631929238
50.2784255608
26.6852822761
5.0152938136
99.9989055429
99.9990084472
99.9990834644
99.9990834644
99.9990834644
99.9990834644
99.9989805601
99.9989055429
99.9989055429
99.9989055429
99.9989055429
99.9989055429
99.9989055429
99.9989055429
99.9986075423
99.9986075423
99.9986075423
99.9989055429
99.9989055429
99.9989055429
99.9988221904
99.9986810322
99.9985884184
99.9985884184
99.9985884184
99.9985884184
99.9985884184
99.998373271
99.998373271
99.998373271
99.9981342184
99.9981342184
99.9979405858
99.9979405858
99.9979405858
99.9979405858
99.9979405858
99.9979405858
99.9979405858
99.9977663165
99.9976094741
99.9976094741
99.9976094741
99.9976094741
99.9976094741
99.9973438601
99.9973438601
99.9973438601
99.9973438601
99.9973438601
99.9973438601
99.9973438601
99.9973438601
99.9973438601
99.9973438601
99.9973438601
99.9973438601
99.997234217
99.9969390225
99.9969390225
99.9969390225
99.9969390225
99.9969390225
99.9969390225
99.9973756734
99.9966220932
99.9961677283
99.9957586285
99.9953902325
99.9954747015
99.9952792413
99.9950760368
99.9949326956
99.9948917679
99.9948683778
99.9948731185
99.9948883973
99.9947184883
99.9952004465
99.9948127181
99.99417753
99.9947125127
99.9936446657
99.9930150029
99.9907125979
99.9875544895
99.9844656491
99.9795390943
99.969185867
99.8192411223
99.2330749567
97.8178596226
91.085917559
65.2093757295
43.9662747657
26.9283522001
99.9989055429
99.9990834644
99.9990834644
99.9990084472
99.9990084472
99.9990084472
99.9990084472
99.9989055429
99.9989055429
99.9989055429
99.9988221904
99.9988221904
99.9988221904
99.9988221904
99.9988221904
99.9987295765
99.9987295765
99.9985884184
99.9985884184
99.9985884184
99.9985884184
99.9985884184
99.9985884184
99.9985884184
99.9985884184
99.9985884184
99.9982164286
99.997977376
99.997977376
99.9977837434
99.9977837434
99.9976094741
99.9976094741
99.9976094741
99.9973438601
99.9973438601
99.9973438601
99.9973438601
99.9973438601
99.9973438601
99.9973438601
99.9973438601
99.9973438601
99.9973438601
99.9970487335
99.9970487335
99.9970487335
99.9966438958
99.9962795419
99.9962795419
99.9959516234
99.9955018038
99.9955018038
99.9955018038
99.9955018038
99.9955018038
99.9955018038
99.9955018038
99.9955018038
99.9955018038
99.9955018038
99.9955018038
99.9955018038
99.9955018038
99.9951490631
99.9941693696
99.9930990486
99.9922682317
99.9915292711
99.9909923404
99.9915615406
99.9911822089
99.9908897161
99.9922618983
99.9921193552
99.9916608996
99.9912519352
99.9907294453
99.9901126411
99.9930330351
99.9921622795
99.9921971494
99.990367977
99.987671628
99.984325008
99.9815052622
99.9737874682
99.9649592291
99.9665167438
99.9266507983
99.2620378646
97.7912949214
93.5835193807
77.3630229821
65.9170333038
51.3090737241
99.9989805601
99.9990084472
99.9990084472
99.9990084472
99.9990084472
99.9990084472
99.9989055429
99.9989055429
99.9988221904
99.9988221904
99.9988221904
99.9988221904
99.9988221904
99.9987295765
99.9985884184
99.9985884184
99.9985884184
99.9985884184
99.9985884184
99.9985884184
99.9985884184
99.9985884184
99.998431576
99.998431576
99.9982164286
99.997977376
99.9977837434
99.9976094741
99.9976094741
99.9976094741
99.9973438601
99.9973438601
99.9973438601
99.9973438601
99.9973438601
99.9973438601
99.9973438601
99.9970487335
99.9970487335
99.9970487335
99.9970487335
99.9970487335
99.9963159773
99.9959516234
99.9959516234
99.9955018038
99.9955018038
99.9955018038
99.9955018038
99.9955018038
99.9955018038
99.9955018038
99.9955018038
99.9950020042
99.9950020042
99.9950020042
99.9950020042
99.9950020042
99.9950020042
99.9950020042
99.9950020042
99.9950020042
99.9950020042
99.9950020042
99.9947525473
99.9935070245
99.992167656
99.9912118691
99.9903837442
99.9898459346
99.9894948031
99.9892394667
99.9899652402
99.9897706048
99.989554486
99.9893203352
99.9890147907
99.9884618425
99.9876095232
99.986019716
99.9838251233
99.9811746456
99.9803115775
99.9759853578
99.9772798651
99.9699072756
99.9582886144
99.9663367869
99.954143282
99.8873194153
99.3699927269
98.4568145231
96.3226929315
93.8736146317
90.6605158273
77.6311432731
99.9989805601
99.9990084472
99.9990084472
99.9990084472
99.9990084472
99.9990084472
99.9990084472
99.9988221904
99.9988221904
99.9988221904
99.9988221904
99.9988221904
99.9987295765
99.9985884184
99.9985884184
99.9985884184
99.9985884184
99.9985884184
99.9985884184
99.9985884184
99.998431576
99.998431576
99.998431576
99.9982164286
99.997977376
99.9976094741
99.9976094741
99.9973438601
99.9973438601
99.9973438601
99.9973438601
99.9973438601
99.9973438601
99.9970487335
99.9970487335
99.9970487335
99.9970487335
99.9970487335
99.996720815
99.996720815
99.9959516234
99.9959516234
99.9955018038
99.9955018038
99.9955018038
99.9955018038
99.9955018038
99.9950020042
99.9950020042
99.9950020042
99.9950020042
99.9950020042
99.9950020042
99.9950020042
99.9944466713
99.9944466713
99.9944466713
99.9944466713
99.9944466713
99.9944466713
99.9944466713
99.9944466713
99.9944466713
99.9944466713
99.9930537561
99.9901826342
99.9886961523
99.9874093564
99.9865199267
99.986394597
99.986394597
99.986394597
99.986394597
99.9866245516
99.9869750771
99.9879384454
99.9881757406
99.9879419585
99.9876214268
99.9867342258
99.9860441301
99.9857437928
99.9809873851
99.9761885559
99.9700745152
99.9618078574
99.9509201408
99.9450136468
99.9377205568
99.7471959518
99.5440542702
99.0973121492
98.4200932566
97.6695605687
97.5606195159
94.7753582105
99.9990834644
99.9990084472
99.9990084472
99.9990084472
99.9990084472
99.9990084472
99.9989250947
99.9989250947
99.9988221904
99.9988221904
99.9988221904
99.9988221904
99.9985884184
99.9985884184
99.9985884184
99.9985884184
99.9985884184
99.9985884184
99.998431576
99.998431576
99.998431576
99.998431576
99.998431576
99.997977376
99.9976094741
99.9976094741
99.9973438601
99.9973438601
99.9973438601
99.9973438601
99.9973438601
99.9970487335
99.9970487335
99.9970487335
99.9970487335
99.9970487335
99.996720815
99.996720815
99.9959516234
99.9959516234
99.9955018038
99.9955018038
99.9955018038
99.9955018038
99.9950020042
99.9950020042
99.9950020042
99.9950020042
99.9950020042
99.9944466713
99.9944466713
99.9944466713
99.9944466713
99.9944466713
99.9938296348
99.9938296348
99.9938296348
99.9938296348
99.9931440387
99.9931440387
99.9923822652
99.9923822652
99.9923822652
99.9867401165
99.9834837759
99.9812990309
99.980656583
99.9779310753
99.9767700123
99.9767700123
99.975729911
99.9740727962
99.9752775739
99.9777104733
99.9777104733
99.9777104733
99.9785568883
99.9817461563
99.9824317524
99.981872363
99.9834392048
99.9813188023
99.9785647155
99.9770523254
99.9728407095
99.9643606197
99.958847964
99.9450805832
99.9203152598
99.709420556
99.5335967704
99.4497671529
99.2283203294
98.807299318
98.8482504328
97.8700621103
99.9990834644
99.9990084472
99.9990084472
99.9990084472
99.9990084472
99.9989250947
99.9989250947
99.9989250947
99.9988221904
99.9988221904
99.9988221904
99.9985884184
99.9985884184
99.9985884184
99.9985884184
99.9985884184
99.9985884184
99.998431576
99.998431576
99.998431576
99.998431576
99.998431576
99.9982164286
99.9976094741
99.9973438601
99.9973438601
99.9973438601
99.9973438601
99.9973438601
99.9973438601
99.9970487335
99.9970487335
99.9970487335
99.9970487335
99.9970487335
99.996720815
99.9963564611
99.9959516234
99.9955018038
99.9955018038
99.9955018038
99.9955018038
99.9950020042
99.9950020042
99.9950020042
99.9950020042
99.9944466713
99.9944466713
99.9944466713
99.9944466713
99.9944466713
99.9938296348
99.9938296348
99.9938296348
99.9931440387
99.9931440387
99.9923822652
99.9923822652
99.9915358502
99.9915358502
99.9915358502
99.9838333849
99.9803585698
99.9757250555
99.9730278394
99.9730278394
99.9700309327
99.9667010363
99.9667010363
99.9667010363
99.9651952273
99.9630011515
99.9630011515
99.9630011515
99.9667010363
99.9667010363
99.9667010363
99.9667010363
99.9700309327
99.9699465722
99.9718499679
99.9719828784
99.9691455773
99.9691734481
99.9679993466
99.9670925233
99.9585996709
99.9463389397
99.9245586945
99.8529531906
99.6587580144
99.5602868659
99.5916949947
99.3066040898
99.2416932479
98.7868853524
99.9990834644
99.9990084472
99.9990084472
99.9990084472
99.9990084472
99.9989250947
99.9989250947
99.9989250947
99.9988221904
99.9988221904
99.9986810322
99.9985884184
99.9985884184
99.9985884184
99.9985884184
99.9985884184
99.998431576
99.998431576
99.998431576
99.998431576
99.998431576
99.998431576
99.9976094741
99.9976094741
99.9973438601
99.9973438601
99.9973438601
99.9973438601
99.9970487335
99.9970487335
99.9970487335
99.9970487335
99.9970487335
99.996720815
99.996720815
99.9963564611
99.9959516234
99.9955018038
99.9955018038
99.9955018038
99.9950020042
99.9950020042
99.9950020042
99.9950020042
99.9944466713
99.9944466713
99.9944466713
99.9944466713
99.9944466713
99.9938296348
99.9938296348
99.9931440387
99.9931440387
99.9923822652
99.9923822652
99.9915358502
99.9915358502
99.9915358502
99.9905953891
99.9857996554
99.979313613
99.9757250555
99.9730278394
99.9700309327
99.9667010363
99.9630011515
99.9630011515
99.9588901683
99.9588901683
99.9588901683
99.9543224093
99.9543224093
99.9543224093
99.9543224093
99.9543224093
99.9543224093
99.9543224093
99.9588901683
99.9588901683
99.9588901683
99.9630011515
99.9630011515
99.9643254765
99.9634011011
99.9607721652
99.956289406
99.9432520029
99.9430703169
99.9384408936
99.921369358
99.8390185253
99.6865809998
99.6621414652
99.7019687095
99.4938707151
99.1737327115
99.9990834644
99.9990084472
99.9990084472
99.9990084472
99.9989250947
99.9989250947
99.9989250947
99.9989250947
99.9988221904
99.9988221904
99.9986810322
99.9985884184
99.9985884184
99.998431576
99.998431576
99.998431576
99.998431576
99.998431576
99.998431576
99.998431576
99.998431576
99.9978031067
99.9976094741
99.9973438601
99.9973438601
99.9973438601
99.9973438601
99.9970487335
99.9970487335
99.9970487335
99.9970487335
99.9970487335
99.996720815
99.996720815
99.9963564611
99.9959516234
99.9955018038
99.9955018038
99.9955018038
99.9950020042
99.9950020042
99.9950020042
99.9950020042
99.9944466713
99.9944466713
99.9944466713
99.9944466713
99.9938296348
99.9938296348
99.9938296348
99.9931440387
99.9931440387
99.9923822652
99.9923822652
99.9915358502
99.9915358502
99.9905953891
99.9905953891
99.979313613
99.9757250555
99.9730278394
99.9700309327
99.9667010363
99.9630011515
99.9588901683
99.9588901683
99.9543224093
99.9492471214
99.9492471214
99.9492471214
99.9436079127
99.9436079127
99.9436079127
99.9436079127
99.9436079127
99.9436079127
99.9436079127
99.9436079127
99.9436079127
99.9492471214
99.9492471214
99.9543224093
99.9543224093
99.9583610967
99.9567824808
99.9534575192
99.9483806888
99.9389786364
99.9273016483
99.9220319045
99.9115321724
99.8769483591
99.7555420395
99.8746216311
99.7408306397
99.4537998969
99.9990834644
99.9990084472
99.9990084472
99.9990084472
99.9989250947
99.9989250947
99.9989250947
99.9989250947
99.9988221904
99.9988221904
99.9986810322
99.9985884184
99.998431576
99.998431576
99.998431576
99.998431576
99.998431576
99.998431576
99.998431576
99.998431576
99.9982164286
99.9976094741
99.9973438601
99.9973438601
99.9973438601
99.9973438601
99.9970487335
99.9970487335
99.9970487335
99.9970487335
99.9970487335
99.996720815
99.996720815
99.9963564611
99.9959516234
99.9955018038
99.9955018038
99.9950020042
99.9950020042
99.9950020042
99.9950020042
99.9944466713
99.9944466713
99.9944466713
99.9944466713
99.9938296348
99.9938296348
99.9938296348
99.9931440387
99.9931440387
99.9923822652
99.9923822652
99.9915358502
99.9915358502
99.9905953891
99.9905953891
99.9895504324
99.9781525499
99.9730278394
99.9700309327
99.9667010363
99.9630011515
99.9588901683
99.9543224093
99.9492471214
99.9492471214
99.9436079127
99.9436079127
99.9373421252
99.9373421252
99.9328881346
99.9303801391
99.9303801391
99.9303801391
99.9303801391
99.9303801391
99.9303801391
99.9303801391
99.9303801391
99.9303801391
99.9373421252
99.9373421252
99.9436079127
99.9436079127
99.9491985168
99.9499284595
99.9461860512
99.9367127935
99.9292108441
99.924856538
99.9151786546
99.9149204447
99.9021582405
99.9031567844
99.8991633088
99.655220055
99.9990834644
99.9990084472
99.9990084472
99.9990084472
99.9989250947
99.9989250947
99.9989250947
99.9989250947
99.9988221904
99.9986810322
99.9986810322
99.9985884184
99.998431576
99.998431576
99.998431576
99.998431576
99.998431576
99.998431576
99.998431576
99.998431576
99.9978031067
99.9976094741
99.9973438601
99.9973438601
99.9973438601
99.9970487335
99.9970487335
99.9970487335
99.9970487335
99.9970487335
99.996720815
99.996720815
99.9963564611
99.9959516234
99.9955018038
99.9955018038
99.9950020042
99.9950020042
99.9950020042
99.9950020042
99.9944466713
99.9944466713
99.9944466713
99.9944466713
99.9938296348
99.9938296348
99.9938296348
99.9931440387
99.9931440387
99.9923822652
99.9923822652
99.9915358502
99.9915358502
99.9905953891
99.9905953891
99.9865243421
99.9757250555
99.9700309327
99.9667010363
99.9630011515
99.9588901683
99.9543224093
99.9492471214
99.9492471214
99.9436079127
99.9373421252
99.9373421252
99.9303801391
99.9303801391
99.922644599
99.922644599
99.922644599
99.922644599
99.9155823485
99.9140495544
99.9140495544
99.9140495544
99.9140495544
99.922644599
99.922644599
99.922644599
99.922644599
99.9303801391
99.9303801391
99.9373421252
99.9436079127
99.9413493666
99.9373646851
99.9311611326
99.9317308715
99.9191857909
99.9131129835
99.915804769
99.9052282468
99.9181016581
99.7902198288
99.9992105068
99.9990084472
99.9990084472
99.9990084472
99.9989250947
99.9989250947
99.9989250947
99.9989250947
99.9988221904
99.9986810322
99.9985884184
99.998431576
99.998431576
99.998431576
99.998431576
99.998431576
99.998431576
99.998431576
99.998431576
99.9982573066
99.9976094741
99.9973438601
99.9973438601
99.9973438601
99.9970487335
99.9970487335
99.9970487335
99.9970487335
99.996720815
99.996720815
99.996720815
99.9963564611
99.9959516234
99.9955018038
99.9955018038
99.9950020042
99.9950020042
99.9950020042
99.9950020042
99.9944466713
99.9944466713
99.9944466713
99.9938296348
99.9938296348
99.9938296348
99.9931440387
99.9931440387
99.9923822652
99.9923822652
99.9915358502
99.9915358502
99.9905953891
99.9905953891
99.9895504324
99.9867966902
99.9757250555
99.9700309327
99.9667010363
99.9630011515
99.9543224093
99.9492471214
99.9492471214
99.9436079127
99.9373421252
99.9303801391
99.9303801391
99.922644599
99.922644599
99.9140495544
99.9140495544
99.9140495544
99.9140495544
99.9044995049
99.9044995049
99.9044995049
99.9044995049
99.9044995049
99.9044995049
99.9044995049
99.9044995049
99.9140495544
99.9140495544
99.9140495544
99.922644599
99.922644599
99.9303801391
99.9303263926
99.9299423982
99.9356661838
99.9307743376
99.9261106597
99.9186860934
99.9147905262
99.9220721848
99.9095752929
99.8581730792
99.9992105068
99.9991354895
99.9991354895
99.9990084472
99.9989250947
99.9989250947
99.9989250947
99.9989250947
99.9988221904
99.9986810322
99.9985884184
99.998431576
99.998431576
99.998431576
99.998431576
99.998431576
99.998431576
99.998431576
99.9982573066
99.9976094741
99.9976094741
99.9973438601
99.9973438601
99.9970487335
99.9970487335
99.9970487335
99.9970487335
99.996720815
99.996720815
99.996720815
99.9963564611
99.9959516234
99.9955018038
99.9955018038
99.9950020042
99.9950020042
99.9950020042
99.9944466713
99.9944466713
99.9944466713
99.9944466713
99.9938296348
99.9938296348
99.9938296348
99.9931440387
99.9931440387
99.9923822652
99.9923822652
99.9915358502
99.9915358502
99.9905953891
99.9905953891
99.9895504324
99.9867966902
99.9730278394
99.9700309327
99.9630011515
99.9588901683
99.9543224093
99.9492471214
99.9436079127
99.9373421252
99.9303801391
99.922644599
99.922644599
99.9140495544
99.9140495544
99.9044995049
99.9044995049
99.9044995049
99.9044995049
99.8938883388
99.8938883388
99.8938883388
99.8938883388
99.8938883388
99.8938883388
99.8938883388
99.8938883388
99.8938883388
99.8938883388
99.9044995049
99.9044995049
99.9044995049
99.9140495544
99.9140495544
99.922644599
99.9303801391
99.9328121397
99.9288446459
99.9222892881
99.9223140884
99.9113886993
99.9135804108
99.9160802578
99.8719620591
99.9992105068
99.9992498276
99.9991354895
99.9990084472
99.9989250947
99.9989250947
99.9989250947
99.9989250947
99.9988221904
99.9986810322
99.9985884184
99.998431576
99.998431576
99.998431576
99.998431576
99.998431576
99.998431576
99.9982573066
99.9982573066
99.9976094741
99.9973438601
99.9973438601
99.9973438601
99.9970487335
99.9970487335
99.9970487335
99.996720815
99.996720815
99.996720815
99.9963564611
99.9959516234
99.9955018038
99.9955018038
99.9950020042
99.9950020042
99.9950020042
99.9944466713
99.9944466713
99.9944466713
99.9938296348
99.9938296348
99.9938296348
99.9931440387
99.9931440387
99.9931440387
99.9923822652
99.9923822652
99.9915358502
99.9915358502
99.9905953891
99.9905953891
99.9895504324
99.9883893693
99.9730278394
99.9667010363
99.9630011515
99.9543224093
99.9492471214
99.9436079127
99.9373421252
99.9303801391
99.922644599
99.9140495544
99.9140495544
99.9044995049
99.9044995049
99.8938883388
99.8938883388
99.8938883388
99.8938883388
99.8820981542
99.8820981542
99.8820981542
99.8820981542
99.8820981542
99.8820981542
99.8820981542
99.8820981542
99.8820981542
99.8820981542
99.8820981542
99.8820981542
99.8938883388
99.8938883388
99.8938883388
99.9044995049
99.9044995049
99.9140495544
99.922644599
99.9256455529
99.9188780417
99.9164661903
99.9157417223
99.9064575125
99.920272145
99.8679101156
99.9992105068
99.9992498276
99.9992498276
99.9991354895
99.9989250947
99.9989250947
99.9989250947
99.9989250947
99.9988221904
99.9986810322
99.9985884184
99.998431576
99.998431576
99.998431576
99.998431576
99.998431576
99.9982573066
99.9982573066
99.9978485267
99.9976094741
99.9973438601
99.9973438601
99.9970487335
99.9970487335
99.9970487335
99.996720815
99.996720815
99.9963564611
99.9963564611
99.9959516234
99.9959516234
99.9955018038
99.9955018038
99.9950020042
99.9950020042
99.9944466713
99.9944466713
99.9944466713
99.9938296348
99.9938296348
99.9938296348
99.9931440387
99.9931440387
99.9923822652
99.9923822652
99.9915358502
99.9915358502
99.9915358502
99.9905953891
99.9905953891
99.9895504324
99.9883893693
99.9730278394
99.9667010363
99.9588901683
99.9543224093
99.9436079127
99.9373421252
99.9303801391
99.9140495544
99.9140495544
99.9044995049
99.8938883388
99.8938883388
99.8820981542
99.8820981542
99.8820981542
99.8820981542
99.8820981542
99.8689979491
99.8689979491
99.8689979491
99.8689979491
99.8689979491
99.8689979491
99.8689979491
99.8689979491
99.8689979491
99.8689979491
99.8689979491
99.8689979491
99.8689979491
99.8820981542
99.8820981542
99.8820981542
99.8938883388
99.8938883388
99.9044995049
99.9140495544
99.9185465842
99.9206242356
99.9129413127
99.913516212
99.9113786247
99.9098275791
99.8651878101
99.9993248449
99.9992498276
99.9992498276
99.9992498276
99.999052137
99.9989250947
99.9989250947
99.9989250947
99.9986810322
99.9985884184
99.9985884184
99.998431576
99.998431576
99.998431576
99.998431576
99.9982573066
99.9982573066
99.998063674
99.9976094741
99.9973438601
99.9973438601
99.9973438601
99.9970487335
99.9970487335
99.996720815
99.996720815
99.9963564611
99.9963564611
99.9959516234
99.9959516234
99.9955018038
99.9955018038
99.9950020042
99.9950020042
99.9944466713
99.9944466713
99.9944466713
99.9938296348
99.9938296348
99.9931440387
99.9931440387
99.9931440387
99.9923822652
99.9923822652
99.9915358502
99.9915358502
99.9905953891
99.9905953891
99.9895504324
99.9895504324
99.9883893693
99.9730278394
99.9667010363
99.9588901683
99.9492471214
99.9373421252
99.922644599
99.9140495544
99.8938883388
99.8820981542
99.8820981542
99.8689979491
99.8689979491
99.8689979491
99.8689979491
99.8544421657
99.8544421657
99.8544421657
99.8544421657
99.8544421657
99.8544421657
99.8544421657
99.8544421657
99.8544421657
99.8544421657
99.8544421657
99.8544421657
99.8544421657
99.8544421657
99.8544421657
99.8544421657
99.8689979491
99.8689979491
99.8689979491
99.8689979491
99.8820981542
99.8820981542
99.8938883388
99.8938883388
99.9044995049
99.9119974249
99.9165416383
99.9111574361
99.910788662
99.9039656805
99.8696363168
99.9993248449
99.9992498276
99.9992498276
99.9992498276
99.9991664752
99.999052137
99.9989250947
99.9989250947
99.9986810322
99.9985884184
99.998431576
99.998431576
99.998431576
99.998431576
99.9982573066
99.9982573066
99.9982573066
99.9978485267
99.9976094741
99.9973438601
99.9973438601
99.9970487335
99.9970487335
99.996720815
99.996720815
99.9963564611
99.9963564611
99.9959516234
99.9959516234
99.9955018038
99.9955018038
99.9950020042
99.9950020042
99.9944466713
99.9944466713
99.9938296348
99.9938296348
99.9938296348
99.9931440387
99.9931440387
99.9923822652
99.9923822652
99.9923822652
99.9915358502
99.9915358502
99.9905953891
99.9905953891
99.9895504324
99.9895504324
99.9883893693
99.9730278394
99.9667010363
99.9543224093
99.9436079127
99.922644599
99.8820981542
99.838269073
99.8003321889
99.8003321889
99.8003321889
99.8003321889
99.82029897
99.82029897
99.82029897
99.82029897
99.82029897
99.838269073
99.838269073
99.838269073
99.838269073
99.838269073
99.838269073
99.838269073
99.838269073
99.838269073
99.838269073
99.838269073
99.838269073
99.838269073
99.8544421657
99.8544421657
99.8544421657
99.8544421657
99.8544421657
99.8544421657
99.8689979491
99.8689979491
99.8820981542
99.8820981542
99.8938883388
99.9044995049
99.9083774791
99.9067379678
99.9032629999
99.9010632423
99.8720665299
99.9993248449
99.9992498276
99.9992498276
99.9992498276
99.9991664752
99.999052137
99.9989250947
99.9989250947
99.9986810322
99.9985884184
99.998431576
99.998431576
99.998431576
99.998431576
99.9982573066
99.9982573066
99.998063674
99.9976094741
99.9976094741
99.9973438601
99.9970487335
99.9970487335
99.9970487335
99.996720815
99.996720815
99.9963564611
99.9959516234
99.9959516234
99.9955018038
99.9955018038
99.9950020042
99.9950020042
99.9944466713
99.9944466713
99.9938296348
99.9938296348
99.9938296348
99.9931440387
99.9931440387
99.9923822652
99.9923822652
99.9915358502
99.9915358502
99.9915358502
99.9905953891
99.9905953891
99.9895504324
99.9895504324
99.9883893693
99.9757250555
99.9630011515
99.9543224093
99.922644599
99.6956747278
99.4273583103
99.293034951
99.2814208441
99.293034951
99.293034951
99.3637314559
99.4846224793
99.5825442082
99.6618608086
99.726107255
99.7534965295
99.7781468766
99.7781468766
99.8003321889
99.8003321889
99.8003321889
99.82029897
99.82029897
99.82029897
99.82029897
99.82029897
99.82029897
99.82029897
99.838269073
99.838269073
99.838269073
99.838269073
99.838269073
99.838269073
99.838269073
99.8544421657
99.8544421657
99.8544421657
99.8689979491
99.8689979491
99.8820981542
99.8938883388
99.9042697549
99.909537307
99.9080183364
99.9001262107
99.8752204566
99.9993248449
99.9992498276
99.9992498276
99.9992498276
99.9991664752
99.9991664752
99.999052137
99.9989250947
99.9986810322
99.9985884184
99.998431576
99.998431576
99.998431576
99.9982573066
99.9982573066
99.998063674
99.9978485267
99.9976094741
99.9973438601
99.9973438601
99.9970487335
99.9970487335
99.996720815
99.996720815
99.9963564611
99.9959516234
99.9959516234
99.9955018038
99.9955018038
99.9950020042
99.9950020042
99.9944466713
99.9944466713
99.9938296348
99.9938296348
99.9931440387
99.9931440387
99.9931440387
99.9923822652
99.9923822652
99.9915358502
99.9915358502
99.9905953891
99.9905953891
99.9905953891
99.9895504324
99.9883893693
99.9870992992
99.9781525499
99.9630011515
99.9436079127
99.293034951
98.9224736336
98.8027484817
98.6697205353
98.6697205353
98.6697205353
98.8027484817
98.8027484817
98.9224736336
99.0302262702
99.1272036432
99.293034951
99.3637314559
99.5361602313
99.6242897874
99.6618608086
99.726107255
99.726107255
99.7534965295
99.7781468766
99.7781468766
99.7781468766
99.8003321889
99.8003321889
99.8003321889
99.8003321889
99.82029897
99.82029897
99.82029897
99.82029897
99.82029897
99.82029897
99.838269073
99.838269073
99.838269073
99.838269073
99.8544421657
99.8615937127
99.8689979491
99.8820981542
99.8938883388
99.9094842948
99.9120302623
99.9023354299
99.8705057252
99.9993248449
99.9992498276
99.9992498276
99.9992498276
99.9991664752
99.9991664752
99.999052137
99.9989250947
99.9985884184
99.9985884184
99.998431576
99.998431576
99.998431576
99.9982573066
99.998063674
99.9978485267
99.9976094741
99.9976094741
99.9973438601
99.9970487335
99.9970487335
99.996720815
99.996720815
99.9963564611
99.9959516234
99.9959516234
99.9955018038
99.9955018038
99.9950020042
99.9950020042
99.9944466713
99.9944466713
99.9938296348
99.9938296348
99.9931440387
99.9931440387
99.9923822652
99.9923822652
99.9915358502
99.9915358502
99.9915358502
99.9905953891
99.9905953891
99.9895504324
99.9895504324
99.9883893693
99.9870992992
99.9840732089
99.9630011515
99.4273583103
98.6697205353
98.3576796732
98.3576796732
98.3576796732
98.3576796732
98.3576796732
98.3576796732
98.3576796732
98.5219117059
98.5219117059
98.6697205353
98.6697205353
98.8027484817
98.9224736336
99.1269259503
99.2144832789
99.3637314559
99.4846224793
99.5825442082
99.6618608086
99.6956747278
99.726107255
99.7534965295
99.7534965295
99.7534965295
99.7781468766
99.7781468766
99.7781468766
99.8003321889
99.8003321889
99.8003321889
99.8003321889
99.8003321889
99.82029897
99.82029897
99.82029897
99.838269073
99.838269073
99.8544421657
99.8544421657
99.8689979491
99.8820981542
99.9044995049
99.9085458945
99.9051221936
99.8652826438
99.9993248449
99.9992498276
99.9992498276
99.9992498276
99.9991664752
99.9991664752
99.999052137
99.9988221904
99.9985884184
99.9985884184
99.998431576
99.998431576
99.9982573066
99.9982573066
99.998063674
99.9978485267
99.9976094741
99.9973438601
99.9973438601
99.9970487335
99.996720815
99.996720815
99.9963564611
99.9959516234
99.9959516234
99.9955018038
99.9955018038
99.9950020042
99.9944466713
99.9944466713
99.9944466713
99.9938296348
99.9938296348
99.9931440387
99.9931440387
99.9923822652
99.9923822652
99.9915358502
99.9915358502
99.9905953891
99.9905953891
99.9895504324
99.9895504324
99.9895504324
99.9883893693
99.9870992992
99.9840732089
99.9630011515
98.9224736336
98.1751996369
97.972444041
97.972444041
98.1751996369
98.1751996369
98.1751996369
98.1751996369
98.1751996369
98.1751996369
98.3576796732
98.3576796732
98.3576796732
98.3576796732
98.5219117059
98.5219117059
98.6697205353
98.8027484817
98.9224736336
99.0302262702
99.2144832789
99.3637314559
99.5361602313
99.5825442082
99.6618608086
99.6956747278
99.726107255
99.726107255
99.7534965295
99.7534965295
99.7534965295
99.7781468766
99.7781468766
99.7781468766
99.8003321889
99.8003321889
99.8003321889
99.8003321889
99.82029897
99.82029897
99.838269073
99.8544421657
99.8544421657
99.8820981542
99.8938883388
99.9066859766
99.9083191876
99.8601466046
99.9993248449
99.9992498276
99.9992498276
99.9992498276
99.9991664752
99.9991664752
99.999052137
99.9987295765
99.9985884184
99.9985884184
99.998431576
99.998431576
99.9982573066
99.998063674
99.9978485267
99.9976094741
99.9973438601
99.9973438601
99.9970487335
99.9970487335
99.996720815
99.9963564611
99.9959516234
99.9959516234
99.9955018038
99.9950020042
99.9950020042
99.9944466713
99.9944466713
99.9938296348
99.9938296348
99.9931440387
99.9931440387
99.9923822652
99.9923822652
99.9915358502
99.9915358502
99.9905953891
99.9905953891
99.9905953891
99.9895504324
99.9895504324
99.9883893693
99.9883893693
99.9870992992
99.9840732089
99.9630011515
98.5219117059
96.2893281124
96.8444445692
97.7471600455
97.972444041
97.972444041
98.1751996369
98.1751996369
98.1751996369
98.1751996369
98.1751996369
98.1751996369
98.1751996369
98.1751996369
98.1751996369
98.1751996369
98.3576796732
98.3576796732
98.3576796732
98.5219117059
98.6697205353
98.8027484817
98.9224736336
99.1272036432
99.293034951
99.4273583103
99.5361602313
99.6242897874
99.6618608086
99.6956747278
99.723845637
99.726107255
99.726107255
99.7534965295
99.7534965295
99.7781468766
99.7781468766
99.7781468766
99.8003321889