/*--------------------------------*- C++ -*----------------------------------*\
| =========                 |                                                 |
| \\      /  F ield         | OpenFOAM: The Open Source CFD Toolbox           |
|  \\    /   O peration     | Version:  v1906                                 |
|   \\  /    A nd           | Web:      www.OpenFOAM.com                      |
|    \\/     M anipulation  |                                                 |
\*---------------------------------------------------------------------------*/
FoamFile
{
    version     2.0;
    format      ascii;
    class       surfaceScalarField;
    location    "174";
    object      phi;
}
// * * * * * * * * * * * * * * * * * * * * * * * * * * * * * * * * * * * * * //

dimensions      [0 3 -1 0 0 0 0];
oriented        oriented;


internalField   nonuniform List<scalar> 
18240
(
0.0119448550077
-0.0119448566693
0.0244857028005
-0.0125408500268
0.0369774301092
-0.0124917287983
0.0493302389707
-0.0123528111403
0.0614914991506
-0.0121612614444
0.073414477139
-0.0119229803135
0.0850563510578
-0.0116418749692
0.0963779049735
-0.0113215562704
0.10734362411
-0.0109657199823
0.117921832425
-0.0105782106841
0.128084816274
-0.0101629844997
0.13780886424
-0.00972405033525
0.147074261159
-0.00926539738815
0.155865193766
-0.00879093496622
0.164169624439
-0.00830443097228
0.171979091425
-0.00780946932696
0.179288498852
-0.00730940757444
0.186095851109
-0.00680735456989
0.192401998036
-0.00630614693504
0.198210340447
-0.00580834469021
0.203526563666
-0.00531622310222
0.208358343432
-0.00483178200541
0.212715092214
-0.00435674855282
0.216607685611
-0.00389259559092
0.220048236921
-0.00344055098187
0.223049855745
-0.00300162096713
0.225626458722
-0.00257660255982
0.227792565524
-0.00216610888976
0.229563148513
-0.00177058249494
0.230953468106
-0.0013903216217
0.231978964687
-0.00102549601832
0.232655145504
-0.000676182782069
0.232997560196
-0.000342414071177
0.233021954937
-2.43966369741e-05
0.232743433607
0.000278522009903
0.232176259269
0.000567172513808
0.231334646602
0.000841613388951
0.230232596025
0.00110204882361
0.228883777269
0.0013488195154
0.227301455383
0.00158232020645
0.225498477331
0.00180297883996
0.223487237833
0.00201123789208
0.221279685931
0.00220755271604
0.218887304026
0.00239238037489
0.216321123201
0.00256618165654
0.213591709557
0.00272941219038
0.210709184635
0.00288252576836
0.20768321657
0.00302596668894
0.204523043612
0.00316017381292
0.20123746852
0.00328557379384
0.197834883786
0.00340258559532
0.194323268153
0.00351161441362
0.190710212544
0.00361305647005
0.187002917921
0.00370729348182
0.183208221196
0.00379469758414
0.179332593887
0.00387562624485
0.175382167533
0.00395042720687
0.171362732781
0.00401943376586
0.167279763977
0.00408296964675
0.163138418479
0.00414134458875
0.158943560215
0.00419485909354
0.154699759106
0.00424380027581
0.150411313485
0.00428844643425
0.146082249585
0.00432906314238
0.14171634277
0.00436590760872
0.137317117098
0.00439922498965
0.132887865357
0.00442925251308
0.128431648743
0.0044562160054
0.123951315729
0.00448033376215
0.11944950191
0.00450181328438
0.114928647749
0.00452085488372
0.110390998658
0.00453764862951
0.10583862167
0.00455237768144
0.101273405832
0.00456521544956
0.0966970778476
0.00457632864882
0.092111202853
0.00458587467773
0.0875171990924
0.00459400439213
0.0829163391384
0.00460085970716
0.0783097636476
0.00460657608698
0.0736984830933
0.00461128037517
0.0690833906542
0.00461509299588
0.0644652645288
0.00461812601119
0.0598447800249
0.00462048501785
0.0552225125648
0.00462226740942
0.0505989491296
0.0046235639052
0.0459744922567
0.00462445688791
0.0413494714343
0.00462502125165
0.0367241494483
0.00462532207204
0.0320987369699
0.00462541287147
0.0274734095113
0.00462532761176
0.0228483475672
0.00462506229006
0.0182238250905
0.00462452268239
0.0136004819841
0.00462334337323
0.00897998752499
0.00462049475147
0.00437520293307
0.00460478490542
0.00437520308757
0.0126155677847
-0.0245604263139
0.0260058102861
-0.025931094628
0.0393018101185
-0.025787730464
0.0524371729893
-0.0254881760245
0.0653636567279
-0.0250877468981
0.0780342748073
-0.0245936003435
0.0904043494416
-0.0240119511982
0.102432461945
-0.0233496706577
0.114080956806
-0.022614216316
0.125316228595
-0.0218134842857
0.136108889649
-0.0209556469046
0.146433831628
-0.0200489940511
0.15627021192
-0.0191017789137
0.165601357956
-0.0181220826631
0.174414619255
-0.0171176933934
0.182701158706
-0.0160960103626
0.190455714864
-0.0150639647493
0.197676324795
-0.0140279660095
0.204364039414
-0.0129938624713
0.210522617722
-0.0119669244336
0.216158230814
-0.0109518370173
0.221279158469
-0.00995271102336
0.225895507685
-0.00897309850568
0.230018932613
-0.0080160218102
0.233662383759
-0.00708400278264
0.236839863188
-0.00617910161808
0.239566212378
-0.00530295232963
0.2418569074
-0.00445680506493
0.243727887027
-0.00364156262913
0.245195386394
-0.00285782207591
0.246275798784
-0.00210590884905
0.246985528415
-0.00138591343467
0.247340825827
-0.000697711859473
0.247357352794
-4.09245524604e-05
0.247051015155
0.000584859348786
0.246438087356
0.00118009943712
0.245534164338
0.00174553616137
0.244354281233
0.00228193111314
0.242913007784
0.00279009277051
0.241224448912
0.00327087832098
0.239302242616
0.00372518498892
0.237159544366
0.00415393544281
0.234809026608
0.00455807037086
0.232262869291
0.00493853704841
0.229532766005
0.00529628488155
0.226629920881
0.00563225672539
0.223565059931
0.0059473866959
0.220348432534
0.00624259355025
0.216989826212
0.00651878014902
0.213498571145
0.0067768283771
0.209883556995
0.00701759979275
0.206153239282
0.00724193169345
0.202315657237
0.00745063859469
0.198378441198
0.00764450913689
0.194348830772
0.00782430811769
0.190233682674
0.00799077400646
0.186039488697
0.00814462131832
0.181772383611
0.00828653856063
0.177438162628
0.00841719078887
0.173042289115
0.00853721785485
0.168589911363
0.00864723702599
0.164085869992
0.00874784144166
0.159534713917
0.00883960271
0.154940707389
0.00892306950662
0.150307845127
0.00899877008836
0.145639859002
0.00906721099072
0.140940232331
0.00912887941717
0.136212206242
0.00918424200771
0.131458793175
0.00923374707693
0.126682782972
0.00927782343864
0.121886755639
0.00931688247638
0.117073087238
0.00935131701777
0.112243961962
0.00938150322889
0.107401377895
0.00940779953809
0.102547158474
0.00943054835114
0.0976829581791
0.00945007502809
0.0928102734411
0.00946668941894
0.0879304483357
0.00948068489931
0.083044684989
0.0094923397272
0.0781540493374
0.00950191614204
0.0732594810881
0.00950966153996
0.0683617996062
0.00951580763364
0.0634617134885
0.00952057142862
0.0585598266485
0.0095241544132
0.0536566475807
0.00952674326358
0.0487525957325
0.00952850892527
0.0438480105158
0.00952960676067
0.0389431578462
0.00953017496104
0.0340382379769
0.00953033303942
0.0291333882597
0.00953017758062
0.0242286749086
0.00952977592183
0.0193240402784
0.00952915756141
0.0144190886389
0.00952829530611
0.00951273422084
0.00952684946563
0.00460768245604
0.00950983699673
0.00898288574564
0.0127557628864
-0.0373161911352
0.0262518128376
-0.0394271466136
0.0396671722984
-0.0392030918855
0.0529211137877
-0.0387421194713
0.0659615458621
-0.0381281808291
0.078739861675
-0.0373719180298
0.0912104454476
-0.0364825367236
0.103331202217
-0.0354704292106
0.115063977831
-0.0343469935786
0.126374837121
-0.0331243452646
0.137234225228
-0.0318150365544
0.147617023372
-0.0304317937885
0.157502518026
-0.0289872750082
0.166874290337
-0.0274938564745
0.175720044579
-0.0259634489744
0.184031381993
-0.0244073491848
0.191803538979
-0.0228361229791
0.199035094453
-0.0212595228046
0.205727663967
-0.0196864331357
0.211885582683
-0.0181248443857
0.217515592496
-0.0165818478935
0.22262653223
-0.0150636519121
0.227229043722
-0.0135756109779
0.231335289817
-0.0121222689823
0.234958694907
-0.0107074087744
0.238113701714
-0.00933410942721
0.240815553287
-0.00800480472895
0.243080092217
-0.00672134492414
0.244923584829
-0.00548505599699
0.246362561114
-0.00429679922113
0.247413677182
-0.0031570256043
0.248093590706
-0.00206582775225
0.248418859561
-0.00102298133555
0.248405916767
-2.7982472564e-05
0.24807088078
0.000919894807184
0.247429544402
0.00182143517696
0.24649738523
0.00267769486263
0.245289473375
0.00348984238746
0.243820436698
0.00425912903166
0.242104438734
0.0049868757595
0.240155165868
0.00567445749019
0.237985815077
0.00632328576137
0.235609089894
0.00693479523817
0.233037196236
0.00751043028545
0.230281845426
0.00805163542281
0.227354256174
0.00855984560568
0.224265162654
0.00903647999249
0.221024820732
0.00948293514852
0.217643019387
0.00990058131263
0.214129089661
0.0102907578237
0.210491918087
0.0106547712269
0.206739957222
0.010993892323
0.202881240115
0.0113093555997
0.198923391617
0.0116023574418
0.194873643189
0.0118740564798
0.190738844436
0.0121255726065
0.186525477793
0.0123579879307
0.182239669906
0.0125723463326
0.177887205908
0.0127696547873
0.173473540424
0.0129508832599
0.169003811255
0.0131169662269
0.164482849885
0.0132688027667
0.159915194501
0.0134072581541
0.15530509995
0.0135331640449
0.150656550066
0.0136473200581
0.145973267091
0.0137504939847
0.141258723319
0.0138434232997
0.136516150022
0.0139268153526
0.131748548461
0.0140013487717
0.126958698364
0.0140676736112
0.12214916837
0.014126412627
0.117322324122
0.0141781613687
0.112480338209
0.0142234893182
0.107625197953
0.0142629399227
0.102758714906
0.0142970315951
0.0978825323948
0.0143262576916
0.0929981346504
0.014351087377
0.0881068541708
0.0143719655537
0.0832098805302
0.0143893135961
0.0783082676277
0.0144035292382
0.0734029422277
0.0144149871796
0.0684947111395
0.0144240389311
0.0635842695317
0.0144310132843
0.0586722080717
0.014436216096
0.0537590210137
0.0144399305773
0.0488451132328
0.0144424169446
0.0439308078535
0.0144439124079
0.0390163525463
0.0144446305283
0.0341019250852
0.0144447607834
0.0291876350108
0.0144444679312
0.02427351817
0.0144438930558
0.0193595158224
0.0144431601786
0.0144454309749
0.0144423804127
0.00953114927687
0.014441131494
0.0046240510686
0.0144169355662
0.0136069369742
0.0129136014956
-0.05022979459
0.0265633959002
-0.0530769431064
0.0401323537845
-0.0527720517568
0.0535354819539
-0.0521452496075
0.0667180526782
-0.0513107534508
0.0796295925058
-0.0502834597267
0.09222310776
-0.0490760537785
0.104455479326
-0.0477028025484
0.116287831053
-0.0461793470055
0.127685786153
-0.0445223020378
0.13861960933
-0.0427488613288
0.149064241514
-0.0408764275455
0.158999241089
-0.0389222760792
0.168408643581
-0.0369032604421
0.177280756188
-0.0348355629785
0.185607899641
-0.0327344940185
0.193386113321
-0.0306143379615
0.200614834274
-0.0284882450458
0.207296563672
-0.0263681637457
0.213436528252
-0.0242648101669
0.219042347056
-0.0221876678222
0.224123707636
-0.0201450136089
0.228692058964
-0.0181439633475
0.232760322192
-0.0161905332469
0.236342624013
-0.014289711559
0.239454051488
-0.0124455378613
0.242110431269
-0.0106611853981
0.244328130565
-0.00893904510661
0.246123881604
-0.00728080785132
0.247514626039
-0.0056875444721
0.248517380618
-0.00415978093063
0.249149121081
-0.00269756896319
0.249426685737
-0.00130054667001
0.249366738017
3.19645880534e-05
0.248985588941
0.00130104330837
0.248299178301
0.00250784523883
0.247323081983
0.00365379066535
0.246072455601
0.00474046824842
0.244561997302
0.00576958686932
0.24280592495
0.0067429476444
0.240817962512
0.00766241951954
0.238611330888
0.00852991696961
0.236198744454
0.00934738131411
0.233592410171
0.0101167642023
0.230804031007
0.0108400142764
0.227844810777
0.0115190655178
0.224725462273
0.012155828231
0.221456215949
0.0127521811999
0.218046831063
0.0133099659769
0.214506606752
0.0138309819065
0.210844394937
0.0143169828625
0.207068612713
0.0147696743606
0.203187256104
0.0151907120685
0.199207913
0.0155817003994
0.195137777142
0.0159441922357
0.190983661082
0.0162796885578
0.186752009975
0.0165896389714
0.182448914232
0.0168754420037
0.178080122851
0.0171384461356
0.173651055571
0.0173799505012
0.169166815599
0.0176012061991
0.164632201154
0.0178034172053
0.160051717534
0.0179877418038
0.155429588025
0.0181552935775
0.150769765293
0.0183071428474
0.146075941678
0.0184443176523
0.141351559941
0.018567805121
0.136599822989
0.0186785523843
0.131823704035
0.0187774678355
0.127025955812
0.0188654219396
0.122209120214
0.0189432483581
0.117375537073
0.0190117446403
0.112527353346
0.019071673202
0.107666531527
0.0191237618948
0.102794858461
0.019168704839
0.097913953452
0.0192071628767
0.0930252767619
0.0192397642644
0.0881301374921
0.0192671050187
0.0832297018232
0.0192897494792
0.0783250007167
0.0193082305566
0.073416937949
0.0193230501749
0.0685062976756
0.0193346794297
0.0635937522835
0.0193435589145
0.0586798698285
0.0193500987873
0.0537651216724
0.0193546789815
0.0488498896844
0.0193576491823
0.0439344734168
0.0193593289386
0.0390190965444
0.0193600076686
0.0341039125761
0.0193599450339
0.0291890088337
0.0193593719618
0.0242744084478
0.0193584937156
0.0193600718712
0.0193574970267
0.0144459125176
0.0193565400764
0.00953209523493
0.0193549490805
0.00462666334183
0.0193223677909
0.0182336005051
0.0131210167166
-0.0633508133
0.0269842970314
-0.066940225479
0.0407626140747
-0.0665503708364
0.0543676435957
-0.065750281107
0.0677420303544
-0.0646851421437
0.080833061339
-0.0633744925966
0.0935919318356
-0.061834926109
0.105974136478
-0.0600850089774
0.117939823817
-0.0581450360772
0.129454034427
-0.056036514332
0.140486817058
-0.0537816455894
0.151013230062
-0.0514028421308
0.161013241838
-0.048922289383
0.170471545824
-0.0463615659102
0.179377307544
-0.0437413261262
0.187723860021
-0.0410810478792
0.195508363943
-0.0383988432161
0.202731446256
-0.0357113286486
0.209396830095
-0.0330335488258
0.215510965748
-0.0303789470201
0.221082671482
-0.0277593747078
0.22612278991
-0.0251851331523
0.230643865095
-0.0226650396006
0.234659842779
-0.0202065119645
0.238185796169
-0.0178156659374
0.241237677338
-0.0154974199849
0.243832094816
-0.0132556037881
0.245986116001
-0.0110930671715
0.247717093895
-0.0090117865842
0.249042516074
-0.00701296745972
0.249979875063
-0.00509714068771
0.25054655822
-0.00326425286031
0.250759755005
-0.00151374415172
0.250636384199
0.000155334751743
0.250193002848
0.00174442407907
0.249445778304
0.00325506922607
0.24841044812
0.00468912032795
0.247102290645
0.00604862522331
0.245536097232
0.00733577981584
0.243726153941
0.00855289048933
0.241686230749
0.00970234229751
0.239429575791
0.0107865715317
0.236968914249
0.0118080424924
0.23431645043
0.0127692276754
0.231483873052
0.0136725913377
0.228482362541
0.0145205757288
0.225322600511
0.0153155899907
0.222014780397
0.01606000106
0.218568619526
0.0167561266207
0.214993371718
0.0174062295033
0.211297840769
0.018012513627
0.207490394015
0.0185771209437
0.203578976415
0.0191021295239
0.199571124396
0.0195895522868
0.195473979942
0.0200413365836
0.191294304268
0.0204593641377
0.187038491568
0.0208454516004
0.182712582225
0.0212013512887
0.178322275986
0.0215287523381
0.173872944557
0.0218292819048
0.169369644101
0.0221045066503
0.164817127139
0.022355934174
0.160219854334
0.0225850146345
0.155582005695
0.0227931422519
0.150907491665
0.0229816569318
0.146199963653
0.0231518457278
0.141462824474
0.0233049443807
0.136699238276
0.0234421386725
0.13191214039
0.0235645658283
0.127104246722
0.023673315722
0.122278063099
0.0237694321129
0.117435894193
0.0238539136856
0.112579852438
0.0239277151109
0.107711866577
0.023991747918
0.10283369021
0.0240468813814
0.0979469100382
0.0240939432322
0.0930529541164
0.024133720382
0.0881530998508
0.0241669594867
0.0832484820249
0.0241943675183
0.0783401005969
0.0242166122029
0.0734288285421
0.0242343224567
0.0685154194981
0.0242480887047
0.063600515443
0.0242584632075
0.0586846541904
0.0242659602814
0.0537682768824
0.0242710565381
0.0488517352626
0.0242741910564
0.043935298836
0.024275765629
0.039019161693
0.0242761450854
0.0341034490562
0.0242756579519
0.0291882235675
0.0242745977346
0.0242734921758
0.0242732254057
0.0193592164538
0.0242717730267
0.0144453394283
0.0242704173581
0.00953206028077
0.0242682285657
0.00462740524678
0.0242270231944
0.022861005914
0.0133834906984
-0.0767343060161
0.0275208548618
-0.0810775917923
0.0415671384645
-0.0805966564893
0.055429867485
-0.0796130121472
0.0690485390784
-0.0783038156974
0.0823677054658
-0.0766936608998
0.0953363039516
-0.0748035264565
0.107908090044
-0.0726567968838
0.1200420004
-0.0702789481908
0.131702376072
-0.0676968917137
0.14285904598
-0.0649383171506
0.153487282116
-0.062031079872
0.163567643928
-0.0590026527437
0.173085731673
-0.0558796551572
0.182031869682
-0.0526874655824
0.190400739405
-0.049449919005
0.198190980808
-0.0461890859691
0.205404777967
-0.042925127114
0.212047442541
-0.0396762146558
0.218127005711
-0.0364585114051
0.223653827073
-0.0332861972358
0.22864022624
-0.0301715334466
0.233100141372
-0.0271249558133
0.237048816716
-0.0241551883526
0.240502520368
-0.0212693705895
0.243478291949
-0.0184731925301
0.245993719566
-0.0157710323268
0.248066744431
-0.0131660929245
0.249715491578
-0.0106605345778
0.250958124505
-0.00825560120271
0.251812721878
-0.00595173883704
0.252297174034
-0.00374870576178
0.252429094927
-0.00164566574409
0.252225734135
0.000358694907749
0.251703956117
0.00226620152335
0.250880178203
0.00407884659323
0.249770333855
0.00579896416211
0.248389850917
0.00742910767107
0.246753632258
0.0089719980143
0.244876043424
0.0104304788867
0.242770906384
0.0118074789288
0.240451497934
0.0131059795959
0.237930552066
0.0143289880018
0.235220265373
0.0154795140315
0.232332305061
0.0165605513381
0.229277818856
0.0175750616436
0.226067446548
0.0185259620332
0.222711332622
0.0194161147398
0.21921913984
0.02024831918
0.215600063326
0.021025305814
0.211862845116
0.0217497316567
0.208015788813
0.022424177084
0.204066774379
0.0230511438172
0.200023272749
0.0236330537928
0.19589236039
0.0241722488387
0.191680733498
0.0246709909435
0.187394721994
0.0251314630365
0.183040303104
0.0255557701269
0.178623114635
0.0259459407731
0.174148467802
0.0263039287194
0.169621359725
0.0266316147247
0.165046485475
0.026930808436
0.160428249787
0.0272032503515
0.155770778334
0.0274506137455
0.151077928711
0.0276745066121
0.146353300989
0.0278764735183
0.141600248024
0.0280579974288
0.136821885381
0.0282205014109
0.132021101036
0.0283653502817
0.127200564757
0.028493852121
0.122362737291
0.0286072597123
0.117509879274
0.0287067718457
0.112644059997
0.0287935345442
0.107767165926
0.0288686421556
0.102880909119
0.0289331383663
0.0979868354386
0.0289880171001
0.093086332685
0.0290342233334
0.0881806385707
0.0290726538072
0.0832708486286
0.0291041576754
0.0783579240008
0.0291295370526
0.0734426991748
0.0291495475117
0.0685258896175
0.0291648984963
0.0636080993695
0.0291762536953
0.0586898285423
0.0291842313532
0.0537714807657
0.0291894045652
0.0488533705286
0.0291923015507
0.04393573045
0.029193405974
0.0390187184561
0.0291931573541
0.0341024249993
0.029191951695
0.0291868805826
0.0291901424467
0.0242720643706
0.0291880418923
0.0193579157638
0.0291859219099
0.0144443576668
0.0291839757782
0.00953154562949
0.0291810409073
0.00462739706503
0.0291311720898
0.0274884031742
0.0137055541123
-0.0904398621918
0.0281803461546
-0.0955523859547
0.0425562934816
-0.0949726059261
0.05673554985
-0.093792270559
0.0706536825565
-0.0922219504061
0.0842518821352
-0.0902918624247
0.0974763273294
-0.0880279735477
0.110278669574
-0.08545914097
0.122616410181
-0.0826166905894
0.134453105232
-0.0795335884985
0.145758404946
-0.076243618548
0.156507945993
-0.0727806225462
0.166683120362
-0.0691778286884
0.176270746713
-0.0654672830293
0.185262670169
-0.0616793905104
0.193655314795
-0.0578425650507
0.201449210333
-0.0539829828786
0.208648511357
-0.0501244294582
0.215260523527
-0.0462882281014
0.221295248146
-0.042493237251
0.226764953129
-0.0387559034033
0.231683775724
-0.0350903571783
0.236067360114
-0.0315085413
0.239932531169
-0.0280203604604
0.243297004234
-0.0246338446683
0.246179129814
-0.0213553190815
0.248597671318
-0.0181895747642
0.250571613547
-0.0151400360473
0.252119999406
-0.0122089212952
0.253261792185
-0.00939739480202
0.254015760804
-0.00670570824177
0.254400385331
-0.00413333103663
0.254433777584
-0.00167905869909
0.254133568681
0.000658903183527
0.253516987307
0.00288278233018
0.252600730546
0.00499510281853
0.251400951421
0.00699874277975
0.249933245814
0.00889681279771
0.248212640356
0.0106926030187
0.246253586591
0.012389532226
0.244069960268
0.0139911048495
0.2416750647
0.0155008747872
0.239081637428
0.0169224149214
0.236301859497
0.0182592916345
0.233347366796
0.0195150437339
0.230229262942
0.0206931652154
0.226958133343
0.0217970913721
0.223544060064
0.0228301877808
0.219996637258
0.0237957417695
0.216324986888
0.0246969559875
0.212537774601
0.0255369437681
0.208643225545
0.0263187259847
0.204649140064
0.0270452291621
0.200562909127
0.0277192846124
0.19639152946
0.0283436284067
0.192141618286
0.028920902037
0.187819427675
0.0294536535843
0.183430858443
0.0299443393126
0.178981473621
0.0303953255654
0.174476511453
0.0308088908737
0.169920897965
0.0311872282146
0.165319259075
0.0315324473433
0.160675932295
0.0318465771638
0.155994978006
0.0321315680803
0.151280190365
0.0323892943126
0.146535107826
0.0326215561313
0.14176302333
0.032830082011
0.136966994172
0.0330165306682
0.132149851576
0.0331824929899
0.127314209991
0.0333294938297
0.122462476154
0.0334589936849
0.117596857919
0.0335723902291
0.112719372882
0.0336710197394
0.107831856839
0.0337561583694
0.102935972063
0.0338290233221
0.0980332154622
0.033890773892
0.0931249265914
0.0339425124045
0.0882122955645
0.0339852850433
0.0832963708716
0.0340200825859
0.0783780671052
0.0340478410439
0.0734581726221
0.0340694422262
0.0685373571321
0.0340857142234
0.0636161792356
0.0340974318341
0.0586950939015
0.0341053169345
0.0537744599022
0.0341100388176
0.0488545472005
0.0341122145121
0.0439355443228
0.0341124091198
0.0390175657555
0.0341111362009
0.0341006594887
0.0341088582473
0.0291848149504
0.0341059872727
0.0242699717773
0.0341028853717
0.0193560301688
0.0340998638022
0.014442869574
0.0340971366263
0.00953058491351
0.0340933259132
0.0046270016017
0.0340347557792
0.0321154049383
0.0140919375115
-0.104531801798
0.0289717982853
-0.110432248967
0.043743225285
-0.109744035054
0.0583016318581
-0.108350679231
0.0725777220138
-0.106498042597
0.086508588769
-0.104222731168
0.100037093325
-0.101556480034
0.113112401663
-0.0985344511874
0.125690373022
-0.0951946637696
0.137733735346
-0.0915769525915
0.149212062475
-0.087721947387
0.160101580492
-0.0836701422208
0.170384835858
-0.0794610856532
0.180050259282
-0.0751327080022
0.189091658169
-0.0707207908896
0.19750766718
-0.066258575504
0.205301182288
-0.0617764993757
0.212478798811
-0.0573020473232
0.219050269235
-0.0528596998155
0.225027992156
-0.0484709614172
0.230426539895
-0.0441544523379
0.235262229079
-0.0399260475169
0.239552735982
-0.03579904931
0.243316756416
-0.0317843819608
0.246573708665
-0.0278907979398
0.249343476889
-0.0241250882889
0.251646191942
-0.0204922907579
0.25350204617
-0.01699589118
0.254931138769
-0.0136380147576
0.255953348275
-0.010419605137
0.25658822915
-0.0073405899081
0.256854929263
-0.00440003190465
0.256772124575
-0.00159625470863
0.256357867383
0.00107315975668
0.255629797654
0.0036108515024
0.254604916271
0.00601998367408
0.253299612907
0.00830404564664
0.251729662852
0.0104667623803
0.249910222344
0.0125120430835
0.247855829846
0.0144439243044
0.245580411749
0.0162665225544
0.243097291394
0.0179839947734
0.240419200761
0.0196005052111
0.237558294149
0.0211201979247
0.23452616337
0.0225471742161
0.231333853976
0.0238854743341
0.227991882214
0.0251390628818
0.224510252377
0.0263118173863
0.220898474348
0.0274075195894
0.217165581119
0.0284298490262
0.213320146168
0.0293823785509
0.209370300533
0.0302685714693
0.205323749545
0.031091780021
0.201187789098
0.0318552449478
0.196969321455
0.0325620959571
0.192674870534
0.0332153528818
0.188310596665
0.0338179273958
0.183882310798
0.0343726251387
0.179395488189
0.0348821481493
0.174855281554
0.0353490975001
0.170266533709
0.0357759760665
0.165633789724
0.0361651913504
0.160961308606
0.0365190583178
0.156253074542
0.0368398021941
0.151512807727
0.0371295611926
0.146743974796
0.0373903891389
0.141949798917
0.0376242579809
0.13713326953
0.0378330601579
0.132297151804
0.0380186108311
0.127443995811
0.0381826499505
0.122576145447
0.038326844188
0.117695747138
0.0384527886894
0.112804758345
0.0385620086944
0.10790495589
0.0386559609973
0.102997944128
0.0387360352683
0.0980851629769
0.0388035552364
0.0931678958404
0.0388597797444
0.0882472774142
0.0389059036816
0.083324301414
0.0389430588064
0.0783998282222
0.0389723144633
0.0734745924737
0.0389946782088
0.068549210584
0.0390110963528
0.063624188234
0.0390224544289
0.0586999278144
0.0390295776038
0.0537767358472
0.0390332310401
0.0488548303878
0.0390341202337
0.0439343484477
0.039032891331
0.039015353475
0.039030131453
0.0340978429883
0.0390263690253
0.0291817564891
0.0390220740731
0.0242669838101
0.0390176583265
0.019353374264
0.0390134736286
0.0144407524113
0.0390097588142
0.009529149105
0.0390049295243
0.00462631400274
0.0389375912115
0.0367417191425
0.014548205213
-0.119080009166
0.0299063242613
-0.125790370221
0.045144257179
-0.124981970176
0.0601491385376
-0.12335556272
0.0748457326568
-0.121194638804
0.0891661925783
-0.118543193116
0.103049443373
-0.115439732804
0.116441771151
-0.11192678088
0.129297213781
-0.108050108261
0.141577687822
-0.103857428433
0.153252876494
-0.0993971378035
0.164299918436
-0.0947171858475
0.174702941843
-0.0898641106913
0.184452488741
-0.0848822564712
0.193544870855
-0.079813174523
0.201981493208
-0.0746951993199
0.209768175011
-0.0695631825915
0.216914490785
-0.0644483644553
0.223433148253
-0.0593783585944
0.229339414021
-0.0543772284439
0.234650593339
-0.0494656328701
0.239385566613
-0.0446610219557
0.243564382469
-0.0399778662893
0.247207905265
-0.0354279058328
0.250337513533
-0.0310204072437
0.25297484514
-0.0267624208871
0.25514158448
-0.022659031051
0.256859287023
-0.0187135946323
0.258149236608
-0.0149279652165
0.259032331311
-0.0113027006736
0.259528994376
-0.00783725377197
0.259659106597
-0.00453014488338
0.259441967366
-0.00137911617262
0.258896084692
0.00161904182561
0.258039539154
0.00446739649304
0.256889649376
0.00716987293565
0.255463051488
0.00973064304564
0.253775704178
0.0121541092294
0.251842892092
0.0144448547338
0.249679235198
0.01660758079
0.247298701693
0.0186470556755
0.244714623455
0.020568072652
0.241939713367
0.022375414963
0.238986083939
0.0240738270409
0.235865266775
0.0256679910907
0.232588232517
0.0271625083249
0.229165410975
0.0285618841783
0.225606711202
0.0298705169362
0.22192154134
0.0310926892485
0.218118828093
0.0322325620908
0.21420703572
0.0332941707616
0.210194184465
0.0342814225808
0.206087868385
0.035198095977
0.201895272519
0.0360478407088
0.197623189402
0.0368341789874
0.193278034902
0.0375605073122
0.188865863398
0.0382300988469
0.184392382302
0.0388461062001
0.179862965945
0.0394115644865
0.17528266887
0.0399293945717
0.170656238533
0.0404024064144
0.16598812747
0.0408333024402
0.161282504941
0.0412246808872
0.156543268107
0.0415790390828
0.151774052757
0.0418987766115
0.146978243627
0.0421861983508
0.14215898435
0.0424435173516
0.137319187064
0.0426728575516
0.132461541705
0.0428762563093
0.127588525029
0.0430556667577
0.122702409388
0.0432129599719
0.117805271276
0.0433499269559
0.112898999686
0.04346828045
0.107985304293
0.043569656566
0.103065723492
0.0436556162564
0.0981416322978
0.0437276466275
0.0932142501441
0.0437871621043
0.0882846485826
0.0438355054583
0.0833537589044
0.0438739487078
0.0784223796956
0.0439036939025
0.0734911843383
0.0439258738028
0.0685607284686
0.0439415524649
0.0636314574004
0.0439517257445
0.058703713526
0.0439573217305
0.0537777437037
0.0439592011204
0.0488537066517
0.0439581575503
0.0439316803662
0.0439549178894
0.0390116696029
0.0439501425008
0.0340936134598
0.043944425458
0.0291773931327
0.0439382946911
0.0242628398725
0.0439322119009
0.01934974318
0.0439265706101
0.0144378652597
0.0439216369846
0.00952717072781
0.0439156244092
0.00462533856541
0.0438394237593
0.0413670578708
0.0150810781556
-0.134161089515
0.0309975119021
-0.14170680632
0.0467794015065
-0.14076386201
0.0623038221031
-0.138879985516
0.0774883500725
-0.136379168903
0.0922592362802
-0.133314081403
0.106550789314
-0.129731287854
0.120306016397
-0.125682009925
0.133477000636
-0.121221094398
0.1460249499
-0.116405379537
0.157919956804
-0.111292146485
0.16914052646
-0.105937757224
0.179672932961
-0.10039651885
0.189510463268
-0.0947197883811
0.198652600917
-0.0889553137138
0.207104193183
-0.0831467930748
0.214874635945
-0.0773336267853
0.221977101161
-0.0715508310524
0.228427823661
-0.0658290824207
0.234245456959
-0.0601948630207
0.239450502314
-0.054670679452
0.244064811068
-0.0492753318925
0.248111157425
-0.0440242137792
0.251612876835
-0.0389296263341
0.254593564128
-0.0340010955804
0.257076824925
-0.0292456826879
0.259086073888
-0.024668280973
0.260644373474
-0.0202718951389
0.261774307361
-0.0160578999815
0.262497883105
-0.0120262772604
0.262836460005
-0.00817583147384
0.262810694909
-0.00450438055224
0.262440565696
-0.00100898764438
0.261745086123
0.00231452080831
0.26074276129
0.00546972079131
0.259451231873
0.00846140184474
0.257887384327
0.0112944901144
0.256067356854
0.0139741362513
0.254006553545
0.0165056576179
0.251719663295
0.0188944706406
0.24922068088
0.0211460377159
0.24652292957
0.0232658236111
0.243639084678
0.0252592595296
0.240581197576
0.0271317138393
0.237360719824
0.0288884685616
0.233988527113
0.030534700777
0.230474942809
0.0320754682458
0.226829760936
0.0335156985928
0.223062268475
0.0348601815144
0.219181266887
0.0361135635036
0.215195092811
0.0372803446827
0.211111637899
0.0383648773569
0.206938367777
0.0393713659817
0.202682340134
0.0403038682534
0.198350221944
0.0411662970966
0.193948305859
0.041962423333
0.189482525792
0.0426958788683
0.18495847172
0.0433701602419
0.18038140377