/*--------------------------------*- C++ -*----------------------------------*\
| =========                 |                                                 |
| \\      /  F ield         | OpenFOAM: The Open Source CFD Toolbox           |
|  \\    /   O peration     | Version:  v1906                                 |
|   \\  /    A nd           | Web:      www.OpenFOAM.com                      |
|    \\/     M anipulation  |                                                 |
\*---------------------------------------------------------------------------*/
FoamFile
{
    version     2.0;
    format      ascii;
    class       volScalarField;
    location    "300";
    object      nut;
}
// * * * * * * * * * * * * * * * * * * * * * * * * * * * * * * * * * * * * * //

dimensions      [0 2 -1 0 0 0 0];


internalField   nonuniform List<scalar> 
12225
(
3.10604264157e-05
3.72760415125e-05
4.10644359606e-05
4.33212470863e-05
4.46204139073e-05
4.53188079016e-05
4.56408437325e-05
4.57290605882e-05
4.56742251967e-05
4.5534120576e-05
4.53455526247e-05
4.5132009088e-05
4.49085179278e-05
4.46847361303e-05
4.44669134357e-05
4.42591763625e-05
4.40614859723e-05
4.39006623855e-05
0.00011605195944
6.72724827906e-05
4.9903239629e-05
4.11517405638e-05
3.62302322379e-05
3.32491854773e-05
3.13464250636e-05
3.00931083136e-05
2.92576227353e-05
2.87057080418e-05
2.83548789288e-05
2.81519299591e-05
2.80610762549e-05
2.80573637922e-05
2.81228469343e-05
2.8243508583e-05
2.84080553319e-05
2.85825703362e-05
0.000375185692588
0.000226166414673
0.000162761654626
0.000127264277455
0.00010507019047
9.0208871328e-05
7.97064236206e-05
7.19649641157e-05
6.60693177502e-05
6.14637494138e-05
5.77940282817e-05
5.4825375364e-05
5.2397242417e-05
5.03971536117e-05
4.8744792616e-05
4.73803962903e-05
4.62575773437e-05
4.54054584916e-05
0.000645924189935
0.000479227482525
0.000377198543626
0.000310819264804
0.000265084283658
0.000232202251831
0.000207694861573
0.000188868917008
0.000174042514844
0.00016212343589
0.000152377571216
0.000144297723854
0.000137526094066
0.000131806916471
0.000126957102804
0.000122849113243
0.000119414316907
0.00011672134601
0.000783956997544
0.000686594693408
0.000599015992388
0.000527867327989
0.000471398458294
0.000426603681706
0.000390748083348
0.000361692157619
0.000337847990718
0.000318049589256
0.000301437155996
0.000287371815042
0.000275375618312
0.000265090069261
0.000256248420615
0.000248659935583
0.000242212309671
0.000236928778586
0.000832278775218
0.000791833856714
0.000742778360163
0.000693271648004
0.000647279954005
0.000606251514841
0.000570337511879
0.000539137298445
0.000512079921842
0.000488588422347
0.000468141837088
0.00045029350776
0.000434671423387
0.00042097218273
0.000408954195656
0.000398433491783
0.000389287569856
0.00038151830167
0.000846624046238
0.000832685662327
0.000811597125432
0.000786023917721
0.000758485319906
0.000730823900474
0.000704179355973
0.00067916022177
0.000656032328007
0.000634858292928
0.000615588481152
0.000598117474931
0.000582318039355
0.000568061161716
0.000555228015649
0.000543717813316
0.00053345771684
0.00052448884005
0.000850471760254
0.000846097394623
0.000838434508554
0.000827701828579
0.000814576636213
0.000799869544403
0.000784321797484
0.000768523398183
0.000752905542596
0.000737763503787
0.000723287275108
0.000709590455013
0.000696734055608
0.000684744856228
0.000673629095469
0.000663382706426
0.000654004242167
0.000645599017868
0.000851417395605
0.000849976321622
0.000847392120165
0.000843448398129
0.000838143290263
0.000831632151946
0.000824154239577
0.000815973350885
0.000807340568132
0.000798475394324
0.000789559356778
0.000780736917535
0.000772119970886
0.000763793618678
0.000755821938312
0.000748253368954
0.000741131231471
0.000734584079222
0.000851628155267
0.000850976211078
0.00085000804483
0.000848580547633
0.000846602650713
0.000844042945782
0.000840922028393
0.000837298194707
0.000833252245945
0.00082887472389
0.000824256782958
0.000819484491868
0.000814635797168
0.000809779318999
0.000804974284521
0.000800271581344
0.000795723945228
0.000791409083303
0.00085166837183
0.000851203355384
0.000850678986827
0.000850039110502
0.000849232678024
0.000848221074192
0.00084698164444
0.000845508193233
0.000843808940778
0.000841903189266
0.000839817830274
0.000837584260237
0.000835235892574
0.000832806273631
0.000830327763472
0.000827831427658
0.000825346830968
0.00082292064665
0.000851672762235
0.000851243379364
0.000850817945785
0.000850376203451
0.000849896499524
0.000849358374895
0.000848744665253
0.000848043205791
0.000847247526522
0.000846356634875
0.000845374299546
0.000844308118087
0.000843168521836
0.000841967819906
0.00084071943578
0.000839438337234
0.00083813334523
0.000836841370642
0.000851671374574
0.000851248169111
0.00085084562488
0.000850456933122
0.000850074273127
0.000849689379332
0.000849294028376
0.000848880838246
0.000848443905651
0.000847979111652
0.000847484190942
0.000846958645219
0.000846403539156
0.000845821242782
0.000845215512442
0.000844588624951
0.000843945674165
0.00084330652555
0.000851668963513
0.000851245025976
0.000850845135101
0.000850466701567
0.000850106847204
0.000849762576946
0.000849430722563
0.00084910812216
0.000848791845725
0.00084847933558
0.000848168483849
0.000847857671708
0.00084754577052
0.000847232185943
0.000846916159158
0.0008465974468
0.000846277823543
0.000845968635556
0.000851666789124
0.000851241014613
0.000850839321244
0.000850460173704
0.000850101924556
0.000849763012255
0.000849441886311
0.000849137020377
0.000848846965057
0.000848570373654
0.000848306002911
0.000848052714954
0.000847809472393
0.000847575229842
0.000847349068277
0.000847130309645
0.000846919954107
0.00084672719132
0.000851665153121
0.000851237787423
0.000850833973999
0.000850452454061
0.000850091836735
0.000849750813304
0.00084942814483
0.000849122660414
0.000848833273773
0.000848558979401
0.000848298847052
0.000848051999361
0.000847817599031
0.000847594839229
0.000847382955754
0.00084718140706
0.000846991331653
0.000846822088416
0.000851664131625
0.000851235641255
0.000850830163794
0.000850446530215
0.000850083420415
0.000849739556364
0.000849413728091
0.000849104801944
0.000848811732376
0.000848533563272
0.000848269413642
0.000848018468146
0.000847779964657
0.000847553187094
0.000847337479364
0.000847132434492
0.000846939382855
0.000846768210749
0.000851663767913
0.000851234646171
0.000850828077036
0.000850442900611
0.000850077814689
0.000849731543148
0.000849402874411
0.000849090676375
0.000848793907525
0.000848511618997
0.000848242945953
0.000847987098209
0.000847743350522
0.000847511037266
0.000847289565993
0.000847078612161
0.000846879642611
0.000846702996133
0.000851664151042
0.000851234939623
0.000850827934271
0.000850441926058
0.000850075587157
0.000849727628015
0.000849396833686
0.000849082076246
0.0008487823247
0.000848496645955
0.000848224197263
0.00084796421668
0.000847716012882
0.000847478959067
0.00084725250616
0.000847036382312
0.000846832147531
0.000846650466425
0.000851665221393
0.000851236495111
0.00085082980555
0.000850443826592
0.000850077142231
0.00084972840379
0.000849396338043
0.000849079753273
0.000848777549288
0.000848488723898
0.000848212363433
0.00084794763829
0.000847693792438
0.00084745014296
0.000847216092872
0.00084699133867
0.000846777442507
0.000846585173495
0.000851666644129
0.000851238667708
0.000850832422867
0.000850446106543
0.000850077775913
0.000849725485443
0.000849387274788
0.000849061209321
0.000848745451754
0.000848438307467
0.000848138252819
0.000847843948285
0.000847554248839
0.0008472682034
0.000846985073511
0.000846704530528
0.000846428241633
0.000846167274159
0.00085166817108
0.00085123939486
0.000850827936202
0.000850427850739
0.000850032458039
0.000849634856233
0.000849228344319
0.000848806885498
0.000848365451058
0.0008479001858
0.000847408437729
0.000846888702574
0.000846340513178
0.000845764296964
0.000845161242773
0.000844533364874
0.000843885076678
0.000843231876992
0.000851663954583
0.000851205801177
0.0008507137239
0.000850152147164
0.000849487746726
0.000848693236496
0.000847749586322
0.000846646595312
0.000845382198195
0.000843961084965
0.000842393091757
0.000840691644815
0.000838872394906
0.000836952103192
0.000834947795464
0.00083287637681
0.000830756418893
0.00082862380207
0.000851580501235
0.000850786275924
0.000849547348294
0.000847721408826
0.000845233945671
0.000842074793712
0.000838284466026
0.000833936230506
0.000829120384285
0.00082393251377
0.000818465504505
0.000812804707381
0.000807025496332
0.000801192453158
0.000795359585649
0.000789571378581
0.000783867039917
0.000778314002132
0.000850713322578
0.000847191180521
0.000841078241348
0.000832449077409
0.000821702909081
0.000809377962029
0.000796016143445
0.000782087771884
0.000767968151704
0.000753940079893
0.000740206336212
0.000726905091696
0.000714124758258
0.000701916705988
0.000690305459796
0.000679296726523
0.000668886511945
0.000659111717109
0.000843750387068
0.000824146565785
0.000796622406643
0.000764985398583
0.000732103054434
0.00069985627142
0.000669301435423
0.000640927668769
0.000614886847029
0.000591144974614
0.00056957252211
0.000549997206719
0.000532233995665
0.000516101377668
0.000501429606693
0.000488064469382
0.000475870220594
0.000464766851298
0.000799925793421
0.000718977234855
0.000640931507208
0.000573591653671
0.000517323161701
0.000470761695833
0.000432175626203
0.000399988325826
0.000372918310062
0.000349959019571
0.000330325114102
0.000313402891283
0.000298710513942
0.00028586736561
0.000274570959765
0.000264579811715
0.000255700732822
0.00024779594041
0.000609628907014
0.000442047939059
0.000345014363643
0.000282048295798
0.000238263559107
0.000206485197413
0.000182603955858
0.00016413568032
0.000149517945886
0.000137724160702
0.000128053603461
0.000120013282666
0.000113247679153
0.000107495050992
0.000102559470125
9.82928653384e-05
9.45839252573e-05
9.13629191046e-05
0.00022862526194
0.000137614936865
0.00010135119863
8.11324241074e-05
6.84299232305e-05
5.99345489913e-05
5.39837044258e-05
4.96679065298e-05
4.64548984704e-05
4.40141513903e-05
4.2130636027e-05
4.06592895581e-05
3.94992993383e-05
3.85788253061e-05
3.78455750484e-05
3.72608605281e-05
3.67957428452e-05
3.64338208574e-05
3.55925099557e-05
4.09251957288e-05
4.47537809546e-05
4.7517096448e-05
4.97537229511e-05
5.15342108698e-05
5.29271310637e-05
5.39966777933e-05
5.4800482647e-05
5.53884823431e-05
5.58028877181e-05
5.60787817435e-05
5.62449737113e-05
5.63249124685e-05
5.63375642372e-05
5.62982068353e-05
5.62192586853e-05
5.61095720775e-05
3.23200981357e-06
9.44511564689e-06
1.13369233035e-05
1.28602731645e-05
1.41078368182e-05
1.51682880126e-05
1.60979326667e-05
1.69307719634e-05
1.7688390017e-05
1.83854271365e-05
1.90323544342e-05
1.96370430032e-05
2.02055952128e-05
2.0742920524e-05
2.12530307959e-05
2.17393126849e-05
2.22046398795e-05
2.2651532286e-05
2.30821911657e-05
2.34986092942e-05
2.39025702923e-05
2.42957328872e-05
2.46796102244e-05
2.50556401745e-05
2.54251539418e-05
2.57894355188e-05
2.61496845519e-05
2.65070679043e-05
2.68626779968e-05
2.72175801816e-05
2.75727691053e-05
2.79292119714e-05
2.82878029834e-05
2.86494060491e-05
2.90148095849e-05
2.93847679931e-05
2.97599559382e-05
3.01410123712e-05
3.0528495257e-05
3.09229264334e-05
3.1324748143e-05
3.17343683082e-05
3.21521191416e-05
3.25783023202e-05
3.30131492808e-05
3.34568664787e-05
3.39095958853e-05
3.43714606616e-05
3.48425260052e-05
3.53228442909e-05
3.58124153671e-05
3.6311231535e-05
3.68192380234e-05
3.73363763553e-05
3.78625463809e-05
3.83976469887e-05
3.89415383864e-05
3.94940839598e-05
4.00551142194e-05
4.06244681938e-05
4.12019605519e-05
4.17874291789e-05
4.23807112961e-05
4.29817000477e-05
4.35903513999e-05
4.42067781763e-05
4.4831308065e-05
4.54646017648e-05
4.61080853064e-05
4.67642305026e-05
4.7437182972e-05
4.81258460438e-05
4.88190632964e-05
4.95159854165e-05
5.02161651489e-05
5.09191613817e-05
5.1624491569e-05
5.23316794395e-05
5.30402219946e-05
5.37496309732e-05
5.44593972431e-05
5.51690329415e-05
5.58780352765e-05
5.65859262795e-05
5.72922151423e-05
5.79964391509e-05
5.86981269084e-05
5.93968363526e-05
6.00921305505e-05
6.07836080484e-05
6.14709183682e-05
6.21538252104e-05
6.28323849783e-05
6.35070166801e-05
6.41791586252e-05
6.4852087847e-05
6.5514468892e-05
6.61674076679e-05
6.68104899886e-05
6.74430483081e-05
6.80642547716e-05
6.8673174781e-05
6.92688244103e-05
6.98501962054e-05
7.04162037097e-05
7.09656119491e-05
7.14970019862e-05
7.2008824914e-05
7.24995316921e-05
7.29677110737e-05
7.34120096262e-05
7.38308992608e-05
7.42224836106e-05
7.45846102306e-05
7.49153947149e-05
7.52137974585e-05
7.54789972504e-05
7.57096891925e-05
7.59037636213e-05
7.6059073934e-05
7.61755563611e-05
7.62550732189e-05
7.63002019258e-05
7.63124640354e-05
7.629089237e-05
7.62328597182e-05
7.61398837178e-05
7.60163325983e-05
7.58673311586e-05
7.56957024865e-05
7.54998740118e-05
7.5281621759e-05
7.50449571617e-05
7.4795519026e-05
7.45392411854e-05
7.42788092104e-05
7.40153143711e-05
7.37508956219e-05
7.34881366714e-05
7.32305411766e-05
7.29823046314e-05
7.27472428468e-05
7.25244527347e-05
7.23150971231e-05
7.21222609016e-05
7.19484530253e-05
7.17890964581e-05
7.16368593279e-05
7.14941011074e-05
7.1370239698e-05
7.12672049241e-05
7.11675530458e-05
7.10604703381e-05
7.09501492863e-05
7.08565780916e-05
7.07451152027e-05
7.06148780651e-05
7.04684033117e-05
7.03045778525e-05
7.01216848618e-05
6.9878448986e-05
6.9589261364e-05
6.92811568368e-05
6.9003356695e-05
6.87185940261e-05
6.8506478594e-05
6.82333511311e-05
6.79047477348e-05
6.75316126549e-05
6.71219161685e-05
6.66812374939e-05
6.62134226015e-05
6.57208873598e-05
6.52045708754e-05
6.46635714196e-05
6.40936876554e-05
6.3485634271e-05
6.28097722645e-05
6.20150112886e-05
6.07185437236e-05
5.02255369575e-06
3.14592434258e-05
5.84615523123e-05
7.71663941607e-05
9.06055590821e-05
0.00010097591561
0.000109445022128
0.000116645787472
0.000122943037545
0.000128560813688
0.000133644931179
0.000138295284411
0.000142583457082
0.000146562808653
0.000150274537172
0.000153751460595
0.00015702047704
0.000160104209293
0.000163022149203
0.000165791469533
0.000168427621362
0.000170944780615
0.00017335618811
0.000175674413749
0.000177911556787
0.000180079405017
0.000182189546751
0.000184253458234
0.000186282548589
0.000188288193553
0.000190281730121
0.000192274448325
0.000194277544822
0.000196302086371
0.000198358938916
0.000200458716276
0.00020261169678
0.000204827773483
0.00020711637488
0.000209486429034
0.000211946299374
0.000214503771259
0.000217166009204
0.000219939568919
0.000222830376227
0.000225843762794
0.000228984461877
0.000232256661851
0.000235664012522
0.000239209688568
0.000242896398379
0.000246726450249
0.000250701756707
0.00025482389581
0.000259094105839
0.000263513329636
0.000268082184784
0.000272800985746
0.000277669683823
0.000282687848726
0.000287854557191
0.000293168322029
0.00029862690929
0.000304227161024
0.000309964709773
0.000315833749213
0.000321826785627
0.000327934448572
0.000334145759564
0.000340449945296
0.000346841971462
0.000353337867851
0.000359950352979
0.000366681693405
0.000373530508488
0.00038049396289
0.000387568336959
0.000394749337699
0.000402032190031
0.000409411773336
0.000416882633882
0.000424439097305
0.000432075270818
0.000439785146239
0.000447562587908
0.000455401425073
0.000463295400212
0.000471238165327
0.000479223026156
0.000487242653374
0.000495288617168
0.000503351335998
0.00051141752176
0.000519471396958
0.000527494583236
0.000535244103599
0.000542911832598
0.000550547593844
0.000558157434741
0.000565737752331
0.000573281224155
0.000580778357881
0.00058821875268
0.000595592096789
0.000602887767709
0.000610093332997
0.000617193015104
0.00062416740761
0.000630995662977
0.000637659318406
0.000644142776356
0.000650429866036
0.000656498827898
0.000662320029873
0.000667862086193
0.000673105252078
0.00067803966109
0.000682654108003
0.000686922434046
0.000690802219825
0.00069426708201
0.000697316633661
0.000699970667706
0.000702253072391
0.000704166633691
0.000705675846799
0.000706767465327
0.000707460574226
0.0007077964047
0.000707814185453
0.000707512583416
0.0007068976496
0.000705990662023
0.000704826597253
0.000703449607565
0.000701895632215
0.000700181763964
0.000698323993601
0.000696342557309
0.000694267076483
0.000692132190968
0.000689967993859
0.000687774357387
0.000685555905242
0.000683334198699
0.00068114457094
0.000678984516338
0.000676814135144
0.000674621841167
0.000672447733717
0.000670325095517
0.00066816490036
0.000665932904146
0.000663631711259
0.00066131956331
0.000658830494796
0.000656135978651
0.00065328415193
0.000650330528852
0.000647083870426
0.000643365702139
0.000639203896598
0.00063459414316
0.000629451351909
0.000622596889745
0.000614416276032
0.000605430703259
0.000595870276221
0.000585864644719
0.000575504530447
0.000564859893644
0.00055398725166
0.000542933448403
0.000531738094056
0.000520435332319
0.000509057025173
0.000497633145141
0.000486218622238
0.000474586619534
0.000460205301396
6.36213654328e-06
4.588506305e-05
9.4547756475e-05
0.00013334632919
0.000163180297607
0.000186716940391
0.000205923384516
0.000222086638127
0.000236039268816
0.000248328836147
0.000259324896085
0.000269284217577
0.000278390575995
0.000286779408825
0.000294553400306
0.000301792564997
0.000308560916351
0.000314910989964
0.000320886973144
0.000326526930641
0.000331864410723
0.000336929640692
0.000341750418599
0.00034635280151
0.000350761625389
0.000355000913163
0.000359094173731
0.000363064630245
0.000366935366755
0.000370729426171
0.000374469841861
0.000378179634391
0.000381881753927
0.000385599002318
0.000389353914185
0.00039316863288
0.000397064759641
0.000401063215011
0.000405184088153
0.000409446513164
0.0004138685452
0.000418467074026
0.000423257744134
0.000428254916921
0.000433471640406
0.000438919660095
0.000444609432896
0.00045055017701
0.00045674991743
0.000463215560015
0.000469952952201
0.000476966963656
0.000484261546781
0.000491839810439
0.000499704065989
0.000507855878101
0.000516296083152
0.000525024809376
0.000534041460052
0.000543344694145
0.000552932372755
0.000562801510726
0.000572948204403
0.000583367580066
0.000594053766059
0.000604999970436
0.000616198698273
0.000627642165841
0.000639323023409
0.000651235694007
0.000663378167944
0.000675752996077
0.000688361048533
0.000701199152698
0.000714261678837
0.000727541555426
0.000741030702562
0.000754720269734
0.000768600765025
0.000782662166633
0.000796893994543
0.000811285396388
0.000825825200672
0.000840501985376
0.000855304118212
0.000870219817054
0.000885237160298
0.000900344048824
0.000915527985265
0.000930775741236
0.000946073257332
0.000961404476249
0.00097675090426
0.000992092026374
0.00100724980474
0.00102221666957
0.00103709956456
0.00105193416654
0.0010667257239
0.00108146703331
0.001096144014
0.0011107378635
0.00112522723544
0.00113959048052
0.00115380555154
0.00116784765262
0.00118168618406
0.00119528338934
0.00120859735509
0.00122158914355
0.00123422505179
0.00124647177228
0.00125828764625
0.00126961698183
0.00128039810256
0.00129058756773
0.001300160442
0.00130909308463
0.00131733926272
0.00132482338445
0.00133149378196
0.00133734196047
0.00134239415377
0.0013466865882
0.00135022465401
0.00135294978393
0.00135483876107
0.00135592159691
0.00135626535484
0.00135593725141
0.00135493971461
0.00135328683674
0.00135101713647
0.00134818974437
0.00134487876459
0.00134114826232
0.00133702897847
0.00133255104863
0.00132775260504
0.00132268456977
0.00131739868436
0.00131193559508
0.00130629741972
0.00130049492242
0.00129456113384
0.00128853914194
0.00128240741149
0.00127609888835
0.00126958866442
0.00126293256222
0.00125613688182
0.00124906298112
0.0012416741537
0.00123396516597
0.00122589058715
0.00121730571142
0.00120815792029
0.00119849635983
0.001188374583
0.00117761895764
0.00116609966664
0.0011538795218
0.00114104410338
0.00112757458007
0.00111286400297
0.0010968570199
0.00107986106828
0.00106211561712
0.0010437947636
0.00102503262746
0.00100593677884
0.000986595553961
0.000967082761721
0.00094746130439
0.000927786361721
0.000908109261443
0.000888474425028
0.000868910275352
0.00084904563018
0.000827146905339
7.39856153201e-06
5.55755841616e-05
0.000119960448821
0.000175127950292
0.000219501767779
0.000255346536376
0.000284859627711
0.000309692247111
0.000331016976433
0.000349657902061
0.000366197858285
0.00038105479763
0.00039453375756
0.000406861784292
0.000418211417857
0.000428716622844
0.000438483710141
0.000447598941547
0.000456133893015
0.000464149311436
0.000471697919346
0.000478826501582
0.000485577464663
0.000491990031644
0.000498101147914
0.000503946185342
0.000509559467765
0.00051497467141
0.000520225099697
0.000525343871998
0.000530364015302
0.000535318493321
0.000540240159064
0.00054516166506
0.000550115316808
0.000555132905001
0.000560245502705
0.000565483264022
0.000570875209995
0.000576449037376
0.00058223093372
0.000588245431272
0.000594515279748
0.000601061365958
0.000607902656785
0.000615056189273
0.000622537081107
0.000630358581817
0.000638532135833
0.000647067475336
0.000655972713277
0.000665254453594
0.000674917891545
0.000684966921883
0.000695404229894
0.000706231383251
0.000717448903522
0.000729056334801
0.000741052289923
0.000753434492486
0.00076619980199
0.000779344244553
0.000792863042886
0.000806750672562
0.000821000948504
0.000835607172697
0.000850562342549
0.000865859414892
0.000881491584158
0.000897452585075
0.000913736835748
0.00093033905756
0.000947252891591
0.000964470318291
0.000981981931541
0.000999777260356
0.00101784497631
0.00103617303461
0.00105474877389
0.00107355900148
0.00109259006371
0.00111182790925
0.00113125813183
0.00115086600128
0.00117063648527
0.00119055428961
0.00121060391992
0.00123076974385
0.00125103595261
0.00127138650743
0.00129180465347
0.00131227243356
0.00133277174941
0.0013532136212
0.00137348543389
0.00139365112146
0.00141375242362
0.00143380464335
0.00145380662207
0.00147374744462
0.00149360892007
0.00151336653458
0.00153299128203
0.0015524528994
0.00157172101115
0.00159076332499
0.00160954185295
0.00162800964684
0.00164611197685
0.00166379478357
0.00168100988113
0.00169771198194
0.00171384939245
0.00172935442239
0.00174414662876
0.00175816212456
0.00177135941055
0.00178370454129
0.00179514424275
0.00180558800369
0.00181496507911
0.00182325105787
0.0018304607743
0.00183662568222
0.00184175234752
0.0018457742631
0.00184866105656
0.00185043951679
0.00185117731387
0.00185094928113
0.0018497606498
0.00184763157151
0.00184460769953
0.00184075411828
0.00183615184708
0.00183087577613
0.00182496535848
0.00181846091345
0.00181141041092
0.00180387192635
0.00179589555575
0.0017875249287
0.00177877324509
0.00176965817015
0.001760211494
0.00175046438235
0.00174038911969
0.00172992190149
0.00171902470558
0.00170776316415
0.00169609165117
0.00168390481919
0.00167116685845
0.00165786608846
0.00164395949514
0.00162932258184
0.00161391029177
0.00159775915782
0.00158093059549
0.0015633536185
0.00154494672341
0.00152576172346
0.00150591250698
0.00148541988941
0.00146399818994
0.00144154499092
0.0014181981547
0.00139414817172
0.00136957110093
0.00134461773806
0.00131941546852
0.00129407256901
0.00126868297322
0.00124333157986
0.00121810062566
0.00119307877124
0.00116836278842
0.00114405599836
0.00111990473104
0.0010951926502
8.24996902352e-06
6.27354374718e-05
0.000139062778691
0.000207406739028
0.000264079391632
0.000310715154176
0.00034946945792
0.000382159724099
0.00041017618506
0.000434550692331
0.000456043777983
0.000475217974827
0.000492493165995
0.000508186682974
0.000522541882618
0.000535748442564
0.000547956800343
0.000559288503097
0.000569843680855
0.000579706511636
0.000588949251612
0.000597635254735
0.000605821246922
0.000613559068689
0.000620897004568
0.000627880813268
0.000634554506392
0.000640960942255
0.000647142248787
0.000653140120518
0.00065899598821
0.000664751097412
0.000670446488918
0.000676122915054
0.000681820683943
0.000687579466263
0.000693438057154
0.000699434129076
0.000705603968342
0.000711982229935
0.000718601701499
0.000725493107066
0.000732684937307
0.000740203331421
0.000748071993063
0.000756312160581
0.000764942610297
0.000773979708662
0.000783437488648
0.00079332776214
0.000803660241538
0.000814442680934
0.000825681012774
0.00083737949276
0.000849540833862
0.000862166344132
0.00087525605149
0.000888808827825
0.00090282249536
0.000917293925886
0.000932219120133
0.000947593282065
0.000963410884534
0.000979665745476
0.000996351113015
0.00101345977073
0.00103098414747
0.00104891641728
0.00106724855309
0.00108597232857
0.00110507923104
0.00112456025315
0.00114440557061
0.00116460439387
0.00118514501533
0.001206014914
0.00122720085393
0.00124868896854
0.00127046483157
0.00129251352318
0.00131481969264
0.0013373676121
0.00136014120308
0.00138312402311
0.00140629921553
0.00142964947538
0.00145315710235
0.0014768041666
0.00150057274432
0.0015244450794
0.00154840312884
0.00157242765425
0.00159648725019
0.00162044253951
0.00164432592955
0.00166816059335
0.00169195810012
0.00171571873671
0.00173943479348
0.00176309276255
0.00178667342701
0.00181015078892
0.00183349213623
0.001856661609
0.00187962330467
0.00190234133523
0.00192477640704
0.00194688045101
0.0019685937225
0.00198985237593
0.00201059709702
0.00203077417364
0.00205032825307
0.00206918947994
0.0020872670433
0.00210447931965
0.00212076776599
0.00213608860395
0.00215038751298
0.00216356692591
0.00217553769699
0.00218625467684
0.00219571216336
0.0022039274048
0.00221090518868
0.00221657288508
0.00222089028215
0.00222387158031
0.00222557063997
0.00222605750277
0.00222533512516
0.00222342475318
0.00222037112048
0.0022162332146
0.00221108275573
0.00220499818772
0.00219802181746
0.00219019887299
0.00218158067127
0.00217222417163
0.00216216030998
0.00215143883835
0.00214008765075
0.00212812627188
0.00211558076123
0.0021024659601
0.00208876398553
0.00207444233453
0.00205947697986
0.00204387729633
0.00202760462974
0.00201060281982
0.00199282265286
0.00197425104995
0.00195487623889
0.00193462538222
0.00191345642285
0.00189140094573
0.00186852942253
0.00184484125167
0.00182031510675
0.00179500862111
0.00176905049021
0.00174251207217
0.00171528667624
0.00168730295649
0.00165862733233
0.0016294045367
0.00159979626141
0.00156995547922
0.00154001919464
0.00151010899264
0.00148033515113
0.00145080327674
0.00142162368889
0.00139292540072
0.0013648625138
0.00133762281891
0.00131108688339
0.00128505002183
8.97737764152e-06
6.82992383838e-05
0.000154035684776
0.000233117300611
0.000300132356557
0.000356071268867
0.000402931336914
0.000442581049949
0.000476540919864
0.000505991636461
0.000531834518043
0.00055475489023
0.000575275366965
0.000593797308989
0.000610632002924
0.000626023771344
0.000640167001253
0.000653218704776
0.000665307809202
0.000676542080538
0.000687013311529
0.000696801252491
0.000705976602239
0.000714603311804
0.000722740354872
0.000730443102338
0.000737764371288
0.000744755227721
0.000751465571166
0.000757944552424
0.000764240832423
0.000770402721114
0.000776478196164
0.000782514836293
0.000788559666619
0.000794658950729
0.000800857927516
0.000807200528407
0.000813729073899
0.000820483984299
0.000827503501328
0.000834823450818
0.000842477037677
0.000850494696756
0.000858903985757
0.00086772953895
0.000876993064632
0.000886713400472
0.000896906604696
0.000907586090577
0.000918762777344
0.000930445261672
0.000942639985758
0.00095535141294
0.00096858219645
0.000982333356917
0.000996604455595
0.00101139377207
0.0010266984663
0.00104251472595
0.00105883787934
0.00107566248197
0.00109298237584
0.00111079074536
0.00112908017594
0.00114784272741
0.00116707000936
0.00118675324725
0.00120688331089
0.00122745069747
0.0012484454597
0.00126985709284
0.00129167440709
0.00131388545246
0.00133647751412
0.00135943715533
0.00138275027626
0.00140640217102
0.00143037757709
0.00145466072684
0.00147923541485
0.0015040850746
0.00152919282687
0.00155454144553
0.00158011321628
0.0016058897214
0.00163185170381
0.00165797919312
0.00168425204914
0.00171065079239
0.00173715691422
0.00176375190366
0.00179032591846
0.00181688957956
0.00184345196852
0.00187001512362
0.00189657378963
0.00192311747228
0.00194963288683
0.0019761051529
0.0020025168791
0.00202884495671
0.00205505714722
0.0020811144803
0.00210697709474
0.00213260748486
0.00215796883831
0.00218301821177
0.00220769763933
0.00223193784404
0.00225567046741
0.00227883478471
0.00230137467563
0.0023232243794
0.00234428843706
0.00236446765202
0.00238368558764
0.00240188756621
0.0024190197058
0.00243497975728
0.00244965592906
0.00246297932352
0.00247491995804
0.00248547558376
0.00249464399712
0.00250234051158
0.00250851088444
0.00251315168723
0.002516295266
0.00251799707586
0.00251825286002
0.00251708016303
0.00251451789895
0.00251061105497
0.00250540530256
0.00249898855747
0.00249140178352
0.00248268966552
0.00247290391448
0.00246209835029
0.00245031475771
0.00243758724939
0.00242394367482
0.00240940635319
0.00239399838883
0.00237773033699
0.00236060102261
0.00234259282167
0.00232368456911
0.002303877072
0.00228315582785
0.00226148521908
0.00223881967835
0.00221515555477
0.00219051058599
0.00216486553627
0.00213820098023
0.00211055813397
0.00208202536906
0.00205265774108
0.00202248659946
0.00199159104743
0.00196011540836
0.00192817648382
0.001895772891
0.00186287688009
0.00182953288908
0.00179585430459
0.00176198449804
0.00172807071193
0.00169425249501
0.00166065928026
0.00162741340777
0.00159463720343
0.00156246389954
0.00153105374319
0.00150060083575
0.00147134230488
0.00144322118228
0.00141616161256
9.61331120859e-06
7.27265117473e-05
0.000166027464782
0.000253935476059
0.00032962934331
0.000393509552478
0.000447374794509
0.000493081919025
0.000532224028321
0.000566085805351
0.000595677455346
0.000621785706726
0.000645022207169
0.000665863926727
0.000684685107017
0.00070178189157
0.000717391072021
0.00073170429556
0.00074487881919
0.000757045680405
0.000768315922333
0.000778785372337
0.000788538320116
0.000797650373373
0.000806190670568
0.000814223606805
0.000821810161626
0.000829008919776
0.000835876825449
0.000842469728043
0.000848842735959
0.00085505042124
0.00086114688107