/*--------------------------------*- C++ -*----------------------------------*\
| =========                 |                                                 |
| \\      /  F ield         | OpenFOAM: The Open Source CFD Toolbox           |
|  \\    /   O peration     | Version:  v1906                                 |
|   \\  /    A nd           | Web:      www.OpenFOAM.com                      |
|    \\/     M anipulation  |                                                 |
\*---------------------------------------------------------------------------*/
FoamFile
{
    version     2.0;
    format      ascii;
    class       surfaceScalarField;
    location    "672";
    object      phi;
}
// * * * * * * * * * * * * * * * * * * * * * * * * * * * * * * * * * * * * * //

dimensions      [0 3 -1 0 0 0 0];
oriented        oriented;


internalField   nonuniform List<scalar> 
18240
(
-0.0003522186558
0.000352214486568
-0.000737874446594
0.000385655638658
-0.00112318476229
0.000385304178741
-0.00150352616716
0.000380342253848
-0.00187683218711
0.000373298205517
-0.00224135305027
0.000364522556957
-0.00259558054772
0.000354218051991
-0.00293814607811
0.000342567841448
-0.00326789673885
0.000329739551972
-0.00358380679709
0.000315912754482
-0.00388506999479
0.000301250380952
-0.00417099156111
0.000285924442678
-0.00444108831641
0.000270082256485
-0.00469496226967
0.000253876828421
-0.00493240922981
0.000237430807178
-0.00515327830525
0.000220871794155
-0.00535759050465
0.000204294483591
-0.00554538821304
0.000187800136313
-0.00571686435034
0.000171456937637
-0.00587220493983
0.000155342618453
-0.00601172846221
0.000139502974054
-0.0061357236439
0.000123996724358
-0.0062445977202
0.000108852291338
-0.0063387108343
9.41141078733e-05
-0.00641853154317
7.97978469052e-05
-0.00648446876035
6.59376169035e-05
-0.00653703257463
5.25400016107e-05
-0.00657666448845
3.96316945901e-05
-0.00660390184292
2.72127556577e-05
-0.00661920718698
1.53044931194e-05
-0.00662313522402
3.9027750763e-06
-0.00661615987538
-6.9768305876e-06
-0.0065988400846
-1.73455622367e-05
-0.00657165142473
-2.7190768382e-05
-0.00653515303591
-3.65245632847e-05
-0.00648981764982
-4.533810844e-05
-0.00643619665611
-5.36474388902e-05
-0.0063747525832
-6.14473941587e-05
-0.00630602228762
-6.87569255837e-05
-0.0062304521556
-7.55740321058e-05
-0.00614855878052
-8.19200814122e-05
-0.00606076744318
-8.7795797117e-05
-0.0059675697415
-9.32244210013e-05
-0.00586936585179
-9.82088878163e-05
-0.00576661875196
-0.000102773747898
-0.00565970066123
-0.000106923608763
-0.00554904346431
-0.000110683731427
-0.00543498964848
-0.000114059834882
-0.00531793867021
-0.000117077336499
-0.00519820261775
-0.000119742557622
-0.00507614821199
-0.000122080562539
-0.00495205736694
-0.000124097821884
-0.00482626462717
-0.000125818649434
-0.00469902273491
-0.000127249330742
-0.00457063524935
-0.000128413135188
-0.00444132720189
-0.000129315938552
-0.00431137273715
-0.000129979820801
-0.00418097090623
-0.000130410170219
-0.0040503681132
-0.000130627850125
-0.00391973910205
-0.000130637795754
-0.00378930407884
-0.000130459755924
-0.00365921494942
-0.000130098361478
-0.00352966693803
-0.000129572418614
-0.00340079016699
-0.000128886455022
-0.00327275567073
-0.000128058558664
-0.00314567243078
-0.000127093385923
-0.00301968763699
-0.000126008513326
-0.00289488933416
-0.000124808923588
-0.00277140084377
-0.000123511852875
-0.00264928919858
-0.000122122758008
-0.0025286535855
-0.00012065862084
-0.00240953977538
-0.000119125431624
-0.00229202248753
-0.000117539925224
-0.00217612602478
-0.000115908606798
-0.00206190040375
-0.000114247877707
-0.00194934841756
-0.000112564655679
-0.00183849540015
-0.000110874857488
-0.0017293229273
-0.000109185656204
-0.00162183203341
-0.000107512273667
-0.00151598376466
-0.000105861934626
-0.00141175568657
-0.000104248925449
-0.00130908949466
-0.000102680292784
-0.00120794062252
-0.000101169109098
-0.00110823314422
-9.97219645323e-05
-0.00100990234925
-9.83503547843e-05
-0.000912857256343
-9.70599546061e-05
-0.000817016229129
-9.58599083755e-05
-0.000722277941228
-9.47535578039e-05
-0.000628551540607
-9.37446055803e-05
-0.000535740293859
-9.28267740309e-05
-0.000443777666126
-9.1979877186e-05
-0.000352653280174
-9.11397643316e-05
-0.000262538281732
-9.01304730295e-05
-0.000174220595689
-8.83322747385e-05
-9.08880755047e-05
-8.33494195871e-05
-9.08972663485e-05
-0.000389322256675
0.000741533342202
-0.000823972660887
0.000820304191251
-0.00125615261659
0.000817480044302
-0.00168202596186
0.000806213449771
-0.00209967096715
0.000790938493775
-0.00250730085951
0.000772150149889
-0.00290326396268
0.000750175689812
-0.00328606026934
0.000725361577768
-0.00365439262344
0.000698065538023
-0.00400713914523
0.00066865626999
-0.00434338953177
0.00063749339225
-0.00466239878405
0.000604930115109
-0.0049636193769
0.000571294389997
-0.00524664318783
0.000536896378197
-0.0055112338316
0.000502011877224
-0.00575726154477
0.000466894487581
-0.00598473877008
0.000431761005952
-0.00619375164613
0.000396807180893
-0.00638450067839
0.000362194160841
-0.00655723120921
0.000328066479355
-0.00671227976533
0.000294538647529
-0.00685000472343
0.000261714167712
-0.00697083794475
0.000229671619988
-0.00707521604632
0.000198483864821
-0.00716363636725
0.000168203331175
-0.00723658880469
0.000138880908981
-0.00729461492539
0.000110550429961
-0.00733824017856
8.32470451151e-05
-0.00736803498319
5.69910957509e-05
-0.0073845470082
3.18059082747e-05
-0.00738836253697
7.7011636244e-06
-0.00738004124781
-1.5309379269e-05
-0.00736018005388
-3.72244864298e-05
-0.00732934377536
-5.80389001119e-05
-0.00728812712231
-7.77594457789e-05
-0.00723708915892
-9.6388461444e-05
-0.00717681545307
-0.00011393979724
-0.00710785289511
-0.000130422824036
-0.00703077099476
-0.000145857821831
-0.00694609790267
-0.000160260425747
-0.00685438081428
-0.000173656445747
-0.00675612348254
-0.000186066812855
-0.0066518455874
-0.000197521807488
-0.00654202195711
-0.000208046540705
-0.00642714078298
-0.000217674580303
-0.0063076447052
-0.000226434010317
-0.00618398774404
-0.000234360468782
-0.00605657836249
-0.000241483807867
-0.00592583500118
-0.000247840557706
-0.00579213117827
-0.000253461212405
-0.00565584950101
-0.000258382148452
-0.00551732883096
-0.000262633540661
-0.00537691665757
-0.000266250757962
-0.00523491832005
-0.00026926291586
-0.00509164761401
-0.000271703779234
-0.0049473780463
-0.000273600937729
-0.0048023915612
-0.000274986233548
-0.00465693178925
-0.000275885547266
-0.00451125077386
-0.000276328767737
-0.00436556418406
-0.000276340156593
-0.00422009594855
-0.000275947861664
-0.004075035413
-0.000275174830661
-0.00393057979564
-0.000274047866075
-0.00378689330031
-0.000272589045888
-0.00364414734222
-0.000270824305945
-0.00350248165387
-0.000268775335471
-0.0033620422395
-0.000266467674509
-0.00322294454554
-0.000263923050926
-0.00308530912988
-0.000261166977316
-0.0029492269887
-0.000258221514413
-0.00281479292394
-0.000255112358841
-0.00268207313734
-0.000251862024166
-0.00255113628979
-0.00024849641245
-0.0024220234751
-0.000245038422617
-0.00229477694655
-0.000241514004389
-0.0021694125832
-0.000237946208243
-0.00204594625623
-0.000234360719809
-0.00192436888942
-0.000230780376742
-0.00180467041394
-0.0002272301808
-0.00168681751751
-0.000223732305141
-0.00157077513337
-0.000220310575943
-0.00145648696413
-0.00021698599391
-0.00134389443487
-0.000213780665121
-0.00123292008102
-0.000210713843652
-0.00112348390679
-0.000207805259674
-0.00101548972286
-0.000205071638003
-0.000908838819503
-0.00020252925767
-0.000803419194543
-0.000200190684031
-0.000699115957957
-0.00019806600907
-0.00059580135944
-0.000196158781704
-0.000493334307451
-0.000194464358858
-0.000391526597281
-0.000192964182829
-0.00029005328727
-0.000191620299025
-0.000188047694734
-0.000190353644139
-8.30883634292e-05
-0.000188324276286
-0.00017399337497
-0.000396280163343
0.001137810514
-0.000836575599041
0.00126059659726
-0.00127501113381
0.0012559124628
-0.00170707077068
0.00123827008755
-0.00213062587459
0.0012144899521
-0.00254380568718
0.00118532665937
-0.00294490836845
0.00115127414357
-0.00333241268891
0.00111286209993
-0.00370500118686
0.00107064910311
-0.00406155547115
0.00102520610012
-0.00440116453748
0.00097709669161
-0.00472310544683
0.000926865794165
-0.00502684322543
0.000875025483726
-0.00531200316577
0.000822050224576
-0.00557836752733
0.000768368570902
-0.00582584439156
0.000714364339322
-0.00605446506792
0.00066037300851
-0.00626435296662
0.000606687117916
-0.0064557240346
0.000553555537538
-0.00662885757254
0.000501191103339
-0.006784100613
0.000449771005341
-0.00692184132977
0.000399445033953
-0.00704251719684
0.000350335843972
-0.00714659082224
0.000302546740554
-0.00723456117101
0.000256161138403
-0.0073069412507
0.000211249388771
-0.00736427145424
0.000167867252328
-0.00740709846188
0.000126061665774
-0.00743598985535
8.58683502895e-05
-0.00745151372239
4.73166674672e-05
-0.00745425397759
1.04265926241e-05
-0.00744479036495
-2.47867469291e-05
-0.00742371401158
-5.83162659986e-05
-0.00739160770429
-9.01595404784e-05
-0.00734906130284
-0.000120321804988
-0.00729665237505
-0.000148812230288
-0.007234961563
-0.000175647019176
-0.00716455369963
-0.000200845972972
-0.00708599303129
-0.000224435291594
-0.0069998248821
-0.000246444243075
-0.00690659075701
-0.000266907695488
-0.00680681066764
-0.000285862899588
-0.00670099811187
-0.000303351762539
-0.0065896431524
-0.000319417776414
-0.00647322728117
-0.00033410807078
-0.00635220729777
-0.000347470507612
-0.00622703002374
-0.000359555546445
-0.00609811700409
-0.000370413541134
-0.00596587904523
-0.000380096463482
-0.0058307017236
-0.000388655418089
-0.00569295967943
-0.000396142259264
-0.00555300290017
-0.000402607347904
-0.00541117071189
-0.000408101103479
-0.00526777877506
-0.000412672005681
-0.00512313268161
-0.000416368106828
-0.00497751559532
-0.000419235285044
-0.004831201379
-0.000421318741463
-0.00468444279841
-0.000422661486378
-0.00453748408582
-0.00042330582331
-0.00439054964103
-0.000423292048128
-0.00424385596999
-0.000422659915401
-0.00409760082623
-0.000421447505855
-0.00395197446521
-0.000419692649775
-0.00380714920391
-0.000417431921029
-0.00366328997638
-0.000414701991696
-0.00352054431256
-0.000411538698845
-0.00337905218991
-0.000407978297338
-0.00323893646881
-0.000404056561892
-0.00310031207315
-0.000399809917366
-0.00296327693462
-0.00039527454184
-0.00282792053256
-0.000390487359181
-0.00269431541792
-0.000385485133193
-0.00256252515938
-0.000380305324355
-0.00243259651278
-0.000374985171994
-0.00230456680079
-0.000369562422884
-0.00217845679295
-0.000364074417085
-0.00205427754578
-0.000358558705565
-0.00193202404106
-0.000353052154869
-0.00181168148737
-0.000347591468728
-0.0016932197569
-0.000342212333555
-0.00157659914475
-0.000336949857239
-0.00146176562777
-0.00033183776763
-0.00134865605586
-0.000326908769765
-0.00123719424545
-0.00032219380103
-0.00112729556083
-0.000317722287341
-0.00101886379075
-0.000313521425069
-0.000911794939807
-0.000309616274216
-0.000805974555665
-0.000306028996751
-0.000701279834213
-0.000302778707325
-0.000597575446183
-0.000299880840209
-0.000494709638284
-0.000297347711946
-0.000392499508489
-0.000295191217377
-0.000290705291664
-0.000293430682729
-0.000189013058273
-0.000292062115232
-8.75682142437e-05
-0.000289785163861
-0.00026156919673
-0.00040248511358
0.00154029271753
-0.00084889900856
0.00170700823372
-0.00129343721102
0.00170044762279
-0.00173135680601
0.00167618677288
-0.00216039267846
0.00164352246663
-0.00257858449313
0.00160351507837
-0.00298417175682
0.00155685755491
-0.00337560233825
0.00150428870861
-0.00375154468481
0.00144658692509
-0.0041108873041
0.00138454402833
-0.00445273624766
0.00131894030562
-0.00477640117084
0.0012505251926
-0.00508138312856
0.00118000120642
-0.005367353399
0.00110801405396
-0.00563413756304
0.00103514553502
-0.0058816925157
0.000961911883844
-0.00611009128806
0.000888763578486
-0.00631950182023
0.000816089250548
-0.00651017503014
0.00074421953885
-0.00668242703922
0.000673433723483
-0.00683663129548
0.000603965059192
-0.00697320451248
0.000536007895486
-0.00709260253444
0.000469722709651
-0.00719530941791
0.000405242344657
-0.00728183615998
0.000342675819359
-0.00735271201538
0.00028211309681
-0.00740848508435
0.000223627423653
-0.00744971498487
0.000167278618655
-0.00747697444503
0.000113114146145
-0.0074908426836
6.1171230102e-05
-0.00749190749293
1.14770504265e-05
-0.00748075865815
-3.594990804e-05
-0.00745799019679
-8.10996898907e-05
-0.00742419419567
-0.000123970444106
-0.00737996297705
-0.000164568519389
-0.00732588301049
-0.000202907602884
-0.00726253700158
-0.000239008988588
-0.00719049808995
-0.000272900726726
-0.00711033201323
-0.000304617724001
-0.0070225916319
-0.000334200839212
-0.00692781922294
-0.000361696797316
-0.00682654140952
-0.000387157244171
-0.00671927163863
-0.000410638506373
-0.00660650557454
-0.000432200636997
-0.00648872378913
-0.00045190706399
-0.00636638764212
-0.000469823672952
-0.00623994218817
-0.000486018399375
-0.00610981254223
-0.000500560389122
-0.00597640698143
-0.000513519581965
-0.00584011376313
-0.000524965991143
-0.0057013043798
-0.000534969327927
-0.0055603307785
-0.000543598430414
-0.00541752870688
-0.000550920966896
-0.00527321525933
-0.000557003040741
-0.00512769223847
-0.000561909005637
-0.00498124394355
-0.000565701257429
-0.00483414046197
-0.000568440175124
-0.00468663560736
-0.000570184097043
-0.00453897005728
-0.000570989387934
-0.0043913693587
-0.000570910572978
-0.00424404684083
-0.000570000505613
-0.00409720162146
-0.000568310617653
-0.00395102124783
-0.000565891149263
-0.00380567966981
-0.000562791456382
-0.00366133959263
-0.000559060250269
-0.00351815041341
-0.000554745903232
-0.00337625030079
-0.000549896649791
-0.00323576412528
-0.00054456083598
-0.00309680530714
-0.000538787041743
-0.00295947379088
-0.000532624238401
-0.00282385771695
-0.000526121812751
-0.00269003150403
-0.000519329615327
-0.00255805740397
-0.000512297883317
-0.00242798375204
-0.000505077184264
-0.00229984645589
-0.000497718253174
-0.00217366746607
-0.000490271848504
-0.00204945623679
-0.000482788526492
-0.00192720845225
-0.00047531843529
-0.00180690747847
-0.000467911053493
-0.00168852336668
-0.000460614947115
-0.00157201430048
-0.000453477494751
-0.00145732588023
-0.00044654462823
-0.0013443925499
-0.000439860559459
-0.00123313714482
-0.000433467515882
-0.00112347225239
-0.000427405474373
-0.0010152999372
-0.000421711898917
-0.000908512865758
-0.000416421493446
-0.000802993903815
-0.000411565996045
-0.000698616473338
-0.000407174143542
-0.000595243189375
-0.000403271957702
-0.000492724195142
-0.000399884071864
-0.000390895113318
-0.000397037260048
-0.000289580360907
-0.000394762214852
-0.000188649532282
-0.00039300897986
-8.85952473359e-05
-0.000389855324621
-0.000350172398417
-0.000410485276394
0.00195077543115
-0.000865390420187
0.00216191040385
-0.00131819430217
0.00215324897269
-0.00176396285613
0.00212195239279
-0.00220029546211
0.00207985201819
-0.00262512683949
0.00202834313278
-0.00303662306057
0.00196835016109
-0.00343319043551
0.00190085216945
-0.00381348285467
0.00182687504205
-0.00417639957915
0.00174745608868
-0.00452107624566
0.00166361185087
-0.00484686861545
0.00157631202953
-0.00515333332136
0.00148645987655
-0.00544020495682
0.00139487920623
-0.00570737367103
0.00130230723183
-0.0059548618723
0.00120939260215
-0.00618280373225
0.00111669740737
-0.00639142528294
0.00102470229766
-0.00658102833703
0.000933813538095
-0.00675197540225
0.000844371269495
-0.00690467851665
0.000756658114405
-0.00703958879067
0.000670907661962
-0.00715718944484
0.000587312334913
-0.00725798896334
0.000506030413454
-0.00734251712875
0.000427192042818
-0.00741132053424
0.00035090417073
-0.00746496038338
0.000277254481365
-0.00750400925728
0.000206314350346
-0.00752904972659
0.000138141051773
-0.00754067161412
7.27792404009e-05
-0.00753947086813
1.02620432983e-05
-0.00752604663348
-4.93886744881e-05
-0.00750100034354
-0.000106160854563
-0.00746493287769
-0.000160053018839
-0.0074184433507
-0.000211073461873
-0.00736212640415
-0.000259240161014
-0.00729657092604
-0.00030458034805
-0.00722235748616
-0.000347130211279
-0.00714005718811
-0.00038693430451
-0.00705022934492
-0.000424045095811
-0.00695342056245
-0.000458522199676
-0.00685016274229
-0.000490431788729
-0.00674097246455
-0.000519845688971
-0.00662634937589
-0.000546840709495
-0.00650677591419
-0.000571497665086
-0.00638271610257
-0.000593900683309
-0.00625461561894
-0.000614136217566
-0.00612290098876
-0.000632292394556
-0.00598797998229
-0.00064845808095
-0.0058502411702
-0.000662722323263
-0.00571005460071
-0.000675173520873
-0.00556777166152
-0.000685899008178
-0.00542372597473
-0.000694984382784
-0.00527823348651
-0.000702513265615
-0.00513159349241
-0.000708566818086
-0.0049840888628
-0.000713223705849
-0.00483598710723
-0.000716559822934
-0.00468754063468
-0.000718648459356
-0.00453898775851
-0.000719560222431
-0.00439055290001
-0.000719363384627
-0.00424244745519
-0.000718123967649
-0.00409486986919
-0.000715906216702
-0.00394800630818
-0.000712772785865
-0.00380203056757
-0.000708785269715
-0.00365710453402
-0.000704004418033
-0.00351337792679
-0.0006984906466
-0.00337098856719
-0.000692304208615
-0.00323006198993
-0.000685505619412
-0.00309071157238
-0.000678155730323
-0.00295303807524
-0.000670316020808
-0.00281712969687
-0.000662048543926
-0.00268306161467
-0.000653416069841
-0.00255089603637
-0.000644481901162
-0.00242068180785
-0.000635309874807
-0.00229245451924
-0.000625964066171
-0.00216623623285
-0.000616508676952
-0.00204203568842
-0.000607007661551
-0.00191984818398
-0.000597524534584
-0.00179965590164
-0.000588121955335
-0.00168142795679
-0.000578861490633
-0.00156512084963
-0.000569803190408
-0.00145067867853
-0.000561005333834
-0.00133803370109
-0.000552524021956
-0.00122710668608
-0.000544412930978
-0.00111780754465
-0.000536722945231
-0.00101003574313
-0.00052950194577
-0.000903680889581
-0.000522794534614
-0.000798623067536
-0.000516641958987
-0.000694733139861
-0.000511082100102
-0.000591872959382
-0.000506149969617
-0.000489896030009
-0.000501878682225
-0.000388649493771
-0.000498300863656
-0.000287983117829
-0.0004954448123
-0.000187799049502
-0.000493209566554
-8.85666027042e-05
-0.000489104161718
-0.000438746707381
-0.000420658040152
0.00237143092955
-0.000886591522869
0.00262784211569
-0.00135007676597
0.0026167315973
-0.00180593810521
0.00257781118083
-0.00225161204349
0.00252552303208
-0.00268490531215
0.00246163329606
-0.0031038952185
0.00238733662956
-0.00350693881778
0.00230389202872
-0.00389267735893
0.00221260944412
-0.00426002959712
0.00211480380952
-0.00460817649981
0.00201175377113
-0.00493653890838
0.00190466902529
-0.00524475149618
0.00179466653591
-0.00553263439306
0.00168275571227
-0.00580016530885
0.00156983120972
-0.00604745260738
0.00145667248266
-0.00627471134001
0.00134394815778
-0.00648224174871
0.00123222424135
-0.00667041156291
0.001121974322
-0.00683964093704
0.00101359113875
-0.0069903909514
0.000907398068561
-0.00712315417882
0.000803660374476
-0.00723844808268
0.000702595190763
-0.00733680963507
0.000604380490029
-0.00741879191585
0.00050916234365
-0.00748496111772
0.000417060999228
-0.00753589479791
0.00032817532086
-0.00757217992077
0.000242586276492
-0.00759441164267
0.000160359148826
-0.0076031915345
8.1545190351e-05
-0.00759912641884
6.18259953131e-06
-0.00758282602733
-6.5703669311e-05
-0.0075549018395
-0.000134099990595
-0.00751596478322
-0.000199005260381
-0.00746662348713
-0.000260430247696
-0.00740748199014
-0.000318397349057
-0.00733913795826
-0.000372940338416
-0.00726218046952
-0.000424103825863
-0.0071771883608
-0.000471942770873
-0.0070847282405
-0.000516521711282
-0.00698535309467
-0.00055791404124
-0.00687960063577
-0.000596201053478
-0.00676799225464
-0.000631471047276
-0.00665103176942
-0.000663818258902
-0.00652920476478
-0.000693341880531
-0.00640297776277
-0.00072014496253
-0.00627279795534
-0.000744333426298
-0.00613909278658
-0.000766015014516
-0.00600227005404
-0.00078529837061
-0.00586271786394
-0.000802292106215
-0.00572080505353
-0.000817104013922
-0.00557688145838
-0.000829840311239
-0.00543127858393
-0.000840605042701
-0.00528431010039
-0.00084949955142
-0.00513627267204
-0.000856622115782
-0.00498744657746
-0.000862067681196
-0.00483809658838
-0.00086592775272
-0.00468847260321
-0.000868290392815
-0.00453881046643
-0.000869240361714
-0.00438933250928
-0.00086885935057
-0.00424024821525
-0.000867226321847
-0.0040917545853
-0.000864417913133
-0.00394403658771
-0.000860508899717
-0.00379726730549
-0.000855572676856
-0.0036516081517
-0.000849681747552
-0.00350720880177
-0.000842908184559
-0.00336420720112
-0.000835324050317
-0.00322272932769
-0.000827001751772
-0.00308288905389
-0.000818014320122
-0.00294478781238
-0.000808435602165
-0.00280851439391
-0.000798340362952
-0.00267414460008
-0.000787804293413
-0.00254174105916
-0.000776903934347
-0.00241135294199
-0.000765716514881
-0.0022830158638
-0.000754319725907
-0.00215675172115
-0.000742791426467
-0.00203256872568
-0.000731209310306
-0.00191046139635
-0.000719650527353
-0.00179041074697
-0.000708191291401
-0.00167238444602
-0.000696906462367
-0.00155633715937
-0.000685869137262
-0.00144221087009
-0.000675150232349
-0.00132993535989
-0.00066481809231
-0.00121942866325
-0.000654938104765
-0.00111059765477
-0.000645572360268
-0.00100333858542
-0.000636779339439
-0.000897537717409
-0.000628613675893
-0.000793071880211
-0.000621125997046
-0.000689809177091
-0.00061436295133
-0.000587609812888
-0.000608367342406
-0.000486327372655
-0.000603178594057
-0.000385812128989
-0.000598833221818
-0.00028591806319
-0.000595355918276
-0.00018653982376
-0.000592604003381
-8.81009574712e-05
-0.000587559099434
-0.000526855772814
-0.000433266541987
0.00280469541413
-0.000912934549827
0.00310750753035
-0.00138969473497
0.00309348979529
-0.00185805693726
0.00304617089353
-0.00231524983252
0.00298271335772
-0.00275892298838
0.002905303548
-0.0031870478396
0.0028154583042
-0.0035979273409
0.00271476798679
-0.00399019612644
0.00260487431523
-0.00436280739483
0.00248741072634
-0.00471500905602
0.0023639506437
-0.00504631276297
0.00223596744805
-0.00535645897819
0.00210480698728
-0.00564538113807
0.00197167157193
-0.00591317098552
0.00183761425166
-0.00616004691064
0.00170354104312
-0.00638632603524
0.00157021940307
-0.00659240077399
0.00143829053382
-0.00677871961761
0.00130828420801
-0.00694577220513
0.00118063420854
-0.00709407790907
0.00105569375948
-0.00722417773652
0.000933749646743
-0.00733662859323
0.000815035021713
-0.00743199970098
0.00069974005817
-0.00751087023185
0.000588020897451
-0.00757382806335
0.000480006374518
-0.00762146884004
0.000375803241345
-0.00765439542365
0.000275499565696
-0.00767321708593
0.000179167157758
-0.00767854868361
8.68627372992e-05
-0.00767100960809
-1.37084459007e-06
-0.00765122208868
-8.55059087883e-05
-0.00761980947906
-0.000165527595628
-0.00757739474087
-0.000241435305218
-0.00752459806918
-0.000313242463195
-0.00746203489555
-0.000380976337738
-0.00739031365402
-0.000444677595702
-0.00731003378617
-0.000504399944231
-0.0072217836413
-0.000560209334493
-0.00712613870506
-0.000612183266952
-0.00702365980363
-0.000660409700471
-0.00691489168629
-0.000704986099269
-0.00680036163152
-0.000746018143143
-0.00668057845338
-0.000783618621416
-0.00655603155432
-0.000817906053569
-0.00642719037591
-0.000849003534887
-0.00629450389918
-0.000877037367543
-0.00615840052503
-0.000902135952504
-0.0060192879944
-0.000924428519222
-0.00587755365669
-0.000944044144458
-0.00573356475583
-0.000961110656785
-0.00558766902154
-0.000975753855831
-0.00544019524451
-0.000988096661161
-0.00529145409988
-0.000998258595045
-0.00514173890775
-0.00100635523098
-0.00499132657483
-0.00101249798615
-0.00484047841817
-0.00101679390034
-0.00468944109667
-0.00101934574869
-0.0045384473686
-0.00102025214065
-0.00438771688995
-0.00101960791975
-0.00423745679398
-0.00101750452397
-0.00408786226075
-0.00101403059111
-0.00393911684378
-0.00100927247854
-0.00379139276292
-0.00100331495875
-0.00364485095786
-0.000996241773642
-0.00349964111223
-0.00098813629343
-0.00335590146755
-0.00097908198321
-0.00321375863749
-0.000969162916533
-0.00307332726047
-0.000958464062611
-0.00293470969576
-0.000947071584331
-0.00279799561316
-0.00093507289978
-0.00266326167299
-0.000922556743944
-0.00253057115077
-0.000909613007114
-0.00239997369037
-0.000896332582571
-0.00227150504128
-0.000882807020603
-0.00214518694914
-0.000869128214049
-0.00202102705554
-0.000855387926928
-0.00189901896009
-0.000841677378951
-0.00177914230342
-0.000828086710276
-0.00166136300966
-0.000814704523207
-0.00154563355068
-0.000801617336867
-0.00143189335767
-0.000788909133549
-0.00132006924848
-0.000776660846132
-0.00121007598286
-0.000764949947965
-0.00110181682867
-0.000753850010266
-0.000995184221736
-0.000743430372535
-0.000890060441185
-0.000733755816828
-0.000786318391449
-0.000724886377397
-0.000683822382312
-0.000716877164932
-0.000582429289246
-0.000709778437921
-0.000481990203979
-0.000703635586282
-0.000382352501328
-0.000698488188451
-0.000283364991948
-0.000694359745598
-0.000184909730287
-0.000691076044132
-8.73754002516e-05
-0.000685110105449
-0.000614238960318
-0.000448589925744
0.00325328332051
-0.000944954981538
0.00360387153935
-0.00143782080657
0.00358635356629
-0.00192129286023
0.00352964099791
-0.00239233888641
0.00345375701742
-0.00284841588816
0.00336137798586
-0.00328737235851
0.00325441185389
-0.00370745578452
0.00313484815688
-0.00410730674649
0.00300472159753
-0.00448593584285
0.00286603572396
-0.00484268829817
0.00272069850711
-0.005177200722
0.00257047480554
-0.00548935485113
0.00241695550548
-0.0057792315534
0.00226154215503
-0.00604706822298
0.00210544422579
-0.00629322088026
0.00194968647983
-0.00651813235168
0.00179512306283
-0.00672230626763
0.00164245611162
-0.00690628713366
0.00149225614602
-0.00707064536895
0.00134498300075
-0.00721596711278
0.00120100548443
-0.0073428474203
0.00106061944308
-0.00745188660071
0.000924063140789
-0.00754368834202
0.000791530276921
-0.00761885950773
0.000663180024025
-0.00767801040739
0.000539144811674
-0.00772175564015
0.000419535535498
-0.00775071454562
0.000304445150845
-0.00776551160731
0.000193950466726
-0.00776677608679
8.81131244905e-05
-0.00775514117142
-1.30202399838e-05
-0.00773124317519
-0.000109418678345
-0.00769571968615
-0.000201066200608
-0.0076492074694
-0.000287962890874
-0.00759234051932
-0.000370125082566
-0.00752574763543
-0.000447585105599
-0.00745005024331
-0.000520391132958
-0.00736586000131
-0.00058860651072
-0.00727377676662
-0.000652309118422
-0.00717438646669
-0.000711590264017
-0.00706825940263
-0.000766553653771
-0.00695594853508
-0.000817313975665
-0.00683798823377
-0.000863995615745
-0.00671489305046
-0.000906731071086
-0.00658715695617
-0.00094565955076
-0.00645525261728
-0.000980925350273
-0.00631963111601
-0.00101267645889
-0.00618072170859
-0.00104106300572
-0.00603893199422
-0.00106623597372
-0.00589464810893
-0.00108834581069
-0.00574823528627
-0.00110754133839
-0.00560003841729
-0.00112396861308
-0.00545038291977
-0.00113777011214
-0.00529957556572
-0.0011490839231
-0.00514790554555
-0.00115804328019
-0.00499564543401
-0.00116477614147
-0.00484305230812
-0.001169405118
-0.00469036870081
-0.00117204745896
-0.00453782362149
-0.00117281536623
-0.00438563334975
-0.00117181634786
-0.00423400222382
-0.00116915384757
-0.0040831231586
-0.00116492786494
-0.00393317811424
-0.00115923577289
-0.00378433828101
-0.00115217305596
-0.0036367642059
-0.00114383415658
-0.00349060565685
-0.00113431316905
-0.00334600145431
-0.00112370456037
-0.00320307909023
-0.00111210368045
-0.00306195436391
-0.0010996072425
-0.00292273087104
-0.00108631356299
-0.00278549956766
-0.00107232274814
-0.00265033825336
-0.00105773664139
-0.00251731118166
-0.00104265872428
-0.00238646864326
-0.00102719380646
-0.00225784671239
-0.00101144769655
-0.00213146700209
-0.000995526704026
-0.00200733659897
-0.000979537157625
-0.00188544802498
-0.000963584799353
-0.00176577937845
-0.000947774228032
-0.00164829450664
-0.000932208257858
-0.00153294334522
-0.000916987351693
-0.00141966228587
-0.000902209001414
-0.00130837469223
-0.000887967199998
-0.00119899143582
-0.000874351886426
-0.00109141156416
-0.000861448493909
-0.000985522975223
-0.000849337495384
-0.000881203219688
-0.000838094057442
-0.000778320299642
-0.000827787710078
-0.000676733676806
-0.000818482158237
-0.000576295373326
-0.000810234983772
-0.000476851178299
-0.000803097428362
-0.000378242965445
-0.000797113724312
-0.000280312046347
-0.000792308020151
-0.000182926762364
-0.000788477706701
-8.64523166032e-05
-0.000781600814769
-0.000700699547033
-0.000466966152438
0.00372024813574
-0.000983336181588
0.00412023959681
-0.00149544392706
0.00409846009637
-0.00199688918834
0.00403108446008
-0.00248431323859
0.00394117919969
-0.00295494143281
0.00383200393689
-0.00340648288765
0.00370595077234
-0.00383713452724
0.00356549685482
-0.00424556469264
0.00341314841925
-0.00463087586997
0.00325134307695
-0.00499255268341
0.0030823710243
-0.00533040231382
0.00290831959602
-0.00564449296161
0.00273104079701
-0.00593509533279
0.00255213858357
-0.00620262993697
0.00237297234625
-0.00644762241278
0.00219467186239
-0.00667066709724
0.00201816010538
-0.0068723991393
0.00184417989627
-0.00705347392146
0.00167332212894
-0.00721455328454
0.00150605295838
-0.00735629684658
0.00134273911875
-0.00747935782489
0.00118366990926
-0.0075843816816
0.00102907599244
-0.00767200719508
0.000879144232766
-0.0077428684734
0.000734029289143
-0.00779759778618
0.00059386159787
-0.00783682800491
0.000458752814275
-0.00786119485794
0.000328798595807
-0.00787133812026
0.000204079953139
-0.00786790225026
8.4663055668e-05
-0.00785153555601
-2.94014552387e-05
-0.00782289014593
-0.000138078982499
-0.00778261942146
-0.000241352095347
-0.0077313762978
-0.000339221513951
-0.00766981071145
-0.000431706403299
-0.00759856725144
-0.00051884458683
-0.00751828246144