/*--------------------------------*- C++ -*----------------------------------*\
| =========                 |                                                 |
| \\      /  F ield         | OpenFOAM: The Open Source CFD Toolbox           |
|  \\    /   O peration     | Version:  v1906                                 |
|   \\  /    A nd           | Web:      www.OpenFOAM.com                      |
|    \\/     M anipulation  |                                                 |
\*---------------------------------------------------------------------------*/
FoamFile
{
    version     2.0;
    format      ascii;
    class       volScalarField;
    location    "65";
    object      p;
}
// * * * * * * * * * * * * * * * * * * * * * * * * * * * * * * * * * * * * * //

dimensions      [0 2 -2 0 0 0 0];


internalField   nonuniform List<scalar> 
9216
(
306.382931181
306.470734609
306.65270694
306.930324575
307.302309289
307.766974477
308.322671367
308.96683654
309.697286589
310.51098256
311.405230273
312.376326962
313.421233554
314.536147891
315.717995035
316.962550617
318.2668224
319.626609874
321.038790335
322.498752149
324.003393243
325.548047282
327.129711434
328.743815929
330.387524465
332.056218012
333.746580385
335.453574523
337.175372281
338.907577132
340.647334289
342.388001751
344.126666137
345.860540412
347.587246759
349.300760631
350.998432334
352.675086549
354.32829155
355.953252784
357.547675123
359.106511168
360.627851104
362.107819737
363.544747368
364.934702478
366.276687404
367.567710919
368.807265548
369.99310983
371.125548776
372.203036803
373.226639303
374.195797105
375.112210925
375.976079314
376.78968809
377.554022604
378.271762683
378.944038627
379.573937385
380.163042694
380.71441521
381.229732831
381.711882923
382.161983621
382.582551335
382.975528618
383.343567272
383.688055661
384.01138183
384.314567333
384.599455705
384.866925214
385.11852232
385.35468338
385.576612635
385.784617274
385.979725751
386.162247341
386.332922475
386.491822561
386.639580351
386.776130629
386.901980448
387.016990409
387.122166515
387.218949511
387.304625768
387.373717529
387.423628979
387.457304835
387.479685924
387.493493904
387.500953773
387.503649415
306.295606551
306.383759927
306.565957176
306.844530529
307.217888365
307.684374583
308.242095161
308.8885799
309.621467178
310.437889388
311.334891676
312.309067172
313.357194417
314.475722972
315.660880507
316.90874166
318.216146764
319.579453097
320.995157164
322.45881172
323.966934545
325.515219759
327.100131597
328.717750569
330.364725769
332.036895668
333.730735173
335.441590099
337.166609342
338.902315165
340.644621997
342.388902232
344.131834175
345.869665417
347.599364113
349.316267576
351.017039446
352.697264076
354.353747514
355.982168543
357.579151814
359.141008215
360.665101015
362.147865236
363.587064182
364.979176527
366.322565601
367.615189325
368.855600464
370.042318795
371.174987625
372.252618291
373.275674049
374.244286696
375.159535803
376.022262542
376.83432193
377.597138802
378.312715515
378.982944529
379.610600852
380.197669727
380.74677609
381.259976923
381.740086916
382.188517316
382.60715259
382.998394832
383.364530539
383.707484623
384.029346116
384.331357745
384.615000343
384.881534257
385.132242996
385.367719454
385.588913471
385.796315022
385.990786538
386.172888024
386.343005386
386.501510301
386.648855097
386.785008289
386.910351766
387.024897826
387.12908596
387.223425832
387.308070389
387.377828124
387.427886191
387.461120289
387.483004423
387.496580339
387.503541736
387.506266041
306.113898329
306.203217669
306.386883621
306.667685704
307.043953202
307.514046195
308.075978281
308.727290497
309.465393472
310.287514314
311.190492905
312.170958252
313.225592576
314.350761131
315.54284105
316.797971649
318.112685294
319.483139906
320.905607504
322.376285753
323.891356509
325.446846512
327.038980737
328.663894724
330.317952074
331.997434342
333.698208468
335.415887966
337.147895751
338.890506287
340.639652951
342.391189089
344.141463023
345.887104993
347.623916085
349.347801974
351.055523711
352.742741589
354.405717413
356.040668127
357.644035616
359.212279896
360.742152995
362.230314756
363.673952405
365.070167788
366.417443161
367.713258173
368.955541875
370.143736982
371.277190198
372.354625331
373.376636401
374.343857914
375.256892953
376.116930565
376.925673948
377.684822928
378.396437555
379.062644127
379.685957145
380.268688265
380.813396694
381.322506986
381.798396651
382.242669759
382.657272057
383.044703479
383.40725587
383.746866266
384.06578434
384.365335229
384.646482787
384.91112946
385.160320319
385.394352017
385.614140897
385.820339612
386.013404857
386.194557311
386.364088614
386.521883208
386.668454031
386.803694907
386.927892064
387.041601265
387.144138589
387.235287605
387.317037886
387.386725065
387.436650442
387.468282838
387.489530924
387.503168652
387.510522756
387.514099578
305.834605763
305.925168605
306.111124478
306.395402948
306.77625539
307.251988414
307.820459459
308.479168153
309.225422435
310.056261724
310.968545408
311.958830059
313.023623285
314.159211268
315.361768165
316.627623407
317.953197421
319.334623605
320.768064268
322.249709925
323.775700598
325.34227285
326.945438354
328.581348899
330.246249695
331.936030945
333.647138668
335.375654594
337.118384857
338.87205612
340.63212379
342.39456866
344.15613946
345.912840529
347.66072087
349.395953344
351.114848282
352.812867138
354.486029751
356.131147246
357.744403434
359.322504643
360.861250463
362.356678348
363.807427648
365.210133883
366.562419344
367.862521934
369.108365606
370.298933877
371.433309303
372.51097755
373.5323285
374.49739169
375.406951018
376.262686541
377.066385091
377.819911989
378.525409069
379.185135194
379.801712848
380.377602773
380.915444565
381.417844079
381.887057544
382.324807361
382.733081445
383.114685098
383.471859132
383.806790923
384.121431888
384.416922276
384.694833386
384.956606484
385.202910202
385.434523634
385.652241624
385.856689875
386.048489314
386.228219081
386.396040503
386.552238584
386.697379833
386.831057948
386.954153337
387.066690496
387.166404581
387.255765822
387.335417809
387.40128502
387.448736198
387.480720467
387.50214272
387.516373885
387.524027179
387.528038669
305.456712038
305.548857487
305.737968145
306.026999566
306.414126027
306.897531751
307.475030019
308.143906119
308.901232666
309.744058499
310.669038059
311.672656187
312.751160493
313.900707271
315.117586267
316.398090849
317.738380399
319.134575163
320.582773836
322.079263048
323.619986752
325.201110743
326.819159296
328.469761841
330.148877768
331.852738662
333.578130553
335.321313026
337.078576653
338.846744465
340.621672812
342.399320919
344.176186389
345.947918507
347.710576575
349.46077913
351.194257161
352.907107081
354.594718362
356.253814764
357.880072977
359.469794407
361.019895075
362.526453718
363.987289197
365.398999284
366.759516303
368.065845354
369.316260592
370.510046393
371.645912643
372.723570058
373.743123575
374.705308406
375.610514221
376.460147917
377.256889463
378.002678714
378.699799438
379.350531859
379.957892474
380.524340642
381.052832462
381.546416465
382.00626698
382.434329235
382.833734358
383.207551261
383.557450972
383.886132012
384.195385887
384.486008755
384.759297386
385.016816501
385.259521248
385.488100921
385.703074041
385.904944745
386.094502543
386.271967787
386.437679392
386.592520792
386.736088252
386.868066535
386.989363447
387.099486751
387.197512048
387.284904291
387.361565634
387.422583727
387.467578981
387.500029798
387.522206897
387.537488459
387.545319566
387.54943981
304.978454674
305.072614395
305.265791502
305.560959915
305.956170965
306.449454274
307.038441383
307.720373247
308.492011249
309.350139834
310.291331227
311.311861559
312.407762906
313.575107427
314.810241974
316.109216963
317.46810086
318.882980111
320.349758456
321.864607336
323.423870896
325.023628761
326.660232372
328.329009854
330.025587762
331.747471084
333.491082674
335.252480416
337.028409252
338.815195159
340.609017206
342.405398826
344.200664495
345.991301937
347.773245579
349.542694329
351.294788084
353.025945302
354.731171672
356.406903533
358.049696897
359.655364055
361.220858395
362.742416517
364.216221026
365.639127143
367.009241573
368.323573774
369.580752307
370.778604186
371.916162147
372.993691079
374.010904502
374.96897027
375.86809667
376.710063476
377.497890345
378.233790953
378.919921371
379.558806572
380.154131409
380.708724599
381.225736465
381.706380455
382.151666376
382.566885198
382.956232125
383.3206903
383.661647129
383.983054832
384.286002222
384.570222353
384.837645244
385.090664734
385.329512142
385.554444538
385.765737244
385.964641008
386.151744368
386.32666164
386.490146513
386.642769744
386.783644097
386.91332495
387.032395071
387.140040501
387.236561326
387.322126836
387.395050827
387.451834634
387.495489119
387.528261258
387.551251485
387.566442708
387.575860714
387.579947343
304.397625806
304.494300239
304.692541625
304.995342268
305.400602432
305.906125473
306.509364204
307.207349374
307.996604392
308.873610406
309.834747674
310.875861047
311.992969079
313.182183143
314.439490601
315.760872352
317.142295065
318.579577647
320.068746031
321.606093247
323.187741068
324.809925748
326.46845313
328.158687723
329.876757991
331.620252365
333.385857987
335.169619881
336.967856754
338.777131756
340.593180939
342.411973436
344.230235438
346.043829743
347.848973897
349.64123814
351.415683011
353.168393557
354.894784439
356.591664795
358.255299017
359.881549745
361.46590534
363.004525076
364.494380922
365.932141045
367.314352283
368.638299119
369.902783472
371.105737443
372.246281899
373.323459123
374.337342403
375.289923368
376.181183341
377.013733689
377.789910251
378.512760245
379.184947898
379.809182166
380.390745865
380.928427043
381.425822041
381.887965215
382.317472514
382.719722856
383.097286572
383.450105338
383.781035073
384.094358886
384.390032108
384.667256214
384.9289067
385.176237789
385.410452223
385.631892253
385.839804006
386.035004256
386.218920987
386.391071539
386.551786231
386.701821262
386.84012357
386.967351505
387.083929618
387.189729585
387.284241101
387.366073714
387.434773748
387.489979827
387.533432869
387.566592988
387.590264324
387.604262868
387.615145067
387.619440588
303.711571902
303.811276444
304.015666028
304.327729499
304.745134027
305.265541782
305.886007571
306.603342715
307.413752995
308.31343223
309.298299272
310.364047064
311.506519355
312.721577776
314.005084341
315.352943787
316.760761933
318.224402935
319.740031394
321.303710333
322.911579087
324.559867802
326.243383602
327.958455397
329.702416095
331.471599407
333.262987521
335.072804758
336.896890181
338.731726033
340.573998732
342.419633816
344.264926158
346.105278734
347.936927014
349.755639411
351.556261533
353.334518863
355.086909415
356.810134303
358.498539066
360.147978678
361.755005889
363.315557721
364.824627598
366.278850578
367.675725615
369.012273448
370.286190343
371.495076009
372.638072796
373.714257457
374.72450046
375.669547322
376.551018169
377.371140008
378.132803991
378.840429129
379.497014485
380.101268643
380.657677593
381.170581066
381.64743715
382.091217933
382.504683052
382.890666331
383.254168629
383.594935159
383.915053282
384.219360134
384.50618223
384.775375586
385.030974082
385.273149541
385.502548205
385.719134053
385.922738839
386.114913897
386.295985139
386.464497297
386.622465603
386.76957654
386.905437109
387.030532895
387.144827542
387.248236183
387.33903711
387.417716967
387.484732079
387.539036109
387.581616375
387.614283177
387.638980843
387.65266074
387.663177184
387.667885181
302.916984106
303.020315041
303.232075332
303.555242504
303.987166739
304.525255971
305.166244374
305.906527543
306.741932805
307.668264953
308.681116698
309.775777848
310.947922911
312.193117649
313.506912664
314.885172479
316.32352475
317.817701703
319.363706501
320.95762041
322.595697248
324.272898692
325.985119011
327.729375932
329.502486837
331.301255377
333.122197589
334.961195127
336.81463453
338.679471715
340.55193813
342.428196713
344.303786842
346.174799688
348.037228418
349.886050956
351.71670835
353.52545553
355.308943585
357.061800622
358.779034451
360.45698489
362.091099881
363.676193844
365.207761487
366.682837267
368.097713301
369.448531041
370.732543116
371.948459381
373.094273887
374.16929496
375.174462603
376.11053062
376.979885465
377.784757427
378.529487319
379.21968322
379.848291424
380.420541929
380.94932814
381.438894424
381.893457468
382.316160681
382.70955597
383.078555082
383.427380506
383.753234733
384.061614274
384.355425403
384.632567444
384.893920432
385.142878634
385.379324289
385.60340222
385.8154703
386.01562859
386.204364218
386.381067111
386.547032344
386.702152297
386.846579219
386.979755456
387.10235762
387.213847087
387.314191723
387.402906019
387.48019637
387.544884447
387.597508937
387.639680011
387.671718648
387.695845234
387.712292036
387.721029148
387.726478733
302.009908976
302.117548177
302.338062169
302.674389997
303.123557809
303.68251552
304.347645648
305.114847363
305.979465617
306.936764876
307.982097425
309.110298406
310.316512233
311.596215943
312.944845255
314.357880544
315.830892282
317.359599776
318.939912915
320.567969777
322.23944211
323.949519313
325.694212159
327.471247595
329.277451061
331.109323258
332.962906594
334.834664947
336.721549623
338.6200626
340.526613618
342.436744686
344.346662482
346.252384141
348.149017109
350.032113407
351.898099707
353.742199814
355.559993858
357.347436995
359.099388548
360.809859396
362.474197762
364.088380771
365.647795
367.146684819
368.581460066
369.949440191
371.246130477
372.469934588
373.618533965
374.692224837
375.69070684
376.616255081
377.470277795
378.2573349
378.981881561
379.637679834
380.227953813
380.770346767
381.270256311
381.732080382
382.160317607
382.558194951
382.929772506
383.280006736
383.609896315
383.922034574
384.217852356
384.49951291
384.766431554
385.019776285
385.26188228
385.492870061
385.711732012
385.919282326
386.115615543
386.300572306
386.474068871
386.637143016
386.789772947
386.931975573
387.062594531
387.182891565
387.291447308
387.389505397
387.476381343
387.550925814
387.613440602
387.665462635
387.707713466
387.740074548
387.763236099
387.781834816
387.790290685
387.795954439
300.985681468
301.0983854
301.329249106
301.681097434
302.150550561
302.734043575
303.427424996
304.226006674
305.124578204
306.117630976
307.200128655
308.366652908
309.611880848
310.930801529
312.318758672
313.770989327
315.282950868
316.85029252
318.468878327
320.134873
321.843094184
323.589427523
325.370952493
327.184532776
329.027306351
330.895270383
332.784990377
334.693533485
336.61732245
338.553203905
340.497042286
342.444978394
344.393205345
346.336927859
348.271816536
350.194407314
352.099964559
353.98361117
355.841710624
357.669153643
359.459259188
361.206795445
362.907456277
364.555847754
366.145986248
367.672375743
369.131918486
370.519309253
371.830521947
373.063485288
374.215616704
375.287163428
376.277806938
377.190236123
378.026769244
378.790441024
379.474852471
380.085520323
380.640998374
381.150185161
381.615766905
382.044419246
382.441957799
382.813804814
383.16309296
383.490407036
383.801875683
384.097671459
384.379828112
384.648453477
384.904086486
385.150631214
385.388137776
385.612573456
385.825004702
386.027794292
386.220370651
386.40148709
386.573350398
386.735442297
386.885530944
387.024548672
387.153530122
387.271230777
387.377979766
387.474085884
387.558884254
387.631072262
387.691792654
387.743459776
387.785200142
387.817862375
387.842080298
387.859558261
387.870563353
387.8754336
299.838542594
299.957410737
300.200525302
300.570619375
301.06389887
301.676124294
302.402440409
303.237427314
304.175160662
305.209474408
306.334519368
307.544386675
308.83356549
310.196739059
311.628770694
313.124746923
314.680009771
316.29014088
317.951010792
319.658279866
321.407214858
323.193575825
325.015285265
326.869213218
328.751567743
330.659042329
332.588838461
334.537685542
336.501696037
338.477699957
340.462810705
342.45242115
344.442128686
346.42778158
348.406068758
350.372433502
352.322144802
354.25120905
356.154707559
358.026216068
359.85978491
361.651212858
363.392815867
365.079170586
366.705611893
368.264733217
369.752080804
371.161971237
372.490766114
373.734194347
374.890805146
375.959113123
376.940638619
377.837498558
378.650083752
379.368340969
380.00415908
380.573219561
381.089173514
381.556114348
381.979986176
382.37341249
382.74006684
383.082104069
383.401618288
383.706629097
383.99778429
384.27679461
384.543483622
384.798572903
385.046952452
385.288240209
385.516502596
385.732740576
385.941218552
386.140797205
386.330761332
386.510559679
386.680742077
386.838992549
386.987284827
387.12509323
387.251982143
387.368293961
387.473269531
387.567438717
387.649703982
387.719648734
387.779814251
387.831100654
387.87209864
387.904238356
387.929333532
387.946655979
387.958041797
387.962857584
298.561773398
298.687988496
298.945628625
299.337386178
299.858686037
300.504544034
301.269203114
302.14632714
303.129093092
304.210526904
305.384050196
306.643090822
307.981644172
309.394182136
310.875198138
312.419587973
314.022590273
315.67977229
317.387047744
319.138784529
320.931556829
322.762413911
324.628070199
326.525128547
328.450315958
330.401061272
332.374212665
334.366018953
336.373419573
338.393951263
340.423534712
342.457701346
344.49260472
346.525163955
348.550967699
350.565641127
352.565710411
354.544716418
356.497586064
358.419140931
360.303257882
362.142927945
363.930963273
365.662490294
367.329839821
368.926394738
370.446011978
371.883118972
373.232277345
374.488876663
375.649931621
376.714959735
377.685478562
378.563179082
379.327656397
379.992078381
380.581061171
381.100265193
381.565339357
381.983416342
382.36393737
382.717263227
383.044620164
383.349458139
383.642473807
383.922745065
384.193573777
384.453941542
384.704701705
384.951608243
385.193900925
385.42427195
385.643362986
385.856386492
386.061819243
386.258706805
386.446396979
386.624373786
386.792500708
386.949882815
387.096349
387.232430377
387.35798924
387.472992445
387.576362872
387.668118374
387.748923194
387.818077808
387.877747331
387.927269529
387.967428503
387.999001517
388.023127659
388.041259404
388.05112285
388.056996519
297.147686412
297.282417899
297.557441716
297.974984328
298.529304895
299.214578646
300.023897872
300.949772957
301.984251953
303.119418215
304.347842623
305.662243922
307.056076402
308.523459705
310.058579323
311.656160481
313.311362776
315.019523377
316.776558174
318.577543888
320.417935325
322.296095841
324.208890561
326.152595902
328.124111423
330.12125726
332.140323763
334.178166027
336.232817277
338.300613529
340.377577971
342.459782623
344.544610361
346.627984819
348.705507933
350.774348938
352.828371083
354.862391625
356.872202757
358.849722637
360.788810478
362.683870087
364.525593641
366.307179057
368.022240824
369.662260767
371.219797316
372.689074225
374.063191999
375.335535887
376.501798989
377.563389252
378.520544933
379.35320753
380.058430422
380.669895228
381.199486375
381.658063962
382.064609758
382.429013051
382.755559719
383.061111358
383.344701374
383.615289486
383.879661831
384.134227557
384.382833866
384.624296132
384.865447564
385.105692709
385.335447044
385.555570773
385.771701894
385.981898217
386.184947316
386.379884974
386.565914339
386.74251398
386.909398517
387.065859475
387.211599137
387.345444178
387.469131207
387.584437972
387.686156493
387.775651278
387.856166149
387.92379911
387.982235756
388.030363319
388.068810172
388.099757527
388.122683837
388.139928154
388.151251682
388.156512392
295.587059222
295.731840623
296.027555599
296.475835729
297.069412414
297.800974256
298.662402722
299.644729658
300.738518992
301.934890201
303.225384213
304.601894297
306.057279127
307.585280822
309.179809858
310.835474371
312.547258199
314.310683827
316.121072362
317.974216731
319.866599161
321.795816578
323.758529963
325.751644578
327.77291466
329.819002922
331.887129385
333.974446363
336.078380835
338.195921331
340.323755727
342.458465667
344.596894403
346.735294526
348.869759634
350.996031771
353.109139543
355.205274381
357.276621656
359.316233588
361.318807852
363.275374126
365.17765422
367.017379125
368.786702219
370.476191273
372.078552218
373.586960336
374.992131028
376.284058034
377.45635675
378.515711491
379.427912617
380.207180567
380.856581774
381.401098285
381.857152228
382.243737417
382.582723465
382.876681368
383.142872567
383.397636669
383.634680446
383.869453996
384.101584724
384.33198387
384.560287793
384.790445936
385.023209113
385.249701341
385.46795513
385.68556882
385.899280594
386.107522444
386.30922525
386.503082333
386.688099004
386.863823279
387.03007277
387.18572587
387.33050724
387.461727722
387.587411919
387.702286267
387.801908872
387.890506902
387.969482027
388.035901108
388.094418809
388.140710167
388.17712415
388.205808425
388.22819279
388.244092598
388.25587408
388.259348665
293.868596113
294.025675205
294.346042556
294.830910352
295.471451632
296.257946142
297.180366755
298.228283974
299.390319393
300.656191352
302.016503869
303.462512793
304.986145521
306.580817569
308.240207381
309.958749829
311.731683699
313.554336295
315.4221132
317.330811859
319.278080984
321.261420575
323.277460883
325.323231641
327.39642727
329.494269425
331.614108447
333.753466749
335.909758812
338.080329875
340.26222679
342.452492297
344.647963282
346.845246444
349.040420468
351.228986922
353.407969643
355.57071975
357.710548325
359.820167041
361.891913132
363.918404354
365.889132284
367.794899936
369.626222013
371.373883261
373.029258385
374.584487346
376.027674166
377.347189781
378.524649469
379.553106274
380.405117394
381.159012013
381.739659916
382.197019307
382.562089157
382.86286723
383.100081354
383.308312187
383.512512611
383.705702506
383.898778507
384.097151261
384.304321039
384.513392367
384.722625928
384.940504811
385.161167937
385.378710522
385.595197744
385.811683935
386.024186069
386.231761587
386.433395269
386.627156327
386.811733893
386.986770402
387.152561264
387.306619358
387.45108084
387.586508108
387.714783466
387.827108603
387.924694774
388.012470154
388.090028784
388.155204706
388.212049813
388.256085239
388.291139575
388.318099339
388.338999872
388.354062898
388.363824861
388.366544538
291.978935064
292.151123863
292.501505879
293.030337445
293.726824913
294.578770586
295.573168401
296.697350851
297.938095366
299.283283537
300.722097103
302.245232397
303.844219293
305.511879762
307.241476348
309.027723583
310.866184492
312.751777037
314.680516694
316.648840769
318.654188171
320.694138928
322.766087374
324.86701408
326.994886686
329.146973589
331.321009173
333.514826818
335.726110788
337.952429902
340.191332369
342.440099009
344.695991036
346.955785391
349.21601396
351.472370352
353.720689248
355.956905875
358.172129119
360.359263606
362.509722862
364.613849645
366.662413396
368.64325782
370.545796474
372.359718723
374.076460727
375.687775327
377.183448864
378.547075509
379.683594851
380.695679276
381.487037487
382.291415352
382.732711175
382.978224097
383.154284043
383.31164548
383.465335482
383.621703535
383.78337166
383.949150518
384.114909435
384.280821205
384.463873581
384.65493189
384.85872017
385.071634297
385.288513174
385.501081658
385.714363336
385.931996894
386.14481719
386.353011304
386.556176241
386.750794296
386.934726895
387.107630873
387.273529023
387.432878287
387.584958074
387.723614381
387.847706592
387.956548666
388.051341001
388.140299637
388.216219444
388.279518604
388.333569946
388.376123404
388.409929494
388.435308939
388.453321208
388.466816024
388.475665702
388.478746661
289.902066798
290.09282577
290.480088024
291.062636881
291.826576399
292.756653797
293.836241248
295.049395603
296.380724526
297.81614146
299.343429644
300.952193384
302.633785127
304.380577969
306.186128266
308.044936895
309.952893835
311.905053007
313.898036091
315.929435035
317.995441141
320.094566412
322.224924167
324.383544169
326.568294181
328.777277892
331.007470359
333.257993253
335.526489279
337.810992999
340.109354887
342.419370428
344.738583663
347.064335683
349.393338094
351.721474185
354.046499007
356.36153977
358.659433125
360.932127899
363.170645155
365.363765777
367.499383644
369.565992356
371.549395653
373.438520356
375.22502299
376.904613931
378.479200037
379.902563737
380.935106138
382.051571096
382.506603013
382.709883983
382.9158784
383.099795257
383.258185978
383.407653947
383.560053976
383.716558884
383.87877624
384.045721774
384.212327707
384.383988497
384.571158177
384.772070989
384.973500061
385.17898567
385.397038814
385.601999629
385.816979702
386.04358723
386.258818832
386.468642621
386.675934961
386.872299016
387.054966399
387.232023895
387.409473312
387.57499991
387.726258582
387.862869016
387.983415946
388.08716327
388.185743781
388.275774381
388.347712236
388.408847045
388.459564367
388.50115283
388.533328981
388.556510027
388.571895126
388.583353874
388.591701335
388.595907938
287.617895032
287.831904714
288.265109036
288.913991329
289.760278373
290.784329791
291.965172168
293.282669466
294.718394275
296.256404635
297.882806589
299.586365696
301.358265055
303.190500894
305.077120976
307.013102696
308.994162665
311.016792087
313.077224928
315.173635324
317.303424186
319.464452512
321.655104059
323.873274658
326.11709166
328.384005166
330.672957466
332.982207095
335.309914023
337.654515445
340.014513117
342.387963432
344.773148896
347.167816799
349.569485893
351.974705239
354.379559533
356.780764478
359.169116963
361.536426244
363.873393805
366.167252909
368.403478775
370.566791625
372.642275833
374.614508972
376.473757232
378.235148954
379.934914807
381.582771947
382.113772298
382.34992233
382.599631184
382.741322389
382.900973294
383.072137708
383.236172589
383.395376126
383.555554155
383.721165921
383.895280739
384.076339775
384.262820182
384.457536694
384.658556429
384.861499837
385.059758975
385.266831075
385.481456919
385.689271075
385.912324508
386.139720818
386.353512068
386.57249075
386.790439907
386.990961651
387.180644624
387.368662263
387.548811199
387.715399645
387.867619383
388.003933485
388.120946372
388.227324422
388.33086213
388.415087739
388.48102787
388.54178542
388.589646873
388.630356189
388.660801309
388.682208783
388.696102451
388.705823689
388.712152236
388.717068773
285.101351991
285.345031361
285.836394139
286.568339155
287.516366141
288.654536046
289.956300536
291.396514793
292.952985537
294.60731888
296.344389589
298.152169973
300.021800472
301.946072972
303.918825616
305.935916372
307.993508841
310.08918996
312.22050925
314.38431744
316.579508267
318.804346868
321.057376289
323.336971601
325.640863704
327.968131601
330.317297932
332.686964699
335.075234664
337.481488501
339.904709539
342.34335778
344.796394549
347.262464509
349.739719335
352.225775537
354.717192643
357.209931686
359.696143328
362.167595094
364.615705085
367.02406404
369.375648799
371.65207225
373.830849598
375.885931307
377.808825347
379.644153009
381.386170741
381.888584567
382.196787924
382.325704677
382.512339122
382.68091099
382.853886633
383.028092692
383.197237871
383.362880835
383.532114791
383.711711039
383.900976857
384.096300346
384.296388048
384.502009518
384.711832198
384.923771482
385.137135719
385.356553822
385.573906521
385.786614729
386.002305477
386.223010195
386.449329781
386.677459256
386.889159384
387.098854046
387.304240171
387.498161604
387.681691201
387.852411182
388.007724319
388.144876736
388.259592174
388.374527786
388.477155649
388.556082027
388.621064341
388.680303356
388.725520078
388.761423681
388.79057313
388.809294743
388.823608521
388.831409976
388.835670821
388.840022177
282.320550928
282.602911009
283.169314093
284.006918344
285.082227356
286.36061919
287.807942674
289.392643126
291.088587251
292.874593551
294.734452933
296.656020815
298.630528621
300.65184033
302.715352142
304.817258609
306.954835427
309.125971303
311.329445394
313.563528211
315.825655777
318.115761562
320.432688664
322.774496532
325.140645643
327.529466886
329.940329719
332.371990488
334.82170586
337.289853733
339.777801128
342.28253738
344.804750676
347.343689179
349.898881303
352.468695718
355.050809433
357.641734201
360.234738533
362.822457764
365.39368053
367.931478262
370.417508216
372.828499581
375.130102131
377.275203224
379.276461814
381.093861979
381.58308783
381.805465709
382.035054271
382.207807865
382.39125075
382.568098865
382.746495434
382.927051017
383.107178219
383.28743968
383.475711559
383.676932284
383.88632293
384.099502998
384.315368266
384.534394924
384.75602115
384.979135916
385.203274786
385.429292947
385.65417349
385.87814565
386.10363794
386.328152385
386.549424168
386.768380365
386.989432896
387.204928903
387.413987707
387.620918928
387.809147285
387.982174048
388.141573982
388.282571765
388.406021552
388.527790059
388.625481633
388.69750649
388.766179695
388.81844396
388.864100746
388.896817
388.921910714
388.940120399
388.95351079
388.958735497
388.961473525
388.963990186
279.23407257
279.568207756
280.233552383
281.207908545
282.444532444
283.89675139
285.520277283
287.275955288
289.132535698
291.066801052
293.06181138
295.106079891
297.192361831
299.31548983
301.472818233
303.662098083
305.881473935
308.130332231
310.407668983
312.712436599
315.043653557
317.400035668
319.781321215
322.187233456
324.616981884
327.068453491
329.54150981
332.035309973
334.548233591
337.080265521
339.631989687
342.202721796
344.794119168
347.406510602
350.040737085
352.696457612
355.372704379
358.067392136
360.77447332
363.489764825
366.199027033
368.88642604
371.533006102
374.107660132
376.569596257
378.856420439
380.86960198
381.336229224
381.495186629
381.65857425
381.848215831
382.013038407
382.179307205
382.35248715
382.537304243
382.732943857
382.935636604
383.144942254
383.365629659
383.59785942
383.835317252
384.073537889
384.311700415
384.550241125
384.788829625
385.026591741
385.262982465
385.498101625
385.731200836
385.962638658
386.193228524
386.421883347
386.648788357
386.874035704
387.094904748
387.306640187
387.51779733
387.730503324
387.927177539
388.100059303
388.26375835