/*--------------------------------*- C++ -*----------------------------------*\
| =========                 |                                                 |
| \\      /  F ield         | OpenFOAM: The Open Source CFD Toolbox           |
|  \\    /   O peration     | Version:  v1906                                 |
|   \\  /    A nd           | Web:      www.OpenFOAM.com                      |
|    \\/     M anipulation  |                                                 |
\*---------------------------------------------------------------------------*/
FoamFile
{
    version     2.0;
    format      ascii;
    class       surfaceScalarField;
    location    "472";
    object      phi;
}
// * * * * * * * * * * * * * * * * * * * * * * * * * * * * * * * * * * * * * //

dimensions      [0 3 -1 0 0 0 0];
oriented        oriented;


internalField   nonuniform List<scalar> 
18240
(
-0.000352334110406
0.000352353598141
-0.000738113300791
0.000385805880254
-0.00112354998817
0.000385455267745
-0.00150401624287
0.000380494545919
-0.00187745093122
0.000373451061321
-0.0022420984682
0.00036467714365
-0.00259645779673
0.000354373481272
-0.00293915268062
0.000342725566557
-0.00326903919195
0.000329898369681
-0.00358508207553
0.000316074388309
-0.00388648591942
0.000301413299055
-0.00417254447941
0.000286090650442
-0.0044427873447
0.000270249889109
-0.00469680307032
0.000254048176582
-0.0049344021989
0.00023760367364
-0.00515541836792
0.000221048769559
-0.00535988931184
0.000204473042181
-0.00554783993367
0.000187983166744
-0.00571948187601
0.000171641592176
-0.00587498166751
0.000155532091193
-0.00601467849079
0.000139694103731
-0.00613883961416
0.000124192996731
-0.00624789490833
0.000109050242125
-0.00634218113424
9.43175109242e-05
-0.00642219134843
8.0002947056e-05
-0.00648830925328
6.61484494862e-05
-0.00654107120369
5.27525348775e-05
-0.00658089174203
3.98502109603e-05
-0.00660833612341
2.74329615255e-05
-0.00662383832112
1.55308764354e-05
-0.00662798244112
4.13078103338e-06
-0.0066212123759
-6.74248425466e-06
-0.00660411786908
-1.71096066518e-05
-0.00657714307901
-2.69484071909e-05
-0.00654087908267
-3.62807640008e-05
-0.00649576604829
-4.50879321785e-05
-0.00644238829768
-5.33960225866e-05
-0.00638117482411
-6.11897273103e-05
-0.00631269620477
-6.84982978751e-05
-0.00623736447833
-7.53093941608e-05
-0.0061557305443
-8.16548551431e-05
-0.00606818473095
-8.75249467973e-05
-0.00597525331671
-9.29534808982e-05
-0.00587730108271
-9.79328692126e-05
-0.00577482585508
-0.000102498280955
-0.00566816421715
-0.000106643805951
-0.00555778285905
-0.000110405305357
-0.00544398854232
-0.000113778034696
-0.00532721528462
-0.000116797948668
-0.00520773954346
-0.000119461023026
-0.00508596215553
-0.000121802736424
-0.00496212963095
-0.000123819373028
-0.00483660999689
-0.000125545500917
-0.00470962098205
-0.000126977431919
-0.00458149881174
-0.000128148477172
-0.00445243400869
-0.000129054782872
-0.00432273240228
-0.000129728226587
-0.00419255918848
-0.000130164752966
-0.00406219132048
-0.000130394731522
-0.00393177045089
-0.000130413960588
-0.00380154607044
-0.000130251374084
-0.00367163790901
-0.000129902802588
-0.00354226910102
-0.000129395870743
-0.0034135386363
-0.000128726654088
-0.00328564400831
-0.000127921661443
-0.00315866428679
-0.000126977465709
-0.00303277161834
-0.000125919621364
-0.00290802552274
-0.000124745403071
-0.002784572761
-0.000123479550486
-0.00266245344215
-0.00012212020537
-0.00254178868396
-0.000120691337067
-0.00242259913811
-0.000119192023923
-0.00230497998135
-0.000117645445937
-0.00218893243618
-0.000116051622612
-0.00207452554648
-0.000114432827701
-0.0019617412708
-0.000112789940575
-0.00185062258902
-0.000111144163157
-0.00174113269593
-0.000109497110032
-0.00163328892637
-0.000107868685542
-0.00152703656103
-0.000106261066071
-0.00142236814608
-0.000104692612764
-0.0013192123743
-0.000103165865576
-0.00121753835698
-0.000101697349233
-0.00111726005903
-0.000100289700403
-0.00101832520764
-9.89572020771e-05
-0.000920635841466
-9.77020697225e-05
-0.000824121839093
-9.65353739831e-05
-0.000728678824597
-9.54570848195e-05
-0.000634228288315
-9.44709510395e-05
-0.000540678578399
-9.35649268322e-05
-0.000447987032559
-9.2710620735e-05
-0.000356183945493
-9.1818870897e-05
-0.000265548640313
-9.06519822041e-05
-0.000177189672319
-8.83744497029e-05
-9.53159777268e-05
-8.18926990745e-05
-9.53265661274e-05
-0.000389446955065
0.000741822767635
-0.000824233377722
0.000820618182772
-0.00125655084707
0.000817795862281
-0.00168256153568
0.000806531036953
-0.00210034610111
0.000791257961266
-0.00250811563132
0.000772472402178
-0.00290422148314
0.000750500716692
-0.00328716076194
0.000725690358265
-0.00365564003542
0.000698397883111
-0.00400853377552
0.000668993226955
-0.00434493611564
0.000637834587939
-0.00466409763058
0.000605276667786
-0.00496547596694
0.000571645746076
-0.00524865778604
0.000537253739127
-0.00551341262847
0.000502374518741
-0.00575960472069
0.000467263704378
-0.00598725319967
0.000432135914797
-0.00619643740135
0.000397189181512
-0.00638736529636
0.000362582222603
-0.00656027464049
0.000328462109922
-0.00671551019063
0.000294940678148
-0.00685342196822
0.000262124215177
-0.00697445080901
0.000230088384227
-0.00707902422823
0.000198909062179
-0.00716764925463
0.000168635534273
-0.00724080596702
0.000139321922931
-0.00729904629348
0.000110998702052
-0.00734288518485
8.37044488227e-05
-0.0073729040447
5.74559537232e-05
-0.00738963941437
3.22801441316e-05
-0.00739368914735
8.1829817291e-06
-0.00738560115759
-1.48180431559e-05
-0.0073659843489
-3.67255817953e-05
-0.00733539131367
-5.75304939847e-05
-0.00729442921536
-7.72436049959e-05
-0.00724364439412
-9.5863288951e-05
-0.00718363520392
-0.000113407487405
-0.00711493540591
-0.000129881540814
-0.00703812754804
-0.000145309892276
-0.00695372631127
-0.000159704111199
-0.00686229209656
-0.000173094213409
-0.00676431491427
-0.000185497054996
-0.00666032772582
-0.00019694714275
-0.00655079140467
-0.000207465533572
-0.0064362074107
-0.00021709001666
-0.00631700427931
-0.000225844667067
-0.00619364919294
-0.000233769321183
-0.00606653641165
-0.000240889894123
-0.0059360973422
-0.000247247070507
-0.0058026912534
-0.000252867499527
-0.00566671342997
-0.000257791654552
-0.00552848847796
-0.000262045978435
-0.00538837618884
-0.000265669862311
-0.00524666768139
-0.000268688815821
-0.0051036885917
-0.000271140539564
-0.00495969827385
-0.000273049155116
-0.00481498997532
-0.00027445033682
-0.00466979328122
-0.000275366637775
-0.00452437093261
-0.000275831660492
-0.0043789246997
-0.000275866479082
-0.00423368855399
-0.000275502813964
-0.00408883814611
-0.000274760555311
-0.00394458005081
-0.000273669914028
-0.00380106504961
-0.000272250026715
-0.00365847322573
-0.000270530042185
-0.00351693126085
-0.000268528803661
-0.0033765931638
-0.00026627483748
-0.00323756182126
-0.000263787099719
-0.00309996519146
-0.000261093827486
-0.00296388235445
-0.00025821436291
-0.00282941499372
-0.000255176836074
-0.00269661820718
-0.000252001081495
-0.0025655671276
-0.000248715119334
-0.00243629274428
-0.000245339205128
-0.0023088434899
-0.000241901080515
-0.00218322631852
-0.000238421198439
-0.00205946310363
-0.000234926710989
-0.00193753719333
-0.000231437927851
-0.00181744444064
-0.000227981006198
-0.00169914544296
-0.000224575694298
-0.00158261104752
-0.000221246682348
-0.00146778046091
-0.000218012683545
-0.00135460106271
-0.000214896389202
-0.00124299256848
-0.000211914914597
-0.00113288102147
-0.000209088263629
-0.00102416917792
-0.000206431095976
-0.000916764512289
-0.000203959454153
-0.000810555783083
-0.000201683511671
-0.000705434262497
-0.00019961181005
-0.000601273675038
-0.000197743613286
-0.000497934324532
-0.000196068526758
-0.000395213341651
-0.000194557443549
-0.000292726068447
-0.000193157095952
-0.000189341701811
-0.00019177587128
-8.16378104828e-05
-0.000189613277315
-0.000176972813464
-0.000396404942851
0.00113825062152
-0.000836836431282
0.00126107434644
-0.00127540914837
0.00125639312384
-0.00170760650969
0.00123875323975
-0.00213130081649
0.00121497621834
-0.00254462084032
0.00118581693602
-0.0029458658615
0.00115176900523
-0.00333351393271
0.00111336239789
-0.00370624889713
0.00107115528325
-0.00406295139633
0.00102571895782
-0.00440271192169
0.000977616542938
-0.00472480631261
0.000927393386475
-0.00502870129102
0.00087556101406
-0.00531402067886
0.000822594405045
-0.00558054864024
0.000768921497602
-0.0058281915393
0.000714926709574
-0.00605698280705
0.000660944836632
-0.00626704389969
0.000607269100057
-0.00645859310473
0.000554147622821
-0.00663190753508
0.000501793999956
-0.0067873367818
0.000450384607703
-0.00692526660848
0.000400070062559
-0.00704613725676
0.000350972143037
-0.00715040870454
0.000303195041509
-0.00723858288242
0.000256821232825
-0.00731116996064
0.000211922004472
-0.00736871347669
0.000168552121221
-0.00741175706969
0.00012675949864
-0.00744087162592
8.65788078746e-05
-0.00745662200355
4.80404202748e-05
-0.00745959555167
1.11632190531e-05
-0.00745036859493
-2.40366545726e-05
-0.00742953580017
-5.75532636185e-05
-0.00739767637032
-8.93831257142e-05
-0.00735538378693
-0.000119532638622
-0.00730323187721
-0.000148009925569
-0.00724180495431
-0.000174832375502
-0.00717166397139
-0.000200018751967
-0.00709337686149
-0.000223596454161
-0.00700748493638
-0.000245593729378
-0.0069145333725
-0.00026604665606
-0.00681503805433
-0.000284991494797
-0.006709516099
-0.000302471364841
-0.00659845332966
-0.000318528805789
-0.00648233477118
-0.000333212161809
-0.00636161288351
-0.000346568393351
-0.00623673789419
-0.000358649170881
-0.00610812690389
-0.00036950400407
-0.00597619396052
-0.000379186075451
-0.00584132009555
-0.000387745714049
-0.00570388298228
-0.000395235980506
-0.00556422795012
-0.000401706531987
-0.00542269710995
-0.000407208993346
-0.00527960134835
-0.000411791218112
-0.00513524875024
-0.000415502456702
-0.00498991757418
-0.000418388034146
-0.00484388384907
-0.000420494339984
-0.00469739530355
-0.000421863898985
-0.00455069797717
-0.000422540177949
-0.00440401109665
-0.000422563036497
-0.0042575526019
-0.000421973351592
-0.00411151495848
-0.000420808794665
-0.00396608948259
-0.000419108246584
-0.0038214431193
-0.000416907863346
-0.00367774151955
-0.00041424526316
-0.00353512682512
-0.000411155818086
-0.00339373944154
-0.000407676580032
-0.00325369691323
-0.000403842765653
-0.00311511439428
-0.000399691407206
-0.00297808470093
-0.000395257991328
-0.00284269746147
-0.000390579818567
-0.00270902045766
-0.000385692793671
-0.00257711746834
-0.000380634498739
-0.0024470309958
-0.000375441131234
-0.0023187987828
-0.000370150294054
-0.00219243802453
-0.00036479810631
-0.00206796055356
-0.000359421724648
-0.00194535861136
-0.000354056643498
-0.00182461865967
-0.00034873895344
-0.00170570878354
-0.000343502861329
-0.0015885910984
-0.000338382689668
-0.00147321083184
-0.000333410629758
-0.00135950726852
-0.00032861846883
-0.00124740454848
-0.000324035582901
-0.00113682108175
-0.000319690352911
-0.00102766201021
-0.000315608356749
-0.000919826838448
-0.000311813380702
-0.000813203132977
-0.000308325721402
-0.000707671153584
-0.000305162667098
-0.000603096174512
-0.000302337160161
-0.000499324319033
-0.00029985905338
-0.000396161196593
-0.000297738436134
-0.000293337306957
-0.000295998160121
-0.000190472969677
-0.000294658035815
-8.76325834989e-05
-0.000292471269393
-0.000264613605568
-0.000402609163536
0.00154088293876
-0.000849158304033
0.00170764899855
-0.00129383275221
0.0017010923706
-0.00173188939573
0.00167683484801
-0.00216106358362
0.00164417484783
-0.00257939505863
0.00160417284152
-0.00298512382592
0.00155752165161
-0.00337669774239
0.00150496010416
-0.00375278577728
0.0014472664318
-0.00411227633339
0.00138523248883
-0.00445427600842
0.00131963839463
-0.00477809426347
0.00125123363925
-0.00508323273106
0.00118072056493
-0.00536936241095
0.00110874496391
-0.00563630950157
0.00103588845647
-0.00588403054466
0.00096266739294
-0.00611259923728
0.000889532067719
-0.00632218309709
0.000816871258193
-0.00651303376065
0.000745015411619
-0.00668546686433
0.000674243977066
-0.00683985662941
0.000604790006971
-0.00697661922337
0.000536848038535
-0.00709621131491
0.000470578331301
-0.00719911635595
0.000406113926531
-0.00728584621418
0.000343563608047
-0.00735692947923
0.000283017543466
-0.00741291515826
0.000224548724321
-0.00745436214341
0.000168217173096
-0.00748184409597
0.000114070079752
-0.00749593944451
6.21448681697e-05
-0.00749723692199
1.24684216297e-05
-0.00748632545416
-3.49406041379e-05
-0.00746380000382
-8.00725751365e-05
-0.00743025173117
-0.000122925448515
-0.00738627388822
-0.000163505900335
-0.00733245195081
-0.000201827455821
-0.0072693695268
-0.000237911750743
-0.00719759868989
-0.000271786693668
-0.0071177060356
-0.000303487548249
-0.00703024328391
-0.000333055058451
-0.00693575351
-0.000360536320455
-0.0068347621164
-0.000385982895601
-0.00672778326939
-0.000409451498607
-0.00661531132619
-0.000431002136199
-0.00649782748031
-0.000450698643103
-0.0063757916875
-0.000468606901689
-0.00624964950268
-0.000484795278081
-0.00611982452705
-0.000499332966619
-0.00598672539267
-0.000512290365359
-0.00585073871565
-0.000523737592504
-0.00571223616884
-0.000533744851049
-0.00557156791009
-0.000542381146895
-0.0054290696639
-0.000549714675737
-0.0052850565637
-0.000555811771619
-0.00513983015339
-0.000560737352086
-0.00499367257581
-0.000564554104169
-0.00484685339636
-0.000567323000265
-0.00469962405573
-0.00056910271753
-0.0045522244224
-0.000569950230111
-0.00440487744109
-0.000569920429378
-0.00425779533498
-0.000569066768254
-0.00411117439192
-0.000567441037525
-0.00396520076254
-0.000565094030504
-0.00382004536222
-0.000562075410333
-0.00367586924294
-0.000558434345483
-0.00353281861454
-0.000554219406638
-0.0033910297991
-0.000549479132631
-0.00325062441189
-0.000544261898079
-0.00311171393305
-0.00053861637358
-0.0029743951036
-0.000532591328664
-0.00283875416108
-0.000526235973813
-0.00270486252147
-0.000519599680285
-0.00257278072841
-0.000512732204533
-0.0024425544841
-0.000505683331349
-0.00231421835013
-0.00049850300003
-0.00218779218432
-0.000491240887699
-0.00206328461921
-0.000483946459958
-0.00194068994217
-0.000476668521038
-0.00181999135729
-0.000469455214187
-0.00170115833491
-0.000462353561727
-0.00158414965128
-0.000455409432406
-0.00146891121452
-0.000448667090142
-0.0013553788552
-0.000442169136335
-0.00124347661184
-0.000435956074612
-0.00113311921004
-0.000430066225137
-0.00102421070028
-0.000424535311109
-0.000916646398622
-0.000419396352514
-0.000810311467461
-0.00041467934288
-0.000705081626323
-0.000410411390569
-0.000600820567405
-0.000406617052891
-0.000497377655751
-0.000403320267735
-0.000394584718154
-0.000400549311799
-0.000292259959442
-0.0003983411084
-0.000190273499129
-0.000396661938965
-8.91624015332e-05
-0.000393599689234
-0.000353784802123
-0.000410608282666
0.00195151480792
-0.000865647503522
0.00216271310972
-0.00131858644212
0.00215405673805
-0.00176449095823
0.00212276440421
-0.0022009607819
0.00208066955017
-0.00262593086129
0.00202916752616
-0.00303756760548
0.00196918266017
-0.00343427750124
0.00190169395765
-0.00381471475264
0.00182772718704
-0.00417777874268
0.00174831960008
-0.00452260540016
0.00166448762301
-0.0048485505572
0.00157720091491
-0.00515517112431
0.00148736262218
-0.00544220172549
0.00139579653929
-0.00570953278305
0.00130323978909
-0.00595718670557
0.0012103410238
-0.00618529794187
0.00111766225688
-0.00639409250378
0.00102568416022
-0.00658387249077
0.000934812932601
-0.00675500037434
0.000845388749073
-0.00690788849097
0.000757694169756
-0.00704298790234
0.000671962822045
-0.00716078213736
0.000588387065263
-0.00726177961688
0.000507125215695
-0.00734651043748
0.000428307347912
-0.00741552111263
0.000352040436208
-0.00746937315843
0.000278412084032
-0.00750863905344
0.000207493680302
-0.00753390167182
0.000139342404743
-0.00754575070773
7.40029078403e-05
-0.00754478238625
1.15081975192e-05
-0.00753159567644
-4.81199096844e-05
-0.00750679227203
-0.000104869473443
-0.00747097284578
-0.000158739054721
-0.00742473672885
-0.000209737085745
-0.00736867830969
-0.000257881612293
-0.00730338664597
-0.000303200021937
-0.00722944200195
-0.00034572859893
-0.00714741559309
-0.000385512071005
-0.00705786636484
-0.000422603031495
-0.00696134096652
-0.000457061291082
-0.00685837086286
-0.000488953182275
-0.00674947259578
-0.000518350752436
-0.00663514529269
-0.000545331009448
-0.00651587125739
-0.000569975021885
-0.00639211389913
-0.00059236716275
-0.00626431864748
-0.000612594177488
-0.00613291129991
-0.000630744491173
-0.00599829924348
-0.000646907310085
-0.00586087018694
-0.00066117204051
-0.00572099363489
-0.000673627475267
-0.00557901995166
-0.000684361374858
-0.00543528202752
-0.000693459790987
-0.00529009459675
-0.000701006840548
-0.00514375600362
-0.000707084199413
-0.00499654768608
-0.000711771094461
-0.00484873595348
-0.000715143989149
-0.00470057153548
-0.000717276787843
-0.00455229127017
-0.000718240703473
-0.00440411763018
-0.000718104649404
-0.00425626024706
-0.000716935258574
-0.00410891534305
-0.00071479740342
-0.00396226703339
-0.000711754305925
-0.00381648663061
-0.000707868116148
-0.00367173371449
-0.000703200045718
-0.00352815530921
-0.000697810923046
-0.0033858867365
-0.000691761280098
-0.00324505070562
-0.000685111820852
-0.00310575800479
-0.000677923412859
-0.00296810656273
-0.000670257421689
-0.00283218203888
-0.000662175580472
-0.00269805692841
-0.000653740178188
-0.00256579112149
-0.000645013811315
-0.00243543111343
-0.000636059433506
-0.0023070105827
-0.000626940011275
-0.00218054975702
-0.000617718465304
-0.00205605604956
-0.00060845726575
-0.00193352360815
-0.000599218296828
-0.00181293402203
-0.000590062425765
-0.00169425606747
-0.000581049324639
-0.0015774464859
-0.00057223704253
-0.00146244991817
-0.000563681807108
-0.00134919973123
-0.000555437620544
-0.00123761811127
-0.000547556061892
-0.0011276168904
-0.000540085926997
-0.00101909769929
-0.000533073060145
-0.000911952643884
-0.00052656010011
-0.000806064344775
-0.000520586475541
-0.000701306138258
-0.00051518847277
-0.000597541968799
-0.000510400006464
-0.000494627040607
-0.000506254006577
-0.000392409980982
-0.000502784422023
-0.000290744477813
-0.000500023778923
-0.000189546387551
-0.000497878279773
-8.9323166122e-05
-0.00049384107246
-0.000443116314392
-0.000420779686909
0.00237231824671
-0.000886845757586
0.00262880537883
-0.00135046457052
0.00261770102839
-0.00180646046575
0.00257878583599
-0.00225227025939
0.00252650449523
-0.00268570097686
0.00246262319268
-0.00310483020924
0.00238833649304
-0.00350801525638
0.00230490327715
-0.00389389760867
0.00221363338463
-0.0042613962171
0.00211584163287
-0.00460969224969
0.00201280656611
-0.00493820670252
0.00190573777921
-0.00524657441909
0.00179575215621
-0.00553461565442
0.00168385902924
-0.00580230827147
0.00157095299968
-0.00604976074278
0.00145781346979
-0.00627718826768
0.00134510903554
-0.00648489118894
0.00123340567198
-0.00667323738638
0.00112317695267
-0.00684264711316
0.00101481559797
-0.00699358160581
0.000908644976989
-0.00712653353421
0.000804930338843
-0.00724202052302
0.000703888808041
-0.00734057963815
0.000605698339368
-0.00742276412206
0.000510504985364
-0.00748914025238
0.00041842896579
-0.00754028574356
0.000329569110417
-0.00757678762984
0.000244006343733
-0.00759924121282
0.000161805896116
-0.00760824811601
8.30189629781e-05
-0.00760441527277
7.68364037397e-06
-0.00758835240474
-6.41752414164e-05
-0.00756067110742
-0.000132544096098
-0.00752198228021
-0.000197421945968
-0.00747289460442
-0.000258819673722
-0.00741401205146
-0.000316759802068
-0.00734593229458
-0.000371276248992
-0.00726924429141
-0.00042241377769
-0.00718452683066
-0.000470227519608
-0.00709234633995
-0.000514782195601
-0.00699325569243
-0.000556151402548
-0.00688779234955
-0.000594416650226
-0.00677647751308
-0.00062966647712
-0.00665981466922
-0.000661995377927
-0.00653828912415
-0.000691502827168
-0.00641236697235
-0.000718292182754
-0.00628249502073
-0.000742469700762
-0.00614910017272
-0.000764143490901
-0.00601258971371
-0.000783422592977
-0.0058733510733
-0.000800416054616
-0.00573175242365
-0.000815232136499
-0.00558814276074
-0.000827977570566
-0.00544285274227
-0.000838756948109
-0.00529619500363
-0.000847672209641
-0.00514846514459
-0.000854822261474
-0.00499994217938
-0.000860302727889
-0.00485088956371
-0.000864205815754
-0.00470155566759
-0.000866620333994
-0.00455217473567
-0.000867631798561
-0.00440296727872
-0.000867322686148
-0.00425414087439
-0.000865772730633
-0.00410589039605
-0.000863059345344
-0.00395839859536
-0.000859258034501
-0.00381183612878
-0.000854442890085
-0.00366636190564
-0.000848687021918
-0.00352212291652
-0.000842063030882
-0.00337925437662
-0.000834643368154
-0.00323787940303
-0.00082650069863
-0.00309810901672
-0.000817708120548
-0.00296004174129
-0.000808339366225
-0.00282376354449
-0.000798468851081
-0.00268934744069
-0.000788171695059
-0.00255685345063
-0.000777523604496
-0.00242632827902
-0.000766600733248
-0.00229780535483
-0.000755479430114
-0.00217130463625
-0.000744235979138
-0.0020468327702
-0.000732946257376
-0.00192438305196
-0.000721685401706
-0.00180393571837
-0.000710527423234
-0.00168545806928
-0.000699544842924
-0.00156890489029
-0.000688808299817
-0.0014542187247
-0.0006783861896
-0.0013413304055
-0.00066834429612
-0.0012301594479
-0.000658745461016
-0.00112061465272
-0.000649649268956
-0.00101259455755
-0.000641111792837
-0.000905988042533
-0.000633185393417
-0.000800674756246
-0.000625918640552
-0.000696525791799
-0.000619356458092
-0.000593404447017
-0.000613540382162
-0.000491167546899
-0.000608509276263
-0.000389669722907
-0.000604300331999
-0.000288772141955
-0.000600939873317
-0.000188382077245
-0.000598285965671
-8.89486458393e-05
-0.000593292070479
-0.000532073954188
-0.000433386521625
0.00280572909329
-0.000913185266138
0.00310862964471
-0.00139007721885
0.00309461920804
-0.00185857223659
0.00304730659806
-0.0023158993418
0.00298385724471
-0.00275970840388
0.00290645756356
-0.00318797115256
0.0028166242603
-0.00359899078856
0.00271594756102
-0.00399140218639
0.00260606903057
-0.00436415873376
0.00248862197282
-0.00471650853271
0.00236517966881
-0.00504796337844
0.0022372153908
-0.00535826389119
0.00210607487246
-0.00564734362004
0.0019729603502
-0.00591529444772
0.00183892479332
-0.00616233486389
0.00170487417817
-0.00638878212548
0.00157157591097
-0.0065950287459
0.00143967117913
-0.00678152335446
0.00130968972575
-0.00694875569419
0.00118206533328
-0.00709724528242
0.00105715120628
-0.0072275332373
0.000935234132897
-0.00734017661421
0.000816547245181
-0.00743574475028
0.000701280711755
-0.00751481696706
0.000589590645604
-0.00757798125638
0.000481605860149
-0.00762583340444
0.00037743306315
-0.00765897637712
0.000277160278205
-0.00767801956886
0.00018085924938
-0.00768357791252
8.85866228824e-05
-0.00767627094214
3.85188867322e-07
-0.00765672091996
-8.37175840413e-05
-0.00762555123634
-0.000163706888758
-0.00758338489372
-0.000239582228876
-0.00753084211657
-0.000311357167086
-0.0074685383244
-0.000379059126468
-0.00739708192906
-0.000442728934667
-0.00731707231087
-0.000502420484933
-0.00722909774049
-0.000558199917881
-0.00713373358564
-0.000610144955003
-0.00703154052953
-0.000658343778345
-0.0069230631385
-0.000702894113739
-0.00680882847405
-0.000743901904226
-0.00668934509077
-0.000781480248364
-0.00656510208813
-0.00081574797834
-0.00643656855815
-0.0008468285563
-0.00630419307721
-0.000874848657395
-0.00616840358784
-0.000899937118225
-0.00602960730455
-0.000922223614599
-0.00588819098671
-0.000941837740501
-0.00574452120409
-0.000958907856769
-0.00559894493483
-0.000973560373096
-0.005451790116
-0.000985918838285
-0.00530336647475
-0.000996103485645
-0.00515396626045
-0.00100423061947
-0.00500386519491
-0.00101041246852
-0.00485332326649
-0.00101475689978
-0.00470258567105
-0.00101736758764
-0.00455188353998
-0.0010183440434
-0.00440143474996
-0.00101778206532
-0.00425144447685
-0.00101577402533
-0.00410210578024
-0.00101240951603
-0.00395359991061
-0.00100777579176
-0.00380609662364
-0.00100195849705
-0.00365975422465
-0.000995042138312
-0.0035147196233
-0.00098711076687
-0.00337112815099
-0.000978248360796
-0.00322910341778
-0.000968539357061
-0.00308875698337
-0.000958068856337
-0.00295018810841
-0.000946922938179
-0.00281348337638
-0.000935188648088
-0.00267871643958
-0.000922954081509
-0.00254594768711
-0.000910308162797
-0.00241522406924
-0.000897340525729
-0.00228657888195
-0.00088414112858
-0.00216003172636
-0.000870799987044
-0.00203558845211
-0.000857406687173
-0.0019132412768
-0.000844050031104
-0.00179296890026
-0.000830817507352
-0.00167473678578
-0.000817794903381
-0.00155849743818
-0.00080506578141
-0.00144419083119
-0.000792711098021
-0.00133174482851
-0.000780808721253
-0.00122107573016
-0.00076943309079
-0.00111208881385
-0.000758654810204
-0.00100467895621
-0.000748540383557
-0.00089873126488
-0.000739151937586
-0.000794121820215
-0.000730547111983
-0.000690718385505
-0.000722778934446
-0.000588381648355
-0.000715896060023
-0.000486967133435
-0.00070994284813
-0.000386327462352
-0.00070495824629
-0.00028631880447
-0.000700965731994
-0.000186833974615
-0.000697789356617
-8.82788181044e-05
-0.000691865732592
-0.000620361181215
-0.000448707875806
0.00325446149396
-0.000945201471638
0.00360515040118
-0.00143819688788
0.00358764093887
-0.00192179969035
0.00353093581393
-0.00239297796261
0.00345506152608
-0.0028491890511
0.00336269445439
-0.0032882817337
0.00325574239953
-0.00370850376612
0.00313619470577
-0.00410849594489
0.00300608590101
-0.00448726907039
0.00286741934595
-0.00484416852229
0.00272210285871
-0.00517883106179
0.00257190114162
-0.0054911385397
0.00241840497065
-0.00578117194694
0.00226301578175
-0.00604916877307
0.0021069429828
-0.00629548515291
0.00195121126612
-0.00652056400727
0.0017966747523
-0.00672490908513
0.00164403554047
-0.00690906499567
0.00149386415011
-0.00707360228697
0.00134662039628
-0.0072191072148
0.00120267309744
-0.00734617497353
0.001062318085
-0.00745540600038
0.00092579362959
-0.00754740412935
0.000793293409116
-0.00762277635833
0.000664976588241
-0.00768213314215
0.00054097555868
-0.00772608921251
0.000421401184503
-0.00775526404449
0.000306346359341
-0.00777028224385
0.000195887831501
-0.00777177319258
9.00871533633e-05
-0.00776037015824
-1.10091286536e-05
-0.00773670952749
-0.000107370291725
-0.00770142897058
-0.000198980381591
-0.00765516530041
-0.00028583961773
-0.00759855254469
-0.000367964487515
-0.00753221950979
-0.00044538749351
-0.00745678761096
-0.000518156995686
-0.00737286846277
-0.000586336543736
-0.00728106186093
-0.000650004240046
-0.00718195363217
-0.000709251631256
-0.00707611395776
-0.000764182686954
-0.00696409563293
-0.000814912374994
-0.00684643284026
-0.000861565392623
-0.00672363989222
-0.000904274567266
-0.00659621049404
-0.000943179476938
-0.00646461698604
-0.000978424809685
-0.00632931009082
-0.0010101589944
-0.00619071863491
-0.00103853262967
-0.00604924974367
-0.00106369722368
-0.00590528899649
-0.00108580378664
-0.00575920101182
-0.00110500176716
-0.00561132996689
-0.00112143789295
-0.00546200048846
-0.00113525538389
-0.00531151843902
-0.00114659312002
-0.00516017199957
-0.00115558520217
-0.00500823259415
-0.00116236050576
-0.00485595602355
-0.00116704262928
-0.00470358337861
-0.00116974985277
-0.0045513420752
-0.00117059546498
-0.00439944661074
-0.00116968808532
-0.00424809936768
-0.00116713229672
-0.00409749110013
-0.00116302922833
-0.00394780142155
-0.00115747736605
-0.00379919896755
-0.00115057324646
-0.00365184154961
-0.00114241228556
-0.00350587601019
-0.0011330894223
-0.00336143809366
-0.00112269981393
-0.00321865207264
-0.00111133929237
-0.00307763043821
-0.00109910481602
-0.00293847341407
-0.00108609465818
-0.00280126859011
-0.00107240856972
-0.00266609044691
-0.00105814768515
-0.00253300004682
-0.00104341441289
-0.00240204466896
-0.00102831210257
-0.00227325763915
-0.00101294472564
-0.00214665813823
-0.000997416379263
-0.00202225121245
-0.000981830837349
-0.00190002777896
-0.000966290972158
-0.00177996482383
-0.000950898250323
-0.00166202560072
-0.000935752139314
-0.00154616000171
-0.000920949604775
-0.00143230492937
-0.000906584549979
-0.00132038481777
-0.000892747353895
-0.00121031215128
-0.000879524377487
-0.00110198811516
-0.000866997573374
-0.000995303235339
-0.000855244093243
-0.00089013815098
-0.000844335996979
-0.000786364358406
-0.000834339982187
-0.000683845248136
-0.00082531728098
-0.000582437217024
-0.000817323355659
-0.000481990843894
-0.000810407724625
-0.000382353852468
-0.000804613518184
-0.000283374840561
-0.000799963627558
-0.000184930364377
-0.000796251605768
-8.73995764159e-05
-0.000789414248881
-0.000707769925358
-0.000467081717243
0.00372156849811
-0.000983577645356
0.00412167274517
-0.00149581244278
0.00409990299674
-0.00199738600613
0.00403253609989
-0.00248494001941
0.00394264218731
-0.00295570017763
0.0038334809089
-0.00340737591383
0.00370744414518
-0.00383816440486
0.00356700882499
-0.00424673422002
0.00341468094144
-0.00463218801417
0.00325289789637
-0.00499401056915
0.0030839496745
-0.00533200917307
0.00290992344946
-0.00564625214107
0.00273267106956
-0.00593701025542
0.00255379639191
-0.0062047041256
0.00237465870955
-0.00644985946159
0.00219638775661
-0.00667307070557
0.00201990645667
-0.00687497308943
0.00184595762663
-0.0070562221164
0.00167513214067
-0.00721747972868
0.00150789616962
-0.00735940568279
0.00134461644053
-0.00748265331626
0.00118558227117
-0.00758786824457
0.00103102431474
-0.00767568938089
0.000881129442647
-0.00774675099473
0.000736052289511
-0.00780168549734
0.000595923274707
-0.00784112591972
0.0004608540043
-0.00786570812778
0.000330940086215
-0.00787607204285
0.000206262450406
-0.00787286224648
8.68871800854e-05
-0.00785672714948
-2.71352143567e-05
-0.0078283189455
-0.000135770360303
-0.00778829113116
-0.000239000862649
-0.00773729668737
-0.000336827594989
-0.00767598559933
-0.000429269897104
-0.00760500248171
-0.000516365784688
-0.00752498388005