/*--------------------------------*- C++ -*----------------------------------*\
| =========                 |                                                 |
| \\      /  F ield         | OpenFOAM: The Open Source CFD Toolbox           |
|  \\    /   O peration     | Version:  v1906                                 |
|   \\  /    A nd           | Web:      www.OpenFOAM.com                      |
|    \\/     M anipulation  |                                                 |
\*---------------------------------------------------------------------------*/
FoamFile
{
    version     2.0;
    format      ascii;
    class       surfaceScalarField;
    location    "333";
    object      phia;
}
// * * * * * * * * * * * * * * * * * * * * * * * * * * * * * * * * * * * * * //

dimensions      [0 3 -1 0 0 0 0];
oriented        oriented;


internalField   nonuniform List<scalar> 
18240
(
0.000860246683731
-0.000859854250158
0.00175834905138
-0.000897590489237
0.00265552277918
-0.000896791489792
0.00354594471162
-0.000889881671882
0.00442623250308
-0.000879933635775
0.00529406503951
-0.000867265249249
0.00614664066886
-0.000852251725737
0.00698213425316
-0.000834900268386
0.00779796978458
-0.000815543069481
0.00859272240284
-0.000794134860981
0.00936402957172
-0.000771047997132
0.0101108735027
-0.000746203664725
0.01083111151
-0.000720013161264
0.011524127943
-0.00069235607885
0.0121879872631
-0.000663670703041
0.0128224486795
-0.000633783829268
0.0134257493392
-0.000603149220696
0.0139979731724
-0.000571532458832
0.0145374785814
-0.000539393051067
0.0150446101424
-0.000506430236699
0.0155177867804
-0.000473104033374
0.0159575416659
-0.000439047937078
0.0163622937715
-0.000404720824517
0.0167326972322
-0.000369695414419
0.0170671197685
-0.000334432615372
0.0173662786795
-0.000298454598057
0.0176284561659
-0.000262229780243
0.0178543946045
-0.000225242681772
0.0180422788104
-0.000187977816925
0.0181928598669
-0.000149898822375
0.0183042403103
-0.000111515258578
0.0183771888294
-7.2284637506e-05
0.0184097677721
-3.27529821307e-05
0.018402804272
7.60420371332e-06
0.0183543977749
4.81944932805e-05
0.0182655033206
8.9507535692e-05
0.0181343622344
0.000130894341779
0.017962152281
0.000172791289542
0.0177473865319
0.000214486928668
0.017491581946
0.000256350882545
0.0171936684065
0.000297607369554
0.0168556271002
0.000338550154115
0.016476954792
0.000378343053609
0.0160602244703
0.000417200629313
0.0156056445422
0.000454233570427
0.0151164980581
0.000489578329954
0.0145938339775
0.000522305605388
0.0140417440309
0.000552484693243
0.0134622085795
0.000579170650985
0.0128601722781
0.000602396111959
0.0122385545086
0.000621250772934
0.0116030865431
0.000635795161781
0.0109574832164
0.000645237871827
0.0103080140425
0.00064976468269
0.00965884116441
0.00064880999304
0.00901631599316
0.000642788000405
0.00838450774779
0.000631448786773
0.00776923839004
0.000615497346425
0.00717385483612
0.000595027570153
0.0066030343978
0.00057101215006
0.00605887398354
0.000543809342642
0.00554451366424
0.000514516291826
0.00506060314662
0.000483566384904
0.00460875054842
0.000451975815771
0.00418834470982
0.000420072238027
0.00379977780173
0.000388662059513
0.00344156064528
0.00035789704679
0.00311327506606
0.000328357847433
0.0028129330838
0.000300037816064
0.0025396519105
0.000273334864206
0.00229123123165
0.000248133130132
0.00206656735803
0.000224701704443
0.00186343677834
0.000202859441001
0.00168067441576
0.00018278539624
0.00151615784977
0.000164260332584
0.00136876873394
0.00014739770588
0.00123656815603
0.000131958212832
0.00111855643779
0.000118007155085
0.00101303345068
0.000105294406604
0.000919185562838
9.3833888053e-05
0.000835655257531
8.33170158247e-05
0.000762087717529
7.35453299236e-05
0.000698283862502
6.36040488184e-05
0.000647680436247
5.05768429002e-05
0.000601718713841
4.57800763329e-05
0.000553873758757
4.78023680571e-05
0.00051076463455
4.29329337252e-05
0.000473326636163
3.73665036973e-05
0.000434276478411
3.88636400512e-05
0.00038925759357
4.48995713913e-05
0.000341358237669
4.76788968931e-05
0.000290724029169
5.04466346091e-05
0.000231436408013
5.90463635553e-05
0.000159605510377
7.1544396386e-05
7.69521600266e-05
8.23045072713e-05
7.6780458032e-05
0.000903427765904
-0.00176284427722
0.00186618302074
-0.00185985944267
0.00282253969504
-0.00185269029047
0.00377006045145
-0.00183690533173
0.00470631894174
-0.00181574258415
0.00562896064019
-0.00178940403554
0.00653536429067
-0.00175821488833
0.00742333698818
-0.00172236565548
0.00829046621055
-0.00168224222812
0.00913489288518
-0.00163805143874
0.00995448908199
-0.00159022594362
0.0107477666511
-0.00153897018643
0.0115128988184
-0.00148474089046
0.0122487678787
-0.00142771530783
0.0129538343695
-0.00136834835454
0.0136273221723
-0.00130676546691
0.0142679397166
-0.00124339594354
0.0148752001672
-0.00117829322885
0.0154480010621
-0.00111184327238
0.0159860763472
-0.00104401534957
0.0164884430045
-0.000975142818225
0.0169549808256
-0.000905108342131
0.0173847562804
-0.000834193374754
0.0177777240774
-0.000762201802538
0.0181329397356
-0.000689372832436
0.0184503751807
-0.000615447918848
0.0187290324519
-0.000540640894453
0.018968863184
-0.000464653665178
0.0191687966319
-0.000387696369796
0.0193287507825
-0.000309458569492
0.0194475914133
-0.000230173474022
0.0195252226117
-0.000149549457109
0.0195604868384
-6.78685222719e-05
0.0195533195333
1.51074391159e-05
0.0195026122692
9.90163301979e-05
0.0194084140344
0.00018400931719
0.0192697714694
0.000269617164306
0.0190869580946
0.000355874419217
0.0188593079647
0.000442183890215
0.0185874520427
0.000528442218499
0.0182711605299
0.000613913703598
0.017911565354
0.00069834675019
0.0175090267305
0.00078086711465
0.0170653216002
0.000861074559835
0.0165815493095
0.000937964985741
0.0160602679623
0.00101099804062
0.0155034519544
0.00107905827522
0.0149145578286
0.00114148961881
0.0142965382064
0.00119710828844
0.0136538145565
0.00124520627233
0.0129903397265
0.00128462884576
0.0123114493742
0.00131475074661
0.0116219561842
0.00133462214649
0.0109278562177
0.00134390997919
0.0102344479723
0.00134209805973
0.00954789105671
0.00132936994789
0.00887336884358
0.00130583899929
0.00821652216508
0.00127234755149
0.00758170053894
0.00122970496377
0.00697331809346
0.0011793758716
0.00639426915152
0.00112270228826
0.00584728168168
0.00106146390937
0.00533357054525
0.000997112220891
0.00485420664694
0.000931282303519
0.00440897194321
0.00086513636663
0.00399767292855
0.000799890850105
0.00361911693707
0.000736281495863
0.00327231105658
0.000675085187251
0.00295551506045
0.000616664591348
0.00266731130288
0.0005614551099
0.00240571972805
0.000509559741581
0.00216914807243
0.000461186613832
0.00195557115665
0.000416275890608
0.00176338075579
0.00037488589251
0.00159063454272
0.000336849775391
0.00143581672038
0.00030212194815
0.00129715326171
0.000270467931184
0.00117328735156
0.000241776275479
0.00106265350123
0.00021577827934
0.000964064158775
0.000192324933704
0.00087610841547
0.000171127694536
0.000797558126747
0.000151995387135
0.000726425594733
0.000134597002048
0.000658052417044
0.000118851829891
0.000597403554341
0.000106304956883
0.000544476947146
0.00010062704704
0.000499665372575
8.76129449548e-05
0.000461569007935
7.53470945852e-05
0.000424944841083
7.5344025012e-05
0.000385948867117
8.3739535144e-05
0.000340310643875
9.31272181419e-05
0.000289565007247
0.000100993792211
0.000233462442786
0.000114907342074
0.00016590149571
0.000138817110357
8.1388730133e-05
0.000166499181111
0.000158009589599
0.000912962491269
-0.00267536072829
0.00188030905317
-0.00282672340921
0.00284326245835
-0.00281517090716
0.0037976017568
-0.00279076057526
0.0047405794837
-0.00275824932302
0.00566964151472
-0.00271798249768
0.00658222284869
-0.00267032878828
0.00747599206558
-0.00261565238474
0.0083486410581
-0.00255442859159
0.00919815902197
-0.00248708942663
0.0100225584518
-0.00241416936118
0.0108201876065
-0.00233612365584
0.0115893977435
-0.00225350336409
0.0123288965357
-0.00216674481771
0.0130373591107
-0.00207637394752
0.0137138227109
-0.00198276853367
0.014357243597
-0.00188639273868
0.0149669332714
-0.00178753379358
0.0155420652478
-0.00168656686397
0.0160821532743
-0.00158366848409
0.0165865122974
-0.0014791116635
0.0170547792613
-0.00137295760546
0.017486334281
-0.00126537938403
0.0178808637414
-0.00115633362648
0.0182377468358
-0.0010459104831
0.0185566597237
-0.000933986102528
0.0188369333955
-0.000820595394351
0.0190781960825
-0.000705567158411
0.0192797072568
-0.000588916604098
0.0194410349848
-0.000470465064465
0.0195613723136
-0.000350250288289
0.0196402448482
-0.000228130786831
0.0196768153528
-0.000104210267838
0.0196706176298
2.15645205277e-05
0.0196208555986
0.000148973951222
0.0195271572235
0.000277933985455
0.0193888731141
0.000408063364996
0.0192058429954
0.000539097073632
0.0189776984829
0.000670456916744
0.018704632654
0.000801667088627
0.0183867095158
0.000931933043693
0.0180246272236
0.00106055559317
0.0176190380864
0.00118652172795
0.0171712969574
0.0013089116369
0.0166827957308
0.00142650364157
0.0161556910271
0.00153817043518
0.0155922581087
0.00164250324194
0.0149955908333
0.00173819924203
0.0143689726712
0.00182371657974
0.0137165340706
0.00189766503779
0.0130426250739
0.00195850925518
0.0123524017451
0.00200497519419
0.0116511715099
0.00203580765166
0.0109448801469
0.00205018492583
0.0102394125897
0.00204750515359
0.00954097894048
0.00202776966056
0.00885538624599
0.00199135530609
0.00818835013516
0.00193933133285
0.00754477734745
0.00187318470965
0.00692905490455
0.00179502684401
0.00634442900814
0.00170721865463
0.00579339050023
0.00161241336358
0.00527726722251
0.0015131123671
0.00479673958687
0.00141170764599
0.00435158036352
0.00131016405615
0.00394118356803
0.0012101770676
0.00356433781081
0.00111299192777
0.00321969173339
0.00101961670296
0.00290552203315
0.000930698720396
0.00262012508748
0.00084673664152
0.00236157492473
0.000767976087413
0.00212805172136
0.000694594775187
0.00191760302579
0.000626592824948
0.00172843195491
0.000563941696439
0.00155867670818
0.000506474199352
0.00140666532085
0.000454016872325
0.00127070983683
0.000406292930058
0.00114932535919
0.000363043229772
0.00104103249577
0.00032394155143
0.000944531820777
0.000288707757043
0.000858489598697
0.000257042270441
0.000781608398383
0.000228758937503
0.000712275890315
0.000203802740304
0.000647763390775
0.000183253941559
0.000589181687792
0.000164768767208
0.000539572386854
0.000150119754016
0.000489867854641
0.000137186331865
0.000440636082096
0.000124449954036
0.000400810588204
0.0001150254416
0.00036855580439
0.000115830239352
0.000323196749137
0.000138293768911
0.000266271834672
0.000157713161754
0.000205963305049
0.000174987227846
0.00013837173565
0.000206141975405
7.059583517e-05
0.000233991648696
0.000228464035247
0.000921806601148
-0.00359671855673
0.00189692132956
-0.00380136466478
0.0028679350378
-0.00378570625054
0.00383025838716
-0.00375260511623
0.00478100786357
-0.00370852260581
0.00571749586393
-0.00365399247433
0.0066371293927
-0.00358948870428
0.00753749206283
-0.00351553911209
0.00841628805276
-0.00343275461551
0.00927143737963
-0.00334176640016
0.0101009950512
-0.00324326220332
0.0109032528644
-0.00313791450533
0.0116766340229
-0.00302642687119
0.0124198018362
-0.00290945316188
0.0131315307787
-0.00278765451982
0.0138108227211
-0.0026616108636
0.0144567561823
-0.00253188971267
0.0150686113839
-0.00239895187641
0.0156457001955
-0.00226323363133
0.0161875019566
-0.00212504838991
0.0166934779129
-0.00198468293569
0.0171632203566
-0.00184229632307
0.0175962555659
-0.00169802993107
0.0179922083456
-0.00155190359271
0.0183505973253
-0.00140393764298
0.0186710160364
-0.00125404559973
0.0189529232759
-0.00110216603923
0.0191958404943
-0.000948151204193
0.0193991395809
-0.000791906717127
0.0195622559745
-0.000633276558137
0.0196844762132
-0.000472191069992
0.0197651656899
-0.000308545556111
0.0198035591046
-0.000142355539661
0.0197990030349
2.63635367587e-05
0.0197507514129
0.00019744128713
0.0196582209447
0.000370674635281
0.0195207934439
0.000545673422081
0.0193380807115
0.000721986878611
0.0191097331399
0.000898954155114
0.0188357084712
0.00107583621687
0.0185160847156
0.0012516744012
0.0181513267154
0.00142542657825
0.0177421018074
0.00159583378046
0.0172895399113
0.00176155667778
0.0167950535077
0.00192104848353
0.0162605910967
0.00207268800532
0.01568846585
0.00221466041026
0.0150816026562
0.00234509182606
0.0144433748921
0.00246195221143
0.0137778340965
0.00256321233812
0.0130895345858
0.00264679589919
0.0123837111485
0.00271078519069
0.0116660488685
0.00275343862332
0.0109427644702
0.00277343743223
0.0102202907706
0.00276993001111
0.00950525702205
0.00274275385235
0.00880410896555
0.00269243726928
0.0081230159427
0.00262035698665
0.00746745586743
0.00252866073421
0.00684209377769
0.0024203021944
0.00625042676226
0.00229878346579
0.00569483505756
0.0021679009876
0.00517651500652
0.00203131620734
0.00469576310767
0.00189234399225
0.00425206306965
0.00175373992567
0.00384439164053
0.0016177269519
0.00347127763748
0.00148597846017
0.00313103364441
0.00135973719322
0.00282176464342
0.00123984040411
0.0025415329165
0.00112684593411
0.00228832267721
0.00102106116088
0.002060153195
0.000922643839572
0.00185502519189
0.000831597566784
0.00167101963196
0.000747827580581
0.00150625270957
0.000671118099467
0.00135896397601
0.000601185226498
0.00122746906672
0.000537664228906
0.00111022987402
0.000480161251228
0.00100580199399
0.0004282459272
0.000912883920747
0.000381504806542
0.000830256153427
0.000339548063614
0.000756811515641
0.000302083406475
0.000691495180685
0.000269000793829
0.000633271973698
0.000241360458363
0.00057703409154
0.000220891103937
0.000523392574725
0.000203633722194
0.000471554346066
0.000188887876262
0.000424777607688
0.000171085647136
0.000376096872293
0.00016355317769
0.000324890877487
0.000166869443503
0.000286912265701
0.000176090207727
0.000232564664258
0.000211855017416
0.000166996462192
0.000240329427535
0.000110827929348
0.000262079295383
5.75017181376e-05
0.000287068961406
0.000285831981421
0.000932904753523
-0.00452917692608
0.00191915126382
-0.00478713251256
0.00290117702624
-0.00476725635988
0.00387426828179
-0.00472521826964
0.00483543523699
-0.00466921390242
0.00578188158974
-0.0045999627419
0.00671094549265
-0.00451807868033
0.00762013656405
-0.00442425644938
0.00850712789001
-0.00431927502049
0.00936979442665
-0.00420396287778
0.0102061936281
-0.00407919521932
0.0110145997444
-0.00394585605066
0.0117934707025
-0.00380483829177
0.0125414779889
-0.00365700348836
0.013257460138
-0.0035031861116
0.0139404487813
-0.00334415257109
0.0145896098567
-0.00318061166492
0.0152042673222
-0.00301317506743
0.0157838346291
-0.00284237603988
0.01632783882
-0.00266863374605
0.0168358458057
-0.00249228196329
0.0173074884542
-0.00231353838457
0.0177423899788
-0.00213254329294
0.0181401993545
-0.00194933336195
0.0185005160534
-0.00176388853547
0.0188229347329
-0.00157610823284
0.0191069733202
-0.00138586372344
0.0193521273193
-0.00119297507739
0.0195578019563
-0.000997267477375
0.0197233760519
-0.00079854856494
0.0198481397627
-0.000596670003567
0.0199313682923
-0.000391501884402
0.0199722671631
-0.000183000259999
0.0199700576924
2.88138915781e-05
0.0199239317956
0.000243789485714
0.0198331491032
0.000461666058478
0.0196970019012
0.000682010711562
0.0195149217842
0.000904243455567
0.0192864526341
0.00112758137477
0.019011361748
0.00135107188847
0.0186896159949
0.0015735471398
0.0183214912642
0.00179366540271
0.0179075477435
0.00200987416002
0.0174487343934
0.00222045445431
0.0169463642417
0.00242348640281
0.0164022180134
0.0026168898654
0.0158185280953
0.00279838991695
0.0151980897599
0.00296555819354
0.0145442597562
0.00311579565803
0.0138610695226
0.00324640576417
0.0131532165098
0.00335463893901
0.0124261347585
0.00343784813022
0.0116859126542
0.00349362949873
0.0109392485897
0.00352006256791
0.010193240107
0.00351588812121
0.0094552176883
0.00348071956902
0.00873244867134
0.00341513893808
0.00803187797864
0.00332085340217
0.00735975549326
0.0032006973521
0.00672128416315
0.00305867894946
0.00612023566596
0.0028997262157
0.00555887871944
0.00272914626905
0.00503807280885
0.00255200261147
0.00455758638915
0.0023727093527
0.00411637515183
0.00219482552369
0.00371288245968
0.00202109449306
0.00334520091807
0.00185353257564
0.00301124610276
0.00169356640993
0.00270883450767
0.00154212600462
0.0024357814054
0.00139977602983
0.00218991074421
0.00126680931391
0.00196909077364
0.00114334419651
0.00177121764453
0.00102935072973
0.00159425749057
0.000924669042633
0.00143625358474
0.000829002111686
0.00129536956923
0.000741949732728
0.00116988766919
0.000663025297367
0.00105823830081
0.000591690363817
0.000958991549222
0.000527371695253
0.000870877546143
0.000469498883177
0.000792779759119
0.00041752647044
0.000723787054077
0.000370960156433
0.000663170885978
0.000329497952354
0.000612271307005
0.000292146296776
0.000562108292875
0.000270930638397
0.00051160740051
0.000254001928687
0.00045921438705
0.000241138219539
0.000397272167917
0.000232877335598
0.00033927753126
0.00022139012188
0.00028533309237
0.000220642772117
0.000240657874675
0.000220584686089
0.000201027933857
0.000251289529892
0.000143562498897
0.000297589579897
8.89681436405e-05
0.000316454446236
4.50434611176e-05
0.000330768014704
0.000330765665772
0.000946713490554
-0.00547544379973
0.00194727334514
-0.00578722395755
0.00294337455681
-0.00576288077792
0.00393016407006
-0.00571153323839
0.00490454313823
-0.00564311794446
0.0058636004468
-0.00555854615607
0.00680458380757
-0.00545858895591
0.00772492161154
-0.00534412233227
0.00862223413097
-0.00521611726765
0.00949435316552
-0.0050756134499
0.0103393232666
-0.00492369941509
0.0111554138183
-0.00476148344867
0.0119411092275
-0.00459007421102
0.012695112586
-0.00441055117662
0.013416324781
-0.0042239475049
0.0141038400271
-0.00403122207949
0.0147569148722
-0.00383324701215
0.0153749571239
-0.00363078418218
0.0159574871128
-0.00342448051687
0.0165041232483
-0.00321485211275
0.0170145397889
-0.00300228980921
0.0174884536818
-0.00278705264769
0.0179255836922
-0.00256928409921
0.0183256429188
-0.00234901375234
0.0186883030498
-0.00212618158206
0.0190131949026
-0.00190064452963
0.0192998789851
-0.00167220516982
0.0195478540858
-0.00144062016039
0.0197565339549
-0.00120563134525
0.0199252635854
-0.000966975739672
0.0200533027299
-0.000724421651041
0.0201398507138
-0.000477776718475
0.0201840390674
-0.000226931189743
0.0201849683477
2.81271991584e-05
0.0201417122322
0.00028727203916
0.0200533676801
0.000550222035453
0.019919071483
0.000816502063114
0.0197380622906
0.00108543300794
0.0195097062372
0.00135610172999
0.0192335650413
0.00162736295761
0.0189094235698
0.00189782264399
0.0185373557555
0.00216585310388
0.018117746969
0.00242958704483
0.0176513531872
0.00268693810388
0.0171393193619
0.00293559401016
0.0165832398816
0.00317302866791
0.0159851887731
0.00339648412375
0.0153478021958
0.00360297401702
0.0146743396889
0.00378927237591
0.0139687948632
0.00395195159825
0.013235970438
0.00408745172842
0.0124815556501
0.00419223775518
0.0117121164089
0.00426303351121
0.0109350115922
0.00429711996111
0.0101581954444
0.00429264954002
0.00938996749995
0.00424888383368
0.00863869873495
0.00416633610946
0.00791246065496
0.00404701189103
0.00721863743297
0.00389442950926
0.00656330359412
0.0037139107976
0.00595059421956
0.00351232375903
0.00538256255782
0.00329705825507
0.00485945516872
0.00307498626376
0.00438022407042
0.00285181352732
0.00394302635083
0.00263189569278
0.00354558742398
0.00241840437483
0.00318540859456
0.00221358328659
0.00285991106828
0.00201893580123
0.00256654082567
0.00183537040138
0.00230283718261
0.00166335625427
0.00206643972942
0.00150308589263
0.00185506519237
0.00135459998254
0.00166647844701
0.00121781956972
0.0014985130145
0.00109251704768
0.00134910811227
0.000978289039543
0.00121634212124
0.000874597076795
0.00109844428517
0.00078080419754
0.000993811559602
0.000696203759113
0.000901015405845
0.000620048778543
0.000818807809165
0.000551587672633
0.000746112248737
0.0004901055341
0.000681973335011
0.000434983241745
0.000624780586967
0.000386576014028
0.000572473813984
0.000344335605626
0.000522519707812
0.000320760586733
0.000470008881164
0.000306380472694
0.000420921034382
0.000290082595847
0.000374972343603
0.000278671572034
0.00032008997356
0.000276101687542
0.000261016271335
0.000279538714159
0.000199598486534
0.000281830699333
0.000158692903668
0.000292014337421
0.000123246791778
0.000332833660768
7.61292679305e-05
0.000363377979503
3.79983941038e-05
0.000368704409384
0.000368657840515
0.000963482844428
-0.00643848482938
0.00198158209014
-0.00680484828133
0.00299490736792
-0.00677573490811
0.00399843916191
-0.00671459123539
0.00498893345544
-0.0066331403046
0.0059633489701
-0.00653248963018
0.00691881957714
-0.00641358864083
0.0078526797668
-0.00627751233601
0.00876248024094
-0.006125449131
0.00964600498758
-0.0059586711538
0.0105012774853
-0.00577850734291
0.0113265677469
-0.00558631168722
0.0121203876526
-0.00538343563893
0.0128814875905
-0.0051711963412
0.0136088405977
-0.00495085052722
0.014301628589
-0.00472356505913
0.0149592157831
-0.00449039530473
0.0155811258179
-0.00425226165424
0.0161670069513
-0.00400993660096
0.0167166038461
-0.00376403165753
0.0172297195541
-0.00351499704719
0.0177061879439
-0.00326312161319
0.0181458388071
-0.00300854575443
0.0185484767156
-0.00275127274431
0.0189138537282
-0.00249119110499
0.0192416572563
-0.00222809203345
0.0195314910541
-0.00196169550056
0.0197828710501
-0.00169166919845
0.0199952129122
-0.0014176557719
0.0201678343721
-0.00113929322848
0.0202999496151
-0.000856247325592
0.0203906792084
-0.000568230961779
0.0204390544587
-0.000275046045242
0.0204440400784
2.33872630311e-05
0.0204045525599
0.000326990047563
0.0203194984837
0.000635491763053
0.0201878089797
0.000948392171341
0.0200084925928
0.00126493525306
0.0197806819856
0.00158408341959
0.0195036938986
0.00190450746475
0.0191770778052
0.00222458042375
0.0188006707884
0.00254238679766
0.0183746362887
0.00285573287042
0.0178995058157
0.00316216398902
0.0173762072551
0.00345897150293
0.0168061052055
0.00374319267741
0.0161910452659
0.00401158942256
0.0155334313849
0.00426061688786
0.0148363294898
0.00448638657933
0.0141036164147
0.00468466337173
0.0133401334765
0.00485091464574
0.0125518416788
0.00498050035826
0.0117458637947
0.00506896391674
0.0109304187054
0.00511251339659
0.0101145503051
0.00510845353052
0.00930781577261
0.0050555503491
0.00852004612299
0.0049540301016
0.00776085362339
0.00480611982198
0.00703935850088
0.00461582866149
0.00636306081941
0.00439009940462
0.00573659928412
0.00413866547552
0.00516156614957
0.00387196591636
0.00463711690686
0.00359930490363
0.00416091584122
0.00332788495827
0.00372995940652
0.00306271983551
0.00334104435669
0.00280718902206
0.00299092662555
0.00256356900854
0.00267643256222
0.00233330012355
0.00239456483057
0.00211711060629
0.0021425759575
0.00191522088867
0.00191793776783
0.00172760331669
0.00171823849657
0.00155418062973
0.0015410968816
0.00139484381496
0.00138418050595
0.00124931594034
0.00124529334138
0.00111705844536
0.00112241402711
0.000997358210072
0.00101370210065
0.000889397156546
0.000917515226652
0.000792272059208
0.000832422812248
0.000705022765038
0.000757221550678
0.000626670868197
0.000690976128497
0.00055623484394
0.00063312005955
0.000492725638617
0.000583939594705
0.000435641338994
0.00053388058242
0.000394274447838
0.000483410796224
0.00037110525081
0.000435903880748
0.000353751567638
0.000384087203103
0.000341754303361
0.00033320786251
0.000329392871443
0.000279642001914
0.000329497701292
0.00023140063857
0.000327605964932
0.000177181154659
0.000335869549781
0.000126012397049
0.000343010002218
9.93386695314e-05
0.000359340533003
6.42031498366e-05
0.000398324799773
3.18805972049e-05
0.000400840575773
0.000400449812109
0.00098342442436
-0.00742146793897
0.00202241391592
-0.00784337656324
0.00305626195122
-0.00780911152912
0.00407971558848
-0.00773757615394
0.00508935996651
-0.00764231469257
0.00608199277025
-0.00752465354885
0.00705461224718
-0.00738573940716
0.00800443991207
-0.00722687230982
0.00892894262657
-0.00704948514297
0.00982584782469
-0.00685511135865
0.0106931534261
-0.00664534987263
0.0115291320307
-0.00642182994963
0.0123323290388
-0.00618617535195
0.0131015551245
-0.00593996904978
0.013835872077
-0.00568471840093
0.0145345729125
-0.00542182205668
0.015197155301
-0.00515253950962
0.0158232901049
-0.00487796488459
0.0164127847273
-0.00459900666829
0.0169655443843
-0.00431637475033
0.0174815317037
-0.00403057616855
0.0179607286015
-0.00374191960897
0.018403100608
-0.00345052847996
0.018808567233
-0.00315636060948
0.0191769769432
-0.00285923285353
0.0195080889597
-0.00255884770752
0.0198015584942
-0.00225482055414
0.0200569270383
-0.00194670587511
0.0202736137584
-0.00163402343722
0.0204509108961
-0.00131628476429
0.020587980382
-0.000993024840237
0.0206838558589
-0.000663828535277
0.0207374493638
-0.000328375798801
0.0207475676623
1.351840502e-05
0.0207129353089
0.000361857508177
0.0206322308869
0.000716417068554
0.0205041303635
0.00107669928373
0.0203273632169
0.0014418949957
0.0201007716388
0.00181085325816
0.0198233771178
0.00218206611775
0.0194944410755
0.00255366561065
0.019113523383
0.00292343848635
0.0186805248804
0.00328884884664
0.0181957215692
0.00364706763776
0.0176597837519
0.00399499124434
0.0170737990383
0.004329241259
0.0164393061636
0.00464612786135
0.0157583715005
0.00494157776821
0.0150337272249
0.00521104205938
0.0142689743922
0.00544940326186
0.0134688732273
0.00565099559636
0.0126395918186
0.00580973381565
0.0117889193163
0.00591959004205
0.010926147878
0.00597521722848
0.0100617353948
0.00597280218846
0.00920674938515
0.00591046414175
0.00837292625274
0.00578777495799
0.0075718240095
0.00560713589865
0.00681535611892
0.005372194024
0.00611350838869
0.00509183172667
0.0054716194777
0.00478042804868
0.00489027611519
0.00445317694181
0.00436667945155
0.00412276888589
0.00389641309151
0.00379801698348
0.00347485776215
0.00348414323256
0.00309767983147
0.00318423192784
0.00276078200985
0.00290033396324
0.00246028238249
0.00263366728754
0.00219267568249
0.0023845875068
0.00195494872472
0.00215282321273
0.0017444922046
0.00193793712434
0.00155884278869
0.00173971114562
0.00139546272539
0.00155810489061
0.00125178455134
0.00139287651535
0.00112543462018
0.0012432900873
0.00101427937773
0.0011083933616
0.000916394276203
0.000987162753901
0.000830079408464
0.000878467079765
0.000753881877778
0.000781101167529
0.000686586013896
0.000693847838858
0.000627220649175
0.000615483538985
0.000575019936228
0.000544811983875
0.00052912786898
0.000481417117224
0.000482708380509
0.000440572949823
0.000437681174192
0.000416003013287
0.000394690690242
0.00039660462018
0.00034895207548
0.000387344288244
0.000296156660722
0.000382028112041
0.000245232743802
0.000380253004886
0.000192473677197
0.000380191535918
0.000153480708807
0.00037469273456
0.00011087745336
0.000385444523557
7.76481981275e-05
0.000392396135585
5.48223789701e-05
0.000420986877414
2.64468280241e-05
0.000429053855235
0.000426807312501
0.00100674527822
-0.0084277789016
0.00207018602497
-0.00890634880133
0.00312803122446
-0.00886649326132
0.00417476352902
-0.00878384142608
0.00520674819583
-0.00867383406414
0.00622059440459
-0.00853803380154
0.00721313545534
-0.00837781516661
0.0081814602542
-0.00819473206658
0.00912293512077
-0.00799049604109
0.0100352220132
-0.0077669354178
0.0109162881742
-0.00752595520382
0.0117644114578
-0.00726949462359
0.0125781775065
-0.0069994859497
0.0133564721374
-0.00671781170887
0.0140984649616
-0.00642626371466
0.0148035872831
-0.00612650170006
0.0154715007411
-0.00582001611807
0.0161020604738
-0.00550809398299
0.0166952706536
-0.00519179342593
0.0172512377944
-0.0048719260179
0.0177701211221
-0.00454905215432
0.0182520867063
-0.00422348665585
0.0186972645928
-0.00389531759205
0.019105715003
-0.00356443219633
0.0194774004844
-0.00323055038595
0.0198121676605
-0.00289325793809
0.0201097325039
-0.00255204033247
0.0203696712743
-0.0022063115183
0.0205914106922
-0.00185544244623
0.0207742213081
-0.00149878769563
0.0209172095985
-0.00113571884954
0.0210193157855
-0.000765653694528
0.021079316068
-0.000388108744693
0.0210958356868
-2.74732979343e-06
0.021067371568
0.000390561855973
0.0209923302877
0.000791685149249
0.020869078079
0.00120016481572
0.020696005282
0.00161516755693
0.0204715996593
0.00203544494075
0.0201945256189
0.00245931177797
0.0198637010902
0.00288464672353
0.0194783640876
0.0033089155848
0.0190381205031
0.00372921470046
0.0185429679746
0.00414232340305
0.0179932957955
0.00454474722681
0.0173898739496
0.00493272749481
0.0167338540542
0.0053021908382
0.016026830522
0.00564862814047
0.0152709834161
0.00596688844988
0.0144693974855
0.00625098121864
0.0136264618539
0.00649388755261
0.0127484464298
0.00668771043005
0.011843839067
0.0068241286854
0.0109234034232
0.00689559469105
0.00999940436903
0.00689673101069
0.00908456663163
0.00682523116818
0.00819309598717
0.00667917015097
0.00733846949549
0.00646167130718
0.00653747922672
0.00617307491377
0.00580481450422
0.00582437181024
0.00514671800409
0.00543838791266
0.00456157926703
0.00503817858022
0.00404300248963
0.00464120574969
0.00358317507994
0.00425770837874
0.00317532154529
0.0038918579372
0.00281397001312
0.00354544632444
0.00249415326894
0.00322001188955
0.00221115009669
0.00291653243376
0.00196084683578
0.00263475787714
0.00174003426875
0.00237350413302
0.00154625413576
0.00213159173177
0.00137717521826
0.00190866462166
0.0012300894834
0.00170506895023
0.00110201391477
0.00152082952838
0.000990337800275
0.00135484422983
0.000892831059149
0.00120577751197
0.000807470257283
0.00107239950114
0.000732482435879
0.000953332175935
0.000666396210063
0.000847064949735
0.000607990446948
0.000752131665063
0.000556303029893
0.000667050775604
0.00051054963744
0.000590448306822
0.000469953689904
0.000521894723206
0.000424860499304
0.000485540965184
0.000382492679479
0.000458239077478