/*--------------------------------*- C++ -*----------------------------------*\
| =========                 |                                                 |
| \\      /  F ield         | OpenFOAM: The Open Source CFD Toolbox           |
|  \\    /   O peration     | Version:  v1906                                 |
|   \\  /    A nd           | Web:      www.OpenFOAM.com                      |
|    \\/     M anipulation  |                                                 |
\*---------------------------------------------------------------------------*/
FoamFile
{
    version     2.0;
    format      ascii;
    class       surfaceScalarField;
    location    "527";
    object      phi;
}
// * * * * * * * * * * * * * * * * * * * * * * * * * * * * * * * * * * * * * //

dimensions      [0 3 -1 0 0 0 0];
oriented        oriented;


internalField   nonuniform List<scalar> 
18240
(
-0.000198884717809
0.000198870787583
-0.000407186819825
0.00020828282303
-0.00061408529726
0.000206885656111
-0.00081796079209
0.000203854734837
-0.0010177421366
0.000199770102037
-0.00121251513115
0.000194750744778
-0.00140143346414
0.000188908556088
-0.0015837967515
0.000182339537478
-0.00175895957331
0.000175154503735
-0.0019264331135
0.000167448289471
-0.00208576997192
0.000159330057333
-0.00223668170361
0.000150884965874
-0.00237889837277
0.000142211409564
-0.00251230371094
0.000133377037094
-0.00263677112893
0.000124463784049
-0.00275231916548
0.00011551818268
-0.00285892539709
0.000106604277004
-0.00295670445154
9.77476440372e-05
-0.00304570063319
8.89960405987e-05
-0.00312609011722
8.03565301572e-05
-0.00319795219499
7.18638455061e-05
-0.00326149666036
6.35100060121e-05
-0.0033168132164
5.53204131944e-05
-0.0033641246668
4.72755452969e-05
-0.00340351362077
3.93950167885e-05
-0.00343520186073
3.16509773855e-05
-0.00345925372295
2.40603239585e-05
-0.00347588187454
1.6589642604e-05
-0.00348512679446
9.2558775595e-06
-0.00348718910405
2.02270284686e-06
-0.00348208490816
-5.09057269822e-06
-0.0034700042205
-1.21212028345e-05
-0.00345094308594
-1.90447900912e-05
-0.0034250878358
-2.58964159029e-05
-0.0033924240792
-3.26445525306e-05
-0.0033531453372
-3.93202273516e-05
-0.00330724032182
-4.5882933262e-05
-0.00325492381533
-5.23578801558e-05
-0.00319620394756
-5.86948060786e-05
-0.00313133207545
-6.49126158721e-05
-0.00306035207663
-7.09519961121e-05
-0.00298356507174
-7.6826500458e-05
-0.00290106397532
-8.24701139122e-05
-0.00281320838866
-8.78931341176e-05
-0.0027201488433
-9.30256652925e-05
-0.00262230750105
-9.78761665011e-05
-0.00251989874946
-0.000102371955963
-0.00241341222221
-0.000106517869986
-0.00230313754646
-0.000110235074596
-0.00218964670114
-0.000113518053296
-0.00207333001331
-0.000116274336723
-0.00195487283591
-0.000118479846797
-0.00183480409281
-0.000120023885392
-0.00171395686265
-0.000120865322109
-0.00159302238077
-0.00012088747492
-0.00147297976782
-0.000120056388344
-0.00135464624446
-0.000118284851325
-0.001239068987
-0.000115586802278
-0.00112707671641
-0.000111942209626
-0.00101964182111
-0.000107439717574
-0.000917450685911
-0.000102139959883
-0.000821246690576
-9.62036214251e-05
-0.00073143546923
-8.97593835304e-05
-0.000648414433531
-8.30160918586e-05
-0.000572236313509
-7.61266191914e-05
-0.000502946174022
-6.92821615699e-05
-0.000440307086566
-6.25890091659e-05
-0.000384128402265
-5.61691778337e-05
-0.000334014179136
-5.00662506081e-05
-0.000289651262198
-4.43524293117e-05
-0.000250562080626
-3.90432490965e-05
-0.000216362152223
-3.41880958392e-05
-0.000186536482753
-2.9781267774e-05
-0.000160682293596
-2.58405250492e-05
-0.000138310397859
-2.23286852438e-05
-0.000119062033388
-1.92328458184e-05
-0.000102520354967
-1.6499795491e-05
-8.83941288747e-05
-1.41092683959e-05
-7.63417889225e-05
-1.20120818001e-05
-6.61333101051e-05
-1.01906491828e-05
-5.74945431681e-05
-8.60040411337e-06
-5.02549392523e-05
-7.22120647351e-06
-4.42207607387e-05
-5.99778267405e-06
-3.93542350124e-05
-4.84821716891e-06
-3.55090606564e-05
-3.81056763858e-06
-3.21360609502e-05
-3.35158917365e-06
-2.90664186342e-05
-3.03292128364e-06
-2.64453732448e-05
-2.59243414371e-06
-2.38853638663e-05
-2.51617858033e-06
-2.11473520035e-05
-2.69712479737e-06
-1.83567999077e-05
-2.73384600625e-06
-1.55139133743e-05
-2.78500513043e-06
-1.22949071476e-05
-3.1502307682e-06
-8.46656277466e-06
-3.74750970786e-06
-4.07018705894e-06
-4.29815479847e-06
-4.02067632046e-06
-0.000210424765053
0.000409279910905
-0.000433381577397
0.000431221494762
-0.000654114325927
0.000427602395094
-0.000871374728173
0.000421096924127
-0.0010841503946
0.0004125300866
-0.00129149618379
0.000402078002821
-0.00149253548594
0.000389932485795
-0.00168651076886
0.000376295913499
-0.00187275591232
0.000361384622348
-0.0020507365402
0.000345409639967
-0.00222000447265
0.000328583327016
-0.00238023852695
0.000311099376888
-0.00253118572968
0.000293144344909
-0.00267270619207
0.000274877496771
-0.00280470387572
0.000256447612386
-0.00292717840237
0.000237972361181
-0.00304014747277
0.000219559963347
-0.00314370772829
0.000201287238955
-0.0032379500154
0.00018322546741
-0.00332303055762
0.000165416151122
-0.00339907943218
0.000147900488615
-0.00346628263295
0.00013069210176
-0.0035247835549
0.00011380982589
-0.00357477609874
9.72468947991e-05
-0.0036163987081
8.10069807879e-05
-0.00364983849614
6.5069596653e-05
-0.00367521736794
4.94295291487e-05
-0.00369270709808
3.40583551909e-05
-0.00370240720844
1.89474550645e-05
-0.00370447086159
4.06563518303e-06
-0.00369897471365
-1.05939966261e-05
-0.00368605587659
-2.50602988583e-05
-0.00366577303711
-3.93334781156e-05
-0.00363825391664
-5.34351295637e-05
-0.0036035488636
-6.73538754997e-05
-0.00356178840455
-8.10993697175e-05
-0.00351302919008
-9.4644627711e-05
-0.00345742050566
-0.000107984037299
-0.00339504287749
-0.000121072926144
-0.00332608179828
-0.000133889610474
-0.00325065921215
-0.000146372831296
-0.0031690122026
-0.00015848745922
-0.00308131793219
-0.000170160134905
-0.00298787502067
-0.000181347557019
-0.00288892350539
-0.000191970098094
-0.00278482753981
-0.000201980666494
-0.0026758937661
-0.000211295477425
-0.00256255556137
-0.000219861092253
-0.00244519496176
-0.000227581909875
-0.00232432979633
-0.00023438427074
-0.00220044393523
-0.000240142717157
-0.00207417644471
-0.00024474417234
-0.00194615935312
-0.000248019821645
-0.00181720009165
-0.000249817325658
-0.00168811549149
-0.000249947635959
-0.00155989025292
-0.000248270731107
-0.00143349220131
-0.000244655695997
-0.00130999773278
-0.000239067034861
-0.00119039380221
-0.000231516286574
-0.00107568401333
-0.000222131787896
-0.000966695998105
-0.00021109540815
-0.000864186264599
-0.000198691893521
-0.000768663405913
-0.00018524728559
-0.000680493664495
-0.00017116127622
-0.000599770776781
-0.000156813299799
-0.000526460037487
-0.000142566929511
-0.000460325713957
-0.000128687422761
-0.000401088673175
-0.000115380262796
-0.000348355195089
-0.000102764915384
-0.000301736510917
-9.09455916548e-05
-0.000260757235126
-7.99886181997e-05
-0.00022495573867
-6.99638929159e-05
-0.000193807891855
-6.08954551131e-05
-0.000166833759975
-5.27881791216e-05
-0.000143537461466
-4.55912918022e-05
-0.000123499828604
-3.92433274462e-05
-0.000106309816552
-3.36563900116e-05
-9.16311741993e-05
-2.87605322889e-05
-7.91316837177e-05
-2.44788156389e-05
-6.8541636368e-05
-2.07534983952e-05
-5.95916344908e-05
-1.75185526575e-05
-5.20624204992e-05
-1.47234332312e-05
-4.57209276566e-05
-1.23085401085e-05
-4.03176126142e-05
-1.02252360841e-05
-3.55987424597e-05
-8.5002375578e-06
-3.15491689385e-05
-7.37368943231e-06
-2.83061339095e-05
-6.24357945982e-06
-2.56477279471e-05
-5.21790795926e-06
-2.32346844622e-05
-4.89053381906e-06
-2.08167755716e-05
-5.07062538561e-06
-1.81577145183e-05
-5.33985078816e-06
-1.53251977559e-05
-5.55997522313e-06
-1.22722217988e-05
-6.13532578289e-06
-8.67056711469e-06
-7.26902751089e-06
-4.23002282854e-06
-8.64980232982e-06
-8.20655530347e-06
-0.000213289093674
0.000622552930168
-0.000438536160982
0.000656451574853
-0.000661742813435
0.000650792004404
-0.000881397380693
0.000640734137119
-0.00109641246403
0.000627528313787
-0.00130580094101
0.000611448993445
-0.00150867211354
0.000592786892882
-0.00170425218049
0.000571858387131
-0.00189187961568
0.000548995363902
-0.00207101689858
0.000524529241174
-0.0022412342213
0.000498784046481
-0.00240221598505
0.000472063380215
-0.00255373659004
0.000444648440003
-0.00269566538555
0.000416788463849
-0.00282793787752
0.000388703716542
-0.00295056219636
0.000360578802908
-0.00306358814096
0.000332569664885
-0.00316711722191
0.000304798432697
-0.00326127090908
0.000277363121908
-0.00334620527762
0.000250332679754
-0.00342207885782
0.000223758308497
-0.0034890721567
0.000197667689547
-0.00354735497215
0.000172077262273
-0.0035971106505
0.000146985087591
-0.00363850243665
0.000122383863669
-0.00367170221038
9.8252225267e-05
-0.003696855506
7.45685339989e-05
-0.0037141145127
5.13006786231e-05
-0.00372360148477
2.84208598421e-05
-0.00372544593878
5.89400668466e-06
-0.00371974641434
-1.63062056717e-05
-0.00370661183406
-3.82102081983e-05
-0.00368612172791
-5.98352461717e-05
-0.00365837179348
-8.11994529513e-05
-0.00362343268755
-0.000102303414537
-0.00358139959417
-0.000123145697472
-0.00353234955315
-0.00014370367537
-0.00347639445207
-0.000163950955147
-0.00341363657424
-0.00018383810847
-0.00334422385543
-0.000203312426919
-0.00326830288439
-0.000222299121499
-0.00318607482823
-0.000240723515677
-0.00309774514654
-0.000258492749085
-0.00300357865842
-0.000275519485389
-0.00290384590281
-0.000291702944946
-0.00279887704815
-0.000306951836359
-0.0026890069016
-0.000321162304707
-0.00257462973727
-0.000334236851941
-0.00245614756493
-0.000346056848142
-0.00233403026795
-0.000356495912857
-0.00220877286192
-0.000365388600619
-0.00208096375762
-0.000372543169274
-0.00195125099032
-0.000377716812317
-0.00182041105821
-0.000380642984161
-0.00168930865777
-0.000381030530702
-0.00155894215753
-0.000378619452199
-0.00143037135624
-0.000373203912254
-0.00130472362193
-0.00036469393519
-0.00118309855843
-0.000353115928701
-0.00106655767007
-0.000338648863759
-0.00095602956703
-0.000321595151815
-0.000852314499924
-0.000302379755037
-0.000755988680342
-0.000281541721127
-0.000667401413335
-0.000259718589478
-0.000586628880705
-0.000237552772966
-0.00051354587647
-0.000215619235557
-0.000447857269024
-0.000194343245152
-0.000389202959534
-0.000174004713436
-0.000337168581866
-0.00015476773501
-0.000291327771045
-0.000136757466775
-0.000251202699784
-0.00012008291869
-0.000216288760957
-0.000104848798925
-0.000186040043693
-9.11131605917e-05
-0.000159925205837
-7.88733462541e-05
-0.000137434383793
-6.80506882608e-05
-0.000118123636183
-5.85241444934e-05
-0.000101594653441
-5.01540916437e-05
-8.75056279282e-05
-4.28198362913e-05
-7.55402069969e-05
-3.64134731016e-05
-6.54226997093e-05
-3.08417624816e-05
-5.68964196998e-05
-2.60147445391e-05
-4.97361438305e-05
-2.18548926715e-05
-4.37251859932e-05
-1.82900033782e-05
-3.86515297336e-05
-1.52711521359e-05
-3.43427142625e-05
-1.27804770181e-05
-3.06348252881e-05
-1.10519501499e-05
-2.72348062592e-05
-9.61071288485e-06
-2.41007208137e-05
-8.31767319458e-06
-2.15894573984e-05
-7.36307001599e-06
-1.95602703519e-05
-7.05456180388e-06
-1.69741980528e-05
-7.87323119256e-06
-1.38741130006e-05
-8.60196862046e-06
-1.06420211645e-05
-9.30294436588e-06
-7.08929033182e-06
-1.07500007355e-05
-3.58321895602e-06
-1.2079374192e-05
-1.17508214506e-05
-0.00021672187369
0.000839258657482
-0.000445336489137
0.000885048509742
-0.000671834136497
0.000877272548681
-0.000894603700197
0.000863486307824
-0.00111249369692
0.00084540117199
-0.00132447016564
0.000823408118566
-0.0015296154616
0.000797915032421
-0.0017271396605
0.000769365222757
-0.00191638158363
0.0007382201413
-0.00209681043153
0.000704940708219
-0.00226801667382
0.000669973162596
-0.00242970640649
0.000633735720584
-0.00258168589465
0.000596610836052
-0.0027238528282
0.000558938002321
-0.00285617840058
0.000521012237342
-0.00297869890763
0.000483081929386
-0.00309149811159
0.000445351891825
-0.00319470127839
0.000407984268661
-0.00328845917864
0.000371104157645
-0.00337294538587
0.000334801659467
-0.00344834220547
0.000299138450484
-0.0035148412246
0.000264149659452
-0.00357263084164
0.000229850464233
-0.0036218996707
0.000196237135393
-0.00366282516887
0.000163293317553
-0.00369557945744
0.000130990104824
-0.00372031859237
9.92920951188e-05
-0.00373719049109
6.81566528978e-05
-0.00374632460911
3.75400039479e-05
-0.00374784188255
7.39596727266e-06
-0.00374184476085
-2.23175764367e-05
-0.00372842923182
-5.16402934523e-05
-0.00370767541902
-8.06024159622e-05
-0.00367966187676
-0.000109226621448
-0.00364445687435
-0.000137520707574
-0.00360213498304
-0.000165480082743
-0.00355276903232
-0.000193080621113
-0.00349644863384
-0.000220282468893
-0.00343327225419
-0.000247023931441
-0.00336336663807
-0.000273227476172
-0.00328687779148
-0.000298795506664
-0.00320398960618
-0.000323619043886
-0.00311491210135
-0.000347575431546
-0.00301989743672
-0.000370538861122
-0.00291922431739
-0.000392378260169
-0.00281321095313
-0.000412966586308
-0.00270219692746
-0.000432174819834
-0.0025865560581
-0.000449875030342
-0.00246668127339
-0.000465925675574
-0.00234300487056
-0.000480164939739
-0.00221599539779
-0.000492387297363
-0.00208619332937
-0.00050233296724
-0.00195422426227
-0.000509670515905
-0.00182084403671
-0.000514006491105
-0.00168694867191
-0.000514906698215
-0.00155359147591
-0.00051195639173
-0.00142194337949
-0.000504829646272
-0.00129324784202
-0.000493366457476
-0.00116875116565
-0.000477587405187
-0.00104963846926
-0.000457736044967
-0.00093696364773
-0.000434241911495
-0.000831636789757
-0.000407677439401
-0.000734323926798
-0.000378823267012
-0.000645378129272
-0.000348632130092
-0.000564810063918
-0.000318087904063
-0.00049235478175
-0.000288041908757
-0.000427579561599
-0.00025908634022
-0.000370013343082
-0.000231539845726
-0.000319197864576
-0.000205552639868
-0.000274685850768
-0.000181239821411
-0.000235989799215
-0.000158748983373
-0.000202560646254
-0.000138248061269
-0.000173794123777
-0.000119849010517
-0.000149088038049
-0.000103548665344
-0.000127890363065
-8.92171726962e-05
-0.000109738021197
-7.66456750323e-05
-9.42466994606e-05
-6.56145590258e-05
-8.10869114886e-05
-5.59492939916e-05
-6.99565689937e-05
-4.75135370368e-05
-6.05848819672e-05
-4.01837586634e-05
-5.27267593379e-05
-3.38432333402e-05
-4.61640737395e-05
-2.8388318212e-05
-4.06983846698e-05
-2.37267162407e-05
-3.61186185146e-05
-1.9822458326e-05
-3.22710276586e-05
-1.65994820394e-05
-2.86895465617e-05
-1.46020857019e-05
-2.54111750145e-05
-1.28550100234e-05
-2.25529710133e-05
-1.11395523935e-05
-1.97346015368e-05
-1.01416455122e-05
-1.68754323558e-05
-9.86944450785e-06
-1.47299631523e-05
-9.96899867292e-06
-1.18253854189e-05
-1.14498824632e-05
-8.42673992885e-06
-1.26409865343e-05
-5.53331930053e-06
-1.35815231028e-05
-2.83843577033e-06
-1.47076972838e-05
-1.45542825177e-05
-0.000221304663102
0.00106054689068
-0.000454606012485
0.00111833290395
-0.00068561542913
0.00110826440864
-0.000912625910785
0.00109047945683
-0.00113441180137
0.00106716966162
-0.00134988137614
0.00103886031071
-0.00155808020588
0.00100609649829
-0.00175819980242
0.000969467421069
-0.00194957912167
0.000929582106369
-0.00213170140448
0.000887045592252
-0.0023041846216
0.000842439040412
-0.0024667699555
0.00079630366131
-0.00261930617579
0.000749129731317
-0.00276173490222
0.000701349344851
-0.00289407367609
0.000653333711882
-0.00301640201703
0.000605392908835
-0.00312884625812
0.000557778875368
-0.00323156853621
0.000510689235396
-0.00332475465152
0.00046427309938
-0.00340860654602
0.000418636340041
-0.00348333316723
0.000373848033393
-0.00354914606109
0.000329945501265
-0.00360625263116
0.000286940209348
-0.00365485414981
0.000244821844214
-0.00369514068747
0.000203563323479
-0.00372729089893
0.000163123839663
-0.00375146808151
0.000123453141194
-0.00376782133139
8.44938615456e-05
-0.00377648245722
4.61854888068e-05
-0.00377756839774
8.46641749908e-06
-0.00377117903221
-2.87219550509e-05
-0.00375740103437
-6.54330921918e-05
-0.00373630686088
-0.000101710833935
-0.00370796036831
-0.000137587063087
-0.00367241734246
-0.000173077026763
-0.00362973311835
-0.00020817721016
-0.00357996474477
-0.000242861130853
-0.00352318041426
-0.000277078414176
-0.00345946272604
-0.000310752314079
-0.00338891884923
-0.000343781351382
-0.00331168330306
-0.000376039920632
-0.00322792670321
-0.000407383553576
-0.00313785554912
-0.000437653055757
-0.00304171682853
-0.000466682735056
-0.0029397924476
-0.000494305944331
-0.00283239828741
-0.000520362276489
-0.00271987376645
-0.000544698528269
-0.00260257859062
-0.000567167153292
-0.00248088441493
-0.000587614102437
-0.00235518031868
-0.000605860832642
-0.00222588142972
-0.000621675136251
-0.00209345981657
-0.000634741324792
-0.0019584829314
-0.000644631399412
-0.00182167126007
-0.000650800590601
-0.00168394305386
-0.000652614968287
-0.00154643996271
-0.000649438290376
-0.00141049070038
-0.000640756141849
-0.00127751923598
-0.000626313665807
-0.00114898401887
-0.00060609751945
-0.00102625387298
-0.000580439900994
-0.000910543101579
-0.000549924435177
-0.000802955744284
-0.000515234857427
-0.000704313155327
-0.00047743343835
-0.000614993916351
-0.000437918258619
-0.000534881909896
-0.00039816576335
-0.000463470265915
-0.000359420547692
-0.000400072174566
-0.00032245173999
-0.000344054364568
-0.000287526830863
-0.00029491383465
-0.000254662714088
-0.000252222114579
-0.000223902164806
-0.000215503239141
-0.000195438026073
-0.000184155206785
-0.000169565754357
-0.000157466916301
-0.00014650625014
-0.000134717951276
-0.00012626611405
-0.000115280179291
-0.000108623240089
-9.86760103018e-05
-9.32186272378e-05
-8.4556872177e-05
-7.97026415735e-05
-7.26288691502e-05
-6.78466908158e-05
-6.26058479292e-05
-5.75062564542e-05
-5.42255403203e-05
-4.85342545395e-05
-4.72557720266e-05
-4.07834347158e-05
-4.14934302283e-05
-3.41214236653e-05
-3.67725824551e-05
-2.84182930001e-05
-3.29786720177e-05
-2.3587757455e-05
-2.96861094224e-05
-1.98621984808e-05
-2.65983605916e-05
-1.76569776444e-05
-2.35921316948e-05
-1.58257981647e-05
-2.02381093499e-05
-1.44559606523e-05
-1.71468853427e-05
-1.31925413964e-05
-1.42859380223e-05
-1.26857899733e-05
-1.19331954467e-05
-1.22739873539e-05
-9.85895194384e-06
-1.34715404919e-05
-6.97956497009e-06
-1.5464963876e-05
-4.30045294134e-06
-1.62044756869e-05
-2.15811397569e-06
-1.67920439796e-05
-1.66833849092e-05
-0.000227180678095
0.00128771113456
-0.000466555012832
0.00135768918346
-0.00070338722348
0.00134507918527
-0.000935848757587
0.00132292333536
-0.00116261873381
0.00129392214289
-0.00138253389822
0.00125875792169
-0.00159459405505
0.0012181391381
-0.00179797042241
0.00117282625215
-0.00199200530519
0.00112359947649
-0.00217620500084
0.00107122776379
-0.00235022660193
0.00101644314013
-0.00251386138456
0.000959920931334
-0.00266701558891
0.000902266447462
-0.00280969109131
0.000844007344972
-0.00294196611887
0.000785591263115
-0.00306397798019
0.000727387283978
-0.00317590713824
0.00066969058417
-0.00327796412742
0.000612728774673
-0.00337037798084
0.000556669556047
-0.00345338746174
0.000501628443807
-0.00352723335364
0.000447676629665
-0.00359215314026
0.000394848036503
-0.00364837609984
0.000343146031191
-0.00369612035695
0.000292549041147
-0.00373558977258
0.000243015834839
-0.00376697250237
0.000194489777025
-0.00379043897457
0.000146903021049
-0.00380614145463
0.000100179904063
-0.00381421280913
5.42406616558e-05
-0.00381476698275
9.00461172751e-06
-0.00380789863973
-3.56059570014e-05
-0.00379368486077
-7.96622658868e-05
-0.00377218610507
-0.000123224583555
-0.00374344967582
-0.000166338152165
-0.00370751262023
-0.00020902824915
-0.00366440750602
-0.000251296063993
-0.00361416762587
-0.000293114133473
-0.00355683514434
-0.000334423464664
-0.00349246816803
-0.000375131069859
-0.00342115016673
-0.00041511038018
-0.00334299701761
-0.000454203043825
-0.00325816491659
-0.000492224573555
-0.00316685378549
-0.000528971665564
-0.00306930949671
-0.000564233008479
-0.00296581945355
-0.000597800011013
-0.00285670580849
-0.000629477870378
-0.0027423121106
-0.000659091644931
-0.00262299008365
-0.000686486080935
-0.00249908537333
-0.000711512928481
-0.00237093295082
-0.000734004599357
-0.0022388655238
-0.000753731420771
-0.00210324684079
-0.000770346034787
-0.0019645345719
-0.000783327989902
-0.00182336944879
-0.000791947352709
-0.00168067465824
-0.000795290082331
-0.00153771334914
-0.000792378098448
-0.00139605325618
-0.000782393110808
-0.00125736989338
-0.000764973187947
-0.00112343835942
-0.000740003583839
-0.000995870430786
-0.00070798190001
-0.000876044863449
-0.000669721842553
-0.000765402433414
-0.000625846349731
-0.000665063311831
-0.000577740214828
-0.000575471813541
-0.000527474903621
-0.000496291070283
-0.000477312776541
-0.000426571161346
-0.000429106278844
-0.000365168520804
-0.000383822633068
-0.000311208101494
-0.000341456251523
-0.000264189621875
-0.000301651653744
-0.000223803556999
-0.000264259222729
-0.000189658524179
-0.000229553259295
-0.000161086161074
-0.000198107531835
-0.000137180908372
-0.000170379774224
-0.000117009986084
-0.000146404535847
-9.98155167091e-05
-0.000125785451478
-8.51202156299e-05
-0.000107882024848
-7.26740743968e-05
-9.21174940702e-05
-6.22618303231e-05
-7.82279767722e-05
-5.36072260061e-05
-6.61303545755e-05
-4.64498817087e-05
-5.56616277454e-05
-4.05691044659e-05
-4.66345886963e-05
-3.57655608208e-05
-3.88955143088e-05
-3.18746723663e-05
-3.2279830538e-05
-2.87561122779e-05
-2.6677078259e-05
-2.5751497125e-05
-2.28361310194e-05
-2.29061151793e-05
-2.04692021028e-05
-2.03606437154e-05
-1.83355207399e-05
-1.80130039896e-05
-1.67647740438e-05
-1.52523239701e-05
-1.59101387454e-05
-1.23888457554e-05
-1.55040325207e-05
-9.42800156907e-06
-1.51898153637e-05
-7.44922783581e-06
-1.5402792813e-05
-5.75093339506e-06
-1.71119744262e-05
-3.54229289485e-06
-1.83635159488e-05
-1.75830429336e-06
-1.85259316168e-05
-1.84150739957e-05
-0.000234496768436
0.00152219106464
-0.000481443452905
0.00160461864018
-0.000725519934081
0.00158913767867
-0.000964736000946
0.00156212172809
-0.00119764982853
0.00152681817971
-0.0014230090294
0.00148409940608
-0.00163975928682
0.00143487166291
-0.0018470513926
0.00138010064545
-0.00204423796035
0.00132076833561
-0.00223086107669
0.00125783318441
-0.00240663336434
0.0011921977386
-0.00257141500432
0.00112468489009
-0.00272518893497
0.00105602269939
-0.00286803627405
0.000986837009067
-0.00300011324158
0.000917650557332
-0.00312163067136
0.000848887042761
-0.00323283638645
0.000780878633309
-0.00333400075288
0.000713875483774
-0.00342540501389
0.000648056177524
-0.00350733234187
0.000583538153705
-0.00358006091396
0.000520387619442
-0.00364385890644
0.000458628489263
-0.00369898066955
0.000398250316166
-0.00374566410545
0.000339215067218
-0.00378412856902
0.000281462978207
-0.00381457349483
0.000224917483926
-0.00383717715481
0.000169489587269
-0.00385209592451
0.000115081720085
-0.00385946355307
6.15915010027e-05
-0.00385939098166
8.91544279205e-06
-0.00385196631385
-4.30470042247e-05
-0.00383725563905
-9.43890654167e-05
-0.00381530436024
-0.000145191709198
-0.00378613984439
-0.000195518179873
-0.00374977511053
-0.000245408136941
-0.00370621425083
-0.000294871637007
-0.00365545926409
-0.000343883362096
-0.00359751870133
-0.00039237766741
-0.00353241751761
-0.000440245237099
-0.00346020793842
-0.000487332090615
-0.00338098019065
-0.000533441965847
-0.0032948720931
-0.000578342604468
-0.00320207571083
-0.000621776566146
-0.00310283945903
-0.000663475987461
-0.00299746374086
-0.000703180381264
-0.00288628917723
-0.00074065467381
-0.00276967683243
-0.000775703620158
-0.00264798277515
-0.000808177084462
-0.0025215304419
-0.000837959288229
-0.00239059070469
-0.000864936047342
-0.00225537877241
-0.000888932044486
-0.00211608996418
-0.000909621901077
-0.0019729835428
-0.000926418583642
-0.00182653375286
-0.000938379830191
-0.00167761688183
-0.000944187809131
-0.00152766095505
-0.000942312909123
-0.00137862742719
-0.000931405041773
-0.00123249865021
-0.000911077599971
-0.00109157271202
-0.000880905548201
-0.000957742030586
-0.000841787232684
-0.000832413110369
-0.000795022217651
-0.000717656582661
-0.000740572929068
-0.000615197543978
-0.000680165149553
-0.000525649096232
-0.000616989748109
-0.000448283395511
-0.000554643320226
-0.000381325259367
-0.000496031068829
-0.000322766704669
-0.000442349270841
-0.000271391207882
-0.000392801488701
-0.000226848343611
-0.00034616621998
-0.000189185492754
-0.000301893583476
-0.000158271568869
-0.000260438370067
-0.00013334590518
-0.000223002206201
-0.000113125647266
-0.000190567631694
-9.62780102567e-05
-0.000163218870475
-8.18171794309e-05
-0.000140212777286
-6.93116253739e-05
-0.000120355187403
-5.87661049865e-05
-0.000102631032527
-5.01350818705e-05
-8.68272813124e-05
-4.31053250296e-05
-7.31292035932e-05
-3.73933528656e-05
-6.13432804999e-05
-3.27990465472e-05
-5.11989439388e-05
-2.91191944591e-05
-4.25456687216e-05
-2.61925342847e-05
-3.51767167245e-05
-2.38889275302e-05
-2.89506129937e-05
-2.14833108266e-05
-2.52101418188e-05
-1.93502895999e-05
-2.25678499699e-05
-1.70462893376e-05
-2.06026826739e-05
-1.47851728626e-05
-1.89859768386e-05
-1.24107307889e-05
-1.82419044923e-05
-1.02982447526e-05
-1.75725459286e-05
-7.87920402568e-06
-1.75635048324e-05
-5.6001986492e-06
-1.76375482064e-05
-4.43909129054e-06
-1.82297436582e-05
-2.87219380427e-06
-1.98840632083e-05
-1.42251186155e-06
-1.99294095035e-05
-1.98146751879e-05
-0.000243426707466
0.00176560091634
-0.000499610825997
0.00186078412213
-0.000752498184247
0.00184200716227
-0.000999892622098
0.00180949802964
-0.00124019831535
0.00176710592768
-0.00147205443231
0.00171593752586
-0.0016943445049
0.00165714378169
-0.00190620200012
0.00159194018421
-0.00210700166097
0.00152155006245
-0.00229633987675
0.00144715347232
-0.00247400731644
0.00136984726583
-0.00263995752211
0.00129061718539
-0.00279427441864
0.00121032169273
-0.00293714127817
0.00112968595973
-0.00306881270006
0.00104930406918
-0.00318959064825
0.000969647071348
-0.00329980477736
0.00089107483909
-0.0033997970073
0.000813849782137
-0.00348990982318
0.000738151061181
-0.0035704777953
0.000664088194079
-0.00364182159132
0.000591713494041
-0.00370424395178
0.000521032942129
-0.00375802699955
0.000452015482347
-0.00380343052738
0.000384600745928
-0.00384069081207
0.000318705462485
-0.00387001980153
0.000254228727571
-0.0038916043736
0.000191056490817
-0.00390560571248
0.000129065474746
-0.00391215862248
6.81269428282e-05
-0.00391137103407
8.11050818848e-06
-0.00390332363591
-5.11115798508e-05
-0.00388807014839
-0.000109659558058
-0.0038656381928
-0.000167640434127
-0.00383603152987
-0.000225141374636
-0.00379923362581
-0.000282222244768
-0.00375521336749
-0.000338907759481
-0.00370393272493
-0.000395179394647
-0.00364535704407
-0.000450968229994
-0.00357946722927
-0.000506149222538
-0.0035062739804
-0.000560538712606
-0.00342583233079
-0.000613895896897
-0.00333825566619
-0.00066593029931
-0.00324372611431
-0.000716315486207
-0.0031424994734
-0.000764710049245
-0.00303490079181
-0.000810784157827
-0.00292130872979
-0.000854249303436
-0.00280212643219
-0.000894885856412
-0.00267774006527
-0.000932560593356
-0.00254846946949
-0.000967224791977
-0.00241451934631
-0.000998878233107
-0.00227595212474
-0.00102748968457
-0.00213270518377
-0.00105285654667
-0.00198469836222
-0.00107441146661
-0.00183206319112
-0.00109099947463
-0.00167550457907
-0.00110072831032
-0.00151666612302
-0.00110113306398
-0.00135825859082
-0.00108979098579
-0.0012024951652
-0.00106682022767
-0.0010526994799
-0.00103067859725
-0.000911020215568
-0.000983441686662
-0.000778253409593
-0.0009277627223
-0.000657788972687
-0.000861005091369
-0.000552647835933
-0.00078527416584
-0.000463825155814
-0.000705775467196
-0.000389928865419
-0.000628504128693
-0.000327574524182
-0.0005583503488
-0.000273042473846
-0.000496847646022
-0.000224675677929
-0.00044113959149
-0.000182661564282
-0.0003881514977
-0.000147916902148
-0.000336612314597
-0.000120964920574
-0.000287361947422
-0.000100894070682
-0.000243042072459
-8.56309732901e-05
-0.000205798074822
-7.3066257424e-05
-0.000175747850182
-6.1801491364e-05
-0.000151443063477
-5.1556392165e-05
-0.00013056584105
-4.29821478958e-05
-0.00011117185018
-3.64042555609e-05
-9.33724097063e-05
-3.12737928846e-05
-7.82276176011e-05
-2.7217461228e-05
-6.53684850996e-05
-2.41068403138e-05
-5.42790472853e-05
-2.17096363307e-05
-4.49125362738e-05
-1.98593946165e-05
-3.69963475107e-05
-1.83616239564e-05
-3.0417438314e-05
-1.67889235742e-05
-2.67496518277e-05
-1.53570701414e-05
-2.39641531078e-05
-1.37773878525e-05
-2.21440735871e-05
-1.18370114166e-05
-2.0885492789e-05
-9.95804115666e-06
-2.00783162752e-05
-7.89850151505e-06
-1.9588653854e-05
-6.38736825752e-06
-1.90318163028e-05
-4.65544440141e-06
-1.9326890416e-05
-3.29604595434e-06
-1.9546528729e-05
-2.3578844684e-06
-2.07812025271e-05
-1.13983911894e-06
-2.11063398287e-05
-2.09324224477e-05
-0.000254192185197
0.00201977566321
-0.000521493427798
0.00212806765079
-0.000784948434093
0.00210544355554
-0.00104209651581
0.00206662787821
-0.00129115051676
0.00201614156059
-0.00153061872096
0.00195538746192
-0.00175931667612
0.00188582345707
-0.00197636840143
0.00180897366613
-0.00218118985362
0.00172635328093
-0.00237345836795
0.00163940377693
-0.00255307353178
0.0015494442263
-0.00272011423792
0.0014576397008
-0.00287479614892
0.00136498540728
-0.0030174324924
0.00127230410601
-0.00314840017057
0.00118025353265
-0.00326811194402
0.00108934061772
-0.00337699482555
0.000999939468114
-0.00347547407596
0.000912310761414
-0.00356396204
0.000826620727179
-0.00364285077401
0.000742958610936
-0.0037125075784
0.00066135195789
-0.00377327251864
0.000581779528135
-0.00382545728476
0.000504181879608
-0.00386934478024
0.000428469869222
-0.00390518907154
0.000354531379433
-0.00393321535161
0.000282236647018
-0.00395361976438
0.000211442560287
-0.00396656893419