/*--------------------------------*- C++ -*----------------------------------*\
| =========                 |                                                 |
| \\      /  F ield         | OpenFOAM: The Open Source CFD Toolbox           |
|  \\    /   O peration     | Version:  v1906                                 |
|   \\  /    A nd           | Web:      www.OpenFOAM.com                      |
|    \\/     M anipulation  |                                                 |
\*---------------------------------------------------------------------------*/
FoamFile
{
    version     2.0;
    format      ascii;
    class       volScalarField;
    location    "270";
    object      p;
}
// * * * * * * * * * * * * * * * * * * * * * * * * * * * * * * * * * * * * * //

dimensions      [0 2 -2 0 0 0 0];


internalField   nonuniform List<scalar> 
9216
(
303.925419137
304.004878007
304.175113259
304.42934077
304.767331182
305.187404598
305.687378364
306.264654271
306.916288314
307.639043209
308.429438318
309.283794093
310.198276973
311.168937653
312.191750312
313.262643176
314.37753121
315.532338347
316.723023975
317.945597278
319.196138734
320.470807573
321.765859894
323.077650349
324.402648449
325.737435425
327.078720038
328.423331268
329.768234519
331.110520502
332.447422898
333.776303267
335.094670391
336.40016145
337.690563507
338.963790709
340.217908216
341.451105312
342.661722029
343.84821807
345.009202368
346.14339776
347.249673665
348.327006523
349.374515742
350.391419946
351.377076287
352.330932596
353.252570133
354.141651744
354.997968041
355.821381754
356.611877276
357.369501412
358.094416149
358.786836075
359.447084198
360.075526312
360.672629605
361.238894345
361.77491496
362.281309443
362.758782492
363.208053132
363.629919443
364.025184952
364.394724343
364.739409299
365.060174532
365.357943789
365.633695439
365.888389486
366.123031893
366.33860351
366.536122262
366.716575013
366.880976828
367.030306852
367.165564013
367.287708157
367.397711999
367.496509023
367.585042533
367.664223039
367.734979224
367.798233593
367.855102457
367.90581855
367.947224469
367.978078794
368.000274956
368.015610819
368.025672606
368.031593065
368.034501234
368.035509303
303.846038045
303.925950068
304.094455078
304.349378555
304.688893896
305.111030205
305.613475101
306.193557919
306.848280398
307.574357957
308.368265777
309.226283143
310.144537823
311.119045503
312.145748228
313.220546315
314.339329519
315.498000867
316.692500846
317.918823828
319.173036497
320.451288129
321.749824795
323.064994851
324.39326036
325.731198937
327.075513561
328.423031557
329.770713696
331.115650795
332.455072459
333.786341657
335.106963604
336.414578213
337.706969303
338.982055015
340.237897476
341.472691178
342.684773236
343.872609735
345.034806703
346.170094466
347.277339459
348.35552665
349.40377229
350.421304484
351.407476978
352.361747967
353.283694977
354.172992018
355.029425601
355.852870344
356.643306131
357.400792296
358.125485905
358.817614643
359.477496175
360.105509877
360.702117198
361.2678324
361.8032438
362.308983701
362.785750379
363.234277399
363.655356168
364.049804869
364.418491363
364.762301992
365.082164587
365.379017424
365.653832051
365.907582719
366.141268727
366.355884691
366.552442098
366.731940841
366.895389728
367.043779788
367.178103632
367.299331161
367.408427933
367.506334108
367.593982307
367.672280434
367.742128434
367.804399407
367.859957019
367.909625987
367.950698792
367.981141417
368.002762802
368.017628911
368.027359229
368.032921162
368.035557526
368.03657514
303.675013177
303.758475313
303.928822633
304.186399826
304.529433355
304.955916004
305.463451469
306.049277893
306.710304834
307.443156934
308.244221339
309.109693684
310.035623494
311.017954891
312.052565238
313.135297749
314.261991988
315.428508042
316.630749381
317.864679592
319.126339027
320.411855668
321.717457221
323.039477676
324.374366339
325.718691345
327.069146762
328.422553921
329.77586733
331.126174355
332.470700391
333.806807133
335.131997187
336.44391107
337.740331404
339.019178668
340.278515047
341.516538991
342.731588776
343.922135922
345.086788565
346.22428379
347.333490909
348.413402808
349.463139211
350.481937133
351.469154224
352.424258425
353.34683145
354.236557748
355.093228177
355.916728354
356.707042573
357.464241612
358.188486925
358.880017989
359.539156773
360.166294709
360.761897422
361.326491408
361.86066901
362.365074876
362.840411144
363.287423767
363.706907857
364.099693964
364.466653513
364.808685131
365.1267201
365.421708827
365.694626219
365.94645841
366.178207962
366.390880971
366.585491999
366.763051728
366.924571583
367.071052149
367.20348754
367.322854936
367.430118912
367.526222574
367.61209219
367.688630054
367.756718502
367.817209391
367.870937888
367.918725575
367.958196469
367.987308427
368.007797002
368.021846853
368.030724278
368.035736591
368.038299077
368.039481337
303.417226453
303.502754093
303.676037228
303.937851574
304.286408687
304.719634112
305.235021628
305.829681537
306.500387604
307.243627284
308.055653223
308.932532885
309.870196017
310.864477437
311.911156136
313.005988719
314.144739105
315.32320273
316.537227828
317.782731912
319.055716467
320.352277668
321.668616442
323.001045213
324.345994951
325.700019314
327.059799814
328.422148251
329.784010645
331.142468453
332.494741736
333.838189265
335.170310922
336.488746908
337.791279467
339.075831156
340.34046593
341.583386514
342.802934899
343.997588867
345.16596197
346.306799295
347.418977018
348.501497502
349.553488519
350.57419778
351.562991919
352.519350547
353.442865077
354.333232383
355.190253541
356.01382717
356.803948126
357.560700606
358.28425684
358.974870004
359.632872947
360.258670963
360.852740577
361.415622221
361.947919085
362.450289748
362.923447096
363.368150947
363.785207028
364.17545963
364.539790649
364.879112287
365.194366135
365.486515968
365.756546826
366.005457936
366.234261757
366.443977051
366.635627869
366.810236817
366.968823968
367.112400409
367.241967141
367.358509093
367.462994178
367.556368129
367.639554117
367.71344897
367.778924073
367.836821714
367.887996215
367.933223418
367.969706681
367.996568221
368.015703
368.028416748
368.036405534
368.041041006
368.043590771
368.044795111
303.070021295
303.1577281
303.33498688
303.602629533
303.958781186
304.401248114
304.927369807
305.534081412
306.217970894
306.975337625
307.802250104
308.694600659
309.648156212
310.65860359
311.721589549
312.83275476
313.987762751
315.182323436
316.412212717
317.673287797
318.961499912
320.272903921
321.603666503
322.950072124
324.308528497
325.675570389
327.047863502
328.422206965
329.795536228
331.164924682
332.527585897
333.880874361
335.222286957
336.54946297
337.860184833
339.152377303
340.424107485
341.673583185
342.899152234
344.099300084
345.272648504
346.417952506
347.534098504
348.62010068
349.675098711
350.698353669
351.689245418
352.647268149
353.572027526
354.463235936
355.320709459
356.144362911
356.934206684
357.690341648
358.412955911
359.102319625
359.758781707
360.382764588
360.974760927
361.535328333
362.065086104
362.564709945
363.034928743
363.476519316
363.890303232
364.277141609
364.637931979
364.973603158
365.285112151
365.573439099
365.839584207
366.084562765
366.309402076
366.515136536
366.702804514
366.873443481
367.028086805
367.167758916
367.293472001
367.40622126
367.506981577
367.59670309
367.67630831
367.746689034
367.808706913
367.86319645
367.911097584
367.952352235
367.985418583
368.009888291
368.026851406
368.038117897
368.04526435
368.049534913
368.052022042
368.053222295
302.631206648
302.721505547
302.903828874
303.178969207
303.544904669
303.999263791
304.539175176
305.16134109
305.862105406
306.637522071
307.483420866
308.395468479
309.369223642
310.400185297
311.483833775
312.615664943
313.79121811
315.006098155
316.255992985
317.536686902
318.844070944
320.174150646
321.523052128
322.887026686
324.262454622
325.645848239
327.033854562
328.423257497
329.810979945
331.194085467
332.569779932
333.935412507
335.288476636
336.626610402
337.947596777
339.249363203
340.529981059
341.787664442
343.020768879
344.227789358
345.407358362
346.558243246
347.679343705
348.769688611
349.828433025
350.854854608
351.84835028
352.808432307
353.734724696
354.626959033
355.484970695
356.30869451
357.098160843
357.853491131
358.574893892
359.262660187
359.917159592
360.538835612
361.128201656
361.685836438
362.212379965
362.708528965
363.175032902
363.612689445
364.022340536
364.404867907
364.761189216
365.092253617
365.399037968
365.682542449
365.943786827
366.183806102
366.403646796
366.604362584
366.787010533
366.952646659
367.102322021
367.237078099
367.357942641
367.465924754
367.562010384
367.647157072
367.722289076
367.788291948
367.846007979
367.896228451
367.939752352
367.976777055
368.006226137
368.027248957
368.041885187
368.051643035
368.057747284
368.06182818
368.064213521
368.065366374
302.098102685
302.191552126
302.380140925
302.664590062
303.042676004
303.511787055
304.06877461
304.710039742
305.431614276
306.229241316
307.098451053
308.034629567
309.03307922
310.089069878
311.19788115
312.354836091
313.555327464
314.794837523
316.068952645
317.37337377
318.703923848
320.056552939
321.427341913
322.812505046
324.208392181
325.611490441
327.01842596
328.425965328
329.831017245
331.230633894
332.622012373
334.002495592
335.36957317
336.720881784
338.054205336
339.367474519
340.658766174
341.926302015
343.16844719
344.383708232
345.570730907
346.728297501
347.855324083
348.950857268
350.014071016
351.044262986
352.04085099
353.003369049
353.931463583
354.824889257
355.683504982
356.507269615
357.29623784
358.050555766
358.770456736
359.456256874
360.108350854
360.727207431
361.3133652
361.867428141
362.390061396
362.881986839
363.343978895
363.776860163
364.181497284
364.558796632
364.909700246
365.235181596
365.536241581
365.813904363
366.06921341
366.303227379
366.517016148
366.711656675
366.888228943
367.047811662
367.191477968
367.320290809
367.435298152
367.537527792
367.627981726
367.707630011
367.777403817
367.838187644
367.890810248
367.936031774
367.974566078
368.0067949
368.031745942
368.049207446
368.061461336
368.069552628
368.074729637
368.078268833
368.080369409
368.081369736
301.467436534
301.56469604
301.760894449
302.056657094
302.449498964
302.936496648
303.514145698
304.17846485
304.925094029
305.749390104
306.646515097
307.611514217
308.639382168
309.72511742
310.863764925
312.050448494
313.280394296
314.548947159
315.851581245
317.183906597
318.541672768
319.920770623
321.317233032
322.727235137
324.147094485
325.573271387
327.002369483
328.431136551
329.856465639
331.275396325
332.685115851
334.082960132
335.4664145
336.833114187
338.180844345
339.507539696
340.811283677
342.090307204
343.342986947
344.567843282
345.76353781
346.928870637
348.06277729
349.164325472
350.23271153
351.267256817
352.26740383
353.232712291
354.162855053
355.057613977
355.916875685
356.7406273
357.528952101
358.282025178
359.000109031
359.683549185
360.332769773
360.948269133
361.53061541
362.080442161
362.598443991
363.085372195
363.542030443
363.969270479
364.367987869
364.739117772
365.083630771
365.40252872
365.696840667
365.967618764
366.21593427
366.442873487
366.64953379
366.837019496
367.006437799
367.158894415
367.295489217
367.417311382
367.525434385
367.620910251
367.704763355
367.777983101
367.841515601
367.89625346
367.94302359
367.982570784
368.015568597
368.042387633
368.062345334
368.076346648
368.08591702
368.092211562
368.096341213
368.09884815
368.100499803
368.101244519
300.735244696
300.837074196
301.042405382
301.351736702
301.762249189
302.270620916
302.87289609
303.564613232
304.340925504
305.1967158
306.126700215
307.125516798
308.187798239
309.308228632
310.481585637
311.702769981
312.966824662
314.268946104
315.604489504
316.968970144
318.358062285
319.767596738
321.193558103
322.632082139
324.079453809
325.532105971
326.986618973
328.439720676
329.888287364
331.329344832
332.760069527
334.17778955
335.579985577
336.964291299
338.328493561
339.670531884
340.988497632
342.280632547
343.545326967
344.781117481
345.986684353
347.160848473
348.302568175
349.410935673
350.48517344
351.524630275
352.528777379
353.497204167
354.429614132
355.325820495
356.185741921
357.009398072
357.796905227
358.548471791
359.264393864
359.945050733
360.590900431
361.202475243
361.780377279
362.325274011
362.837893884
363.319021906
363.769495311
364.190199216
364.582062357
364.946052833
365.28317393
365.594459966
365.880972214
366.143794843
366.384030929
366.602798459
366.801226362
366.980450482
367.141609487
367.285840612
367.414275188
367.528033824
367.628221114
367.715919746
367.792183669
367.858030248
367.914430628
367.96229797
368.002471826
368.035695661
368.062590853
368.083541819
368.098290496
368.108647025
368.115365331
368.119617859
368.122139729
368.12350208
368.124491495
368.124876076
299.896772379
300.004050393
300.220262994
300.545738263
300.977230769
301.510911031
302.142253152
302.86619555
303.67729061
304.569844357
305.538038421
306.576030969
307.678035644
308.838379645
310.05154337
311.312184856
312.615152323
313.955488139
315.328426895
316.729390044
318.153978767
319.59796654
321.057292177
322.528054077
324.006505825
325.489053375
326.972253558
328.452813677
329.92759219
331.393600058
332.848001824
334.288117005
335.711421079
337.115546198
338.498281257
339.857571545
341.191517681
342.498374145
343.776547149
345.024592201
346.241211131
347.425248926
348.575690153
349.691655284
350.772396711
351.817294737
352.825853314
353.797695812
354.732560594
355.630296629
356.490858969
357.314304277
358.100786249
358.850551098
359.563932965
360.241349395
360.883296762
361.490345766
362.063136898
362.602375973
363.108829646
363.583321007
364.026725159
364.439964884
364.824006317
365.179854692
365.508550134
365.811163517
366.088792385
366.342556928
366.573596031
366.783063337
366.97212338
367.141947611
367.293710473
367.428585175
367.547739403
367.652330453
367.743500085
367.822368404
367.890027072
367.947531011
367.995888722
368.036050083
368.06889103
368.095192508
368.115611704
368.130621225
368.140331852
368.146237073
368.14967134
368.151516091
368.152144023
368.152224058
368.152126923
368.152038797
298.946352249
299.060105836
299.289236363
299.633839825
300.090123994
300.65361156
301.319056278
302.080647561
302.932198678
303.86731743
304.879550214
305.962496142
307.109891275
308.31566565
309.573977359
310.87922855
312.22606823
313.609386136
315.024301341
316.466148288
317.930462412
319.412966633
320.909559759
322.41630714
323.929433913
325.445320587
326.960500874
328.471660957
329.975640464
331.469434192
332.950193581
334.415228483
335.862008626
337.288164429
338.691487336
340.069929322
341.421601876
342.744774189
344.037870921
345.299469319
346.528296078
347.723223713
348.883266824
350.007577991
351.095443664
352.146279768
353.159627366
354.135148089
355.072619654
355.971931203
356.833078737
357.65616041
358.441371922
359.189001813
359.89942685
360.573107345
361.210582571
361.812466126
362.379441391
362.912256959
363.411722144
363.878702491
364.314115343
364.718925443
365.094140591
365.440807352
365.760006838
366.052850554
366.320476335
366.56404435
366.784733217
366.983736148
367.162257193
367.321507441
367.462701237
367.58705221
367.695769137
367.790051378
367.871083815
367.940031058
367.998030637
368.046185123
368.085552592
368.117135697
368.14186848
368.160601818
368.174087944
368.182967211
368.187742522
368.189208521
368.18881468
368.187545901
368.186031293
368.184389938
368.182948386
368.182162627
297.877251377
297.998698949
298.243154433
298.610395441
299.095923221
299.694429368
300.399754391
301.205151742
302.103526477
303.087644734
304.150303529
305.284458177
306.483309323
307.740354858
309.049413634
310.404628328
311.800454142
313.231639102
314.693200286
316.18039931
317.688719132
319.213843705
320.751641066
322.29815038
323.849572725
325.402265524
326.95273989
328.497660288
330.033846089
331.558274265
333.068081409
334.560566416
336.033192335
337.48358768
338.909546789
340.309029495
341.680159805
343.021223995
344.330667889
345.607093752
346.849256607
348.056060381
349.226553648
350.35992535
351.455500234
352.512734335
353.531210245
354.510632468
355.450822612
356.351714672
357.213350188
358.035873512
358.819526962
359.564646096
360.271654907
360.941061134
361.573451511
362.169487133
362.729898788
363.255482379
363.747094335
364.205647108
364.632104658
365.027478043
365.392821005
365.729225667
366.037818267
366.319755013
366.576218008
366.808411309
367.017557094
367.204891927
367.371663159
367.519125325
367.64853665
367.761155342
367.858235881
367.941024741
368.010755866
368.06864509
368.115883964
368.153632058
368.183008347
368.205081057
368.220856996
368.231271198
368.237180012
368.239364202
368.238551077
368.235548712
368.231242072
368.226596727
368.222335089
368.21870859
368.215888465
368.214089436
296.681474563
296.812083819
297.074753627
297.46882047
297.98886448
298.628503071
299.380412979
300.23667484
301.189077859
302.229377233
303.349492796
304.541648052
305.798455026
307.112954362
308.478621565
309.889350036
311.339420085
312.823461139
314.336412446
315.873485657
317.430131552
319.00201188
320.58497697
322.175048985
323.76841072
325.361399202
326.950503251
328.532364361
330.103779643
331.661705552
333.203261563
334.725733654
336.226577055
337.703417877
339.154053847
340.576453796
341.968756305
343.32926728
344.656456952
345.948956115
347.20555212
348.425184386
349.606939894
350.750048352
351.853877466
352.91792796
353.941828737
354.925331852
355.868307637
356.770739662
357.632719856
358.454443497
359.236204347
359.978389694
360.681475534
361.346021691
361.972667068
362.562124866
363.115177904
363.632673937
364.115521053
364.564683077
364.981175041
365.366058688
365.720438031
366.045454987
366.342285086
366.612133284
366.856229908
367.075826725
367.272193197
367.446612864
367.600379937
367.734795964
367.851166675
367.950798716
368.034996419
368.105058136
368.162272254
368.20791234
368.243231414
368.269454997
368.287772755
368.299329221
368.305213529
368.306450556
368.303994793
368.298732869
368.291498585
368.283120463
368.274416135
368.266145615
368.258901927
368.253058689
368.248856271
368.246332801
295.349507773
295.491076175
295.775483643
296.201450687
296.762342918
297.45037716
298.25673746
299.172029536
300.18667137
301.291208754
302.476544306
303.734083116
305.055806463
306.434289511
307.862679653
309.334650654
310.844344698
312.386311306
313.955448841
315.546952138
317.156267785
318.779057806
320.411171542
322.048625575
323.687590887
325.32438665
326.955478775
328.57748328
330.187171401
331.781475388
333.35749414
334.912498159
336.443933089
337.949422083
339.426766585
340.873945935
342.289115517
343.670604014
345.016909618
346.326695815
347.598786578
348.832161495
350.025950592
351.179429255
352.292012945
353.363252078
354.392826734
355.380541548
356.326320461
357.230201637
358.092332273
358.912963556
359.692445536
360.431222148
361.129826173
361.788874357
362.40906248
362.99116058
363.536008143
364.044509419
364.517628714
364.956385782
365.361851201
365.735141845
366.077416356
366.389870737
366.673733974
366.930263842
367.16074279
367.366474059
367.548777974
367.708988484
367.848449952
367.96851415
368.070537521
368.155878466
368.225894807
368.281940839
368.325364299
368.357502225
368.379676248
368.393185981
368.399301377
368.399252872
368.394220858
368.385324881
368.373614692
368.360066245
368.345583841
368.331012185
368.317127691
368.304611835
368.294007452
368.285705111
368.279987948
368.276982257
293.869979982
294.024746263
294.335259253
294.799369555
295.408821692
296.153987758
297.024123405
298.007972243
299.094267543
300.272116145
301.531255708
302.862196243
304.256267492
305.705597952
307.203050495
308.742135489
310.316917023
311.921922497
313.552061513
315.20255662
316.868886637
318.546741969
320.231991276
321.920658465
323.608909303
325.293046324
326.969510133
328.634886304
330.285914543
331.919497256
333.532708065
335.122798315
336.687201894
338.223538024
339.729612439
341.203416617
342.643125641
344.047094526
345.413853797
346.742104223
348.030711428
349.278700157
350.485248734
351.649683319
352.771472429
353.850221282
354.885666413
355.877670125
356.826215197
357.731399443
358.593430494
359.412620452
360.189380741
360.924216875
361.617723404
362.270578826
362.88354066
363.457440519
363.993179302
364.491722408
364.954095014
365.381377383
365.774700203
366.135239969
366.464214388
366.762877877
367.032517113
367.274446749
367.490005257
367.680551028
367.847458706
367.99211585
368.115919949
368.220275766
368.306593116
368.376284809
368.430764981
368.471447164
368.499742388
368.517056273
368.524785419
368.524311697
368.516994646
368.504161455
368.487094063
368.467015441
368.445074427
368.422334007
368.399762137
368.378227539
368.358490541
368.341190825
368.326832217
368.315784062
368.308324445
368.304557009
292.229210872
292.400014373
292.742140654
293.252197891
293.919736277
294.732671834
295.677749894
296.741354588
297.910152168
299.171551349
300.513979337
301.92699892
303.401304628
304.928638761
306.501663598
308.11381796
309.759177089
311.432326915
313.128257354
314.842275513
316.569937206
318.306994824
320.049359452
321.793076062
323.534310533
325.269347498
326.994596256
328.706603545
330.402068523
332.077855712
333.731006822
335.358749411
336.958502629
338.52788078
340.064694416
341.566949462
343.032844095
344.46076424
345.849277753
347.197128244
348.503228496
349.766654157
350.98663737
352.162560761
353.293951344
354.380474737
355.421929273
356.418240407
357.369455019
358.275735957
359.137356475
359.954694878
360.728229071
361.458531309
362.146262898
362.7921691
363.397074031
363.961875741
364.487541292
364.975101981
365.425648532
365.840326387
366.220330958
366.566902943
366.881323623
367.164910258
367.4190115
367.64500301
367.844283176
368.018269183
368.168393301
368.296099685
368.402841544
368.490078911
368.55927692
368.611904605
368.649434223
368.673340665
368.685101094
368.686193697
368.67809568
368.662278827
368.640202761
368.613303764
368.582979788
368.550571133
368.517338221
368.484439806
368.452912795
368.423659225
368.397435775
368.374849131
368.356359967
368.342300217
368.332905777
368.328220802
290.410597524
290.601108217
290.981919603
291.547839479
292.285403338
293.179219525
294.212741088
295.36935424
296.633198143
297.989702818
299.425860952
300.930284402
302.493109689
304.105815412
305.761003119
307.452178067
309.173551517
310.919874409
312.686304111
314.468301099
316.261550792
318.061905643
319.865344312
321.667945981
323.465879348
325.255405151
327.032889882
328.794827582
330.53786333
332.258812256
333.954675652
335.622651296
337.260140227
338.864750501
340.434298558
341.966807591
343.460503506
344.913808635
346.325334496
347.693873856
349.018393161
350.298025111
351.532061903
352.719948513
353.861276449
354.955777404
356.003317311
357.003890288
357.957612947
358.864718566
359.725551537
360.540561669
361.310298729
362.035406887
362.716619407
363.354753326
363.950704358
364.505441844
365.020003855
365.495492339
365.933068326
366.333947149
366.699393655
367.030717417
367.329267921
367.596429803
367.833618105
368.042273707
368.223858883
368.379853226
368.511749873
368.621052307
368.709271707
368.777925036
368.828533943
368.862624396
368.881727296
368.887379568
368.88112562
368.864518487
368.83912044
368.806500687
368.768229935
368.725869065
368.680950912
368.63495526
368.589275721
368.545185942
368.503806275
368.466080567
368.432764794
368.404430857
368.381481569
368.364178172
368.352700363
368.347014473
288.393767874
288.608828492
289.037579525
289.672178586
290.49495201
291.486002135
292.624434539
293.889822323
295.263236857
296.727848472
298.26914703
299.874876303
301.534787764
303.240308571
304.984194654
306.760213518
308.56287838
310.38723905
312.228724519
314.083027793
315.946022374
317.813702094
319.682138964
321.547457732
323.405827757
325.253472309
327.08669511
328.901915805
330.695704965
332.464813103
334.206190361
335.916998006
337.594614946
339.23664187
340.840902473
342.40544138
343.928518126
345.408598801
346.844346166
348.234609909
349.578417309
350.874965146
352.123612146
353.323872143
354.475407243
355.578021404
356.631653979
357.636373668
358.592372441
359.499959752
360.359556647
361.171690062
361.936987026
362.656169062
363.330046601
363.959513639
364.545542476
365.089178695
365.591536204
366.053792421
366.477183457
366.862999332
367.212579117
367.527306061
367.808602623
368.057925528
368.276760784
368.466618879
368.629030051
368.765540011
368.877705936
368.967093245
369.035272918
369.083819972
369.114312781
369.128333796
369.127471519
369.113323276
369.087499551
369.051628399
369.007359601
368.956365827
368.900340559
368.840987348
368.779999958
368.719028943
368.659635757
368.603240292
368.551068601
368.504117828
368.463140384
368.428653622
368.400973742
368.380267154
368.366613819
368.359879226
286.153390709
286.399536017
286.888588394
287.60873015
288.536312177
289.645229417
290.908815374
292.30180128
293.801581022
295.388827592
297.04757422
298.764925223
300.530565762
302.336209997
304.175081281
306.041474088
307.930413645
309.837407763
311.758274274
313.689023759
315.625779099
317.564717909
319.502031079
321.433896957
323.356476136
325.265929969
327.158465848
329.030394482
330.878183679
332.698499398
334.488228773
336.244489451
337.964634289
339.646255256
341.287185644
342.88549709
344.439491132
345.947687029
347.408808648
348.821771606
350.185672393
351.49977922
352.763524474
353.976497446
355.138437503
356.24922709
357.308885252
358.317561153
359.275528104
360.183177457
361.041012772
361.84964376
362.609780429
363.322227128
363.987876892
364.607705852
365.182767998
365.714190062
366.20316666
366.650955474
367.058872513
367.428287325
367.760618102
368.057326712
368.319913547
368.549912355
368.748884945
368.91841604
369.060108172
369.175577032
369.266447124
369.334348279
369.380912893
369.407774485
369.416567619
369.408929203
369.386501992
369.350939746
369.303915055
369.247127352
369.182312723
369.111250646
369.035768094
368.957732543
368.879031688
368.801532518
368.727015714
368.657096559
368.593142959
368.536217516
368.487057939
368.446098782
368.413522437
368.389337677
368.373492232
368.365716053
283.657465402
283.943736843
284.509970289
285.338258415
286.396323442
287.649424005
289.063206503
290.60629023
292.251754518
293.977663717
295.766852434
297.606249877
299.486009117
301.398641583
303.338272906
305.30006583
307.279808805
309.273644063
311.277898989
313.288984921
315.303332955
317.317346229
319.327359517
321.329609532
323.320228737
325.295274872
327.250804424
329.182966579
331.088086278
332.962721374
334.803685057
336.608046113
338.373127359
340.096510554
341.776041422
343.409826958
344.996222219
346.53381268
348.021395688
349.457963883
350.842691949
352.174927476
353.45418358
354.68013213
355.852596454
356.971544228
358.03708041
359.049440872
360.008986151
360.916195552
361.77166101
362.576081027
363.33025438
364.035074026
364.691521071
365.300659124
365.863628908
366.381643247
366.855982245
367.287988633
367.679063118
368.030659659
368.344280574
368.621471457
368.863815843
369.072929728
369.250455902
369.398058326
369.517416517
369.610220345
369.67816514
369.722947762
369.746263407
369.749804439
369.735259567
369.704316612
369.658667278
369.600014967
369.530085561
369.450641302
369.363497455
369.270538319
369.173731586
369.075130377
368.976858683
368.881063046
368.789822473
368.705024847
368.62823449
368.560599826
368.502821501
368.455194297
368.417695069
368.390108781
368.3721699
368.363420871
280.864803733
281.204068826
281.871092804
282.838411111
284.061081524
285.492255972
287.08735133
288.807366627
290.620500702
292.50237283
294.435245767
296.406707157
298.408221429
300.433832396
302.479145025
304.54060648
306.615047173
308.699419138
310.790666357
312.885668968
314.981215862
317.073975528
319.160454326
321.236951324
323.299539968
325.344105494
327.366465827
329.362527009
331.328415838
333.260557491
335.155687799
337.010826572
338.823262777
340.590563985
342.310591701
343.98150038
345.60171577
347.169907372
348.684962533
350.145963838
351.552173888
352.90302702
354.198124263
355.437227051
356.620249999
357.747252788
358.818432921
359.834119023
360.794765009
361.700944082
362.553342793
363.352754539
364.100073085
364.796285892
365.442467874
366.039775432
366.589441114
367.092768634
367.551128293
367.965952529
368.338731493
368.671008464
368.964374979
369.22046568
369.440952733
369.62754001
369.781956911
369.905952164
370.001287491
370.069731668
370.113054833
370.133023786
370.131398441
370.10992908
370.070356275
370.014414162
369.943835716
369.860362771
369.765760785
369.661838793
369.550475525
369.433647965
369.31346296
369.19217763
369.072201172
368.956049978
368.846221208
368.744999103
368.654226332
368.575171926
368.508482638
368.454226713
368.412038109
368.381340481
368.361572234
368.352022993
277.7212134
278.132395103
278.934110154
280.083487129
281.516731267
283.169968046
284.985092808
286.91381467
288.919156959
290.97498688
293.064238435
295.176553792
297.305981278
299.449110698
301.603752152
303.768107866
305.940324212
308.118303837
310.299671745
312.481810053
314.661896595
316.836905386
319.003554336
321.158218212
323.296869255
325.41510892
327.508371789
329.572192022
331.602422864
333.595340152
335.547620745
337.456248133
339.318470488
341.131829692
342.894204582
344.603816738
346.259188569
347.859099189
349.40254773
350.888722221
352.316981837
353.686853678
354.998032759
356.250377519
357.443901467
358.578763791
359.655260974
360.673820587
361.634995715
362.539459664
363.387999858
364.181511238
364.920989012
365.607521506
366.242283268
366.826528947
367.361587849
367.848859238
368.289808069
368.685960962
369.038902126
369.35026902
369.621747612
369.855067115
370.051994202
370.214326706
370.34388689
370.442514441
370.512059283
370.554374589
370.571310133
370.564706474
370.536389474
370.488167453
370.421830714
370.339153482
370.241899696
370.131834841
370.010743668
369.880457051