/*--------------------------------*- C++ -*----------------------------------*\
| =========                 |                                                 |
| \\      /  F ield         | OpenFOAM: The Open Source CFD Toolbox           |
|  \\    /   O peration     | Version:  v1906                                 |
|   \\  /    A nd           | Web:      www.OpenFOAM.com                      |
|    \\/     M anipulation  |                                                 |
\*---------------------------------------------------------------------------*/
FoamFile
{
    version     2.0;
    format      ascii;
    class       surfaceScalarField;
    location    "744";
    object      phi;
}
// * * * * * * * * * * * * * * * * * * * * * * * * * * * * * * * * * * * * * //

dimensions      [0 3 -1 0 0 0 0];
oriented        oriented;


internalField   nonuniform List<scalar> 
18240
(
-0.000199934108567
0.000199948372549
-0.000409338692594
0.000209418764431
-0.000617354433959
0.000208031531677
-0.000822353116998
0.000205012722961
-0.00102327828569
0.000200941614307
-0.00121920558309
0.000195941194064
-0.00140930756204
0.000190118918956
-0.00159286950659
0.000183575786787
-0.00176926886722
0.000176416774758
-0.00193799792997
0.000168742941872
-0.00209863624883
0.000160656209405
-0.00225087153809
0.000152249275382
-0.00239446498657
0.000143611800394
-0.00252927117156
0.000134820325275
-0.00265519885327
0.00012594647831
-0.00277223162347
0.000117047092693
-0.00288038662198
0.000108174211624
-0.00297973723994
9.93651336642e-05
-0.00307037145256
9.06538207951e-05
-0.00315241725441
8.20605093693e-05
-0.00322600147858
7.36041984982e-05
-0.00329127809614
6.52915055574e-05
-0.00334838782202
5.71300453981e-05
-0.00339748908891
4.91163181353e-05
-0.00343871840315
4.12499463366e-05
-0.00347222368378
3.35204717004e-05
-0.00349812528127
2.5922510063e-05
-0.00351655139798
1.84414180456e-05
-0.00352759975807
1.10694979442e-05
-0.00353137495345
3.79056887725e-06
-0.00352795079323
-3.4028625797e-06
-0.00351740907885
-1.05263135745e-05
-0.00349980338981
-1.75843281674e-05
-0.00347519971489
-2.45882890259e-05
-0.00344364153253
-3.15368663777e-05
-0.0034051913601
-3.84348197792e-05
-0.00335989795769
-4.52722630581e-05
-0.00330783794769
-5.2044647829e-05
-0.00324908562956
-5.87314856415e-05
-0.00318375276848
-6.53173426355e-05
-0.0031119617169
-7.17706584514e-05
-0.00303388043761
-7.80653202196e-05
-0.00294970021406
-8.41603890297e-05
-0.0028596621474
-9.00212429945e-05
-0.00276404193326
-9.56010421251e-05
-0.00266316406708
-0.00010085967857
-0.00255739791932
-0.000105747729345
-0.00244715697989
-0.000110220984563
-0.00233291162666
-0.000114227760442
-0.0022151723954
-0.000117717469397
-0.00209452294774
-0.000120632780639
-0.00197158662506
-0.000122913117905
-0.00184707676352
-0.00012449409104
-0.00172174369648
-0.000125309098891
-0.00159643165231
-0.000125297096013
-0.00147200365221
-0.000124403918408
-0.00134939542127
-0.00012259405212
-0.00122952279394
-0.000119848968899
-0.00111332966796
-0.000116179779888
-0.00100168089577
-0.000111625438478
-0.000895408530154
-0.000106259878711
-0.000795203044211
-0.000100181614889
-0.000701677500383
-9.35137121175e-05
-0.000615272263567
-8.63800705621e-05
-0.00053631922865
-7.89417913019e-05
-0.000464903124441
-7.13895342619e-05
-0.000400953285928
-6.39393812796e-05
-0.000344150347176
-5.67758694359e-05
-0.00029410215988
-5.00388301235e-05
-0.000250290217128
-4.37855393809e-05
-0.000212249034389
-3.80330562918e-05
-0.000179455834579
-3.2767730588e-05
-0.000151448602622
-2.79998489276e-05
-0.000127683923633
-2.37395945459e-05
-0.000107668863608
-2.00079217966e-05
-9.08556575154e-05
-1.67884127926e-05
-7.67998326344e-05
-1.40491023437e-05
-6.50549647651e-05
-1.17210801391e-05
-5.53035243347e-05
-9.74549625714e-06
-4.72206134719e-05
-8.06070595564e-06
-4.05814391387e-05
-6.63401191989e-06
-3.51371779249e-05
-5.42383620539e-06
-3.07309508716e-05
-4.40163937117e-06
-2.72008545119e-05
-3.51092266518e-06
-2.45595342881e-05
-2.6363867191e-06
-2.23748001393e-05
-2.1664197514e-06
-2.03975427892e-05
-1.96993838756e-06
-1.87006119636e-05
-1.67674783309e-06
-1.7045532089e-05
-1.6431535502e-06
-1.52324459587e-05
-1.78875309578e-06
-1.3360823226e-05
-1.85284026637e-06
-1.13897081227e-05
-1.94139454434e-06
-9.09875707352e-06
-2.25723343653e-06
-6.32421796296e-06
-2.74124487332e-06
-3.09549747003e-06
-3.20295167505e-06
-3.08006170038e-06
-0.000211523858632
0.000411487219943
-0.000435650304943
0.000433560193804
-0.000657561912508
0.00042995924787
-0.00087601008029
0.000423476415521
-0.00108999086223
0.000414938714734
-0.00129855773529
0.000404523763087
-0.00150084368361
0.000392421419212
-0.00169608794751
0.000378835912361
-0.00188363532605
0.000363981001001
-0.00206294628712
0.000348069982855
-0.00223358488105
0.000331311983586
-0.00239522264524
0.000313903378174
-0.0025476200934
0.000296026778266
-0.00269062768055
0.000277844531986
-0.0028241640101
0.00025950068633
-0.00294821636425
0.000241116354139
-0.00306281807328
0.000222794139746
-0.00316805036376
0.000204614614845
-0.00326402043126
0.000186642431113
-0.00335086551681
0.000168923056317
-0.00342873237321
0.000151489903304
-0.00349778381351
0.000134360660157
-0.00355817967366
0.00011754503592
-0.0036100856901
0.000101040279267
-0.00365365577192
8.48394153676e-05
-0.0036890429326
6.89257799929e-05
-0.00371638263908
5.32818254519e-05
-0.00373580555781
3.78826510908e-05
-0.00374742183858
2.27055645464e-05
-0.00375133548495
7.72264896143e-06
-0.00374762978382
-7.08866352309e-06
-0.00373638368538
-2.17539192522e-05
-0.00371765809269
-3.6289983157e-05
-0.00369151361935
-5.07142761574e-05
-0.0036579986182
-6.50319776187e-05
-0.00361716873936
-7.92462754681e-05
-0.00356907648503
-9.3344753367e-05
-0.00351379185844
-0.000107310931248
-0.00345139346708
-0.000121110281699
-0.00338198909713
-0.000134703395998
-0.00330570802976
-0.000148032290978
-0.00322271961926
-0.000161035290425
-0.0031332264695
-0.000173634178837
-0.00303747870357
-0.000185750200998
-0.00293576826371
-0.000197292051928
-0.00282843712495
-0.000208171340705
-0.00271587455479
-0.000218290624744
-0.00259851922446
-0.000227555924517
-0.00247686306813
-0.000235863934745
-0.00235144893648
-0.000243110263042
-0.00222288437165
-0.000249177166779
-0.00209183532244
-0.000253940185043
-0.00195904753785
-0.000257261736609
-0.00182533124147
-0.000259003203453
-0.00169157930929
-0.000259029264433
-0.00155873468349
-0.000257226758219
-0.00142779707058
-0.000253512675308
-0.00129977684704
-0.000247848113865
-0.00117569194584
-0.000240246549832
-0.00105650402582
-0.000230793055564
-0.000943108981661
-0.000219637276354
-0.000836273851602
-0.000206996341718
-0.000736644494001
-0.000193125368146
-0.000644733614382
-0.000178269799617
-0.000560909050253
-0.000162748601837
-0.000485293846027
-0.000146982920116
-0.000417772508998
-0.000131443290723
-0.000357974103573
-0.000116552545417
-0.000305395159814
-0.000102601159271
-0.000259456988696
-8.97031015426e-05
-0.000219624568628
-7.78498987427e-05
-0.000185371897238
-6.70009628666e-05
-0.000156196746144
-5.71601197239e-05
-0.000131541238916
-4.8376004408e-05
-0.000110838555497
-4.06959687141e-05
-9.35021048088e-05
-3.41061157275e-05
-7.9017367128e-05
-2.85198285313e-05
-6.69282080175e-05
-2.37925109069e-05
-5.68863032674e-05
-1.97745095619e-05
-4.85815559159e-05
-1.63490799504e-05
-4.17605649761e-05
-1.34432622387e-05
-3.61770627494e-05
-1.09924958759e-05
-3.16263516161e-05
-8.94145860623e-06
-2.7885374981e-05
-7.2379582566e-06
-2.4659626537e-05
-5.85161670727e-06
-2.19573186939e-05
-4.85573307755e-06
-1.98589460381e-05
-4.05640636487e-06
-1.81485247603e-05
-3.3715606258e-06
-1.65899246712e-05
-3.18603604306e-06
-1.49977828001e-05
-3.36109400649e-06
-1.32082430313e-05
-3.61930196998e-06
-1.123813395e-05
-3.88362792437e-06
-9.06376291008e-06
-4.40248934067e-06
-6.44727527711e-06
-5.32379261273e-06
-3.18227896152e-06
-6.43708325975e-06
-6.25175296282e-06
-0.000214384396971
0.000625886535725
-0.000440794414263
0.000659986237686
-0.000665173533947
0.000654354117122
-0.000886011227117
0.000644330071594
-0.00110222532795
0.000631168886499
-0.00131283093555
0.000615145438857
-0.00151694282475
0.00059654962042
-0.0017137887542
0.000575698109949
-0.00190271287392
0.000552921699466
-0.00208317846794
0.000528552107339
-0.0022547615456
0.000502911943374
-0.00241714641473
0.000476305074976
-0.00257011332789
0.000449010894733
-0.00271353047049
0.000421278814077
-0.0028473390813
0.000393326827009
-0.00297154481521
0.000365339539356
-0.00308620286408
0.000337470036361
-0.00319141064649
0.000309840150639
-0.00328729436955
0.000282544306866
-0.00337400397175
0.000255650697668
-0.00345170162473
0.000229205993366
-0.00352055910396
0.000203236444307
-0.00358074814677
0.000177752779835
-0.0036324400282
0.000152750707888
-0.00367579743498
0.000128215759725
-0.00371097591926
0.000104123025734
-0.00373811695734
8.04420068267e-05
-0.00375735103505
5.71356679036e-05
-0.00376879169598
3.41655293178e-05
-0.00377254019648
1.14902179415e-05
-0.00376868055098
-1.09289006575e-05
-0.00375728581669
-3.3129518475e-05
-0.00373841434081
-5.51420189235e-05
-0.00371211792007
-7.69915652478e-05
-0.00367843943407
-9.86910653122e-05
-0.00363742296257
-0.000120243682512
-0.00358911293934
-0.00014163547908
-0.00353356600642
-0.000162838894516
-0.00347085139345
-0.000183805708522
-0.00340106366063
-0.000204472218277
-0.00332432343887
-0.000224753375446
-0.00324078948613
-0.000244550267368
-0.00315065846997
-0.000263745957376
-0.00305417437435
-0.000282215038478
-0.00295162626447
-0.000299820593714
-0.00284335382485
-0.000316423954382
-0.00272974376874
-0.000331880538156
-0.00261123262268
-0.000346046427621
-0.00248830537964
-0.000358770335396
-0.0023614994561
-0.000369894752235
-0.00223141039793
-0.000379244839961
-0.00209869984813
-0.000386628681705
-0.00196410751685
-0.000391832487072
-0.00182845586441
-0.000394632834103
-0.00169265400324
-0.000394809904997
-0.00155768360987
-0.000392175881681
-0.00142458316039
-0.000386592841796
-0.00129442474667
-0.000377986330137
-0.00116828911934
-0.000366362924967
-0.00104721104865
-0.000351851692317
-0.000932144427717
-0.000334685292458
-0.000823901512096
-0.00031521935857
-0.000723129629518
-0.000293878009135
-0.000630416061606
-0.000270963034928
-0.000546210794677
-0.000246934003834
-0.000470686613101
-0.000222486758903
-0.000403673857021
-0.000198436245723
-0.000344684110702
-0.000175522431897
-0.000293043213082
-0.00015422313963
-0.000248064187833
-0.000134663212441
-0.000209168994561
-0.00011672753037
-0.000175870833709
-0.00010028115405
-0.000147696659605
-8.53175716608e-05
-0.00012409249284
-7.19625133496e-05
-0.000104429239389
-6.03428290742e-05
-8.80583649971e-05
-5.04598538278e-05
-7.44048224089e-05
-4.21577377924e-05
-6.30108139206e-05
-3.51705649214e-05
-5.35487008358e-05
-2.92222396432e-05
-4.57520011128e-05
-2.41311331907e-05
-3.93737319834e-05
-1.98083572844e-05
-3.41823618898e-05
-1.61705147055e-05
-2.99735892638e-05
-1.31380843535e-05
-2.65499581422e-05
-1.06487700314e-05
-2.37092084789e-05
-8.68089461298e-06
-2.13182074533e-05
-7.23428821633e-06
-1.91641441303e-05
-6.19774828653e-06
-1.71717329874e-05
-5.34953803915e-06
-1.55802934202e-05
-4.76134201322e-06
-1.42780037348e-05
-4.64399010936e-06
-1.25212765119e-05
-5.35491750854e-06
-1.03522628002e-05
-6.02607351754e-06
-8.01118908663e-06
-6.70874750743e-06
-5.37297560571e-06
-7.9338784442e-06
-2.7480296639e-06
-9.0397909096e-06
-8.98526479858e-06
-0.000217806835795
0.000843708426295
-0.00044757288586
0.000889767396695
-0.00067523133838
0.000882028522252
-0.000899173130773
0.000868287648809
-0.00111825093613
0.000850262737793
-0.00133143422435
0.000828344775722
-0.00153780955553
0.00080294117166
-0.0017365901159
0.000774494959856
-0.00192711883571
0.000743466894066
-0.00210886763104
0.000710317473444
-0.00228143089056
0.000675491978049
-0.00244451692675
0.000639407992188
-0.00259793561811
0.000602446682671
-0.0027415862225
0.000564946620924
-0.00287544308207
0.000527201106683
-0.00299954321698
0.000489457195109
-0.00311397285407
0.000451917409059
-0.00321885686257
0.000414741986158
-0.00331434748234
0.00037805296114
-0.00340061639445
0.000341937724827
-0.00347784594481
0.000306453858076
-0.00354622380493
0.000271632686553
-0.00360593638119
0.000237483927411
-0.00365716564177
0.000203998593922
-0.00370008420729
0.000171153129152
-0.00373485387829
0.000138911537961
-0.00376162197116
0.000107229104558
-0.00378052122978
7.60539480256e-05
-0.00379166718036
4.53306453241e-05
-0.00379515935301
1.50015454498e-05
-0.00379107966967
-1.49893131904e-05
-0.00377949511411
-4.46948465881e-05
-0.00376045744314
-7.41603807376e-05
-0.00373400766125
-0.000103422115191
-0.00370017736275
-0.000132502085014
-0.0036589952825
-0.00016140658531
-0.00361049051303
-0.000190121047493
-0.0035547011149
-0.000218609190158
-0.00349167894432
-0.000246808749643
-0.00342149958926
-0.000274632499222
-0.00334426771423
-0.000301966111133
-0.00326012661205
-0.000328672191483
-0.00316926206742
-0.000354591173408
-0.00307190911214
-0.00037954849081
-0.00296835223044
-0.000403357696392
-0.00285892761444
-0.000425828460373
-0.00274401947266
-0.000446768162939
-0.00262405943422
-0.000465985573545
-0.00249952326719
-0.000483285165598
-0.00237093425364
-0.000498462105412
-0.0022388688013
-0.000511288304371
-0.00210397105529
-0.000521504319952
-0.00196696958302
-0.000528811879939
-0.00182869436914
-0.000532885924381
-0.00169008302662
-0.000533399923907
-0.00155216874467
-0.000530069025072
-0.00141605278404
-0.000522688837995
-0.00128289268513
-0.00051112646047
-0.00115388184878
-0.000495354571828
-0.00103016273665
-0.000475552081077
-0.00091280018461
-0.000452028542363
-0.000802664429343
-0.000425335423082
-0.00070033860836
-0.000396183650214
-0.000606545979117
-0.000364734880867
-0.000521938637098
-0.000331521121576
-0.000446796223556
-0.000297608196467
-0.000380873284033
-0.000264339570735
-0.000323437860442
-0.000232937081424
-0.000273490880346
-0.000204150796678
-0.000230126689872
-0.00017800776627
-0.000192735063801
-0.000154100442438
-0.000160935065835
-0.000132062929402
-0.000134363578343
-0.000111871260202
-0.000112472478949
-9.38360349019e-05
-9.45190303799e-05
-7.8279267135e-05
-7.97124367235e-05
-6.52495960486e-05
-6.7373327809e-05
-5.44809251563e-05
-5.70343299895e-05
-4.54940931028e-05
-4.84430895585e-05
-3.77989151746e-05
-4.14168631035e-05
-3.11430961605e-05
-3.57236131883e-05
-2.54881660152e-05
-3.11404555513e-05
-2.07408216003e-05
-2.74766060919e-05
-1.67893602615e-05
-2.4549621486e-05
-1.35635287815e-05
-2.22087278435e-05
-1.10097389086e-05
-1.998281161e-05
-9.4480211558e-06
-1.79861633927e-05
-8.18142468019e-06
-1.62499789099e-05
-7.07164648366e-06
-1.44804836943e-05
-6.51559769754e-06
-1.26179561019e-05
-6.48966314219e-06
-1.1169379775e-05
-6.7814703435e-06
-9.08963978084e-06
-8.07847925565e-06
-6.57921749827e-06
-9.19348495496e-06
-4.3685865934e-06
-1.0115466112e-05
-2.25846769627e-06
-1.11235043004e-05
-1.12344353814e-05
-0.000222375302684
0.00106609842743
-0.000456812572975
0.00112422069574
-0.000688967450658
0.0011141988775
-0.000917135102765
0.00109647118034
-0.00114009392633
0.00107323739417
-0.00135675595064
0.00104502279807
-0.00156617070049
0.0010123720103
-0.00176753327155
0.000975873757637
-0.00196018639508
0.000936136382574
-0.00214361662988
0.000893764224761
-0.00231744546808
0.000849337491161
-0.00248141704341
0.000803396404062
-0.00263538328796
0.000756429928303
-0.00277928828174
0.000708868779757
-0.00291315222703
0.000661082380317
-0.00303705643959
0.000613378895325
-0.00315112921174
0.000566007825498
-0.00325553357452
0.000519164144257
-0.00335045630252
0.000472993632393
-0.00343609898683
0.00042759849246
-0.00351267015859
0.000383043250692
-0.00358037928432
0.000339360161808
-0.0036394313822
0.000296554501973
-0.00369002322541
0.000254609029658
-0.00373233971667
0.000213488327771
-0.0037665516405
0.000173142270933
-0.00379281323398
0.00013350960728
-0.00381126107264
9.45207793558e-05
-0.00382201256682
5.61012113403e-05
-0.00382516588537
1.81739962773e-05
-0.00382079943647
-1.93365782237e-05
-0.00380897305842
-5.65020094989e-05
-0.00378972887478
-9.33853313023e-05
-0.0037630942307
-0.000130037523337
-0.00372908446013
-0.00016649263307
-0.00368770809787
-0.00020276374002
-0.00363897202046
-0.000238837945543
-0.00358288916665
-0.00027467287069
-0.00351948596049
-0.000310192794217
-0.00344881192802
-0.00034528733304
-0.00337094817205
-0.000379810620238
-0.00328601689535
-0.000413584102204
-0.00319418817764
-0.000446400370942
-0.00309568603527
-0.00047803087529
-0.00299078989701
-0.000508233786302
-0.00287983408031
-0.000536763847758
-0.00276320250993
-0.000563378992251
-0.00264132272089
-0.000587844055349
-0.00251465973116
-0.000609926754601
-0.00238371472953
-0.000629385125539
-0.00224903306244
-0.000645948181202
-0.00211122340971
-0.000659291669344
-0.00197098942819
-0.000669023888261
-0.0018291623534
-0.000674691339978
-0.00168671917144
-0.000675821507161
-0.00154476874512
-0.000671999536585
-0.00140449062786
-0.000662946816741
-0.00126715569139
-0.000648442368932
-0.00113414198015
-0.000628349254802
-0.00100673779531
-0.000602937722219
-0.000886223708203
-0.000572523722833
-0.000773561569179
-0.000537977206742
-0.000668992785464
-0.000500731924361
-0.000573522759378
-0.000460184432352
-0.000488264323525
-0.000416758673935
-0.000413748299418
-0.000372104236133
-0.000349612822978
-0.000328453773385
-0.000294679170124
-0.000287850288762
-0.000247297743775
-0.000251510610066
-0.000206168920224
-0.000219116066208
-0.000170698059878
-0.000189550818996
-0.000140789636951
-0.000161951850639
-0.000116369170718
-0.000136273085381
-9.69112422001e-05
-0.000113275783672
-8.14345070034e-05
-9.37389012942e-05
-6.885761187e-05
-7.78098916894e-05
-5.83039034281e-05
-6.50191619361e-05
-4.92964899535e-05
-5.44866234326e-05
-4.17764273051e-05
-4.53047444877e-05
-3.57455542545e-05
-3.71603017011e-05
-3.09570282291e-05
-3.02635161563e-05
-2.71749058961e-05
-2.45100980004e-05
-2.4234625724e-05
-1.97174806508e-05
-2.19448285718e-05
-1.58411516669e-05
-2.01917055116e-05
-1.27509712651e-05
-1.85307687881e-05
-1.1096318181e-05
-1.68411638355e-05
-9.85799984718e-06
-1.48347188517e-05
-9.06490050357e-06
-1.29259271131e-05
-8.40981844634e-06
-1.10910848385e-05
-8.30686377473e-06
-9.48481420844e-06
-8.36867805546e-06
-7.95477128879e-06
-9.583156128e-06
-5.74064324611e-06
-1.13746136127e-05
-3.60785687933e-06
-1.22249936544e-05
-1.82598262031e-06
-1.28871208061e-05
-1.30473152652e-05
-0.000228232969261
0.00129434624251
-0.000468723914111
0.00136472635273
-0.0007066822142
0.00135217289827
-0.000940281911429
0.0013300863944
-0.00116820607441
0.00130117735528
-0.00138929543434
0.00126612798475
-0.00160255372324
0.00122564628251
-0.00180715597344
0.00118049210361
-0.00200244826253
0.00113144492745
-0.0021879404817
0.00107927284413
-0.00236329325833
0.00102470684144
-0.00252830116709
0.000968421042187
-0.0026828736534
0.000911019322933
-0.00282701549243
0.000853027683012
-0.00296080766651
0.00079489179481
-0.00308438984281
0.000736978462086
-0.00319794462126
0.000679580163086
-0.00330168415039
0.000622921373012
-0.00339583873867
0.000567166078523
-0.00348064772517
0.000512425466497
-0.00355635194816
0.000458765608612
-0.0036231879879
0.000406214454605
-0.00368138342141
0.000354768324778
-0.00373115333978
0.000304397443487
-0.00377269735445
0.000255050962902
-0.00380619749631
0.000206661125411
-0.00383181624471
0.000159147179718
-0.00384969528128
0.000112418714643
-0.00385995421383
6.63791364515e-05
-0.00386269007658
2.09289033375e-05
-0.00385797684675
-2.40306934029e-05
-0.00384586602178
-6.85936958272e-05
-0.00382638746107
-0.00011284470975
-0.00379955170958
-0.0001568540948
-0.0037653529801
-0.000200672159913
-0.00372377408892
-0.000244323442048
-0.0036747923935
-0.000287800430502
-0.00361838794308
-0.000331058105696
-0.00355455261801
-0.000374008854637
-0.00348330110642
-0.000416519517878
-0.00340468203582
-0.000458410253497
-0.00331878943429
-0.000499457110149
-0.00322577227465
-0.000539397723123
-0.00312584161905
-0.000577941458352
-0.00301927286464
-0.000614782107071
-0.00290640303182
-0.000649612962129
-0.00278762143421
-0.000682139225083
-0.00266335737787
-0.000712086848358
-0.00253406466887
-0.000739197187349
-0.00240021563259
-0.000763212536871
-0.002262303649
-0.000783837434398
-0.00212087439663
-0.00080069889884
-0.00197657514236
-0.00081330105594
-0.00183022235876
-0.000821021604254
-0.00168284832486
-0.000823175165656
-0.00153567693541
-0.00081915009042
-0.00138996848192
-0.000808636760604
-0.00124710728416
-0.00079128403264
-0.00110880429096
-0.000766633592599
-0.000976475484544
-0.00073524821994
-0.000851886796723
-0.000697092610697
-0.000736265069723
-0.000653579129086
-0.000628530946351
-0.00060844603172
-0.000530382734817
-0.00055831286908
-0.000443999638282
-0.00050312290156
-0.000370459435332
-0.000445624204653
-0.000309231120692
-0.000389662998087
-0.000258325431757
-0.000338733784504
-0.000214743553185
-0.000295072041892
-0.000176471385349
-0.000257366082882
-0.000143100132425
-0.000222901349552
-0.00011522690082
-0.000189805398433
-9.34760823346e-05
-0.000158004578409
-7.73781972354e-05
-0.000129356832645
-6.54108669119e-05
-0.000105689719616
-5.59110502926e-05
-8.72957955241e-05
-4.76242543087e-05
-7.32924187197e-05
-4.00652498703e-05
-6.20333659607e-05
-3.36560740699e-05
-5.17019650125e-05
-2.88322948006e-05
-4.19711685421e-05
-2.51740274651e-05
-3.39092403561e-05
-2.23679528564e-05
-2.7303790718e-05
-2.03233285386e-05
-2.17502558955e-05
-1.88094283849e-05
-1.7343035739e-05
-1.74443659197e-05
-1.41041423323e-05
-1.61148181878e-05
-1.24130713856e-05
-1.48617448045e-05
-1.10985244815e-05
-1.36296425324e-05
-1.02830486617e-05
-1.20125181913e-05
-1.0011644494e-05
-1.01307618382e-05
-1.01715659096e-05
-8.03294189427e-06
-1.04448651233e-05
-6.51762830392e-06
-1.10738988593e-05
-5.09251491524e-06
-1.27773823087e-05
-3.21230059376e-06
-1.40797712674e-05
-1.60940444326e-06
-1.44662322803e-05
-1.46482149925e-05
-0.000235526889686
0.00152988745053
-0.000483566584321
0.00161278186618
-0.00072874584982
0.00159736725092
-0.000969076966525
0.00157043308906
-0.00120312228735
0.00153523817623
-0.00142963346974
0.0014926548669
-0.00164756025203
0.00144358885358
-0.00185605737262
0.00138900517433
-0.00205448134348
0.00132988498887
-0.00224237802651
0.00126718579047
-0.00241946373928
0.00120180897602
-0.00258560219915
0.00113457610513
-0.00274077976782
0.00106621365609
-0.00288508078059
0.000997345641311
-0.00301866451776
0.000928492633849
-0.00314174460275
0.000860075823078
-0.00325457142571
0.000792424408754
-0.00335741755801
0.000725785091835
-0.00345056612463
0.000660332367216
-0.00353430168041
0.000596178896353
-0.00360890330037
0.00053338522674
-0.00367463934752
0.000471968640226
-0.00373176361467
0.000411910843659
-0.00378051240091
0.00035316460992
-0.00382110230004
0.000295659344143
-0.00385372841907
0.000239305842394
-0.00387856289837
0.000184000345915
-0.00389575361897
0.000129628222577
-0.00390542306112
7.60674375322e-05
-0.00390766737456
2.31921573741e-05
-0.00390255571996
-2.91233577739e-05
-0.00389013014315
-8.10002222886e-05
-0.00387040610918
-0.000132549667504
-0.0038433740917
-0.000183866991099
-0.00380900247044
-0.000235024647825
-0.00376724213172
-0.000286064597982
-0.00371803304144
-0.000336990315575
-0.00366131301685
-0.000387758839715
-0.00359702877591
-0.000438273739856
-0.00352514897286
-0.000488379810777
-0.00344567873818
-0.000537860838311
-0.00335867444967
-0.000586441483613
-0.00326425730391
-0.000633794733417
-0.00316262310012
-0.000679555065807
-0.00305404635273
-0.000723338048206
-0.00293887498682
-0.000764762610935
-0.00281751708724
-0.000803475689985
-0.0026904148315
-0.000839165915735
-0.00255802034822
-0.000871569789627
-0.00242076683155
-0.000900441946523
-0.00227907185466
-0.000925510005941
-0.00213336480596
-0.00094638224524
-0.00198417838281
-0.000962464355204
-0.00183227639059
-0.000972901488929
-0.00167876581171
-0.000976663023661
-0.00152509694469
-0.000972800062105
-0.0013725524816
-0.000961160727209
-0.00122253151059
-0.000941285279572
-0.00107747245083
-0.000911672260526
-0.000938570870997
-0.000874130017389
-0.000808873767094
-0.000826770072824
-0.000690716447736
-0.000771716774294
-0.000578393315942
-0.000720751098105
-0.000475650531607
-0.000661038922468
-0.000387161837077
-0.000591594996076
-0.000315106905174
-0.000517663387496
-0.000258677072868
-0.000446073688377
-0.000214519801276
-0.000382873725752
-0.000176616097441
-0.000332957719552
-0.00014169853204
-0.000292263672495
-0.000110017744206
-0.000254566555628
-8.37203749741e-05
-0.000216081729384
-6.5080331102e-05
-0.000176630032576
-5.37278361447e-05
-0.000140691641062
-4.68458091491e-05
-0.000112560644481
-4.16176176552e-05
-9.25120570824e-05
-3.60826687192e-05
-7.88189652258e-05
-2.96945824764e-05
-6.84119230482e-05
-2.40697855168e-05
-5.73158349733e-05
-2.07441485927e-05
-4.52857011311e-05
-1.85080553712e-05
-3.61323622231e-05
-1.68140582949e-05
-2.8985079291e-05
-1.58647928829e-05
-2.26871348945e-05
-1.53009484362e-05
-1.7895394925e-05
-1.46084128838e-05
-1.47842037401e-05
-1.39482100786e-05
-1.30605486522e-05
-1.30017243431e-05
-1.20314826517e-05
-1.18964568882e-05
-1.13740770714e-05
-1.05209471083e-05
-1.13709144744e-05
-9.13721176937e-06
-1.15373670287e-05
-7.35902179019e-06
-1.22040194628e-05
-5.51906275175e-06
-1.28919708975e-05
-4.39970564331e-06
-1.38685415137e-05
-2.90321077749e-06
-1.55551184545e-05
-1.45480348245e-06
-1.58969187295e-05
-1.60897821336e-05
-0.00024443054015
0.0017743324814
-0.000501680095317
0.00187004555959
-0.000755642620788
0.00185134511909
-0.00100412491005
0.00181893045498
-0.00124553527392
0.00177666394725
-0.00147851712665
0.00172565215237
-0.00170195813836
0.00166704547357
-0.00191499588956
0.00160205865692
-0.00211700915669
0.00153191416093
-0.00230759829872
0.00145779099393
-0.00248655786148
0.00138078478464
-0.00265384517607
0.00130187983097
-0.00280954783831
0.00122193291624
-0.00295385267657
0.00114166723971
-0.00308701769445
0.00106167459263
-0.00320934810927
0.000982423331847
-0.00332117662875
0.000904270192592
-0.00342284801884
0.000827473887368
-0.00351470733636
0.000752209248424
-0.00359709142324
0.000678580675573
-0.00367032281894
0.000606634461202
-0.00373470567213
0.000536369448811
-0.00379052289636
0.000467746158712
-0.00383803432504
0.000400694234159
-0.00387747527913
0.000335118618859
-0.0039090555057
0.000270904481443
-0.00393295804347
0.00020792140992
-0.00394933816619
0.000146026947828
-0.0039583220783
8.50700523225e-05
-0.00396000572022
2.48945598486e-05
-0.00395445347437
-3.46567586171e-05
-0.00394169739691
-9.37374165069e-05
-0.00392173683959
-0.000152491269023
-0.00389453931664
-0.000211045529743
-0.00386004263187
-0.000269502270931
-0.00381815922627
-0.000327928898877
-0.00376878278334
-0.000386347542068
-0.00371179801425
-0.000444724302902
-0.00364709340999
-0.000502958858359
-0.0035745774265
-0.000560876143693
-0.00349419704529
-0.000618221271175
-0.00340595808706
-0.000674660259455
-0.00330994424396
-0.000729787853962
-0.00320633306598
-0.000783145297281
-0.00309540230375
-0.000834246780028
-0.00297752657841
-0.00088261650077
-0.00285315282995
-0.000927825436845
-0.00272276673493
-0.000969529489043
-0.00258683332109
-0.00100747745133
-0.00244575453891
-0.00104149764833
-0.00229982876055
-0.00107140978476
-0.00214929252415
-0.00109689471864
-0.00199444196406
-0.00111729083878
-0.00183589305918
-0.00113142552726
-0.00167486671985
-0.00113766786806
-0.00151335023069
-0.00113429364092
-0.00135247800591
-0.00112201191752
-0.00119311594813
-0.00110062387794
-0.00103980517248
-0.00106496037906
-0.000891624688874
-0.00102228965191
-0.000755305250727
-0.000963068844225
-0.000638049973929
-0.000888955086979
-0.00051842890738
-0.000840358803095
-0.00040703877473
-0.000772414941302
-0.00031440315814
-0.000684219690298
-0.000244577315242
-0.000587471951046
-0.00019624515666
-0.000494392047322
-0.00016410997233
-0.000414998281862
-0.000134842097113
-0.000362201758817
-0.000103224039938
-0.000323879971869
-7.14856154667e-05
-0.000286277037226
-4.49382424695e-05
-0.000242625624446
-2.96963054268e-05
-0.000191850851894
-2.55853763373e-05
-0.000144794024865
-2.64626547628e-05
-0.000111672219558
-2.73668099398e-05
-9.15982839609e-05
-2.50677452181e-05
-8.11111008717e-05
-1.86101242064e-05
-7.4856216412e-05
-1.25605473419e-05
-6.33541220759e-05
-1.14854162968e-05
-4.63437680494e-05
-1.11953508392e-05
-3.64059209545e-05
-1.0580236498e-05
-2.95857052054e-05
-1.09860596655e-05
-2.22681775934e-05
-1.14924371293e-05
-1.73765591307e-05
-1.16990640642e-05
-1.45650214678e-05
-1.17579231712e-05
-1.29886217329e-05
-1.14112872571e-05
-1.23640392234e-05
-1.05366722495e-05
-1.22332015219e-05
-9.4460530654e-06
-1.24455475348e-05
-8.03625994105e-06
-1.2929554634e-05
-6.8226364599e-06
-1.33967680229e-05
-5.26999911711e-06
-1.44220356686e-05
-3.88643988798e-06
-1.52334945134e-05
-2.7465915083e-06
-1.66701597422e-05
-1.34787697936e-06
-1.727137476e-05
-1.74290329562e-05
-0.000255165784654
0.00202951202379
-0.000523500331156
0.00213839552772
-0.000787998754149
0.00211585804624
-0.00104620315971
0.00207714994346
-0.001296330826
0.0020268065925
-0.00153689432947
0.00196623086448
-0.00176671353423
0.00189687998243
-0.00198491670088
0.00182027730665
-0.0021909239973
0.00173793709218
-0.00238441690533
0.00165129972377
-0.00256529911105
0.00156168298015
-0.00273365353192
0.00147025043408
-0.00288969979664
0.0013779955305
-0.00303375501036
0.00128573899172
-0.00316619988315
0.00119413616211
-0.00328745087661
0.00110369120091
-0.003397938619
0.00101477495632
-0.00349809185302
0.000927644309189
-0.00358832628862
0.000842461004166
-0.00366903716255
0.000759309023351
-0.00374059476859
0.000678209660907
-0.00380334187351
0.000599134289167
-0.00385759252745
0.000522014656632
-0.0039036314794
0.000446751160555
-0.00394171398464
0.000373219196224
-0.00397206547389
0.000301274161597
-0.00399488106714
0.000230755280063
-0.0040103246003