/*--------------------------------*- C++ -*----------------------------------*\
| =========                 |                                                 |
| \\      /  F ield         | OpenFOAM: The Open Source CFD Toolbox           |
|  \\    /   O peration     | Version:  v1906                                 |
|   \\  /    A nd           | Web:      www.OpenFOAM.com                      |
|    \\/     M anipulation  |                                                 |
\*---------------------------------------------------------------------------*/
FoamFile
{
    version     2.0;
    format      ascii;
    class       volScalarField;
    location    "958";
    object      p;
}
// * * * * * * * * * * * * * * * * * * * * * * * * * * * * * * * * * * * * * //

dimensions      [0 2 -2 0 0 0 0];


internalField   nonuniform List<scalar> 
9216
(
268.377845653
268.463537023
268.637467437
268.900002081
269.249717241
269.68488371
270.203374865
270.802715976
271.480126165
272.232563484
273.056767795
273.949304049
274.906602235
275.924994654
277.000749875
278.130101265
279.309273744
280.534502625
281.802053548
283.108232006
284.449397813
285.821966374
287.222419421
288.647299331
290.09321786
291.556844743
293.034915968
294.524217786
296.021595854
297.523935716
299.028173926
300.531276035
302.030251005
303.522128026
305.003974985
306.472875422
307.925952334
309.360346633
310.773246849
312.16187019
313.523498079
314.855460125
316.155174191
317.420132447
318.647943219
319.836317153
320.983107111
322.086292341
323.144013359
324.154553988
325.11637163
326.028081708
326.88848979
327.696588556
328.4516029
329.153009599
329.8006011
330.394522415
330.93533759
331.424053338
331.862158934
332.25161498
332.594840887
332.894645776
333.154163373
333.376732991
333.56586704
333.725178881
333.85830713
333.968785006
334.059946038
334.134832493
334.196159108
334.246283294
334.287214385
334.320624265
334.347890402
334.370141281
334.388325449
334.403256025
334.415632691
334.426031267
334.434919042
334.442665121
334.449585551
334.455710083
334.460913893
334.465186141
334.468567727
334.471144256
334.473023909
334.474351279
334.475261329
334.47582528
334.476115795
334.47622102
268.292233356
268.378350012
268.552912528
268.816659905
269.168022483
269.605215042
270.126066813
270.728060845
271.408374395
272.163923618
272.991407917
273.887353721
274.848155497
275.870113576
276.949468225
278.082428893
279.265200003
280.494000994
281.765084173
283.07474625
284.419339566
285.795276474
287.199035608
288.627160624
290.07626314
291.543017223
293.024160438
294.516485295
296.016839612
297.522116014
299.029252747
300.535222359
302.037033972
303.531722232
305.016352439
306.488011095
307.943814893
309.380904197
310.796456903
312.187685794
313.55185757
314.886294192
316.188396177
317.455646711
318.685636759
319.876069309
321.02478265
322.129751603
323.189105777
324.201126454
325.164260145
326.077114914
326.938476423
327.747314792
328.502816888
329.204417623
329.851857716
330.445237476
330.985081607
331.472377682
331.908609485
332.295767477
332.636317281
332.933147753
333.189477716
333.408703592
333.594393101
333.750248938
333.880013193
333.987320659
334.075577834
334.147874267
334.206943417
334.255143983
334.294466753
334.326550985
334.352724717
334.374061513
334.391463201
334.405726046
334.417548301
334.427498485
334.436026947
334.443484433
334.450136402
334.45610826
334.461239917
334.465417151
334.468769811
334.471343002
334.473194088
334.474501491
334.475410537
334.475955329
334.476223553
334.476334854
268.117549273
268.204757908
268.381065806
268.647409923
269.002176633
269.443520671
269.969196875
270.576606779
271.262842835
272.024735838
272.858902147
273.761789475
274.729719736
275.75892804
276.845597392
277.985888435
279.17596478
280.412013238
281.690260369
283.006984291
284.358523982
285.741284327
287.151739958
288.586435249
290.041984344
291.515067586
293.002429122
294.500870984
296.007249422
297.518467703
299.031472203
300.543244981
302.050800728
303.55118025
305.04144952
306.518695391
307.980028099
309.422580611
310.843515809
312.240030582
313.609368344
314.948828071
316.255781546
317.527685981
318.762103518
319.956714149
321.109333253
322.217920346
323.280590288
324.295614792
325.26142636
326.176615487
327.039934785
327.850305449
328.606840297
329.308881476
329.956062183
330.548380346
331.086279841
331.570700419
332.003111473
332.385564032
332.720619376
333.011341142
333.261156387
333.473545964
333.652173456
333.800925581
333.923780017
334.024590812
334.106920897
334.173950003
334.228447381
334.272769194
334.308869215
334.338316027
334.362331729
334.381860898
334.397698274
334.410612584
334.421321066
334.430379045
334.438203398
334.445120939
334.451374951
334.457055693
334.461889822
334.46586909
334.46916634
334.471710425
334.473512648
334.47481114
334.475692974
334.476215813
334.476499657
334.476641337
267.851634224
267.940246493
268.11925292
268.3896108
268.749629709
269.197367843
269.73046509
270.346196754
271.041523476
271.813143617
272.657544839
273.571053384
274.549879575
275.590158663
276.687986461
277.839449542
279.04065017
280.287726111
281.57686596
282.904320196
284.266408868
285.659525955
287.080141464
288.524801018
289.990124116
291.472800489
292.969585903
294.477296461
295.992803013
297.513024388
299.034921337
300.555489674
302.071754826
303.580766022
305.079592662
306.565320933
308.035053599
309.485910676
310.915034206
312.319594446
313.696800729
315.043913741
316.358262185
317.637259851
318.878425458
320.079400525
321.237967061
322.352059945
323.419775875
324.439374348
325.409274605
326.328045648
327.194398792
328.007182777
328.765398015
329.46823401
330.115143244
330.705946768
331.24095262
331.721019105
332.147565324
332.52275492
332.849272446
333.130497451
333.370301002
333.572179235
333.739872048
333.877572357
333.989686663
334.080450197
334.15367447
334.212663554
334.260226543
334.298708388
334.330005582
334.355576471
334.376464806
334.393371445
334.406878881
334.417740452
334.426775578
334.434516442
334.441308445
334.447447743
334.453146613
334.458366317
334.462828597
334.466604439
334.469733193
334.472190396
334.474024188
334.475312716
334.476175463
334.476714279
334.477024548
334.477177363
267.493176845
267.583651625
267.766353821
268.042212621
268.409424313
268.865908508
269.409143423
270.03622779
270.743938576
271.528790391
272.387093176
273.315006329
274.308587837
275.363837465
276.476733621
277.643263808
278.859449049
280.121362651
281.42514407
282.767008391
284.143252244
285.550256576
286.984487049
288.442492287
289.92090064
291.416415497
292.925809754
294.445919296
295.973636111
297.505900786
299.03969504
300.572034088
302.099959607
303.620533055
305.130830269
306.627937231
308.108948144
309.570965624
311.011104263
312.426497265
313.814307245
315.171740504
316.496065357
317.784633036
319.034900819
320.244454864
321.411031227
322.532531952
323.607033834
324.632787976
325.608207924
326.531849637
327.402383687
328.218572952
328.979265306
329.683424813
330.330223406
330.919193285
331.450441418
331.924710078
332.343255988
332.708488441
333.023127825
333.291100526
333.517331636
333.70492271
333.85752264
333.979827918
334.077013923
334.153937617
334.214753967
334.262890406
334.301171796
334.331914467
334.356944723
334.377579173
334.3945993
334.408260747
334.418705205
334.426741527
334.433558234
334.439617364
334.445086542
334.450247292
334.455259729
334.459915974
334.463963881
334.467485476
334.470512612
334.472924314
334.474738803
334.47604808
334.476941447
334.477511621
334.477853777
334.478023123
267.040239459
267.133099941
267.320568152
267.603522938
267.980005489
268.447748069
269.00401257
269.645663155
270.369234229
271.170999307
272.047036701
272.993290002
274.00562171
275.079859253
276.21183308
277.397407147
278.6325023
279.913113438
281.23532123
282.595299386
283.989318189
285.413745123
286.865043129
288.339767068
289.834558715
291.346140676
292.871309385
294.406927436
295.949915342
297.497242926
299.045920393
300.592989438
302.135514538
303.670574757
305.195256418
306.706647219
308.201832426
309.677893699
311.131911411
312.560970991
313.96217403
315.332654341
316.669599095
317.970274246
319.232053187
320.452446147
321.629127803
322.759958603
323.842996872
324.87649547
325.858883654
326.788727534
327.664679608
328.485418506
329.249605906
329.955891001
330.603013354
331.190036464
331.716785988
332.183919361
332.59215156
332.944618591
333.243504887
333.493651866
333.702926553
333.872470492
334.005358253
334.107228387
334.184709025
334.243656895
334.288625497
334.323072019
334.349751852
334.370931919
334.388381429
334.4032859
334.416103587
334.426269902
334.432902556
334.437067009
334.441148662
334.445300805
334.449199295
334.453235002
334.457457309
334.461489822
334.465214933
334.46859579
334.471518854
334.473850148
334.475704562
334.477088948
334.478034888
334.478688064
334.479080573
334.479277124
266.490339993
266.58617029
266.779578788
267.071372913
267.459390346
267.941118046
268.513536788
269.173207958
269.91635521
270.73894562
271.636765689
272.605489665
273.640738604
274.738129407
275.893313998
277.102009199
278.360018402
279.663246153
281.007706968
282.389529455
283.804956858
285.250344802
286.722157021
288.216959506
289.731413557
291.262267909
292.806350232
294.360557986
295.921848854
297.487230686
299.053751094
300.618486886
302.178533527
303.730994842
305.272973434
306.801562393
308.313839089
309.806861792
311.277670207
312.723290831
314.140748193
315.527082627
316.879374958
318.194777699
319.470551397
320.704103726
321.893026957
323.035129518
324.128453479
325.171274247
326.162072011
327.099475346
327.982171626
328.808793857
329.577806264
330.287433632
330.935754865
331.521008936
332.042666687
332.501660511
332.896816237
333.233907488
333.512212247
333.737909553
333.928179193
334.076400174
334.184129383
334.259195632
334.311200974
334.347575601
334.37316241
334.391118538
334.403920935
334.413779508
334.422481409
334.431213876
334.440228754
334.447483183
334.449418117
334.447787492
334.448754981
334.451150868
334.453230885
334.456070352
334.459531318
334.462975531
334.466450063
334.46971439
334.472628716
334.4750735
334.477044272
334.478533978
334.479574282
334.480314664
334.480759868
334.480980292
265.840387301
265.939843567
266.140502394
266.443074205
266.845133662
267.343851854
267.935849809
268.617304501
269.384048421
270.23166668
271.15558589
272.151152037
273.213695616
274.338583739
275.521259686
276.757271285
278.042289605
279.372119853
280.742706031
282.150130982
283.590612991
285.060500045
286.556262405
288.074484142
289.611853865
291.165154983
292.731255467
294.307097264
295.889685215
297.476075567
299.063363866
300.648672589
302.229138381
303.801899305
305.364082356
306.912792102
308.44510118
309.958043782
311.448613389
312.91376623
314.350431944
315.755532785
317.126012335
318.458873744
319.751226579
321.000339084
322.203691581
323.359022915
324.464362312
325.518034452
326.518629065
327.464923075
328.355747292
329.189795225
329.965382722
330.680209933
331.331337729
331.915388705
332.431357504
332.882282482
333.260161369
333.581143109
333.832283723
334.02022961
334.194135119
334.318841704
334.394204659
334.433756561
334.453699357
334.463306617
334.466549627
334.465310038
334.461695929
334.458215209
334.456945801
334.459376331
334.466353873
334.473358667
334.469052068
334.456828386
334.45498638
334.456910434
334.456677125
334.458292014
334.461262123
334.46410562
334.4675174
334.47077861
334.473907617
334.476629745
334.478800248
334.480459262
334.481645374
334.482432525
334.482940859
334.48318208
265.086608003
265.190436723
265.39983187
265.715371626
266.134293247
266.653363612
267.26874697
267.976136425
268.770877194
269.648084023
270.602746076
271.629815949
272.724281397
273.881219882
275.095837412
276.36349373
277.679716429
279.040206377
280.440836825
281.877648014
283.346838923
284.844757171
286.367888009
287.912842758
289.476347123
291.055229358
292.646408392
294.246881686
295.853712796
297.464018338
299.07495425
300.683701357
302.28745024
303.883385459
305.468669638
307.040428094
308.595735028
310.131602532
311.644974149
313.132724933
314.59167027
316.018585654
317.410239354
318.763439009
320.075091653
321.342274541
322.562310677
323.732840412
324.851875914
325.917824203
326.929463182
327.88585025
328.786148858
329.629337859
330.413789453
331.136673092
331.793572532
332.377466935
332.886272516
333.333033349
333.683115936
333.994934864
334.210253408
334.331115609
334.535409936
334.642642877
334.66989484
334.651478039
334.616966731
334.582688132
334.555265
334.533716162
334.514830795
334.498235404
334.486097624
334.482059673
334.49297703
334.50982207
334.494954467
334.458766535
334.457746351
334.463606173
334.458898387
334.459155618
334.462608639
334.464491987
334.468292496
334.471698817
334.475392054
334.47856039
334.481064734
334.482930663
334.484255743
334.485089355
334.485662885
334.48591761
264.224453104
264.333517141
264.55336071
264.884382545
265.323386482
265.866622978
266.509677539
267.247636659
268.075241973
268.987033608
269.977474475
271.04105204
272.172356453
273.366136325
274.617334676
275.921108634
277.272836408
278.668115113
280.102752296
281.572753698
283.074308872
284.603776058
286.157666936
287.732631811
289.325445264
290.932992355
292.552255077
294.180298944
295.81425923
297.451326662
299.088731994
300.723729604
302.353579655
303.975528993
305.58679101
307.184525365
308.76581847
310.327666409
311.866962299
313.380490811
314.864932951
316.316884628
317.732892344
319.109508715
320.443368723
321.731284676
322.97035346
324.158065059
325.292394455
326.371859323
327.395518067
328.362889643
329.273758073
330.127808162
330.923993638
331.659330537
332.327728118
332.91315721
333.40775585
333.869704638
334.164767017
334.549379257
334.719975937
334.577512233
334.530251308
334.586561997
334.626943807
334.628678362
334.612619553
334.591489594
334.570813448
334.553422738
334.540479088
334.532745859
334.532064526
334.542781231
334.5706634
334.595760159
334.549751787
334.425799745
334.447487894
334.474785727
334.458368878
334.457272393
334.464426644
334.463334979
334.468763745
334.472170249
334.477048543
334.481039639
334.484002618
334.486091336
334.487479312
334.48836177
334.488955743
334.489222166
263.248478302
263.363790317
263.596086865
263.945520976
264.408338256
264.980127412
265.655740064
266.429502687
267.295411438
268.247308143
269.279027896
270.384514618
271.557904629
272.793581025
274.086203513
275.430718923
276.822357755
278.256621324
279.729263457
281.236269463
282.773834527
284.338342611
285.926346677
287.534550311
289.15979087
290.799023743
292.449307544
294.107789593
295.771691325
297.438292897
299.104916448
300.76890772
302.427615554
304.078368975
305.718452276
307.345078618
308.955363349
310.546298652
312.114732133
313.657352634
315.170687629
316.651117259
318.094910645
319.498289584
320.85752337
322.169054285
323.429648266
324.636555995
325.787663389
326.881603162
327.917803698
328.896449859
329.818331357
330.684507197
331.495645507
332.250078467
332.942742425
333.536566813
333.996608905
334.6135131
334.60961945
334.562946068
334.621698891
334.632901454
334.606185862
334.612760721
334.624398142
334.619470815
334.604203462
334.585347315
334.567161171
334.552352939
334.541695816
334.535484039
334.534007599
334.537570664
334.545187551
334.544548667
334.522582584
334.512048925
334.548053426
334.555756536
334.447834846
334.441166622
334.468771425
334.457792044
334.469552459
334.471507155
334.479154378
334.484470023
334.487875519
334.490055993
334.491441614
334.492301116
334.492846348
334.493110104
262.152189248
262.274957455
262.522090172
262.893403648
263.38441907
263.989873124
264.703683457
265.51922309
266.429568345
267.427715845
268.506757259
269.660008882
270.88109792
272.164011174
273.503113484
274.893144013
276.329197621
277.806697663
279.321364818
280.869185417
282.446381176
284.049381595
285.674799224
287.319407916
288.980123528
290.653986766
292.338147403
294.029849347
295.726415625
297.425232612
299.123732319
300.819372498
302.509613446
304.191891191
305.863587042
307.52199407
309.164281376
310.787458052
312.388339535
313.963520517
315.509359844
317.021984694
318.497322446
319.931169534
321.319305163
322.657654062
323.942493917
325.17069144
326.3399359
327.448932542
328.497524135
329.486730217
330.41871486
331.296681364
332.124689134
332.906356812
333.656585589
334.315487673
334.497144438
334.564727142
334.632203663
334.623053373
334.628148652
334.628858903
334.614586996
334.612693118
334.613013188
334.604817205
334.590140538
334.572949554
334.557044953
334.5447908
334.536321078
334.531660107
334.530474116
334.531785415
334.533699618
334.531187216
334.521057998
334.515994614
334.524303645
334.516809837
334.51237301
334.537300429
334.523661542
334.433141665
334.472362478
334.466928557
334.482499606
334.489682396
334.493120025
334.494990373
334.496151703
334.49687887
334.497295836
334.497522727
260.927840618
261.059529106
261.324376764
261.721733502
262.246173042
262.891327007
263.649918553
264.514121204
265.475876469
266.527161542
267.660194756
268.867577397
270.142377532
271.478165672
272.869014187
274.309471966
275.794524608
277.31954798
278.880260976
280.472680926
282.093083696
283.737968983
285.40403084
287.088132688
288.787286248
290.498633376
292.21943017
293.947032219
295.678880172
297.412484269
299.145406615
300.875240232
302.599583708
304.316010331
306.022031812
307.715056449
309.392342638
311.05094919
312.68768546
314.299065673
315.881274339
317.430152071
318.941214339
320.409717825
321.830790035
323.199633853
324.51180879
325.763570528
326.952224799
328.076430475
329.136409199
330.134067526
331.073117371
331.959344945
332.802300862
333.622492055
334.53229416
334.524217531
334.545182485
334.582466216
334.617476827
334.618933583
334.619222873
334.614246957
334.602780875
334.595560631
334.589007754
334.578234855
334.563872427
334.548425293
334.535199442
334.525777013
334.519783447
334.517108076
334.51719795
334.518900692
334.520610294
334.519995295
334.515993782
334.513488189
334.516129142
334.513975271
334.51322038
334.518773323
334.514618686
334.527401249
334.527456974
334.445037852
334.488696484
334.498238975
334.500165925
334.50095905
334.501519287
334.501965284
334.502202757
334.50238177
259.566172639
259.708585581
259.994680023
260.423156454
260.987335566
261.67940388
262.490547136
263.411424607
264.432577436
265.544758245
266.739169133
268.007610763
269.342554141
270.737151964
272.185207499
273.681117748
275.219804342
276.796642297
278.407392878
280.048144273
281.715261144
283.405343061
285.115190621
286.841778148
288.582231454
290.333809724
292.09389023
293.859954995
295.629577909
297.400410978
299.17016759
300.936601717
302.697480979
304.450552245
306.193499222
307.923891673
309.639126328
311.336360768
313.012442562
314.663838312
316.286569968
317.876170166
319.427673253
320.935664681
322.394415706
323.798130035
325.141317619
326.419280332
327.628643519
328.767805177
329.837217159
330.839465278
331.779087799
332.662563285
333.502466238
334.343797733
334.501277049
334.58093335
334.572360763
334.587543122
334.602651104
334.600872713
334.594680162
334.584259129
334.570475166
334.558158855
334.546666248
334.533899738
334.519893656
334.507017333
334.497493912
334.491318819
334.488359901
334.488441067
334.490908226
334.49468953
334.498553045
334.501299194
334.502698832
334.504768069
334.50878936
334.510814106
334.511748087
334.515067209
334.515527335
334.520520569
334.517584124
334.524672994
334.530160686
334.517108875
334.509569746
334.507625994
334.507306609
334.507336183
334.507456781
334.507606296
258.056062567
258.211459865
258.523205606
258.989084887
259.600742362
260.348456155
261.221419604
262.208373031
263.298129939
264.479979902
265.743957587
267.080988093
268.482930714
269.942548286
271.453429332
273.009886112
274.606846412
276.23975077
277.904462004
279.597189551
281.314428722
283.052912995
284.809577173
286.58152884
288.366026347
290.160461602
291.962346743
293.769303299
295.579052594
297.389405203
299.19824713
301.0035205
302.803196451
304.595237821
306.37755112
308.147926333
309.903964218
311.642991006
313.361962025
315.057357605
316.725078666
318.360354529
319.957684174
321.510842482
323.012995671
324.456978223
325.835777814
327.143232294
328.374853529
329.528504592
330.604781328
331.606955011
332.540902538
333.419237891
334.287913304
334.418416993
334.495595413
334.548498186
334.558382333
334.566565873
334.568720862
334.559712962
334.54575697
334.529184992
334.511471819
334.495192086
334.480714019
334.467273179
334.454775304
334.445374315
334.44021486
334.438208552
334.439328083
334.443367751
334.449651522
334.45723386
334.465151939
334.472653702
334.479609089
334.486728735
334.494276826
334.500641493
334.506070166
334.511896955
334.515762708
334.519614301
334.522158345
334.530076988
334.545168365
334.54083562
334.514202084
334.512439675
334.512726101
334.512651175
334.512925129
334.513121091
256.384057416
256.555320741
256.898301746
257.409482063
258.078233567
258.892288195
259.838238093
260.902383276
262.071408587
263.332869758
264.675484588
266.089253862
267.565450711
269.096521688
270.675939128
272.298036604
273.957849473
275.650973844
277.373449664
279.121668779
280.89230521
282.682263742
284.488642208
286.308703882
288.139856984
289.97963983
291.825710438
293.675839928
295.527907941
297.379897853
299.22988805
301.076036524
302.916555181
304.749671166
306.573573976
308.386346549
310.185878571
311.969760637
313.735158368
315.478667802
317.196156805
318.882604166
320.531958952
322.137060755
323.689686371
325.180817436
326.601239947
327.942549387
329.198496081
330.366033398
331.445764483
332.442210812
333.368450825
334.273527394
334.391688431
334.447233098
334.494836973
334.524064197
334.527662604
334.521597361
334.508795067
334.48931993
334.466881225
334.444004957
334.422281625
334.403322272
334.387691396
334.375164579
334.365771249
334.361103388
334.361052917
334.364254768
334.370670057
334.380027061
334.391644971
334.404671208
334.418282885
334.431850988
334.445108934
334.458138244
334.470822787
334.482411629
334.492892459
334.502552123
334.510441391
334.517210943
334.52255632
334.52791344
334.535809172
334.536986733
334.528695654
334.515300541
334.518209363
334.517812233
334.518525132
334.518922968
254.533739303
254.724610358
255.10603133
255.67259983
256.410562226
257.30421546
258.336731345
259.491298071
260.751986542
262.104323004
263.535580393
265.034837776
266.59287372
268.201960139
269.855613627
271.548345944
273.275440016
275.032764204
276.816628101
278.623676358
280.450814061
282.295155637
284.153990213
286.024757485
287.905030718
289.792505113
291.684991597
293.580415809
295.476821238
297.372373131
299.265358521
301.154177489
303.037321578
304.913335384
306.780760679
308.638060202
310.48351856
312.315116189
314.13037262
315.926155702
317.698456643
319.442136262
321.150660992
322.815871114
324.427867568
325.975169513
327.445377479
328.826599818
330.109815325
331.290411609
332.369254542
333.358358817
334.309885492
334.409203037
334.437756403
334.460674945
334.478954607
334.481246246
334.466455497
334.443148207
334.415356771
334.384867304
334.354363351
334.326014098
334.301253895
334.281175023
334.266222139
334.256245189
334.251876565
334.253386877
334.259130738
334.268496334
334.281385861
334.297371369
334.315736608
334.335664701
334.356374155
334.37722521
334.397792115
334.417822263
334.437004919
334.454827971
334.47107542
334.48565821
334.498111783
334.508559
334.516731558
334.522832055
334.527554452
334.528332365
334.524368906
334.520136364
334.527232853
334.522781022
334.524317155
334.525156283
252.484848614
252.700284045
253.129611772
253.764665264
254.587324763
255.577202001
256.712941286
257.973758249
259.340534972
260.796467965
262.327313704
263.921323893
265.568978019
267.262614248
268.996037917
270.764160583
272.562697766
274.387934992
276.236558827
278.105542935
279.992075834
281.893517451
283.80737293
285.731275831
287.662976066
289.600332104
291.541308944
293.483984323
295.426562413
297.367391197
299.304975864
301.237981155
303.16521655
305.085600597
306.998103965
308.901669075
310.795102058
312.67693052
314.545218452
316.397329176
318.229626889
320.037109646
321.81297569
323.548150192
325.230858503
326.846454237
328.377927898
329.807777396
331.122465809
332.315295639
333.393912652
334.413453162
334.487392127
334.476543143
334.463952314
334.452675223
334.434752891
334.406599821
334.369382637
334.328053983
334.286005737
334.245304921
334.207987157
334.175694475
334.149514979
334.130145991
334.117852908
334.112505202
334.114339157
334.122389134
334.134804383
334.151346099
334.17178051
334.195530638
334.221832313
334.249861494
334.278820677
334.308008738
334.336858221
334.364908014
334.391706018
334.416758827
334.439712492
334.460296386
334.478142695
334.493129793
334.505042443
334.513839069
334.519603898
334.52154067
334.519692843
334.515043283
334.509956072
334.522331624
334.530021936
334.532180783
250.212051244
250.458758534
250.948679682
251.669515168
252.596948374
253.70413108
254.963682889
256.349754943
257.839384499
259.413175946
261.055414258
262.753772455
264.498785303
266.283238704
268.101582367
269.949427963
271.82315821
273.719646567
275.636073101
277.569815101
279.518390246
281.47943158
283.450678056
285.429969228
287.41523933
289.404511673
291.395899397
293.387619258
295.378020192
297.365620583
299.349142788
301.327531822
303.299950745
305.265749399
307.224408606
309.175459611
311.118373952
313.05241306
314.97642411
316.888565304
318.785939642
320.664109395
322.516459216
324.333382938
326.101321816
327.801838458
329.411309621
330.902524361
332.255111588
333.466809363
334.594495938
334.641092322
334.576374561
334.515303439
334.462677246
334.409434927
334.353438332
334.294787065
334.234831945
334.176433993
334.12197062
334.073059826
334.031033154
333.996895806
333.971271073
333.954481271
333.946599096
333.947387053
333.95615863
333.970984078
333.990715299
334.015144812
334.043846944
334.076126608
334.111168003
334.148114041
334.186123198
334.224417949
334.262309304
334.299185707
334.334474369
334.367624517
334.398174796
334.425736674
334.449931699
334.470521717
334.487301285
334.500185808
334.509202246
334.514157812
334.515223391
334.511951241
334.502652729
334.503770192
334.538160586
334.541686373
247.683167904
247.970444916
248.538322278
249.36819317
250.426798915
251.678298892
253.087270759
254.621443359
256.253308717
257.960736054
259.726799567
261.539092248
263.388794586
265.269715783
267.177446755
269.108690216
271.060778992
273.031362718
275.018228484
277.019218078
279.032206382
281.055111269
283.085911663
285.122659007
287.163476362
289.20655015
291.250127522
293.2925369
295.332236576
297.367883296
299.398399199
301.423015008
303.441278142
305.453025788
307.458330295
309.457423894
311.450596339
313.438050286
315.419694693
317.394853826
319.361860291
321.317480288
323.256086722
325.16845967
327.040056939
328.848656026
330.561353739
332.133314467
333.542568585
334.845355159
334.874557924
334.744829921
334.623654366
334.518962496
334.419218837
334.322834544
334.231042493
334.144599319
334.064402831
333.991878979
333.928222054
333.874179427
333.830248622
333.796731843
333.773741394
333.761263246
333.759252054
333.766920753
333.782567399
333.804243383
333.831521821
333.864064394
333.90125582
333.942313527
333.986376022
334.032547543
334.079937864
334.127696871
334.175033957
334.221218437
334.265568411
334.307448993
334.346301827
334.381645529
334.413060419
334.440245206
334.462993314
334.481237244
334.495073707
334.504673304
334.510557867
334.513048191
334.510917728
334.512445152
334.575005618
334.560761454
244.856570746
245.197658651
245.867808619
246.838553435
248.063526673
249.494277164
251.084654108
252.794333215
254.590608261
256.448735265
258.351214291
260.286449274
262.247199109
264.22913066
266.229643631
268.24701696
270.279853402
272.326765138
274.386235917
276.456599226
278.536081785
280.622870962
282.715175355
284.81125824
286.909437572
289.008062535
291.105493055
293.200121995
295.290452153
297.37521574
299.453493557
301.524793836
303.58907425
305.646712802
307.698449871
309.745323637
311.788590445
313.829605085
315.869635562
317.909589282
319.949619248
321.988542643
324.022946187
326.045726896
328.043608264
329.99259482
331.849040774
333.543005158
335.120713374
335.165879444
334.973261981
334.788737637
334.626404476
334.47203053
334.325500821
334.190111405
334.067661835
333.958673181
333.863245856
333.781426153
333.713067
333.657814377
333.615244676
333.584942384
333.566528141
333.559744463
333.564543648
333.578973258
333.600667666
333.628961276
333.663549023
333.703862401
333.749164274
333.798629203
333.851372151
333.906474346
333.963011013
334.020075711
334.076796895
334.132345957
334.185940762
334.236853431
334.284430307
334.328102496
334.367391596
334.401942929
334.431532048
334.45609464
334.475751573
334.490774918
334.501689643
334.509322754
334.514960262
334.520331534
334.506209848
334.559512938
241.677246402
242.091608166
242.898952839
244.054986085
245.493859545
247.149379704
248.961171108
250.879015818
252.864593354
254.891183206
256.941975315
259.007676233
261.084038113
263.169750653
265.264879682
267.369846389
269.48484997
271.609614723
273.743352569
275.884853282
278.032633793
280.185094278
282.340640597
284.497746044
286.654942059
288.810754695
290.963632146
293.111957292
295.254164861
297.388950809
299.515478575
301.63351094
303.743441172
305.84624267
307.943389593
310.036810067
312.128851307
314.22221023
316.319794417
318.42450197
320.538912329
322.664840076
324.80263065
326.949925209
329.099139632
331.232890095
333.31820221
335.309656982
335.441263929
335.21840382
334.988547165
334.776665412
334.567733709
334.365874274
334.179154056
334.01228508
333.867024656
333.743213827
333.639691476
333.554934842
333.487326645
333.435311685
333.397533843
333.372905884
333.360633066
333.360313191
333.371666012
333.39202451
333.419065182
333.453306647
333.494348492
333.541444564
333.59381591
333.650643014
333.711054858
333.774142153
333.838973465
333.90461068
333.97012372
334.034603849