/*--------------------------------*- C++ -*----------------------------------*\
| =========                 |                                                 |
| \\      /  F ield         | OpenFOAM: The Open Source CFD Toolbox           |
|  \\    /   O peration     | Version:  v1906                                 |
|   \\  /    A nd           | Web:      www.OpenFOAM.com                      |
|    \\/     M anipulation  |                                                 |
\*---------------------------------------------------------------------------*/
FoamFile
{
    version     2.0;
    format      ascii;
    class       surfaceScalarField;
    location    "349";
    object      phia;
}
// * * * * * * * * * * * * * * * * * * * * * * * * * * * * * * * * * * * * * //

dimensions      [0 3 -1 0 0 0 0];
oriented        oriented;


internalField   nonuniform List<scalar> 
18240
(
0.00134695528043
-0.00134688772272
0.00282162552744
-0.00147459345145
0.00429535104516
-0.00147365532743
0.00575051399992
-0.00145508428615
0.00717914787444
-0.00142856528498
0.00857456975053
-0.00139534151823
0.00993075500339
-0.00135611827864
0.0112423066164
-0.00131146944579
0.0125043533723
-0.00126198142448
0.0137126686658
-0.00120823120578
0.0148635616487
-0.0011508294054
0.0159540099014
-0.00109036213352
0.0169815074628
-0.00102743582121
0.017944203896
-0.000962608170889
0.0188407085461
-0.000896444908089
0.0196702421486
-0.000829443085894
0.0204324016266
-0.000762101854537
0.0211273324753
-0.000694837975051
0.0217554588221
-0.000628071061534
0.0223176844663
-0.000562130323477
0.0228150915327
-0.000497354288443
0.0232491766038
-0.000433987240975
0.0236215196139
-0.000372293031839
0.023934059595
-0.000312439616129
0.0241887332389
-0.000254626694513
0.0243877928979
-0.000198956792272
0.0245334130433
-0.000145576598156
0.0246280519163
-9.45336031726e-05
0.0246740233843
-4.59316103004e-05
0.0246739034226
2.27448988143e-07
0.0246300670537
4.38720953637e-05
0.0245451346373
8.50418497318e-05
0.0244214622154
0.00012370369637
0.0242616441648
0.000159929051422
0.0240679740292
0.00019369648806
0.023842983051
0.000225103086865
0.0235888569045
0.000254147277663
0.0233080204629
0.000280949108059
0.0230025163733
0.000305519565168
0.022674632706
0.000327996281738
0.0223262439528
0.000348398355188
0.0219594792562
0.000366876585276
0.0215760281051
0.000383454539659
0.0211778463033
0.000398292265001
0.0207664289478
0.000411414443045
0.0203435507005
0.000422986554167
0.0199105098045
0.000433031481009
0.0194688985851
0.000441716647918
0.0190198223215
0.000449060417394
0.0185646953549
0.000455228793584
0.0181044396113
0.000460233424825
0.0176403011202
0.000464236029826
0.0171730328169
0.000467239747825
0.0167037258494
0.00046939955226
0.0162329820952
0.000470709082411
0.0157617542084
0.000471314907995
0.0152905129739
0.000471200834116
0.0148200898391
0.000470504018538
0.0143508449301
0.00046919904869
0.0138835056145
0.000467413555252
0.0134183406418
0.000465114167088
0.0129559883307
0.000462419444391
0.0124966429186
0.000459290052496
0.0120408660035
0.000455836552557
0.0115887907766
0.000452015919133
0.0111409106171
0.000447931961668
0.0106973073604
0.000443540481422
0.0102584111561
0.000438939909598
0.00982425840288
0.000434087169618
0.00939521739895
0.0004290764124
0.00897128180759
0.000423867743967
0.0085527569567
0.000418551858206
0.00813959400802
0.000413093537716
0.00773203227694
0.000407580325544
0.00732997922133
0.000401982706108
0.00693360455129
0.000396384972365
0.00654277032649
0.000390763714523
0.00615757319415
0.000385199393828
0.00577782860473
0.000379674669889
0.0054035579562
0.00037426526694
0.00503453012064
0.00036895937863
0.0046706908717
0.000363826714868
0.00431176464071
0.000358860029301
0.00395762419473
0.000354121240279
0.00360795520978
0.000349605685305
0.00326256560149
0.000345364014537
0.00292111694693
0.000341388492508
0.00258337811895
0.000337706933639
0.00224903776241
0.000334283422587
0.00191793719054
0.000331063340888
0.0015900517408
0.000327833060827
0.00126593950856
0.000324071693689
0.000947651558506
0.000318243316001
0.00064236901048
0.000305241832711
0.000355691196595
0.000286625662276
0.000355661484876
0.00148905268742
-0.00283586756027
0.00315130590225
-0.00313676759491
0.0048045929402
-0.00312686511122
0.00643428569801
-0.00308469738851
0.00803302219727
-0.00302722487056
0.00959392373445
-0.00295616295734
0.0111104476114
-0.00287256557805
0.0125765924148
-0.0027775336121
0.0139869445765
-0.00267225735003
0.0153367667664
-0.00255797216934
0.0166219704568
-0.00243595720167
0.0178391737296
-0.00230748355414
0.0189856332722
-0.00217381985412
0.0200592872702
-0.00203617966501
0.0210586558513
-0.00189573838783
0.0219828780766
-0.00175358213731
0.0228315883226
-0.00161073748326
0.0236049560091
-0.0014681218171
0.0243035447823
-0.00132658576077
0.024928362675
-0.0011868637177
0.0254807094895
-0.0010496277006
0.0259622432819
-0.000915435931247
0.0263748191183
-0.000784796255861
0.0267205754107
-0.000658110288833
0.0270017648663
-0.000535744537579
0.0272208620212
-0.00041796795223
0.0273803853866
-0.000305029558442
0.0274830260824
-0.000197088126432
0.0275314593351
-9.42959796768e-05
0.0275284932165
3.27964596169e-06
0.0274768655822
9.55667797322e-05
0.0273794179257
0.000182575155029
0.0272388894481
0.000264296967269
0.0270580997596
0.00034080354355
0.0268397168589
0.00041214152662
0.0265864696133
0.00047843383065
0.02630090756
0.00053976832705
0.0259856300414
0.000596308304673
0.0256430315761
0.000648173451738
0.0252755493425
0.000695557836081
0.0248853950858
0.000738603964691
0.0244748200901
0.000777527983163
0.0240458343908
0.000812487114792
0.0236004879792
0.00084371160987
0.023140578355
0.000871366026108
0.0226679465115
0.000895687318744
0.0221841741725
0.000916840532195
0.0216908928305
0.000935062395032
0.0211894721917
0.000950512183578
0.0206813403203
0.000963420081435
0.0201676649997
0.000973934072936
0.0196496827348
0.000982272309043
0.0191283747721
0.000988567029728
0.0186048025048
0.000993020063725
0.0180797799994
0.000995744814219
0.0175542131061
0.000996923976533
0.0170287703226
0.000996650681339
0.0165042228218
0.00099508737933
0.0159811156086
0.000992307209063
0.015460105591
0.000988452942336
0.0149416350043
0.000983579648056
0.0144262647298
0.000977812475576
0.0139143521462
0.000971191641593
0.0134063769789
0.000963827808995
0.0129026257776
0.000955750417858
0.0124035077898
0.000947059366039
0.0119092484442
0.000937777678458
0.0114201929137
0.000927998242546
0.0109365109604
0.000917741809049
0.0104584861082
0.000907097563794
0.00998623428513
0.000896087439116
0.00951997671098
0.000884799411595
0.00905977461112
0.00087325908608
0.00860578415942
0.000861554697128
0.00815800946985
0.000849716895724
0.00771653809889
0.000837834568956
0.00728131422441
0.000825943696243
0.00685235341561
0.000814133211088
0.00642953773527
0.000802443719692
0.00601280863671
0.000790962751361
0.0056019853818
0.000779734004749
0.00519693512168
0.000768841405719
0.00479741586746
0.000758329393755
0.00440322301913
0.000748275184265
0.00401405788901
0.000738720243998
0.00362965024492
0.000729729779846
0.00324965315889
0.000721334516445
0.00287374062395
0.000713574731643
0.00250152501763
0.000706447596796
0.00213261445632
0.000699926835804
0.00176649756866
0.000693900510021
0.00140237591642
0.000688147029711
0.00103831835808
0.000682253071014
0.000667959484047
0.000675555403385
0.000285740810866
0.000668800242534
0.000641379618455
0.00151524025788
-0.0043510342766
0.00319864463409
-0.00482009354883
0.0048755480875
-0.00480369007417
0.00652874972752
-0.00473782002073
0.00815015304579
-0.00464854977482
0.00973255304371
-0.00453848376801
0.0112692388824
-0.00440917302837
0.0127540807853
-0.00426229610269
0.0141815835398
-0.00409968168422
0.0155469428723
-0.00392325183485
0.0168460490478
-0.003734984921
0.0180755075866
-0.00353686215659
0.0192326072856
-0.00333084105283
0.0203153175485
-0.003118809719
0.0213222309598
-0.00290257328256
0.0222525469302
-0.00268381763318
0.0231059977143
-0.00246410975116
0.0238828273037
-0.00224487069062
0.0245837089077
-0.00202738891472
0.0252097268033
-0.00181280069936
0.0257622915647
-0.00160211413643
0.0262431304915
-0.0013961938227
0.0266542044635
-0.00119579215695
0.0269977098686
-0.00100153465053
0.0272759981683
-0.000813955155049
0.0274915897475
-0.0006334786488
0.027647095327
-0.000460458075795
0.0277452407001
-0.000295153000427
0.0277887882955
-0.000137767375775
0.0277805715928
1.1576169441e-05
0.0277234158387
0.000152797513188
0.0276201810732
0.000285888707948
0.0274736818503
0.000410869582749
0.0272867388414
0.000527823877771
0.0270620952551
0.000636856447575
0.0268024769572
0.000738127531087
0.0265105067443
0.00083180737341
0.0261887727092
0.000918115311461
0.0258397399672
0.000997271993242
0.0254658264475
0.00106954137961
0.025069311947
0.00113518076053
0.0246524208822
0.00119448559031
0.024217228847
0.00124773740904
0.0237657517948
0.00129525121536
0.0232998502609
0.00133732134974
0.0228213244514
0.00137427119767
0.0223318165657
0.00140639726815
0.0218329111609
0.0014340209457
0.0213260358951
0.00145743101527
0.02081256647
0.00147693732208
0.0202937262818
0.00149281217753
0.0197706950519
0.00150534569065
0.0192445076525
0.00151478646987
0.01871616543
0.0015213984843
0.0181865345922
0.00152540157874
0.017656459046
0.0015270295588
0.0171266585149
0.00152647092887
0.0165978416885
0.00152392791813
0.0160706044252
0.00151955787306
0.0155455419456
0.00151353273068
0.0150231473599
0.00150598134907
0.014503921758
0.00149704894636
0.0139882735875
0.00148684066241
0.0134766255583
0.00147548030764
0.0129693153668
0.00146305533758
0.0124666985563
0.00144967432479
0.0119690513924
0.00143541358077
0.0114766689341
0.00142037267648
0.0109897708332
0.00140462290054
0.0105085940933
0.00138826029412
0.0100333027925
0.00137135622476
0.00956407508431
0.00135400738992
0.00910101772736
0.00133628877834
0.00864424703323
0.00131830026833
0.00819380917941
0.00130012232819
0.00774975481561
0.00128185885226
0.00731206593083
0.00126359593252
0.00688072391304
0.00124544072191
0.00645564372634
0.00122748363336
0.00603673517854
0.00120983301645
0.0056238449315
0.00119258107533
0.00521681077235
0.00117583421489
0.0048154118996
0.00115968289849
0.00441941590545
0.00114422742078
0.00402853743315
0.00112955172026
0.00364247725551
0.00111574416289
0.00326088840925
0.00110287493439
0.00288340432501
0.00109101102862
0.00250960549728
0.00108019680157
0.00213901940678
0.00107046408419
0.00177104688685
0.00106182339252
0.00140484649005
0.00105429998437
0.00103903719675
0.00104801668779
0.000671268883215
0.00104327574086
0.000302785339092
0.0010372369389
0.00094414340757
0.00153838998774
-0.0058893505735
0.00324461821938
-0.00652624303072
0.00494447604737
-0.0065034691698
0.00661996545163
-0.00641323042974
0.00826252505354
-0.00629103054916
0.00986462746654
-0.00614050712057
0.0114193423042
-0.00596380893094
0.012920382447
-0.00576325702369
0.0143621537614
-0.00554137392195
0.0157397951938
-0.00530081384565
0.0170491890999
-0.00504429958555
0.0182869649188
-0.00477455834085
0.019450475564
-0.00449427229835
0.0205377743978
-0.00420602870652
0.0215475679281
-0.00391228725669
0.0224791764207
-0.00361534608059
0.0233324728709
-0.00331732652198
0.0241078369025
-0.00302015450706
0.0248060889366
-0.00272556117648
0.0254284456181
-0.00243507704346
0.025976456253
-0.00215004498333
0.026451965616
-0.00187162280474
0.0268570568147
-0.00160080363988
0.0271940240989
-0.00133842162672
0.0274653230388
-0.00108517461172
0.0276735529505
-0.000841628495896
0.0278214128478
-0.000608238910799
0.0279116915401
-0.000385352099403
0.0279472272448
-0.000173224720522
0.0279309036411
2.79785958187e-05
0.0278656119029
0.000218166589351
0.0277542509434
0.000397327354379
0.0275996919136
0.000565504504199
0.0274047833295
0.000722808576721
0.0271723167736
0.000869397012778
0.0269050371223
0.00100548125462
0.0266056088006
0.00113130731219
0.0262766306197
0.00124716501004
0.0259206030973
0.00135336824095
0.0255399472508
0.00145026566333
0.0251369726798
0.00153822061959
0.0247138999635
0.00161762313029
0.0242728293601
0.00168886936453
0.0238157665284
0.0017523747457
0.0233445918539
0.00180855292886
0.0228610892869
0.00185782985155
0.0223669163474
0.00190062222988
0.0218636358391
0.00193735249176
0.0213526866128
0.0019684269586
0.0208354178675
0.00199425166511
0.0203130606705
0.00201521045715
0.0197867644109
0.00203168178291
0.0192575689913
0.00204401703541
0.0187264428828
0.00205255839201
0.018194255779
0.00205761768884
0.0176618175507
0.00205949535691
0.0171298510867
0.00205846008982
0.0165990314064
0.002054768802
0.0160699583808
0.00204864721317
0.0155431952379
0.00204031064544
0.0150192409211
0.00202994555921
0.0144985673292
0.00201773086839
0.013981591181
0.00200382033111
0.0134687094452
0.0019883639867
0.0129602707442
0.00197149126656
0.0124566086282
0.00195333210114
0.0119580127238
0.00193400057626
0.0114647596595
0.00191361528067
0.0109770843183
0.00189228338486
0.0104952083977
0.00187011984628
0.010019312244
0.00184723183589
0.00954956112046
0.00182373651552
0.0090860781499
0.00179974583726
0.00862896844124
0.00177538270101
0.00817829367849
0.00175076622251
0.00773409424752
0.00172602617926
0.00729636594427
0.00170128891623
0.00686508023222
0.00167669005695
0.00644016347185
0.00165236124363
0.00602151536853
0.00162844113582
0.00560899099193
0.00160506318294
0.00520241740598
0.00158236494035
0.00480157860767
0.00156047703417
0.00440623016575
0.00153953079793
0.00401608686765
0.00151964852557
0.00363083471652
0.00150094942448
0.0032501201622
0.00148354133747
0.00287355710239
0.00146752549126
0.00250071317572
0.00145299110112
0.00213110413688
0.00144002329214
0.00176416781778
0.00142871117662
0.00139924001389
0.00141918018064
0.00103556300557
0.00141164476494
0.000672601081621
0.0014061907172
0.000313219702276
0.00139657220709
0.00125733966889
0.0015680928361
-0.00745736947168
0.00330590359784
-0.0082639753128
0.00503676059752
-0.00823424710874
0.006742041389
-0.00811843216658
0.00841274640929
-0.00796165647108
0.0100409812562
-0.00776866277343
0.0116195313062
-0.00754227976161
0.0131419013011
-0.00728554763086
0.0146023627278
-0.0070017559331
0.015995985093
-0.0066943565962
0.0173186434761
-0.00636687833547
0.0185670112994
-0.00602284631426
0.0197385331698
-0.0056657143107
0.0208313890992
-0.00529880455467
0.0218444438463
-0.00492526193556
0.022777193969
-0.00454801590665
0.0236297047521
-0.00416975704374
0.0244025507331
-0.00379292000252
0.0250967501964
-0.00341968022842
0.0257137083242
-0.00305195454299
0.0262551571812
-0.00269141333192
0.0267231079078
-0.0023394928328
0.0271198006785
-0.0019974159056
0.0274476683417
-0.00166620863584
0.0277092966192
-0.00134672251932
0.0279073977283
-0.00103964916216
0.0280447781327
-0.000745539286968
0.0281243189574
-0.000464812924642
0.0281489482165
-0.000197774548885
0.0281216255981
5.53804667283e-05
0.0280453176098
0.000294553061408
0.0279229847608
0.000519738327177
0.0277575612957
0.000731005097987
0.0275519452036
0.000928501215011
0.0273089792192
0.00111243829393
0.0270314459412
0.00128308901253
0.0267220505734
0.00144077564964
0.0263834192891
0.00158586818252
0.0260180841756
0.00171877344901
0.0256284843613
0.00183993422952
0.0252169527702
0.00194981889786
0.0247857196768
0.00204892129549
0.0243369010955
0.00213775067661
0.0238725045843
0.00221683212333
0.0233944191904
0.00228669660193
0.0229044234248
0.00234788178699
0.0224041768012
0.0024009221987
0.0218952299137
0.00244635040877
0.0213790175352
0.00248468734596
0.0208568706732
0.00251644402716
0.0203300111565
0.00254211227522
0.019799565401
0.00256216718324
0.0192665602185
0.0025770585326
0.0187319378777
0.00258721426041
0.0181965527689
0.00259303288534
0.017661187189
0.00259488815381
0.0171265483376
0.00259312265608
0.0165932841849
0.00258805373243
0.0160619802936
0.00257996834027
0.0155331751229
0.00256913009325
0.0150073561735
0.00255577524893
0.0144849741884
0.00254012062817
0.0139664383074
0.00252236047596
0.013452128771
0.00250267485464
0.0129423909038
0.0024812270207
0.0124375461408
0.00245817186406
0.0119378849113
0.00243365344641
0.0114436759877
0.00240781304031
0.010955158472
0.00238078650016
0.0104725496487
0.00235271156167
0.00999603645793
0.00232372482961
0.00952578212496
0.00229396808362
0.00906191752916
0.00226358477128
0.00860454694721
0.0022327252238
0.00815373977124
0.00220154267602
0.00770953567316
0.00217019738705
0.00727193703615
0.00213885229215
0.00684091380858
0.00210767613351
0.00641639695854
0.00207683891743
0.00599828317901
0.00204651418649
0.0055864295285
0.00201687446966
0.00518065805143
0.00198809285711
0.00478075163761
0.00196033863287
0.00438645843253
0.00193377829913
0.00399748866555
0.00190857159529
0.0036135183958
0.00188487222909
0.00323418661578
0.00186282474016
0.00285909713485
0.00184256576673
0.0024878148643
0.00182422363364
0.00211986505007
0.00180792335156
0.00175473126046
0.00179379480868
0.0013918716367
0.00178199169861
0.00103077949858
0.00177269116171
0.00067125884377
0.00176566197681
0.000315615288938
0.00175216690623
0.00157293289324
0.00160564358388
-0.0090629390371
0.00338428008837
-0.0100425327597
0.00515502277652
-0.0100049106626
0.00689848591391
-0.00986181599539
0.0086051531934
-0.00966824443553
0.010266690985
-0.00943012115098
0.0118755343329
-0.00915104358793
0.0134249307453
-0.00883486440477
0.0149089871277
-0.00848573253553
0.0163226943727
-0.00810798393209
0.0176619282827
-0.00770603218573
0.0189234312985
-0.00728426914057
0.0201047763963
-0.00684697907428
0.0212043185839
-0.00639826628064
0.0222211349821
-0.00594199773489
0.0231549590604
-0.00548175926873
0.0240061093468
-0.00502082649213
0.0247754182633
-0.00456214797537
0.0254641606807
-0.00410834159673
0.0260739877447
-0.00366170047654
0.026606864424
-0.00322420880739
0.0270650156673
-0.00279756282506
0.0274508778822
-0.00238319684164
0.027767059595
-0.00198230908235
0.0280163062069
-0.00159588791542
0.0282014721267
-0.0012247339617
0.0283254942121
-0.000869480409431
0.0283913703442
-0.000530608309816
0.0284021370503
-0.000208460818177
0.0283608512508
9.67463321203e-05
0.0282705702852
0.00038491359257
0.0281343348187
0.000656052788423
0.0279551542934
0.000910263874146
0.0277359917612
0.00114774120628
0.0274797500755
0.00136875643806
0.027189262532
0.00157365197507
0.0268672810507
0.0017628312613
0.0265164698031
0.00193675226311
0.0261393957732
0.00209591873018
0.0257385248448
0.00224087484053
0.0253162142962
0.00237219724459
0.0248747110002
0.00249049055907
0.0244161456305
0.00259637984416
0.0239425328461
0.00269050661843
0.0234557671962
0.00277352151739
0.0229576252992
0.00284608063166
0.022449763498
0.00290883826125
0.0219337220584
0.00296244357902
0.0214109246209
0.00300753360875
0.0208826843723
0.00304473039277
0.0203502052044
0.003074634478
0.0198145896471
0.00309782291406
0.0192768414768
0.00311484364482
0.0187378750049
0.00312621469821
0.0181985186686
0.00313241985061
0.0176595250832
0.00313390930395
0.0171215750141
0.00313109687582
0.0165852875088
0.0031243622736
0.0160512235896
0.00311404984617
0.0155198957776
0.00310047235233
0.0149917709199
0.00308391109557
0.0144672785397
0.00306462086714
0.0139468123573
0.00304283108722
0.0134307370869
0.00301875145597
0.0129193884375
0.00299257362282
0.0124130782133
0.00296447700508
0.0119120928096
0.00293463047353
0.0114166966954
0.00290319782601
0.0109271296333
0.00287033904934
0.0104436088141
0.00283621503051
0.00996632517935
0.00280098807536
0.00949544458742
0.00276482559385
0.00903110369616
0.00272789972488
0.00857341058345
0.00269038989426
0.0081224406473
0.00265248154921
0.00767823706714
0.00261436763702
0.00724080711381
0.00257624658546
0.00681012276323
0.00253832285154
0.00638611770767
0.00250080436194
0.00596868831726
0.00246390233996
0.00555769151271
0.00242782845336
0.00515294614698
0.00239279414745
0.00475423175247
0.00235900775358
0.00436129026776
0.00232667357224
0.00397382548991
0.00229598923006
0.00359150490909
0.00226714485766
0.00321395960774
0.00224032120743
0.0028407861043
0.00221568972519
0.00247154692978
0.00219341249929
0.00210577431007
0.00217364530586
0.00174297839276
0.00215654181041
0.00138266499102
0.00214225693941
0.00102438388187
0.00213092233113
0.000667913470514
0.00212208477795
0.000315072000635
0.00210496142847
0.00188798090719
0.00165186412391
-0.0107147288328
0.00348101591609
-0.0118716057334
0.00530105632485
-0.0118248715931
0.00709161013378
-0.0116522903354
0.00884251488528
-0.0114190695994
0.0105449001205
-0.0111324266865
0.0121907767963
-0.0107968404486
0.0137730863338
-0.0104170939395
0.0152857460306
-0.00999831210076
0.0167236663903
-0.00954582395024
0.0180827415166
-0.00906502684122
0.0193598179498
-0.00856126489364
0.0205526448997
-0.00803972521958
0.0216598112865
-0.00750535166461
0.0226806718769
-0.00696277720762
0.0236152674153
-0.00641627350336
0.0244642405366
-0.00586971820465
0.0252287521635
-0.00532657802105
0.0259103998717
-0.00478990763602
0.0265111426127
-0.00426236139166
0.0270332323931
-0.00374621669949
0.027479156145
-0.00324340456034
0.0278515864771
-0.00275554514177
0.0281533426682
-0.00228398316156
0.0283873584573
-0.00182982164787
0.0285566567499
-0.00139395020046
0.0286643269732
-0.000977068741482
0.0287135056611
-0.000579705229024
0.028707356775
-0.000202230469214
0.0286490537597
0.000155130516572
0.028541761299
0.000492286727071
0.028388617349
0.000809276897333
0.0281927196364
0.00110624102134
0.027957109968
0.00138342953882
0.0276847616952
0.00164118239967
0.0273785695681
0.00187992074064
0.0270413397862
0.00210013643819
0.0266757827279
0.00230238336216
0.0262845055225
0.00248726844873
0.0258700069293
0.00265544428425
0.0254346718621
0.00280760135451
0.024980768023
0.00294446147128
0.0245104421793
0.00306677067786
0.0240257184937
0.00317529303682
0.0235284965949
0.00327080381356
0.0230205517175
0.00335408338223
0.0225035347137
0.00342591057019
0.021978974148
0.00348705669337
0.0214482783471
0.00353827919171
0.020912739501
0.00358031606236
0.0203735377132
0.00361388015155
0.0198317469582
0.00363965443445
0.0192883408429
0.00365828745438
0.0187442000148
0.00367038997121
0.0182001191042
0.00367653203113
0.0176568149425
0.00367724139771
0.0171149339531
0.00367300255621
0.0165750604073
0.00366425711516
0.0160377234822
0.00365140478814
0.0155034047844
0.0036348056524
0.0149725443517
0.00361478284818
0.0144455468153
0.00359162631662
0.0139227858292
0.00356559672601
0.0134046084663
0.00353693010513
0.0128913378094
0.00350584235802
0.0123832754567
0.00347253413369
0.0118807023001
0.00343719527349
0.0113838792804
0.00340000928145
0.0108930466114
0.00336115712746
0.0104084231414
0.00332082082315
0.00993020447016
0.00327918617812
0.00945856139626
0.00323644517323
0.00899363744103
0.00319279747153
0.00853554690069
0.00314845150394
0.00808437228758
0.00310362474198
0.00764016245328
0.00305854359165
0.00720293036086
0.00301344259095
0.00677265164486
0.00296856334364
0.0063492630108
0.00292415290386
0.00593266146086
0.00288046204176
0.00552270346637
0.00283774311409
0.00511920495414
0.00279624797602
0.00472194126499
0.00275622564553
0.00433064786897
0.00271792017256
0.00394502100931
0.00268156842411
0.0035647190837
0.00264739828145
0.00318936400598
0.00261562698009
0.00281854341495
0.00258646013518
0.00245181391583
0.00256009143717
0.00208870595099
0.00253670278782
0.00172873175633
0.00251646493119
0.00137140271716
0.0024995371341
0.00101625547072
0.0024860235922
0.000662975388823
0.00247531454661
0.000313111003134
0.00245477602329
0.00220106971255
0.0017075597182
-0.012422214178
0.0035976382748
-0.013761604855
0.00547707527037
-0.0137042290441
0.00732425173747
-0.0134993870435
0.00912820181603
-0.0132229398426
0.0108794027054
-0.0128835475939
0.012569360505
-0.0124867180694
0.0141906624712
-0.0120383155568
0.0157370182452
-0.0115445872889
0.0172032660849
-0.011011991027
0.0185853488395
-0.0104470285928
0.0198802654481
-0.00985610033143
0.0210860037451
-0.00924538211876
0.0222014591333
-0.00862072550153
0.0232263434895
-0.00798757979896
0.0241610877548
-0.00735093586529
0.0250067419974
-0.00671529034145
0.0257648762565
-0.0060846300486
0.0264374860504
-0.00546243500322
0.0270269057193
-0.00485169852463
0.0275357328235
-0.00425496108657
0.0279667651978
-0.00367435413499
0.0283229515053
-0.00311164849771
0.028607353907
-0.00256830257887
0.0288231207928
-0.00204550545827
0.0289734660357
-0.00154421241482
0.0290616518978
-0.00106517158323
0.0290909727615
-0.000608943239881
0.0290647385337
-0.000175913546441
0.0289862569712
0.000233694439144
0.0288588165177
0.000619809178509
0.028685670055
0.000982504802375
0.0284700160212
0.00132197587482
0.028214987882
0.00163853769708
0.0279236402041
0.00193260919124
0.0275989387097
0.00220470027431
0.0272437516203
0.00245540034857
0.0268608425939
0.00268536784477
0.0264528643888
0.0028953205671
0.0260223538285
0.00308602709437
0.0255717270731
0.0032582984899
0.0251032761811
0.003412980789
0.0246191658257
0.00355094727845
0.024121431484
0.00367309139287
0.0236119777752
0.00378031906588
0.0230925785156
0.00387354170483
0.0225648769527
0.00395366846905
0.0220303879454
0.00402159933381
0.0214905003337
0.00407821748595
0.0209464813879
0.00412438280128
0.0203994813571
0.00416092484147
0.019850540078
0.00418863732914
0.0193005934452
0.00420827242149
0.0187504817331
0.00422053685692
0.0182009573913
0.00422608815822
0.0176526943295
0.00422553299983
0.0171062961963
0.00421942576875
0.0165623057051
0.00420826939162
0.0160212124655
0.00419251631653
0.0154834614335
0.00417257165988
0.014949459459
0.00414879629657
0.0144195821152
0.00412151183275
0.0138941783566
0.00409100518186
0.0133735752672
0.00405753462775
0.0128580805437
0.00402133509194
0.0123479850388
0.00398262444952
0.0118435631179
0.00394160866367
0.0113450731913
0.00389848756708
0.0108527562879
0.00385345915669
0.0103668350218
0.00380672422443
0.009887510925
0.00375848932158
0.00941496243208
0.0037089698767
0.00894934160295
0.00365839160987
0.00849077173515
0.00360699204635
0.0080393440729
0.0035550204206
0.00759511557922
0.00350273772388
0.00715810611742
0.00345041533858
0.00672829677633
0.00339833391104
0.00630562785368
0.00334678106956
0.00588999796794
0.00329604948495
0.0054812630084
0.00324643406323
0.00507923612142
0.00319822956668
0.00468368764762
0.00315172765988
0.00429434596702
0.00310721444841
0.00391089836959
0.00306496773364
0.00353299275508
0.0030252548119
0.00316023953171
0.00298833029233
0.00279221458427
0.00295443451718
0.0024284627348
0.00292379199405
0.0020685031577
0.0028966107345
0.0017118377114
0.00287308082456
0.00135795835091
0.00285336758785
0.00100636357502
0.00283756727018
0.000656667124537
0.00282496288061
0.000310263995839
0.00280113183325
0.00251130937864
0.0017736706113
-0.0141958101005
0.0037360384501
-0.0157238935344
0.00568585088556
-0.0156539616181
0.00759995718558
-0.015413413426
0.00946640746201
-0.0150893100175
0.0112748956705
-0.0146919554935
0.0130163373118
-0.0142280792089
0.0146829213712
-0.0137048188205
0.0162681417813
-0.0131297266984
0.0177667872412
-0.0125105551773
0.0191748961449
-0.0118550559914
0.0204896859653
-0.0111708083572
0.0217094631254
-0.0104650773057
0.022833519854
-0.00974469999604
0.0238620214095
-0.00901599895727
0.0247958882556
-0.00828472007498
0.025636675993
-0.00755599528799
0.0263864577796
-0.00683432881524
0.0270477128759
-0.00612360693107
0.0276232265181
-0.00542712877237
0.0281160044237
-0.00474765545929
0.028529205338
-0.0040874712999
0.0288660915532
-0.00344845085363
0.0291299964134
-0.00283212339456
0.0293243041005
-0.00223972904813
0.0294524374401
-0.00167226154184
0.0295178478218
-0.00113049779835
0.0295240044985
-0.000615015752301
0.0294743805454
-0.000126205621181
0.029372436566
0.000335722207324
0.0292215991648
0.000770729972883
0.0290252518898
0.00117893503809
0.0287867103164
0.00156059976223
0.0285092110814
0.00191611853037
0.0281958998653
0.00224600108311
0.0278498220852
0.0025508576962
0.027473915137
0.00283138571583
0.0270710022319
0.00308835779235
0.0266437869761
0.00332261132905
0.0261948487722
0.00353503907963
0.0257266387461
0.00372658045057
0.0252414762411
0.00389821316402
0.0247415460288
0.00405094521623
0.0242288960985
0.00418580666805
0.0237054364903
0.00430384160204
0.0231729388023
0.00440609965481
0.0226330370789
0.00449362779434
0.022087229473
0.00456746162903
0.0215368815598
0.00462861722097
0.0209832304551
0.0046780826078
0.0204273906971
0.00471681026112
0.0198703607981
0.00474570960431
0.0193130314352
0.0047656409858
0.0187561939685
0.00477741011313
0.018200550243
0.00478176439834
0.0176467222033
0.00477939005555
0.0170952622807
0.00477091136848
0.0165466630087
0.00475689079101
0.0160013668649
0.00473783121592
0.0154597748005
0.00471417891417
0.0149222545203
0.00468632839312
0.0143891470538
0.0046546275634
0.0138607727576
0.00461938439322
0.0133374354063
0.00458087338446
0.0128194255905
0.00453934301527
0.0123070222153
0.00449502248982
0.0118004933806
0.00444812894106
0.0113000955586
0.00439887348436
0.0108060723893
0.00434746730304
0.0103186521055
0.00429412626298
0.00983804491372
0.00423907528804
0.00936443939309
0.00418255111517
0.00889799921439
0.004124804709
0.00843885925414
0.00406610208679
0.00798712234855
0.00400672484647
0.00754285575398
0.00394696927916
0.00710608847325
0.00388714532091
0.00667680851819
0.00382757435724
0.00625496114859
0.00376858703422
0.00584044719861
0.00371052023076
0.00543312237669
0.00365371419275
0.00503279674956
0.00359850914077
0.00463923510428
0.00354524216032
0.00425215757168
0.00349424385492
0.00387124098324
0.0034458353649
0.00349612063712
0.00340032540677
0.00312639273279
0.0033580077008
0.00276161736724
0.00331915855538
0.00240132281205
0.00328403495594
0.00204501007433
0.0032528720829
0.00169215797107
0.00322588076833
0.0013422322714
0.00320324353751
0.000994693416837
0.00318505969345
0.000649090013394
0.00317051510049
0.000306725425914
0.00314344593193
0.00281801254036
0.00185134134482
-0.0160470768259
0.00389855725795
-0.0177710297812
0.00593081960695
-0.0176861440993
0.00792311363348
-0.0174056273061
0.00986229632509
-0.0170284123724
0.0117371331148