/*--------------------------------*- C++ -*----------------------------------*\
| =========                 |                                                 |
| \\      /  F ield         | OpenFOAM: The Open Source CFD Toolbox           |
|  \\    /   O peration     | Version:  v1906                                 |
|   \\  /    A nd           | Web:      www.OpenFOAM.com                      |
|    \\/     M anipulation  |                                                 |
\*---------------------------------------------------------------------------*/
FoamFile
{
    version     2.0;
    format      ascii;
    class       volScalarField;
    location    "786";
    object      pa;
}
// * * * * * * * * * * * * * * * * * * * * * * * * * * * * * * * * * * * * * //

dimensions      [0 2 -2 0 0 0 0];


internalField   nonuniform List<scalar> 
9216
(
976.182804955
975.818386031
975.077939264
973.958279391
972.463061601
970.596564886
968.364146149
965.772183526
962.827974489
959.539715545
955.9163899
951.967751313
947.704201899
943.136782348
938.277045534
933.137057526
927.729272969
922.066550839
916.162036674
910.029195641
903.681705065
897.133505611
890.398705643
883.491649266
876.426832026
869.21898276
861.882988465
854.433985387
846.88728955
839.258491424
831.563387996
823.818074613
816.038871978
808.24240845
800.445537882
792.665404339
784.919343789
777.224925134
769.599831631
762.061873631
754.62884787
747.318520751
740.148467053
733.136026042
726.298123532
719.651204809
713.211043173
706.992651909
701.010077571
695.276289553
689.802951752
684.600289657
679.676839732
675.039311017
670.692336569
666.63837896
662.877537638
659.407561437
656.223753347
653.319108119
650.684312548
648.308007654
646.176918238
644.276294656
642.590240974
641.102283821
639.79561723
638.653475943
637.659282507
636.797038132
636.051498122
635.408474708
634.854880672
634.3788729
633.969791682
633.61821862
633.315872735
633.055596094
632.831188439
632.637339093
632.469463044
632.323644799
632.196490902
632.0850747
631.986421178
631.901234774
631.831330568
631.776149983
631.734388392
631.704001199
631.682844692
631.668586401
631.65920622
631.65359569
631.650804454
631.649838641
976.546758754
976.181189753
975.439487279
974.316773274
972.817258536
970.945365456
968.706542485
966.107230573
963.154800539
959.857509509
956.22441821
952.265342339
947.990762949
943.411779409
938.540019562
933.387599854
927.967041043
922.291240171
916.373396488
910.226998507
903.865763149
897.303639242
890.55476086
883.633466531
876.554265682
869.331870913
861.981174738
854.517290808
846.955536873
839.311479837
831.600919844
823.839932678
816.044849613
808.23229134
800.41913598
792.622536823
784.859873036
777.14874471
769.506900759
761.952206943
754.502548593
747.175770757
739.989557224
732.961345791
726.108188103
719.446644969
712.992631115
706.761293025
700.766837444
695.022388168
689.539790716
684.329442514
679.400070562
674.758545732
670.409659171
666.355971506
662.597655096
659.132452828
655.955638081
653.060093996
650.436368895
648.072857782
645.955988118
644.070587763
642.400366199
640.928494292
639.637924112
638.51162302
637.532761419
636.685073224
635.953132452
635.322613484
634.780381172
634.314564601
633.914528178
633.570882047
633.275425554
633.021092647
632.801804105
632.612350304
632.44825479
632.305694619
632.181396286
632.072592382
631.976881459
631.893483959
631.824643329
631.771168916
631.73037112
631.700593601
631.680240289
631.666584281
631.6574854
631.652246873
631.649769131
631.648779369
977.288614991
976.919882411
976.173954029
975.044900705
973.536970812
971.65464592
969.403471901
966.789995372
963.821707728
960.506987833
956.855029149
952.875775327
948.579841936
943.978451835
939.083358437
933.906787051
928.461365626
922.760077276
916.81620323
910.643290249
904.255108733
897.665636725
890.889033932
883.939641726
876.831971622
869.580718647
862.200761045
854.707182899
847.115280628
839.440589778
831.698893182
823.906245724
816.078977697
808.233711664
800.387354014
792.557095722
784.760385179
777.014906018
769.338525025
761.749242143
754.26511049
746.904157715
739.684279869
732.623138152
725.738032665
719.045781448
712.562580372
706.30386836
700.284172701
694.516954414
689.014426885
683.787366703
678.844892624
674.194241583
669.840530077
665.786553321
662.032620792
658.576488888
655.413351635
652.535896691
649.934380302
647.596730332
645.508735465
643.654318051
642.016282736
640.577097746
639.319244293
638.225192075
637.277542015
636.459472467
635.755147828
635.149987958
634.630753877
634.185549601
633.803772757
633.476103143
633.194488547
632.952078681
632.743039718
632.562383212
632.405832963
632.269744137
632.151010439
632.047001203
631.955353163
631.87546809
631.811045394
631.761114039
631.722212498
631.694055462
631.675297233
631.662476461
631.654215847
631.649556895
631.647132255
631.645938533
978.415873882
978.043477273
977.291042601
976.152230833
974.631376505
972.733064485
970.462980513
967.827832606
964.835292583
961.493930239
957.813139904
953.803067328
949.474531534
944.838951113
939.908268482
934.694882261
929.211580265
923.47148367
917.487993825
911.274752378
904.845605067
898.21457973
891.395867785
884.403819466
877.252941206
869.957905202
862.533559022
854.994945139
847.357318021
839.636168452
831.847243006
824.006566887
816.130458723
808.235546169
800.338768884
792.457377743
784.608917911
776.811203874
769.082275164
761.440341227
753.903705946
746.490681221
739.219482462
732.108116438
725.17425629
718.435114042
711.907305294
705.60671356
699.548345405
693.746178133
688.212985783
682.960141023
677.997379903
673.332535337
668.971250599
664.916708838
661.169432448
657.727197882
654.58507285
651.735472685
649.16824512
646.87065657
644.827531801
643.02120156
641.432859647
640.043916956
638.836335846
637.791907596
636.89226232
636.119634898
635.457520634
634.890985083
634.406677549
633.992713082
633.638542443
633.334936042
633.074063432
632.849455021
632.655689921
632.488132805
632.342798051
632.216306484
632.105789989
632.008806212
631.92299654
631.849078662
631.790600211
631.744934244
631.710101076
631.684850838
631.667483259
631.65597872
631.64875546
631.644535242
631.642209648
631.641070832
979.931519871
979.554416981
978.793181829
977.641142709
976.102772544
974.18280853
971.887128186
969.222661184
966.197325395
962.819953427
959.100214091
955.048531675
950.676003059
945.994316548
941.015672107
935.75270693
930.218425651
924.426139011
918.389409708
912.122008877
905.637881156
898.951121186
892.07595859
885.026753651
877.817999982
870.464335955
862.980560799
855.381656942
847.682814433
839.89945888
832.047279214
824.142254854
816.200679383
808.239181372
800.274736395
792.324671076
784.406654001
776.538673616
768.73899871
761.026122362
753.418686625
745.935390626
738.594881972
731.41563649
724.415828641
717.613198777
711.024919374
704.667463454
698.556471654
692.706612387
687.131420503
681.843099677
676.852266263
672.167631568
667.795622901
663.740009538
660.001606903
656.578193604
653.46465836
650.653071406
648.132854908
645.890489655
643.90969103
642.170025775
640.649893371
639.329325608
638.190249759
637.213714393
636.379733119
635.66899449
635.064017523
634.5494726
634.111995141
633.739820941
633.422478546
633.150783212
632.917177394
632.715837507
632.542006524
632.3915448
632.260822489
632.146811865
632.04697534
631.959129764
631.881029953
631.815157013
631.764039475
631.724056211
631.693282944
631.671274113
631.65651964
631.646765962
631.640455462
631.636752648
631.634675182
631.633644477
981.840182891
981.457177791
980.68477871
979.515932259
977.955302102
976.007830739
973.67964656
970.977967518
967.91103005
964.48800737
960.71892312
956.614562206
952.186380242
947.446414281
942.407196071
937.081670531
931.483120417
925.625099674
919.521376002
913.185884609
906.632692867
899.875977031
892.930009742
885.809158549
878.527893384
871.100802635
863.542615426
855.868229675
848.092743624
840.231490426
832.300074223
824.314404952
816.29073143
808.245671195
800.196232423
792.159826761
784.154268924
776.19776088
768.308857031
760.506409127
752.80948913
745.23729131
737.809015161
730.543734319
723.460256838
716.576984899
709.911780036
703.481839073
697.303579254
691.392524265
685.763171962
680.428812242
675.401261893
670.690472332
666.304022728
662.24653335
658.519205695
655.119709987
652.042678145
649.279739697
646.820060867
644.649359298
642.75087628
641.099009477
639.666974749
638.433231415
637.381713852
636.492833558
635.743629354
635.112191177
634.579702247
634.130571855
633.751735106
633.431819763
633.160444984
632.928227175
632.727823865
632.554586676
632.404848776
632.275104131
632.162042695
632.063072265
631.976116735
631.899296064
631.831155368
631.775144771
631.731353673
631.697167835
631.671656099
631.654266655
631.642058332
631.634151295
631.629186219
631.625839554
631.624017695
631.623101374
984.14766282
983.757462082
982.971424127
981.782032158
980.194192842
978.213109932
975.845228305
973.098128047
969.980444731
966.501777817
962.672594423
958.504129893
954.008287408
949.197538818
944.084828877
938.683484971
933.00713445
927.069631458
920.88499498
914.467359384
907.830938302
900.990002048
893.958868158
886.751904051
879.383540372
871.868293339
864.220794365
856.455825417
848.588358735
840.633599685
832.607032497
824.524464699
816.40207165
808.256438142
800.104592881
791.964033333
783.852736836
775.789153911
767.792180006
759.881102427
752.075520703
744.395240372
736.860143031
729.4900384
722.304507476
715.322748169
708.563435663
702.044607148
695.78357419
689.796854447
684.100095812
678.70795022
673.63381823
668.889399134
664.483961169
660.42341223
656.709411864
653.339177454
650.306958793
647.603662282
645.218779422
643.137277839
641.34563251
639.807292295
638.484803458
637.355214547
636.411095168
635.632219379
634.989308383
634.455907407
634.011595082
633.641080595
633.332360374
633.07505313
632.858860085
632.67340698
632.511120152
632.369785361
632.24764066
632.141851802
632.049081197
631.967263616
631.895027335
631.830771551
631.774205517
631.728599195
631.692943948
631.665916975
631.646522461
631.633106718
631.62364059
631.617596128
631.614176884
631.611625566
631.610237953
631.609558283
986.86103112
986.462253042
985.659961552
984.44608394
982.825825449
980.804712711
978.389580274
975.588453144
972.4104562
968.865710759
964.965226102
960.720787791
956.144845055
951.250399811
946.050899474
940.560136177
934.792154563
928.761170719
922.481504101
915.967524385
909.233614047
902.294147192
895.163483796
887.855978208
880.385999711
872.767963114
865.016366974
857.145837897
849.171179372
841.107424379
832.969891927
824.774243152
816.536539378
808.273298703
800.001546181
791.738854815
783.503371866
775.313825342
767.189505039
759.150213542
751.216183555
743.407960893
735.746255484
728.251768044
720.945004642
713.84609706
706.97464891
700.349627337
693.989311939
687.911297935
682.13252613
676.669272903
671.536993482
666.749835635
662.319650943
658.254396978
654.556292177
651.221057374
648.242493505
645.609790745
643.314303363
641.338744083
639.687516556
638.297545957
637.107201974
636.092864728
635.276528412
634.635142157
634.124224049
633.709314376
633.368786137
633.089224041
632.861276806
632.67686578
632.525828623
632.394547002
632.273385305
632.16596613
632.074142114
631.995382789
631.925066511
631.861867326
631.805803258
631.755351362
631.711578705
631.676864409
631.650262173
631.630613993
631.616976088
631.607413395
631.601489558
631.597546538
631.595422852
631.594334049
631.593518721
631.593184038
989.988710095
989.579874508
988.758545614
987.515993049
985.857783581
983.789836004
981.319457575
978.455211867
975.206815034
971.585017902
967.601482914
963.268657663
958.599647825
953.608091839
948.30804008
942.713840989
936.840037217
930.7012744
924.312225511
917.687532791
910.841768956
903.789417832
896.544873816
889.122457976
881.53644817
873.801119834
865.930794743
857.939895413
849.84300416
841.65492614
833.390757961
825.065956833
816.696414831
808.298533601
799.889294603
791.486320965
783.107924478
774.773130377
766.501672526
758.313951499
750.230949826
742.274101105
734.465114772
726.825764627
719.377658003
712.142010814
705.13946176
698.389959742
691.912755214
685.726504466
679.849470022
674.299746908
669.095351971
664.253890179
659.791300153
655.719197982
652.040633614
648.746770813
645.831791384
643.279753963
641.08780886
639.224661177
637.768012142
636.582128596
635.546795637
634.637723645
633.973387613
633.510107793
633.164284562
632.889522315
632.666435376
632.48760992
632.348780137
632.246961042
632.172822945
632.10389165
632.02219812
631.947102471
631.887713538
631.839876389
631.793775558
631.749488101
631.710681501
631.674490499
631.643911561
631.620432608
631.603256526
631.591313188
631.583470237
631.578439041
631.575609367
631.574430407
631.573972789
631.574386835
631.574294872
631.574383044
993.540564117
993.12007544
992.276720509
991.0010015
989.298918406
987.176862133
984.642707738
981.70566455
978.376156113
974.665685043
970.586692496
966.152414485
961.376737638
956.274057162
950.859139476
945.146992679
939.152747972
932.89155586
926.378500504
919.62853556
912.656443409
905.476818634
898.104074405
890.552469105
882.836148844
874.969201458
866.965717695
858.839857131
850.605917706
842.278409549
833.872135928
825.402276798
816.884481601
808.334966022
799.770607173
791.209032751
782.668695593
774.16892442
765.729940063
757.372826498
749.119446533
740.992295321
733.014290048
725.208503907
717.59786424
710.204851076
703.051244984
696.157984955
689.545191069
683.23239553
677.238989519
671.584848456
666.290976892
661.379757931
656.873841978
652.792183382
649.140080739
645.894803945
643.056175206
640.592928351
638.523274003
636.736632869
635.584122039
634.704152324
633.817599407
632.846391251
632.334328235
632.135286693
632.02217758
631.927146893
631.843839821
631.777356764
631.738847285
631.742615655
631.78310653
631.810102767
631.764189296
631.714991399
631.691315924
631.681544409
631.660471921
631.632257029
631.612181829
631.58920364
631.571711221
631.559612261
631.552090329
631.548298044
631.546898599
631.546806253
631.547204553
631.548449591
631.55030866
631.552175981
631.553112064
631.553635763
997.528007002
997.094130766
996.225515957
994.911775184
993.159425874
990.975423933
988.368322642
985.348100611
981.926022054
978.114480889
973.926839861
969.377266742
964.480570496
959.252039618
953.707285462
947.862093488
941.732286648
935.333605258
928.681608564
921.791602197
914.678595079
907.35728663
899.842083076
892.147138381
884.286413809
876.273748836
868.122937587
859.847807002
851.462296596
842.980541779
834.41696665
825.786382147
817.104099941
808.386055252
799.648933299
790.910293453
782.188680901
773.503713534
764.876130047
756.327783289
747.881563138
739.561234931
731.391186002
723.396083895
715.600468732
708.028325365
700.702709347
693.645518182
686.877511722
680.418659487
674.288890245
668.509302696
663.10381756
658.100982856
653.534469821
649.439713204
645.830482146
642.640103282
639.899147988
637.523527392
635.582643755
633.388104008
632.861347268
632.636223152
632.232439849
631.981536704
631.920394488
631.925724791
631.921233347
631.894346702
631.857154525
631.82440614
631.809922137
631.818623299
631.818133807
631.716628185
631.508358182
631.427101843
631.453769612
631.515312124
631.53114573
631.509959597
631.514453009
631.50042447
631.495878142
631.49599386
631.498082474
631.502295207
631.507378966
631.512281908
631.516799996
631.520884258
631.524759393
631.528289161
631.530555713
631.531566793
1001.96413021
1001.51496572
1000.61756259
999.260509098
997.450938649
995.196481887
992.506499355
989.391882555
985.864889997
981.938966799
977.628560077
972.948932495
967.915976155
962.546028851
956.855694635
950.861672151
944.580595158
938.028891534
931.222667436
924.177623546
916.909008314
909.431610647
901.759789965
893.907537714
885.888560438
877.71637363
869.404396642
860.966043765
852.414811896
843.764370314
835.028662436
826.222017869
817.359289208
808.456005787
799.528538572
790.594269307
781.671751193
772.780846231
763.942820461
755.180375322
746.51759053
737.979754349
729.59306159
721.384173437
713.379656721
705.605359016
698.085819714
690.843861253
683.900520284
677.275445593
670.98790641
665.05864717
659.51299564
654.385791532
649.727485333
645.612556596
642.092978417
638.946127455
636.28850973
633.763251312
632.484728029
632.357364788
632.415357103
632.427720234
632.346757421
632.249107301
632.180755538
632.137383682
632.094940773
632.04544372
631.991770311
631.93934116
631.893815726
631.855305473
631.804779038
631.719774061
631.628874345
631.587504747
631.606260611
631.601378624
631.448277997
631.349054643
631.417960454
631.406231839
631.416096951
631.430843153
631.441344049
631.453978559
631.466093538
631.476064785
631.484650619
631.49226809
631.498536251
631.503697487
631.50748374
631.509155748
1006.86385641
1006.39730206
1005.46723034
1004.06105209
1002.18663486
999.852414309
997.068710719
993.847496313
990.202201856
986.147507052
981.699129001
976.873610546
971.688110111
966.160193317
960.307627743
954.148183402
947.699444705
940.978641604
934.002510166
926.787192415
919.348184186
911.700334898
903.857897616
895.834620136
887.643862329
879.298721671
870.812151732
862.197065454
853.466425944
844.633335473
835.711140418
826.713554056
817.654817945
808.549891667
799.414665158
790.266184606
781.122877472
772.004758635
762.933594739
753.93299729
745.028409147
736.246944251
727.617041661
719.167906078
710.92873786
702.927809265
695.191524325
687.743672546
680.605139528
673.794201425
667.327542282
661.222401018
655.500891159
650.19982695
645.387022373
641.22555988
637.902794915
634.443961943
632.792383757
632.662799571
632.638260152
632.648358672
632.691265867
632.693961039
632.648036069
632.575490761
632.495372921
632.420367865
632.34960965
632.280812826
632.213240428
632.147128515
632.084808295
632.024733633
631.954132753
631.86077484
631.760247382
631.683060172
631.636523748
631.581310621
631.524314824
631.525364395
631.493990382
631.293769742
631.315579106
631.364411931
631.380505971
631.404207564
631.425099173
631.439721479
631.452114889
631.463166211
631.472456631
631.479604514
631.484970274
631.487387587
1012.24412311
1011.75783562
1010.79079271
1009.32905486
1007.38136542
1004.95712201
1002.06778603
998.72660805
994.948397689
990.749279629
986.146451702
981.157946706
975.802397162
970.098801216
964.066288263
957.72388639
951.090297563
944.183691594
937.021533004
929.620456793
921.996206737
914.163644594
906.136828686
897.929149248
889.553496686
881.022433586
872.34834398
863.543546878
854.620379699
845.59127319
836.468847921
827.266042047
817.996298009
808.673794773
799.313717933
789.932556573
780.548410545
771.181288843
761.853372175
752.58920311
743.415754912
734.362318084
725.460134257
716.741710839
708.239779786
699.985940416
692.009161248
684.334459007
676.982239278
669.968291109
663.304328451
656.999190579
651.061915209
645.50774033
640.341106265
635.615439567
633.23989843
633.088639455
633.07527594
633.076922675
633.09085903
633.088569384
633.085266082
633.067657294
633.02134303
632.94879087
632.861605713
632.771314072
632.682259976
632.596620308
632.512824602
632.429128407
632.346540956
632.262776464
632.169823161
632.061331751
631.946695464
631.845238045
631.762101131
631.680523468
631.601934669
631.545176106
631.477228403
631.438287061
631.424552171
631.334986089
631.303975765
631.353565226
631.387342017
631.404237227
631.419831484
631.434705552
631.447347024
631.457002102
631.463931235
631.467212323
1018.12410303
1017.61544541
1016.60662245
1015.08214399
1013.05180256
1010.52614834
1007.51800211
1004.04212685
1000.11495172
995.754286923
990.979048803
985.808995192
980.264466911
974.366128418
968.134702466
961.590697941
954.754137978
947.644302456
940.279506313
932.676937753
924.852579825
916.821230416
908.596622303
900.191625187
891.618492896
882.889106184
874.015165192
865.00830772
855.880165688
846.642400759
837.306772342
827.885260043
818.390277058
808.834953267
799.233476118
789.601473961
779.956425828
770.31807915
760.708847806
751.154147953
741.682609765
732.326078305
723.119289135
714.099084801
705.303053805
696.767562255
688.525386288
680.603422961
673.021606838
665.79264654
658.921883761
652.407100153
646.233807683
640.333375066
634.257684565
633.742100461
633.6099451
633.607470665
633.649591462
633.645400466
633.612674226
633.583497497
633.55781632
633.523899228
633.469102402
633.391640898
633.297885166
633.195880698
633.091936971
632.988893493
632.884912519
632.779101937
632.671576701
632.560391794
632.441342822
632.312454958
632.180193254
632.055868374
631.943362386
631.836341341
631.73413063
631.644120319
631.557001438
631.486858794
631.43202247
631.405423745
631.382025301
631.317222311
631.359666459
631.369366466
631.387289125
631.407284802
631.424261893
631.436934908
631.445439311
631.44966171
1024.52546856
1023.99144671
1022.93542377
1021.34012705
1019.21661184
1016.57681561
1013.4351839
1009.808272
1005.71440953
1001.17336595
996.206040849
990.834176534
985.080082154
978.966354062
972.515579184
965.750016726
958.691264581
951.359930228
943.775336573
935.955301017
927.916025731
919.672128305
911.236820716
902.622214047
893.839690948
884.900262239
875.814823779
866.594268654
857.249478576
847.791275005
838.230423783
828.577737658
818.844320118
809.041913471
799.183326618
789.282921049
779.357142516
769.425086989
759.509077448
749.635208418
739.83378753
730.139563258
720.591568974
711.232345989
702.106267279
693.256741546
684.722478203
676.533387084
668.709317564
661.260244243
654.187138966
647.479303593
641.077522497
634.538317113
633.767117889
634.034451767
634.192888905
634.254419518
634.253893307
634.231498744
634.192337336
634.15239293
634.11098191
634.060418785
633.993012585
633.90672939
633.804238406
633.6904768
633.572190394
633.450770116
633.324471251
633.193822074
633.058871482
632.91863572
632.771507976
632.617826437
632.462320224
632.311778677
632.169374205
632.033821683
631.905777904
631.788413438
631.679272467
631.582470658
631.50263747
631.44316855
631.395256692
631.386065046
631.368937269
631.32655697
631.351624222
631.381450401
631.404431808
631.420631079
631.430838874
631.435865359
1031.47271114
1030.90989176
1029.80050901
1028.1252333
1025.89665041
1023.12837763
1019.83681274
1016.04064169
1011.76042382
1007.01819669
1001.83713182
996.241234309
990.25506376
983.903445934
977.21114939
970.202513713
962.901035387
955.328936699
947.506762826
939.453064937
931.18423268
922.71452878
914.056350588
905.22069321
896.217726533
887.057342376
877.749516224
868.304391109
858.73213136
849.042706334
839.245773836
829.350743982
819.367067238
809.304673837
799.174510648
788.989142978
778.763421917
768.51522341
758.266248756
748.04285073
737.87681916
727.806005932
717.87456871
708.132456803
698.633584558
689.432003194
680.576002723
672.099935179
664.023658455
656.355296907
649.090953905
642.179917925
635.191804598
634.343511327
634.527659159
634.781382375
634.868233189
634.911897383
634.907123983
634.879510577
634.837773949
634.790112686
634.736038147
634.671244515
634.59126935
634.494171727
634.3806179
634.254053893
634.120107051
633.978893378
633.829306879
633.672557259
633.509180489
633.339203809
633.162624537
632.980817202
632.797460314
632.617158538
632.442865624
632.275660432
632.117229836
631.969759803
631.833711777
631.711939653
631.607715605
631.521434111
631.452512148
631.410320434
631.38128765
631.348629141
631.306258423
631.358159094
631.389984932
631.409900161
631.421444131
631.426905757
1038.99352811
1038.3979352
1037.22812873
1035.46239708
1033.11519431
1030.20218748
1026.74213764
1022.75627726
1018.26778368
1013.3013066
1007.88259326
1002.03819618
995.795218609
989.181042073
982.222987743
974.947885564
967.381553539
959.548221415
951.469962035
943.166218683
934.653529764
925.945546964
917.053406231
907.986435784
898.753072977
889.361744786
879.821414391
870.141593847
860.331916833
850.401603409
840.359126084
830.212219063
819.968249811
809.634804894
799.220367705
788.735039351
778.191339166
767.605129415
756.996676649
746.391830456
735.823281219
725.331812226
714.967321214
704.789102966
694.864447661
685.263825777
676.051925907
667.268738942
658.933508593
651.049057791
643.5680179
636.049495171
635.173201259
635.372044151
635.553431853
635.633907739
635.654802574
635.660296518
635.638364599
635.60021419
635.551314199
635.495188934
635.430270961
635.353284638
635.260986086
635.151276269
635.024127404
634.883781717
634.732517482
634.56940913
634.395605688
634.212286915
634.020396845
633.82065363
633.613933529
633.402023361
633.187987225
632.975432359
632.767333722
632.565921554
632.373561613
632.192641278
632.025076103
631.873683062
631.741059551
631.628201386
631.535356805
631.463983223
631.40889541
631.362039373
631.345544354
631.348302681
631.386342231
631.407506903
631.418384944
631.42348261
1047.11929504
1046.48627468
1045.24786772
1043.37959129
1040.898198
1037.82187724
1034.17228108
1029.97371183
1025.25242796
1020.03606713
1014.35325228
1008.23334817
1001.70628383
994.802340769
987.551824138
979.984569113
972.129280392
964.012747658
955.659025781
947.088708151
938.318453878
929.360936593
920.225347262
910.918474752
901.446195636
891.814958751
882.032686747
872.108632252
862.052379346
851.872707281
841.576884131
831.170623765
820.658645897
810.045523955
799.336551864
788.538558484
777.660804086
766.716078875
755.722043953
744.702806539
733.690752585
722.728676267
711.872114124
701.191400243
690.772181331
680.710673898
671.102658897
661.993840943
653.395189731
645.259234118
637.123669602
636.20651996
636.463119564
636.632479364
636.617892728
636.577739063
636.536448584
636.495779067
636.446870416
636.392843188
636.33328626
636.266972093
636.190601468
636.100707067
635.994261144
635.869115188
635.72534371
635.567567766
635.396252217
635.210356185
635.011903659
634.802286946
634.582719949
634.354257212
634.118123294
633.876151285
633.630968676
633.385648845
633.14317436
632.906339324
632.678016334
632.461093221
632.258372461
632.072945906
631.907579709
631.764076424
631.643340874
631.545674425
631.468336491
631.408086342
631.37304919
631.367519115
631.397016779
631.416072179
631.421719355
631.425394384
1055.88564429
1055.20969407
1053.8931212
1051.90822282
1049.27459067
1046.01354404
1042.15032355
1037.71298334
1032.73142601
1027.2366752
1021.26048807
1014.83523849
1007.99390972
1000.77002267
993.197361697
985.309420951
977.138560264
968.71492558
960.065250704
951.211721726
942.171146548
932.954715917
923.56862825
914.01571899
904.297920318
894.418876521
884.385582058
874.207910932
863.896433449
853.460149382
842.905168897
832.234682167
821.449957382
810.551701397
799.541184142
788.421044853
777.196177051
765.874956929
754.470860414
743.004416663
731.505603458
720.01699627
708.597988136
697.330073566
686.322521786
675.711570883
665.661660846
656.212250778
647.307507952
638.454094962
637.455578908
637.762930136
637.948098039
637.865519503
637.712909844
637.585178521
637.482894228
637.398796796
637.322931338
637.25103388
637.17759914
637.097705142
637.00649338
636.899975965
636.775027786
636.629757974
636.465104853
636.28563574
636.091093378
635.880930081
635.657583758
635.422610652
635.177249698
634.922531436
634.659595078
634.390008058
634.115918423
633.839928265
633.564860002
633.29368117
633.029560561
632.775823521
632.535902483
632.313355155
632.111475409
631.932879218
631.779348648
631.651731449
631.549140559
631.470612801
631.418903271
631.39474537
631.389513445
631.437262356
631.428873257
631.430910202
1065.33317623
1064.60773868
1063.20166885
1061.08360452
1058.27661818
1054.80593367
1050.70133968
1045.9955759
1040.72289555
1034.91810603
1028.61624529
1021.85273754
1014.66372042
1007.08624541
999.158134439
990.917375802
982.401043
973.64380247
964.676157468
955.522664501
946.200471163
936.718638853
927.078781743
917.277447199
907.310206251
897.176439417
886.882619268
876.441162418
865.865705725
855.166719328
844.349222229
833.41300041
822.354608398
811.169779294
799.854892908
788.407466738
776.826786073
765.11519783
753.280016929
741.335744642
729.306752039
717.231207392
705.167316048
693.203221921
681.473418413
670.171351257
659.62962564
649.793459845
640.095612908
638.941784611
639.259945242
639.457035045
639.323433109
639.067912208
638.821993848
638.625820915
638.473945221
638.354282964
638.253329581
638.161334413
638.069415601
637.970405425
637.858472355
637.729246264
637.579544358
637.408176321
637.218276098
637.012356777
636.790134775
636.553768739
636.305464368
636.046705113
635.778441799
635.501319163
635.216003596
634.92348663
634.625261049
634.323326027
634.02010751
633.718415529
633.421441366
633.132720545
632.856079841
632.595547753
632.355069366
632.138171407
631.947706686
631.78562044
631.652653532
631.549103243
631.47574255
631.430424424
631.404698534
631.393782569
631.424237206
631.43650904
1075.50832328
1074.72559192
1073.21635604
1070.94552809
1067.94025246
1064.23061067
1059.85233749
1054.84422491
1049.24580366
1043.09601446
1036.43307728
1029.29519863
1021.72151545
1013.75278017
1005.43146308
996.801117939
987.904996976
978.783998523
969.474112275
960.003640955
950.390653239
940.641372122
930.75046659
920.704300325
910.487688228
900.092915077
889.52694303
878.808841679
867.959364545
856.99264651
845.912511891
834.713582569
823.385510059
811.917599128
800.300680303
788.526422991
776.587207878
764.47748203
752.196143656
739.748839439
727.150202942
714.427498167
701.627536612
688.830115781
676.180741282
663.91703811
652.804795041
642.099596633
640.67706077
640.930576265
641.123670085
640.94537482
640.601217368
640.240251559
639.929492319
639.685711001
639.497412523
639.347719214
639.220532609
639.103378712
638.985939501
638.860192082
638.719984349
638.560836384
638.379722167
638.17619413
637.954506073
637.716736468
637.463881114
637.199786076
636.926854344
636.646407275
636.358874173
636.064188892
635.762201986
635.453033754
635.137300479
634.816203245
634.491530836
634.165644896
633.841466515
633.522447098