/*--------------------------------*- C++ -*----------------------------------*\
| =========                 |                                                 |
| \\      /  F ield         | OpenFOAM: The Open Source CFD Toolbox           |
|  \\    /   O peration     | Version:  v1906                                 |
|   \\  /    A nd           | Web:      www.OpenFOAM.com                      |
|    \\/     M anipulation  |                                                 |
\*---------------------------------------------------------------------------*/
FoamFile
{
    version     2.0;
    format      ascii;
    class       volVectorField;
    location    "786";
    object      Ua;
}
// * * * * * * * * * * * * * * * * * * * * * * * * * * * * * * * * * * * * * //

dimensions      [0 1 -1 0 0 0 0];


internalField   nonuniform List<vector> 
9216
(
(-0.00666874099845 0.00667204158327 0)
(-0.00685556377761 0.0208076842003 2.37693108933e-27)
(-0.00684144222248 0.0350231866399 -4.61589317728e-31)
(-0.00679318525525 0.049229759075 0)
(-0.00672572283619 0.0632902549701 0)
(-0.00664050483175 0.0771694624095 0)
(-0.00653905888877 0.0908279223686 0)
(-0.00642229767725 0.104229119756 0)
(-0.00629127215083 0.117338841169 0)
(-0.00614681702826 0.130125354064 0)
(-0.00599003052716 0.142559350349 0)
(-0.00582176189925 0.154614110948 0)
(-0.00564313211915 0.166265405903 0)
(-0.00545494272396 0.177491555669 0)
(-0.00525825748341 0.188273245505 0)
(-0.0050537521216 0.198593477172 0)
(-0.00484235505737 0.208437306403 0)
(-0.00462454995294 0.217791701731 0)
(-0.00440106976245 0.226645230912 0)
(-0.00417216365232 0.234987857124 0)
(-0.0039383379586 0.242810607865 0)
(-0.00369959711456 0.250105344363 0)
(-0.0034562228606 0.256864451639 0)
(-0.00320799803399 0.263080618969 0)
(-0.00295501457053 0.268746585408 0)
(-0.00269688710821 0.273854962578 0)
(-0.00243357913789 0.278398064395 0)
(-0.00216461401937 0.282367797335 0)
(-0.00188991023168 0.285755595132 0)
(-0.00160899859259 0.288552388855 0)
(-0.00132185237016 0.290748691325 0)
(-0.00102810262512 0.292334635235 0)
(-0.000727882078882 0.293300131793 0)
(-0.000421075982181 0.293635127318 0)
(-0.000108111208725 0.293329896515 0)
(0.000210773758823 0.292375345731 0)
(0.000534757971012 0.290763458314 0)
(0.000863148116024 0.288487676974 0)
(0.0011946556402 0.285543435882 0)
(0.00152808345987 0.281928578108 0)
(0.00186166090454 0.277643910534 0)
(0.00219370184849 0.272693591956 0)
(0.00252199973852 0.267085646076 0)
(0.00284444385922 0.260832275189 0)
(0.0031584640714 0.25395029969 0)
(0.00346158727242 0.246461411755 0)
(0.00375091377199 0.238392575271 0)
(0.00402360754977 0.22977630867 0)
(0.00427639509218 0.220651116289 0)
(0.00450602623285 0.211061884561 0)
(0.00470882117018 0.201060319854 0)
(0.00488120192308 0.190705347487 0)
(0.00501934030319 0.180063234692 0)
(0.00511987528865 0.169207521228 0)
(0.00517964081208 0.158218217408 0)
(0.00519653785404 0.14718071474 0)
(0.00516909237698 0.136183802548 0)
(0.00509725511793 0.125317802921 0)
(0.00498158405505 0.114672249721 0)
(0.00482411218481 0.104334072347 0)
(0.00462753989216 0.0943852757117 0)
(0.00439652903804 0.0849004879762 0)
(0.00413688346473 0.0759435684692 0)
(0.00385671574858 0.0675638557122 0)
(0.00356377449417 0.0597937558056 0)
(0.00326494622158 0.0526502695378 0)
(0.00296502690936 0.0461386617485 0)
(0.00266911519036 0.0402544376516 0)
(0.00238212013546 0.0349831094986 0)
(0.00210913697874 0.0302996931822 0)
(0.00185374772918 0.0261702609893 0)
(0.00161861595193 0.0225543733273 0)
(0.00140479467783 0.0194079998889 0)
(0.00121285466961 0.016685491603 0)
(0.0010424539616 0.0143411770984 0)
(0.000893059638555 0.0123302367265 0)
(0.000763214862493 0.0106100734871 0)
(0.000651155984789 0.00914150406344 0)
(0.000554640837233 0.00788973784762 0)
(0.000471738314529 0.00682436269143 0)
(0.000400441025918 0.00591910311588 0)
(0.000338978861034 0.00515153595143 0)
(0.0002851654625 0.00450305924368 0)
(0.00023531185975 0.00396412956174 0)
(0.000181835994211 0.00347377462276 0)
(0.000160029689343 0.00316441281464 0)
(0.000151556153693 0.0028396340682 0)
(0.000132057615284 0.00255508621034 0)
(0.000129303366465 0.00231322053432 0)
(0.000134773471642 0.00204805979929 0)
(0.000131875020819 0.00178810849133 0)
(0.000130454036299 0.00151953647492 0)
(0.000143376419997 0.00123708095871 0)
(0.000159461643177 0.000935681673412 0)
(0.000178424864772 0.000577739769819 0)
(0.000190837404279 0.00018553605595 0)
(-0.020837319389 0.00689587011782 0)
(-0.0219990870731 0.0221013334009 0)
(-0.0219254861378 0.0372190798202 -2.44323915891e-27)
(-0.0217393761839 0.0523401877866 0)
(-0.0214860848738 0.067293898039 0)
(-0.0211706638717 0.0820507566036 0)
(-0.0207968802094 0.0965705057059 0)
(-0.0203681171909 0.110814811299 0)
(-0.0198881967423 0.124747444287 0)
(-0.0193607821073 0.138334684364 0)
(-0.0187900137538 0.151545429754 0)
(-0.0181797102995 0.164351328342 0)
(-0.0175340703522 0.176726752922 0)
(-0.0168567637831 0.188648800609 0)
(-0.0161517273161 0.200097156063 0)
(-0.0154221787605 0.211053976459 0)
(-0.0146715084063 0.221503660697 0)
(-0.013902238584 0.231432642127 0)
(-0.0131170069623 0.240829091927 0)
(-0.0123174911877 0.249682652601 0)
(-0.0115054769028 0.257984113053 0)
(-0.0106817627864 0.265725123271 0)
(-0.00984730051934 0.272897883022 0)
(-0.00900209087818 0.279494878684 0)
(-0.00814637871732 0.285508623771 0)
(-0.00727954659191 0.290931452231 0)
(-0.00640134559581 0.295755340542 0)
(-0.00551079353129 0.299971782479 0)
(-0.00460742513153 0.303571713094 0)
(-0.00369020450682 0.30654548457 0)
(-0.00275878192541 0.308882894553 0)
(-0.0018124090846 0.310573314846 0)
(-0.000851197911092 0.311605879965 0)
(0.000124903596228 0.311969652221 0)
(0.00111491443936 0.311653976082 0)
(0.00211783049962 0.310648822905 0)
(0.00313147066526 0.3089452458 0)
(0.0041534722592 0.30653583282 0)
(0.00518022843598 0.303415249285 0)
(0.00620787623489 0.299580738071 0)
(0.00723134684919 0.295032679979 0)
(0.00824533999571 0.289775064689 0)
(0.00924348326405 0.283815991969 0)
(0.010219257556 0.277168052357 0)
(0.0111652242153 0.26984873104 0)
(0.0120738424795 0.261880706008 0)
(0.0129367029849 0.253292203259 0)
(0.0137452021873 0.244117317302 0)
(0.0144897649984 0.234396438969 0)
(0.0151604635956 0.22417672518 0)
(0.0157463498201 0.213512639365 0)
(0.0162363039137 0.202466481768 0)
(0.0166187317372 0.191108716226 0)
(0.0168829814312 0.179517981855 0)
(0.0170194570206 0.167780402473 0)
(0.0170214222758 0.155988253437 0)
(0.0168847728006 0.144237777023 0)
(0.0166092704776 0.132626816329 0)
(0.0161971848338 0.121252426045 0)
(0.0156545231077 0.110208973177 0)
(0.0149899533802 0.0995861291818 0)
(0.0142175989143 0.0894662698326 0)
(0.0133563265169 0.0799207166608 0)
(0.0124326744537 0.0710037972997 0)
(0.0114729257808 0.0627485407253 0)
(0.0104983511171 0.055169816744 0)
(0.00952335033454 0.0482712780198 0)
(0.00856289490992 0.042048253932 0)
(0.00763323156652 0.0364853982913 0)
(0.00675056828831 0.0315548576345 0)
(0.00592678440592 0.0272181240877 0)
(0.00516971111732 0.0234296705537 0)
(0.00448257530505 0.0201406170371 0)
(0.00386648285874 0.0173010961464 0)
(0.00332044847054 0.014861518496 0)
(0.00284246502542 0.0127731816117 0)
(0.00242798316587 0.0109896227701 0)
(0.00207075191506 0.00946847264749 0)
(0.00176348629424 0.00817267495411 0)
(0.00149969062517 0.00707024162696 0)
(0.00127324498794 0.00613349183992 0)
(0.00107868591609 0.00533841963932 0)
(0.000910323003819 0.0046639720534 0)
(0.000762204386698 0.00409223960431 0)
(0.000623701031532 0.00358395853556 0)
(0.000526552447402 0.00310686058673 0)
(0.000460805246895 0.00277380596755 0)
(0.000400109310428 0.00249173971938 0)
(0.00038269150066 0.00221529755371 0)
(0.000393856851351 0.00199154407705 0)
(0.000395073565669 0.00176253085793 0)
(0.00040326888851 0.00148329349926 0)
(0.000429444719363 0.00119557679921 0)
(0.000515325055167 0.000938618003837 0)
(0.000620037005973 0.000596986799331 0)
(0.000558597797377 0.000163747861075 0)
(-0.0352127913042 0.00695122502708 0)
(-0.0371976842492 0.0222841913793 0)
(-0.0370466975838 0.0374940491363 -2.44661294628e-27)
(-0.0367264881342 0.0527246789991 0)
(-0.0362994616965 0.067785812571 0)
(-0.035770729787 0.0826466044509 0)
(-0.0351450930813 0.0972658180078 0)
(-0.0344279123304 0.111604593935 0)
(-0.0336252032405 0.125626319081 0)
(-0.0327432380186 0.139296973625 0)
(-0.0317886822531 0.152585276798 0)
(-0.0307681571391 0.165462793138 0)
(-0.0296884134704 0.177903939359 0)
(-0.028555856749 0.189885952878 0)
(-0.0273767678844 0.20138877463 0)
(-0.0261568122699 0.212394899255 0)
(-0.024901318643 0.222889153515 0)
(-0.0236147923482 0.23285845202 0)
(-0.0223012615579 0.242291501212 0)
(-0.0209638120889 0.251178496088 0)
(-0.0196050052348 0.259510789866 0)
(-0.0182264444496 0.267280575412 0)
(-0.0168292602247 0.274480566274 0)
(-0.0154137096773 0.281103707249 0)
(-0.0139797151449 0.287142907382 0)
(-0.0125264908879 0.29259081518 0)
(-0.0110531186768 0.297439633512 0)
(-0.00955819631351 0.301680983487 0)
(-0.00804043722993 0.305305820696 0)
(-0.00649833965661 0.308304401941 0)
(-0.00493081336671 0.310666329202 0)
(-0.00333686068714 0.312380637016 0)
(-0.00171619840207 0.313435949914 0)
(-6.89831203994e-05 0.313820726529 0)
(0.00160358028263 0.313523577121 0)
(0.00329952392605 0.312533637695 0)
(0.00501555470012 0.310841028678 0)
(0.00674736896388 0.308437353039 0)
(0.00848918122829 0.30531625342 0)
(0.0102341011543 0.301473969663 0)
(0.0119737833589 0.296909913383 0)
(0.0136988717929 0.291627190992 0)
(0.0153987570626 0.285633097934 0)
(0.0170620369609 0.278939521607 0)
(0.0186763009523 0.271563297892 0)
(0.0202284970966 0.263526489009 0)
(0.0217046231878 0.254856662607 0)
(0.0230899057849 0.245587183387 0)
(0.0243683601582 0.235757613398 0)
(0.0255228784535 0.225414245088 0)
(0.0265349011614 0.214610795494 0)
(0.027384884453 0.203409197996 0)
(0.0280526666274 0.19188030194 0)
(0.0285189775796 0.180104217956 0)
(0.0287668202567 0.168169854236 0)
(0.0287837400661 0.156173416702 0)
(0.0285628118903 0.144215730689 0)
(0.0281033650379 0.132399124976 0)
(0.0274095542407 0.120824962208 0)
(0.026490639283 0.109591994204 0)
(0.025360546028 0.098795467939 0)
(0.0240417093768 0.0885248887332 0)
(0.0225662682339 0.0788605450076 0)
(0.0209842371916 0.0698622834034 0)
(0.0193463503465 0.0615592320169 0)
(0.017688269813 0.0539575064651 0)
(0.0160299564862 0.0470563470473 0)
(0.0143943054535 0.040852808223 0)
(0.012811509317 0.0353327356653 0)
(0.0113112114472 0.0304652195865 0)
(0.00991499446658 0.0262058298986 0)
(0.00863515715376 0.0225029428089 0)
(0.00747625908239 0.0193030487247 0)
(0.00643880026171 0.01655343741 0)
(0.00552125799754 0.0142024728153 0)
(0.00472043153664 0.0121989712566 0)
(0.00402882027104 0.0104934287514 0)
(0.00343437682425 0.0090414842068 0)
(0.00292393058501 0.00780594193225 0)
(0.00248599537725 0.00675567262048 0)
(0.00211077752936 0.00586380577163 0)
(0.00178937647594 0.00510695295481 0)
(0.00151370902122 0.00446485046103 0)
(0.00127727591329 0.00392179820661 0)
(0.00107902129738 0.00343839268219 0)
(0.000920769236761 0.00299645977008 0)
(0.000811299506654 0.00272284207823 0)
(0.000695430567057 0.00235126464943 0)
(0.000619289991547 0.00203677735153 0)
(0.000620088103174 0.00183503922333 0)
(0.000675864281658 0.00166859127753 0)
(0.000669197729552 0.0013179191559 0)
(0.000735980404476 0.00107055905444 0)
(0.000834563197333 0.000770908072322 0)
(0.00092155044383 0.000459436738325 0)
(0.000890548420535 0.000141577576383 0)
(-0.0497858566716 0.00700856063389 0)
(-0.0526159152688 0.0224878213495 0)
(-0.0523999274417 0.0378213942807 2.4462878465e-27)
(-0.0519427774631 0.0531810053777 0)
(-0.0513338276495 0.0683674673173 0)
(-0.0505807792728 0.0833487196568 0)
(-0.0496903465807 0.0980823599368 0)
(-0.0486702015057 0.112528715867 0)
(-0.0475288760956 0.126650581336 0)
(-0.0462754539173 0.140413525891 0)
(-0.044919443367 0.153786042921 0)
(-0.0434704656499 0.166739643443 0)
(-0.0419381471746 0.179248869121 0)
(-0.0403318050941 0.191291244526 0)
(-0.0386603696975 0.202847156858 0)
(-0.0369320868883 0.213899682038 0)
(-0.0351544891772 0.224434349994 0)
(-0.0333341375708 0.234438869048 0)
(-0.0314766599864 0.243902807894 0)
(-0.0295865526927 0.252817256353 0)
(-0.0276672988039 0.26117446863 0)
(-0.0257212390996 0.268967509815 0)
(-0.0237497696962 0.276189911711 0)
(-0.0217532772016 0.282835354891 0)
(-0.0197314004286 0.288897382198 0)
(-0.0176830137314 0.294369154157 0)
(-0.0156065322877 0.299243249417 0)
(-0.013499929056 0.303511514862 0)
(-0.0113610704852 0.307164969335 0)
(-0.00918776247978 0.310193756557 0)
(-0.00697812351101 0.312587183129 0)
(-0.00473064195582 0.314333792219 0)
(-0.0024445667624 0.31542150752 0)
(-0.00012001799126 0.315837889317 0)
(0.00224163331633 0.315570452001 0)
(0.00463767593151 0.314607061724 0)
(0.00706372010591 0.312936419909 0)
(0.00951367224885 0.310548609917 0)
(0.0119795066723 0.307435700711 0)
(0.0144513623749 0.303592371102 0)
(0.0169174733921 0.299016536419 0)
(0.0193644087805 0.293709929944 0)
(0.0217771462051 0.287678619016 0)
(0.0241393865446 0.280933415832 0)
(0.0264336456001 0.273490186237 0)
(0.0286414639771 0.26537005744 0)
(0.0307433059412 0.256599583673 0)
(0.0327184691489 0.247210938386 0)
(0.0345446764836 0.237242249505 0)
(0.0361977535423 0.226738183645 0)
(0.0376512564419 0.21575086404 0)
(0.0388766169559 0.2043410987 0)
(0.0398438734578 0.192579747438 0)
(0.0405235321603 0.180548750865 0)
(0.0408893996869 0.168341196862 0)
(0.040922042351 0.15605959358 0)
(0.0406114225092 0.143812135196 0)
(0.0399571716269 0.131707917402 0)
(0.0389654524367 0.119854095795 0)
(0.0376484907084 0.108354974026 0)
(0.0360227195612 0.0973135528007 0)
(0.0341167845481 0.0868305615782 0)
(0.0319722663584 0.0770050207926 0)
(0.0296762624416 0.0679099525884 0)
(0.027317632445 0.0595641009819 0)
(0.0249462916345 0.0519515953265 0)
(0.0225737920081 0.0450633229911 0)
(0.0202270842896 0.0389048287316 0)
(0.0179565920425 0.0334674842912 0)
(0.0158116396381 0.0287147804493 0)
(0.0138252377032 0.0245908027056 0)
(0.01201268415 0.0210329257588 0)
(0.0103769039044 0.0179803875486 0)
(0.00891569771686 0.0153771518488 0)
(0.00762680805228 0.0131698421847 0)
(0.00650754428669 0.0113036944301 0)
(0.00554770203067 0.00972331984252 0)
(0.00472652218652 0.00838060555606 0)
(0.00402247429782 0.00723899053796 0)
(0.00341865491435 0.0062698062398 0)
(0.00290216142142 0.00544790817776 0)
(0.00246061470815 0.0047509582052 0)
(0.00208268046039 0.00416024367976 0)
(0.00175945816679 0.00366401807454 0)
(0.00148927960304 0.00320452754413 0)
(0.00129595058663 0.00284569641335 0)
(0.00114042639811 0.00252462352603 0)
(0.000996833887231 0.00216308248073 0)
(0.000922059822575 0.0019098660154 0)
(0.000861308663308 0.00160351102928 0)
(0.000879802593359 0.00135011799494 0)
(0.000985794145693 0.00116999500174 0)
(0.000999125947957 0.000835562106096 0)
(0.00109321219927 0.000572502836966 0)
(0.00119208547249 0.000343353271485 0)
(0.00117537792225 0.000112105809724 0)
(-0.0645056381746 0.00708258632123 0)
(-0.0681771406743 0.0227568752326 0)
(-0.0678947096052 0.0382621465896 0)
(-0.067297341373 0.0537959144747 0)
(-0.0665016387467 0.0691508739526 0)
(-0.0655181069737 0.084293748131 0)
(-0.0643557079737 0.099180746281 0)
(-0.0630246518398 0.113771110925 0)
(-0.0615362373854 0.128026812464 0)
(-0.059902540823 0.141912851444 0)
(-0.0581361537594 0.155397405821 0)
(-0.0562498662996 0.168451918128 0)
(-0.0542564144334 0.18105110519 0)
(-0.0521681734991 0.193172896655 0)
(-0.0499969335132 0.204798301218 0)
(-0.0477536261628 0.215911208102 0)
(-0.0454481534071 0.226498126314 0)
(-0.0430891764229 0.236547872753 0)
(-0.040684025496 0.246051216816 0)
(-0.0382385778412 0.255000496785 0)
(-0.0357572693806 0.263389220259 0)
(-0.0332430744141 0.271211666138 0)
(-0.0306976201516 0.278462501448 0)
(-0.0281212581731 0.285136427636 0)
(-0.0255132601306 0.291227865516 0)
(-0.022871953748 0.296730686719 0)
(-0.0201949701533 0.301637995105 0)
(-0.0174794203312 0.305941960066 0)
(-0.0147221777172 0.309633704024 0)
(-0.0119200898254 0.312703236601 0)
(-0.00907030879428 0.315139481602 0)
(-0.00617052097691 0.316930330291 0)
(-0.00321931655019 0.318062771354 0)
(-0.00021648702624 0.31852314727 0)
(0.00283660771521 0.31829747707 0)
(0.00593676080663 0.317371877922 0)
(0.00907859393247 0.315733087754 0)
(0.0122543674534 0.313369073624 0)
(0.0154537972464 0.310269710787 0)
(0.0186640464254 0.306427499044 0)
(0.0218697645181 0.301838280313 0)
(0.0250533096091 0.296501905183 0)
(0.0281950057065 0.290422801544 0)
(0.0312735141426 0.28361039601 0)
(0.0342661344092 0.276079365477 0)
(0.0371490530234 0.267849722533 0)
(0.0398973396344 0.258946794057 0)
(0.0424847076958 0.249401206163 0)
(0.0448829223488 0.239249051692 0)
(0.0470610254757 0.228532459374 0)
(0.0489845124264 0.217300754909 0)
(0.0506150010827 0.205612355958 0)
(0.0519108549162 0.193537187353 0)
(0.0528296818167 0.18115912881 0)
(0.0533327937796 0.168577149819 0)
(0.0533915114764 0.155903615405 0)
(0.0529924038564 0.143258422406 0)
(0.0521377551138 0.13076010839 0)
(0.0508364816149 0.118522638213 0)
(0.0491041272027 0.106655040572 0)
(0.0469537833447 0.0952689842838 0)
(0.0444156784158 0.0844791230231 0)
(0.0415218833803 0.0744241898375 0)
(0.0384303990482 0.0652113248238 0)
(0.035302184256 0.0568324939714 0)
(0.0321991860897 0.0492165149465 0)
(0.029083509306 0.0423396502915 0)
(0.025978966574 0.0362378107967 0)
(0.0229746751512 0.0309192100098 0)
(0.0201530850531 0.0263355272744 0)
(0.0175609135685 0.0224083091131 0)
(0.0152119263232 0.0190558459606 0)
(0.0131010586609 0.0162071279158 0)
(0.0112188344877 0.0138042578652 0)
(0.00956259200859 0.0117951048646 0)
(0.00813544328587 0.0101205373972 0)
(0.00692678148074 0.00871298344666 0)
(0.00589969225324 0.0075167544143 0)
(0.00501922532999 0.00649850667394 0)
(0.00426305164085 0.00563573545467 0)
(0.00361768817326 0.00490609272497 0)
(0.00306726431855 0.00428775534607 0)
(0.00259603926226 0.00376386692032 0)
(0.00219268574643 0.00332609735739 0)
(0.0018441382341 0.00289266914555 0)
(0.00166443066525 0.00263334902246 0)
(0.00150647477674 0.00231937486206 0)
(0.00133725491707 0.00198017895353 0)
(0.00117491708192 0.00161100732719 0)
(0.00113399895986 0.00135924199784 0)
(0.00110556221599 0.00106832268514 0)
(0.00120502718175 0.000889605589271 0)
(0.00131924840489 0.000680527058461 0)
(0.001319007561 0.000421758233957 0)
(0.00135876784975 0.000241011168237 0)
(0.00133765315986 7.96458932934e-05 0)
(-0.079422093002 0.00717489408801 0)
(-0.083941895794 0.0230967697546 0)
(-0.0835897269507 0.0388217396872 0)
(-0.082846755311 0.0545772125369 0)
(-0.0818571309319 0.0701461481485 0)
(-0.0806343137974 0.085493884108 0)
(-0.0791897867809 0.100574967604 0)
(-0.0775365720755 0.115347287806 0)
(-0.0756890329688 0.129771768459 0)
(-0.0736625156272 0.143812684129 0)
(-0.0714729940477 0.157437811387 0)
(-0.0691366970057 0.170618513397 0)
(-0.0666697567651 0.183329742933 0)
(-0.064087850602 0.195549966917 0)
(-0.0614058795371 0.207261012869 0)
(-0.0586376531581 0.218447841805 0)
(-0.0557956307942 0.2290982517 0)
(-0.0528906864033 0.239202520545 0)
(-0.0499319510018 0.248752999472 0)
(-0.046926695421 0.257743671515 0)
(-0.043880304958 0.266169692997 0)
(-0.0407962991875 0.274026937156 0)
(-0.037676441226 0.281311558167 0)
(-0.0345208789985 0.288019591926 0)
(-0.0313283567052 0.294146605017 0)
(-0.0280964347217 0.299687398419 0)
(-0.0248217583418 0.304635767531 0)
(-0.0215003195303 0.30898431697 0)
(-0.0181277612194 0.312724329326 0)
(-0.0146996773815 0.315845675561 0)
(-0.0112119761769 0.318336825646 0)
(-0.00766120858299 0.320184869784 0)
(-0.00404499665729 0.321375627965 0)
(-0.000362455850995 0.321893897245 0)
(0.00338536271117 0.3217237773 0)
(0.00719505458859 0.320849116353 0)
(0.0110604594974 0.319254083569 0)
(0.014972350651 0.316923857041 0)
(0.0189182107844 0.313845408981 0)
(0.0228821696343 0.310008352333 0)
(0.0268450912106 0.305405797804 0)
(0.0307848571475 0.300035153564 0)
(0.0346767944837 0.293898790577 0)
(0.0384942264948 0.287004497028 0)
(0.0422090187841 0.279365664579 0)
(0.045792009334 0.271001191535 0)
(0.0492131274413 0.261935160254 0)
(0.0524410656943 0.252196441156 0)
(0.0554423750163 0.241818492014 0)
(0.0581800331911 0.230839710694 0)
(0.0606117333561 0.219304796352 0)
(0.0626884625412 0.207267423386 0)
(0.0643544807175 0.194794437686 0)
(0.0655499946261 0.181970722721 0)
(0.0662181815818 0.168903073224 0)
(0.0663163667802 0.155719251168 0)
(0.0658278962606 0.142558417479 0)
(0.0647642989159 0.12955202207 0)
(0.0631389895076 0.11682048599 0)
(0.0609750626302 0.10447229264 0)
(0.0582700110393 0.0926251222016 0)
(0.0550520722707 0.0813986808014 0)
(0.0512679521677 0.0710197182227 0)
(0.0472367240441 0.0616901711124 0)
(0.0432779177175 0.0533327738271 0)
(0.0394585789671 0.0457328312178 0)
(0.0355705470144 0.0388430618191 0)
(0.0316289017079 0.0327959881014 0)
(0.0278142923861 0.0276416087774 0)
(0.0242699332528 0.0233010239429 0)
(0.0210561887867 0.0196496467955 0)
(0.0181734174635 0.0165730750864 0)
(0.0155952931509 0.0139873037402 0)
(0.0132954420095 0.0118386946803 0)
(0.0112719373419 0.010086455608 0)
(0.00954873075882 0.00866787956924 0)
(0.00812393865573 0.00748755965923 0)
(0.00692422021743 0.00647304217274 0)
(0.00589033845127 0.00560234747697 0)
(0.00499692068478 0.00486827019673 0)
(0.00423811371307 0.00425212330292 0)
(0.00359417267214 0.0037293065834 0)
(0.00304213070713 0.00328549020403 0)
(0.00257066906882 0.00290689812518 0)
(0.00217290513149 0.00252680055359 0)
(0.00197525359204 0.00227872304024 0)
(0.00176630727915 0.00194070918783 0)
(0.00163339113782 0.00167842920668 0)
(0.00153243414132 0.00140586565262 0)
(0.00147282495581 0.00114485242468 0)
(0.0013378080114 0.000822378999801 0)
(0.00135511993256 0.000607003018741 0)
(0.00149735892926 0.000479866857924 0)
(0.00151463726599 0.000316550656247 0)
(0.00149952328161 0.000172734605788 0)
(0.00147823017362 5.68898117793e-05 0)
(-0.0945813004796 0.00728705838736 0)
(-0.0999603086356 0.0235116913461 0)
(-0.0995338098732 0.0395056271887 2.46423110153e-27)
(-0.0986380346459 0.0555322373145 0)
(-0.0974451574859 0.0713624617035 0)
(-0.0959717802261 0.0869599430559 0)
(-0.0942321893496 0.102277208168 0)
(-0.0922425432463 0.117270493856 0)
(-0.0900206229386 0.131899441359 0)
(-0.08758540179 0.146127437507 0)
(-0.0849566027439 0.159921773664 0)
(-0.0821542479713 0.173253729463 0)
(-0.079198217729 0.186098568382 0)
(-0.0761078165358 0.198435446596 0)
(-0.0729013642413 0.210247236176 0)
(-0.0695958115614 0.221520264291 0)
(-0.0662064025554 0.232243972485 0)
(-0.0627463866673 0.242410503528 0)
(-0.0592268057047 0.252014228111 0)
(-0.0556563561902 0.261051228917 0)
(-0.0520413471543 0.269518763909 0)
(-0.0483857426518 0.277414733585 0)
(-0.0446912957644 0.284737176277 0)
(-0.0409577484228 0.291483812155 0)
(-0.0371830924051 0.297651649497 0)
(-0.0333638599523 0.303236658828 0)
(-0.0294954421229 0.308233512459 0)
(-0.0255724138561 0.312635382239 0)
(-0.0215888796424 0.316433788929 0)
(-0.017538834475 0.319618483792 0)
(-0.0134165788795 0.322177435545 0)
(-0.00921712332137 0.324096803952 0)
(-0.00493670416979 0.325361017278 0)
(-0.000573321646911 0.325952995231 0)
(0.00387270011391 0.325854468611 0)
(0.00839814963518 0.325046446065 0)
(0.0129963939779 0.323509843842 0)
(0.0176569315876 0.321226272691 0)
(0.0223650747161 0.318178965029 0)
(0.0271018262314 0.31435380251 0)
(0.0318439891922 0.309740379442 0)
(0.0365645472505 0.304333009882 0)
(0.041233301714 0.298131563777 0)
(0.0458177145406 0.291142006831 0)
(0.0502838217584 0.283376531392 0)
(0.0545970192019 0.2748532149 0)
(0.0587224447225 0.265595240489 0)
(0.0626246620756 0.255629858039 0)
(0.0662663857711 0.244987447915 0)
(0.0696061362068 0.233701283002 0)
(0.0725949954023 0.221808698767 0)
(0.0751731585252 0.209354677603 0)
(0.0772677717666 0.196398358178 0)
(0.0787948161866 0.183022527772 0)
(0.0796687879151 0.169343262894 0)
(0.0798230155441 0.155513089605 0)
(0.0792375063767 0.141706115729 0)
(0.0779516165055 0.128070961711 0)
(0.0759838729605 0.114733168161 0)
(0.0733831118498 0.101785855997 0)
(0.0701034197433 0.0893458263608 0)
(0.0661993310006 0.0774769714551 0)
(0.0612547958452 0.0666086948571 0)
(0.0560072192666 0.0572210318449 0)
(0.0511577606747 0.0490540349647 0)
(0.0467682770681 0.0415089710116 0)
(0.0420894870596 0.0345099978502 0)
(0.0371601577286 0.0284817186209 0)
(0.0324031821069 0.0235604608738 0)
(0.0280736104028 0.0195776516419 0)
(0.0242318718992 0.016312012592 0)
(0.0208360151935 0.0135951535333 0)
(0.0178124501879 0.0113293343236 0)
(0.0150970760886 0.00948105018148 0)
(0.0126892624891 0.00804848180511 0)
(0.0106746265246 0.00697255022294 0)
(0.00909344330934 0.00608844904481 0)
(0.00777704131282 0.00528312853997 0)
(0.0066177504266 0.00457119065569 0)
(0.00559798143925 0.00398350056402 0)
(0.00474373092464 0.0035033357201 0)
(0.00402793712615 0.00309173524971 0)
(0.00341002599349 0.00273937301894 0)
(0.0028849074725 0.00242529770868 0)
(0.00249197677581 0.00213085164655 0)
(0.00226990370931 0.00187995424401 0)
(0.00206761037055 0.0016008153823 0)
(0.00188541603343 0.00131797609264 0)
(0.00179480479522 0.00108130500022 0)
(0.00167588734064 0.000824852692012 0)
(0.0016401870261 0.000630225341378 0)
(0.00153175750481 0.000405029142518 0)
(0.00155768061148 0.000283374488131 0)
(0.00163313118741 0.000205933793475 0)
(0.0015970026741 0.000111216436394 0)
(0.00157396394565 3.6423035522e-05 0)
(-0.110032737613 0.00742031494712 0)
(-0.116284825494 0.0240061681386 0)
(-0.115778342158 0.0403206469083 -2.4638513086e-27)
(-0.114720742397 0.0566702445523 0)
(-0.113312940955 0.0728113125287 0)
(-0.111574965522 0.088705401151 0)
(-0.109524255576 0.104302592557 0)
(-0.107180502733 0.119557131808 0)
(-0.104565334187 0.134427121011 0)
(-0.101701791462 0.148874888608 0)
(-0.0986137936328 0.162867156928 0)
(-0.0953255967078 0.176375125633 0)
(-0.091861260117 0.189374458777 0)
(-0.0882441240205 0.201845177579 0)
(-0.0844963084656 0.213771457868 0)
(-0.0806382419128 0.225141331758 0)
(-0.0766882376911 0.235946294699 0)
(-0.0726621332687 0.246180824009 0)
(-0.0685730164357 0.255841821613 0)
(-0.0644310530519 0.264928001857 0)
(-0.0602434332487 0.273439252594 0)
(-0.0560144356004 0.281376002454 0)
(-0.0517456051639 0.288738627446 0)
(-0.0474360218711 0.295526924649 0)
(-0.0430826357343 0.301739670316 0)
(-0.0386806355742 0.307374266197 0)
(-0.0342238315558 0.312426465082 0)
(-0.0297050361283 0.316890158299 0)
(-0.0251164506081 0.320757208799 0)
(-0.0204500693692 0.324017299527 0)
(-0.0156981444118 0.326657886537 0)
(-0.0108536537305 0.328664103512 0)
(-0.00591091769797 0.330018787607 0)
(-0.000866260845961 0.330702654109 0)
(0.00428127736464 0.33069459229 0)
(0.00952920248941 0.329972142326 0)
(0.0148708473054 0.3285121841 0)
(0.0202947418091 0.3262918417 0)
(0.0257841432966 0.323289592516 0)
(0.0313168122582 0.319486540966 0)
(0.0368651128679 0.314867779087 0)
(0.0423965046 0.309423713736 0)
(0.0478744456511 0.303151194582 0)
(0.0532596615086 0.296054245033 0)
(0.0585116229578 0.288144191455 0)
(0.0635899564051 0.27943903541 0)
(0.0684553669407 0.269962029443 0)
(0.0730695834761 0.259739623829 0)
(0.0773937814939 0.248799236858 0)
(0.0813851277899 0.237167637672 0)
(0.0849912553726 0.224871202374 0)
(0.0881432023882 0.211939667907 0)
(0.0907485120973 0.198415657997 0)
(0.0926888913442 0.184371389731 0)
(0.0938307444467 0.169930982869 0)
(0.094059858751 0.155287690147 0)
(0.0933489134929 0.140686718125 0)
(0.0918185966561 0.126298067842 0)
(0.0894760071389 0.1122516533 0)
(0.0864595300948 0.0985915659936 0)
(0.0826114013763 0.0854411601569 0)
(0.0782449916868 0.0725503358494 0)
(0.0715527462486 0.0608278860658 0)
(0.0644839092859 0.051593243412 0)
(0.0586964138157 0.0440942324892 0)
(0.054263020949 0.0366677829499 0)
(0.0487367340775 0.0292413619705 0)
(0.0424683623071 0.0231181158801 0)
(0.0365346953541 0.018564467286 0)
(0.031355824986 0.0151394233801 0)
(0.0269228949088 0.0124215112896 0)
(0.0230817453101 0.0101622640504 0)
(0.0196734064757 0.00825567621255 0)
(0.0165516312654 0.00672117538478 0)
(0.0137081170254 0.00566759438507 0)
(0.0113900691081 0.00507340128958 0)
(0.0097887256839 0.0045903892659 0)
(0.00846131767751 0.0039975524108 0)
(0.00720235915374 0.00342342284469 0)
(0.00604309711344 0.00299431381571 0)
(0.00511194446654 0.00268208430938 0)
(0.00435994599307 0.00239551274175 0)
(0.00369113501127 0.00213960467464 0)
(0.00313469451571 0.0018945322165 0)
(0.00277308097924 0.00167360337785 0)
(0.00252387889372 0.0014351953113 0)
(0.00234748506654 0.00121432968336 0)
(0.00216772911176 0.000971555765935 0)
(0.00201717590073 0.000747649213827 0)
(0.00186400487674 0.000534416439498 0)
(0.00176944857023 0.000370623133979 0)
(0.00173018839479 0.000247498864873 0)
(0.00163324164795 0.000136859274512 0)
(0.00170869900097 9.16932212607e-05 0)
(0.00165398074442 5.43564051337e-05 0)
(0.00162426153766 1.61829610199e-05 0)
(-0.125829101996 0.00757598484409 0)
(-0.132970778972 0.0245855134812 0)
(-0.132377450829 0.041275170205 0)
(-0.131146998954 0.0580026498759 0)
(-0.129509995951 0.0745068661274 0)
(-0.127490282131 0.0907468237236 0)
(-0.125108890009 0.106669672558 0)
(-0.122389533439 0.122227287143 0)
(-0.119358205571 0.137375950277 0)
(-0.116042550213 0.152076751047 0)
(-0.112471220397 0.166295758945 0)
(-0.108673238355 0.180004105023 0)
(-0.10467736328 0.193177960287 0)
(-0.100511470642 0.205798412459 0)
(-0.0962019491523 0.217851238388 0)
(-0.09177312636 0.229326566168 0)
(-0.0872467417311 0.24021842376 0)
(-0.0826414924326 0.250524176061 0)
(-0.0779726819216 0.260243862985 0)
(-0.073251999677 0.269379463332 0)
(-0.0684874538886 0.277934121452 0)
(-0.0636834640694 0.285911382473 0)
(-0.058841103386 0.293314483213 0)
(-0.0539584606254 0.300145738905 0)
(-0.0490310790554 0.306406049044 0)
(-0.0440524242888 0.312094524146 0)
(-0.0390143435701 0.317208213064 0)
(-0.033907498063 0.321741896698 0)
(-0.0287217769109 0.325687914386 0)
(-0.0234467220624 0.32903597613 0)