/*--------------------------------*- C++ -*----------------------------------*\
| =========                 |                                                 |
| \\      /  F ield         | OpenFOAM: The Open Source CFD Toolbox           |
|  \\    /   O peration     | Version:  v1906                                 |
|   \\  /    A nd           | Web:      www.OpenFOAM.com                      |
|    \\/     M anipulation  |                                                 |
\*---------------------------------------------------------------------------*/
FoamFile
{
    version     2.0;
    format      ascii;
    class       surfaceScalarField;
    location    "108";
    object      phia;
}
// * * * * * * * * * * * * * * * * * * * * * * * * * * * * * * * * * * * * * //

dimensions      [0 3 -1 0 0 0 0];
oriented        oriented;


internalField   nonuniform List<scalar> 
18240
(
0.0121978360145
-0.0121978381492
0.0250788299511
-0.0128809968456
0.0378852230911
-0.0128063951788
0.0505307125986
-0.012645492562
0.0629560178394
-0.0124253070434
0.0751085875944
-0.0121525729053
0.0869408140568
-0.0118322280123
0.0984098721454
-0.011469061302
0.1094778498
-0.0110679789495
0.120111872587
-0.0106340260347
0.130284173751
-0.0101723022042
0.139972036833
-0.00968786633817
0.149157670365
-0.00918563432826
0.15782796819
-0.00867030106814
0.165974235361
-0.00814626773024
0.173591830879
-0.00761759873124
0.180679813387
-0.0070879828445
0.1872405328
-0.00656072258064
0.193279255692
-0.00603872301891
0.198803757934
-0.00552450535105
0.203823972453
-0.00502021445308
0.208351616884
-0.00452764747205
0.212399888783
-0.00404827165208
0.215983146016
-0.00358326019726
0.219116660219
-0.00313351379403
0.221816355598
-0.00269969825766
0.224098621777
-0.00228226561872
0.22598010967
-0.00188149068306
0.227477601058
-0.00149749069205
0.228607860989
-0.00113026262581
0.229387570162
-0.000779708353473
0.229833255285
-0.00044568772014
0.229961347997
-0.000128091783083
0.229788325342
0.000173020154361
0.229327921784
0.000460404589383
0.228594863
0.000733056386068
0.227603601699
0.000991262421849
0.226368044865
0.00123555454325
0.224901594806
0.00146645126473
0.22321712679
0.00168446583808
0.221327014913
0.00189011315449
0.21924311309
0.00208389976169
0.2169767845
0.00226632993479
0.214538887341
0.00243789521657
0.211939807862
0.00259908087888
0.209189449726
0.0027503563159
0.206297269065
0.00289218210958
0.203272266116
0.00302500125179
0.20012302098
0.00314924662395
0.196857686526
0.00326533288076
0.19348402391
0.00337366413522
0.190009396095
0.00347462636688
0.186440802487
0.00356859514989
0.182784872681
0.00365592848163
0.179047899814
0.00373697442635
0.175235834315
0.00381206429881
0.171354315747
0.00388152013325
0.167408666493
0.00394564817643
0.163403921949
0.00400474611176
0.159344824153
0.00405909683948
0.155235850304
0.00410897540905
0.151081206395
0.00415464307237
0.146884854056
0.0041963538871
0.142650504294
0.00423434904279
0.13838164271
0.00426886311189
0.134081523457
0.00430011865023
0.129753192884
0.00432833207673
0.125399483837
0.00435370855779
0.121023037806
0.00437644750512
0.116626299678
0.00439673775264
0.112211538456
0.00441476266255
0.107780842583
0.0044306956084
0.103336139301
0.00444470468473
0.0988791906386
0.00445694850733
0.094411611478
0.00446758052131
0.0899348662969
0.00447674513223
0.0854502859988
0.00448458161067
0.080959065488
0.00449122056397
0.0764622793123
0.00449678743431
0.0719608801412
0.00450139932001
0.067455713274
0.00450516806402
0.0629475160866
0.00450819742449
0.058436931475
0.00451058573979
0.0539245083694
0.00451242342612
0.0494107142675
0.00451379515819
0.0448959371094
0.00451477756523
0.0403804974829
0.00451544061633
0.0358646532022
0.00451584478251
0.031348614373
0.00451603975555
0.026832558799
0.00451605615784
0.0223166716903
0.00451588794787
0.0178012319551
0.00451544037284
0.0132868731387
0.00451435954552
0.00877533258545
0.00451154127977
0.00428058046782
0.00449475285563
0.00428058082088
0.0128052928841
-0.0250031334541
0.0264780844944
-0.0265537911827
0.0400295329265
-0.026357846108
0.0533997310169
-0.0260156933858
0.0665346130908
-0.0255601915021
0.0793823207365
-0.0250002832427
0.0918940875932
-0.0243439971215
0.104025493997
-0.0236004703328
0.115736987944
-0.0227794750033
0.126994151855
-0.0218911924907
0.137767808918
-0.0209459612207
0.14803398896
-0.0199540488293
0.157773797971
-0.0189254451337
0.166973187895
-0.0178696933348
0.175622670158
-0.0167957516298
0.183716965701
-0.0157118965054
0.19125463528
-0.0146256539016
0.198237677515
-0.0135437669303
0.204671136449
-0.0124721832787
0.210562699756
-0.0114160706553
0.215922326514
-0.0103798423883
0.220761879673
-0.00936720250764
0.225094799533
-0.00838119254801
0.228935788514
-0.00742425093742
0.232300541635
-0.00649826781363
0.235205489442
-0.00560464770808
0.237667586693
-0.00474436363857
0.239704110918
-0.00391801643613
0.241332503084
-0.00312588350455
0.242570210966
-0.00236797192293
0.243434562048
-0.00164405996535
0.243942613553
-0.000953740530934
0.244110956397
-0.000296435046982
0.243955191608
0.00032878374217
0.243492677857
0.000922918024898
0.242739294878
0.00148643826957
0.241710239193
0.00202031789185
0.240420212636
0.00252558010915
0.238883405013
0.00300325876963
0.237113479069
0.00345439089359
0.235123575258
0.00388001694038
0.232926303621
0.00428117061223
0.230533756769
0.00465887685059
0.227957508324
0.00501414297514
0.225208630864
0.00534795848721
0.222297698456
0.00566128813545
0.219234807445
0.00595507334702
0.216029581388
0.00623022681681
0.212691193214
0.00648763509956
0.209228371394
0.00672815430128
0.205649422469
0.00695261343093
0.201962237666
0.00716181086097
0.19817431512
0.00735651813041
0.19429276645
0.0075374769299
0.19032433824
0.00770540312979
0.186275418286
0.00786098411525
0.182152056091
0.00800488287604
0.177959968637
0.00813773557224
0.173704559775
0.00826015557108
0.169390925468
0.00837273116383
0.165023872048
0.0084760294706
0.160607920951
0.00857059425907
0.156147325853
0.00865694966501
0.15164607697
0.00873559808444
0.14710791712
0.00880702367655
0.142536345677
0.00887169031651
0.137934633637
0.00893004486133
0.13330582732
0.00898251516087
0.12865276252
0.00902951307655
0.123978068063
0.00907143255567
0.11928417912
0.00910865239957
0.114573340721
0.00914153441068
0.109847620309
0.00917042591104
0.105108911298
0.00919565797437
0.100358944952
0.0092175476984
0.0955992940556
0.00923639653538
0.0908313841852
0.00925249232261
0.0860564975769
0.00926610772454
0.0812757838323
0.00927750202543
0.0764902640502
0.00928691969271
0.0717008410258
0.00929459193226
0.0669083036979
0.00930073537353
0.0621133368987
0.00930555337289
0.0573165261787
0.00930923479247
0.0525183671754
0.00931195498299
0.0477192708915
0.00931387452362
0.0429195727166
0.00931513960746
0.0381195380047
0.00931588020465
0.0333193697771
0.00931620879693
0.028519210634
0.00931621603855
0.0237191345614
0.00931596479354
0.01891909414
0.00931548151553
0.0141187265059
0.00931472793856
0.00931705634366
0.00931321219662
0.00451829892962
0.00929351101742
0.0087988801234
0.0129692624834
-0.0379723984172
0.0267761903218
-0.040360721689
0.0404738450068
-0.0400555033894
0.0539883431486
-0.0395301941603
0.0672608361154
-0.0388326869844
0.0802373200353
-0.0379767697185
0.0928676927962
-0.0369743722944
0.105106576917
-0.0358393569149
0.116913756789
-0.03458665717
0.128254435737
-0.0332318737915
0.139099325745
-0.0317908533936
0.149424593824
-0.0302793191415
0.159211696046
-0.0287125493853
0.168447115117
-0.0271051145128
0.177122031513
-0.0254706699147
0.185231940825
-0.0238218077939
0.192776244623
-0.0221699594486
0.199757822385
-0.0205253465381
0.206182607305
-0.0188969698084
0.21205916759
-0.0172926326551
0.21739831128
-0.0157189875516
0.222212710798
-0.0141816036117
0.226516561286
-0.0126850443753
0.230325264754
-0.0112329558647
0.233655151315
-0.00982815558482
0.236523226666
-0.00847272439535
0.238946955364
-0.00716809342295
0.240944067175
-0.00591512946302
0.242532394739
-0.00471421203522
0.243729727842
-0.00356530612632
0.244553690346
-0.00246802331966
0.24502162334
-0.00142167451438
0.245150489583
-0.000425302031112
0.244956990636
0.000522281807001
0.24445793052
0.00142197750704
0.243668936703
0.00227543131116
0.242605179203
0.00308407486104
0.241281382656
0.00384937598486
0.239711765927
0.0045728750679
0.237910016396
0.00525613985424
0.235889286318
0.00590074668485
0.23366219122
0.00650826523739
0.231240818173
0.00708024965825
0.228636731519
0.00761822925231
0.225860986191
0.0081237036655
0.222924137211
0.00859813683058
0.219836255664
0.00904295483101
0.216606940182
0.00945954210251
0.213245334171
0.00984924112907
0.209760138136
0.0102133502257
0.206159627209
0.0105531244553
0.20245166358
0.0108697744597
0.198643713727
0.0111644681548
0.194742860477
0.0114383302273
0.190755819568
0.0116924442792
0.186688951084
0.0119278527201
0.182548275137
0.0121455591276
0.178339482553
0.0123465283467
0.174067949587
0.0125316889031
0.169738747822
0.0127019331829
0.165356657922
0.0128581197918
0.160926178765
0.0130010737311
0.156451540269
0.0131315886327
0.151936711842
0.0132504268829
0.147385414346
0.0133583216918
0.142801127949
0.0134559771379
0.138187103322
0.0135440700494
0.133546368996
0.0136232499611
0.128881741874
0.0136941407997
0.124195834197
0.0137573407532
0.119491063472
0.0138134237621
0.114769659136
0.0138629393107
0.110033671987
0.0139064137311
0.105284980636
0.0139443499295
0.100525300522
0.013977228514
0.0957561902262
0.0140055074716
0.0909790601436
0.0140296231322
0.086195178728
0.0140499898113
0.0814056808782
0.0140670006214
0.0766115741715
0.0140810270945
0.0718137470136
0.0140924198479
0.067012974908
0.0141015081906
0.0622099284039
0.014108600639
0.0574051794266
0.0141139844919
0.0525992090169
0.0141179261569
0.0477924136512
0.0141206706252
0.0429851125394
0.014122441493
0.0381775533193
0.0141234401834
0.0333699173613
0.0141238455389
0.0285623211186
0.0141238130489
0.0237548109371
0.0141234757478
0.0189473422942
0.0141229508926
0.0141397467853
0.0141223241765
0.00933197684471
0.0141209829156
0.00453287174306
0.0140926168851
0.0133317522236
0.0131458919287
-0.0511182928373
0.0271308380732
-0.0543456704714
0.0410034132971
-0.0539280812315
0.0546862981111
-0.0532130815735
0.0681173362049
-0.0522637276182
0.0812402192879
-0.0510996553166
0.0940031961057
-0.0497373515547
0.106359771654
-0.048195934878
0.118269071552
-0.0464959593975
0.129696055581
-0.0446588601214
0.140611561502
-0.0427063615221
0.150992201982
-0.040659961797
0.160820141595
-0.0385404910744
0.170082777986
-0.03636775295
0.178772355092
-0.0341602489625
0.186885529375
-0.0319349839894
0.194422912367
-0.0297073442463
0.201388604263
-0.0274910402125
0.20778973546
-0.0252981026769
0.213636024071
-0.0231389229114
0.218939360224
-0.0210223252422
0.223713419542
-0.0189556644442
0.227973311951
-0.0169449381913
0.231735264135
-0.0149949094356
0.235016338765
-0.0131092314947
0.237834186296
-0.0112905731899
0.240206830777
-0.00954073906111
0.242152484171
-0.00786078399925
0.24368939004
-0.00625111894215
0.244835691144
-0.00471160825601
0.245609323015
-0.00324165611413
0.246027929859
-0.00184028227148
0.246108816372
-0.000506189357255
0.245868942871
0.000762154502424
0.245324374381
0.0019665452926
0.244491057934
0.00310874706125
0.24338438118
0.0041907510156
0.242019150082
0.00521460648926
0.240409615137
0.00618240951424
0.238569473445
0.00709628105314
0.236511872023
0.00795834770686
0.234249412018
0.00877072484746
0.231794157413
0.00953550395819
0.229157644453
0.010254741911
0.226350894488
0.0109304534167
0.223384426538
0.0115646045703
0.220268272399
0.0121591088443
0.217011990784
0.0127158235934
0.213624683387
0.0132365484846
0.210115009553
0.0137230240187
0.206491202457
0.0141769315896
0.202761083633
0.014599893322
0.198932078721
0.0149934731801
0.195011231442
0.0153591776202
0.191005218608
0.015698457298
0.186920363311
0.0160127082016
0.182762649035
0.0163032736562
0.178537731957
0.0165714456753
0.174250954111
0.0168184670639
0.169907354788
0.0170455328177
0.165511682766
0.017253792187
0.161068406852
0.0174443500151
0.156581727235
0.0176182686753
0.152055585259
0.017776569283
0.147493673972
0.0179202334546
0.142899447224
0.018050204358
0.138276129527
0.0181673882685
0.133626724563
0.0182726554437
0.128954024458
0.0183668414695
0.124260617812
0.0184507479605
0.119548898477
0.0185251437009
0.114821073209
0.0185907651808
0.110079170036
0.0186483175451
0.105325045622
0.018698474982
0.100560393313
0.0187418814971
0.0957867502823
0.0187791511739
0.0910055053248
0.0188108687919
0.0862179058561
0.0188375899792
0.0814250655089
0.0188598416931
0.0766279710394
0.0188781222839
0.0718274897738
0.0188929018528
0.067024376457
0.0189046222401
0.0622192805722
0.0189136972705
0.0574127531364
0.0189205126677
0.0526052538544
0.0189254261911
0.0477971577494
0.0189287674808
0.0429887619052
0.0189308381028
0.0381802914163
0.0189319114413
0.0333719047365
0.0189322330001
0.0285636972813
0.0189320212826
0.0237557031646
0.0189314706198
0.0189478958169
0.0189307589807
0.0141402108061
0.0189300099505
0.00933287696249
0.0189283175131
0.00453543389285
0.0188900606995
0.0178671864906
0.013377626608
-0.0644959219327
0.0276081111993
-0.0685761576972
0.0417184765277
-0.0680384491721
0.0556288386034
-0.0671234462337
0.0692735403142
-0.0659084318658
0.082593500086
-0.0644196175845
0.0955348098578
-0.0626786637673
0.108049469016
-0.0607105964295
0.120095714581
-0.058542207294
0.131638188653
-0.0562013364715
0.142647919991
-0.0537160950688
0.153102148441
-0.0511141924001
0.162984022136
-0.0484223668508
0.172282198156
-0.0456659309923
0.180990377233
-0.0428684299868
0.18910679866
-0.0400514073067
0.196633719115
-0.0372342665149
0.203576893282
-0.0344342161348
0.209945071559
-0.0316662826339
0.215749524561
-0.0289433775367
0.221003602421
-0.0262764046514
0.22572233227
-0.0236743957858
0.229922056729
-0.02114466407
0.233620112707
-0.0186929667798
0.236834550221
-0.0163236703019
0.239583888264
-0.0140399124754
0.241886905959
-0.0118437579278
0.243762465049
-0.00973634421145
0.245229361559
-0.00771801650568
0.246306202649
-0.00578845035216
0.247011306755
-0.00394676115754
0.247362624348
-0.00219160075771
0.24737768445
-0.000521250286598
0.247073536099
0.0010663020693
0.246466703448
0.00257337722512
0.245573143173
0.00400230666156
0.244408274481
0.00535561909529
0.242986947785
0.00663593261384
0.2413234395
0.00784591728892
0.23943145331
0.00898826677297
0.237324125873
0.0100656747329
0.235014034931
0.0110808154161
0.232513210269
0.0120363283043
0.229833146083
0.0129348058169
0.226984815219
0.0137787840563
0.223978683953
0.0145707356465
0.220824727888
0.0153130647725
0.217532447785
0.0160081035934
0.214110885987
0.0166581102298
0.210568642392
0.0172652675934
0.206913890678
0.0178316833306
0.203154393835
0.0183593902231
0.199297519752
0.0188503473661
0.195350255983
0.0193064415206
0.191319224434
0.0197294890226
0.187210695185
0.0201212376521
0.183030600196
0.0204833688884
0.17878454612
0.0208175000182
0.174477827001
0.0211251864887
0.170115436107
0.0214079240389
0.165702077663
0.0216671509948
0.161242177769
0.0219042502936
0.156739895245
0.0221205516171
0.152199131734
0.0223173332305
0.14762354176
0.0224958238969
0.143016542115
0.0226572044885
0.138381321242
0.0228026096553
0.133720848022
0.0229331291942
0.129037880583
0.0230498094654
0.124334974594
0.0231536545223
0.119614491608
0.0232456272848
0.114878606956
0.0233266504439
0.110129317726
0.0233976074103
0.105368450341
0.0234593430146
0.100597668252
0.023512664254
0.0958184792906
0.0235583408149
0.0910322431377
0.0235971056421
0.0862401785128
0.0236296553101
0.0814433704883
0.0236566504378
0.0766427775581
0.0236787159397
0.0718392388368
0.0236964413095
0.0670334810503
0.0237103807643
0.0622261256344
0.0237210534298
0.0574176956441
0.0237289434019
0.0526086227265
0.0237344998586
0.0477992538694
0.0237381370913
0.0429898580985
0.0237402346374
0.0381806328368
0.023741137476
0.033371710036
0.0237411565786
0.0285631620439
0.0237405700503
0.023755008086
0.0237396253511
0.0189472237327
0.0237385440724
0.0141397748933
0.023737459513
0.00933292703437
0.0237351661511
0.00453622918871
0.0236867593113
0.0224034160329
0.013672011354
-0.0781679357686
0.0282183036
-0.0831224525561
0.0426336610624
-0.0824538092411
0.056834924172
-0.0813247119132
0.0707520958172
-0.0798256060386
0.0843226642093
-0.0779901884588
0.0974900312407
-0.0758460332294
0.110204333895
-0.0734249014626
0.122422751362
-0.0707606270816
0.134109616923
-0.0678882042969
0.14523631512
-0.0648427954647
0.155781004889
-0.0616588843082
0.165728206969
-0.0583695710023
0.175068294473
-0.0550060205056
0.183796922835
-0.0515970602884
0.191914430166
-0.0481689165144
0.199425233903
-0.0447450720591
0.206337243424
-0.041346227399
0.212661303426
-0.0379903443112
0.218410677624
-0.0346927533477
0.223600578848
-0.0314663074193
0.228247747941
-0.0283215663623
0.232370081973
-0.0252669995194
0.23598630997
-0.0223091961342
0.239115713722
-0.0194530753458
0.241777889941
-0.0167020899292
0.243992550203
-0.0140584193617
0.245779354432
-0.0115231495548
0.247157774328
-0.00909643745547
0.248146982867
-0.00677765988994
0.248765766616
-0.00456554584559
0.249032457522
-0.00245829254814
0.248964881355
-0.000453674948217
0.248580286128
0.00145089651982
0.247895373349
0.00325828928599
0.246926251331
0.00497142801347
0.245688430589
0.0065934392252
0.244196815191
0.0081275474501
0.24246570637
0.00957702560147
0.240508808874
0.0109451638075
0.23833924084
0.0122352423573
0.235969545918
0.0134505099737
0.23341170739
0.0145941665171
0.230677163526
0.0156693494107
0.227776824019
0.0166791233401
0.224721086912
0.0176264725725
0.221519855964
0.018514295585
0.218182557988
0.0193454014742
0.214718160217
0.0201225079496
0.21113518731
0.0208482404878
0.207441738131
0.0215251325382
0.20364550198
0.0221556264389
0.199753774451
0.0227420749988
0.19577347264
0.0232867434705
0.191711149932
0.0237918119065
0.187573010088
0.0242593777043
0.183364920898
0.0246914583205
0.179092427167
0.0250899940226
0.174760763258
0.025456850703
0.170374865023
0.025793822607
0.165939381332
0.0261026350498
0.161458685032
0.0263849469833
0.156936883566
0.0266423535002
0.152377829084
0.0268763881538
0.147785128263
0.027088525186
0.143162151684
0.0272801815563
0.138512042986
0.027452718867
0.133837727627
0.027607445087
0.129141921478
0.0277456161711
0.124427139091
0.0278684374854
0.119695701838
0.0279770651341
0.11494974579
0.0280726071063
0.110191229501
0.0281561243334
0.105421941579
0.0282286315859
0.100643508213
0.0282910982876
0.0958574005097
0.0283444491998
0.0910649418228
0.0283895650252
0.0862673149401
0.0284272829005
0.0814655692623
0.0284583968346
0.0766606278865
0.0284836580426
0.071853294687
0.0285037752432
0.0670442613188
0.0285194148711
0.0622341142243
0.0285312012665
0.0574233415672
0.0285397168035
0.0526123401552
0.0285455020191
0.0478014222756
0.0285490557249
0.0429908224959
0.0285508351802
0.0381807043838
0.0285512563595
0.0333711672914
0.0285506944512
0.0285622534438
0.0285494846783
0.0237539561485
0.0285479233978
0.0189462306178
0.0285462703434
0.0141390246456
0.0285446662526
0.0093325591355
0.0285416324091
0.00453630757442
0.0284830116108
0.0269397239817
0.0140346681736
-0.092202606413
0.02897127869
-0.0980590656858
0.0437631550976
-0.0972456882407
0.0583227699138
-0.0958843292892
0.0725746557987
-0.0940774944386
0.086452064705
-0.091867599834
0.0998951260273
-0.0892890969702
0.112851771126
-0.0863815489265
0.125278005761
-0.0831868640244
0.137137943584
-0.0797481443687
0.14840358622
-0.0761084402881
0.159054407805
-0.0723097080172
0.169076795026
-0.0683919602837
0.178463392444
-0.0643926199184
0.187212397092
-0.0603460668653
0.195326838799
-0.0562833600846
0.202813874861
-0.052232109919
0.209684119878
-0.0482164741479
0.21595102487
-0.0442572509703
0.221630313949
-0.040372044028
0.22673948237
-0.0365754773783
0.231297356227
-0.032879441694
0.235323711744
-0.0292933564473
0.23883895033
-0.0258244360698
0.241863824755
-0.0224779510587
0.244419211175
-0.0192574775778
0.246525921799
-0.0161651311533
0.248204552982
-0.0132017818474
0.249475364032
-0.0103672495557
0.250358182245
-0.0076604790974
0.250872330245
-0.00507969478092
0.251036571707
-0.00262253489035
0.250869069007
-0.000286173073655
0.250387299114
0.00193266564198
0.249608196481
0.00403739120488
0.248548006559
0.00603161727457
0.247222331397
0.00791911377959
0.245646126684
0.00970375160747
0.243833712328
0.011389439453
0.241798784656
0.0129800910249
0.239554431353
0.0144795952542
0.237113148088
0.0158917928808
0.234486856396
0.0172204578992
0.23168692232
0.018469283222
0.228724175525
0.0196418699158
0.225608928532
0.0207417193899
0.222350995915
0.0217722280708
0.218959713216
0.0227366840836
0.215443955513
0.023638265605
0.211812155467
0.0244800405261
0.208072320844
0.0252649671926
0.204232051401
0.0259958959519
0.200298555156
0.0266755713514
0.196278663982
0.0273066347877
0.192178848569
0.0278916274976
0.188005232712
0.0284329937732
0.183763606988
0.02893308429
0.179459441796
0.0293941594906
0.175097899841
0.0298183929659
0.170683848025
0.0302078747593
0.166221868852
0.0305646145891
0.161716271301
0.030890544926
0.157171101285
0.0311875239356
0.152590151644
0.0314573382387
0.147976971788
0.0317017055106
0.143334876954
0.0319222768811
0.13866695717
0.0321206391652
0.1339760859
0.0322983168933
0.129264928453
0.0324567741751
0.124535950144
0.0325974163717
0.119791424262
0.0327215916133
0.115033439849
0.0328305921347
0.110263909331
0.0329256554854
0.105484576005
0.033007965562
0.100697021425
0.0330786535352
0.0959026726746
0.033138798632
0.0911028095782
0.0331894288175
0.0862985718259
0.0332315213606
0.081490966063
0.033266003316
0.0766808729209
0.0332937519116
0.0718690540268
0.0333155948709
0.0670561589737
0.0333323106624
0.0622427322774
0.0333446287044
0.0574292203026
0.0333532295222
0.0526159781811
0.0333587448885
0.0478032767049
0.0333617579541
0.0429913092343
0.0333628034126
0.0381801986445
0.0333623677219
0.0333700044393
0.0333608894319
0.0285607302668
0.0333587596242
0.0237523323103
0.0333563221286
0.0189447289889
0.0333538744018
0.0141378273148
0.0333515686422
0.00933178547462
0.0333476750277
0.00453602284629
0.033278775004
0.0314757471777
0.0144718385062
-0.106674447383
0.0298794545178
-0.113466684287
0.0451250697358
-0.112491306043
0.0601155448956
-0.110874806995
0.0747685968791
-0.108730548926
0.0890123054919
-0.106111310903
0.10278289545
-0.103059689333
0.116025769957
-0.0996244257848
0.128695719513
-0.0958568158736
0.140756838104
-0.0918092651946
0.152182138704
-0.0875337430611
0.162952949156
-0.0830805205789
0.173058156807
-0.0784971699799
0.182493365637
-0.0738278307298
0.191260019539
-0.0691127226824
0.199364534167
-0.0643878765633
0.206817468632
-0.059685046169
0.213632758132
-0.0550317653679
0.219827020095
-0.0504515145889
0.225418939568
-0.0459639650935
0.23042873449
-0.0415852738279
0.234877697891
-0.0373284065608
0.238787811719
-0.0332034716788
0.242181425641
-0.0292180513333
0.245080993597
-0.025377520297
0.247508860803
-0.0216853460056
0.249487094194
-0.0181433657065
0.251037349843
-0.0147520386002
0.252180771526
-0.0115106722851
0.252937915249
-0.00841762380897
0.25332869544
-0.00547047590397
0.253372349237
-0.002666189562
0.253087407556
-1.23221344375e-06
0.252491585317
0.00252848711536
0.2516020603
0.00492691551133
0.250435217237
0.00719845968301
0.249006745187
0.00934758522741
0.247331642669
0.0113788535757
0.245424236169
0.0132968454543
0.243298198974
0.0151061277703
0.240966571909
0.016811221919
0.238441784964
0.0184165794742
0.235735679425
0.0199265631325
0.232859530129
0.0213454322592
0.229824067566
0.0226773322652
0.226639499625
0.0239262871603
0.223315532836
0.0250961947339
0.219861392963
0.0261908238715
0.216285844917
0.0272138136079
0.212597211881
0.028168673559
0.208803393663
0.0290587854464
0.204911884231
0.0298874054574
0.200929788454
0.0306576672394
0.196863838041
0.0313725853477
0.192720406713
0.0320350590073
0.188505524638
0.0326478760633
0.184224892148
0.0332137170287
0.179883892776
0.0337351591418
0.175487605674
0.0342146803779
0.171040817416
0.0346546633566
0.166548033261
0.0350573991121
0.16201348789
0.0354250906912
0.157441155684
0.0357598565623
0.152834760553
0.0360637338156
0.148197785384
0.0363386811498
0.143533481122
0.0365865816362
0.13884487554
0.0368092452634
0.134134781708
0.0370084112624
0.129405806222
0.0371857502187
0.1246603572
0.0373428659719
0.119900652078
0.0374812973328
0.115128725239
0.03760251959
0.110346435502
0.0377079458563
0.105555473474
0.0377989282411
0.100757368807
0.03787675887
0.0959534973598
0.037942670761
0.0911450883017
0.0379978385711
0.0863332311467
0.0380433792234
0.0815188827531
0.0380803524275
0.0767028742862
0.0381097611052
0.071885918158
0.0381325517319
0.0670686149503
0.0381496146077
0.0622514603272
0.0381617840681
0.0574348519428
0.0381698386499
0.0526190963552
0.0381745012225
0.0478044159493
0.0381764391122
0.0429909559047
0.0381762642181
0.0381787912413
0.0381745331546
0.0333679340362
0.0381717474152
0.0285583409377
0.0381683535015
0.0237499211788
0.0381647426337
0.0189425450871
0.0381612512314
0.0141360677888
0.0381580467102
0.00933058111775
0.03815316244
0.00453546836253
0.0380738884905
0.0360112159143
0.0149910519557
-0.121665501791
0.0309583627468
-0.129433997671
0.0467421739285
-0.128275119794
0.0622423227409
-0.126374958343
0.077368132374
-0.123856361049
0.092041447846
-0.120784628817
0.106193919294
-0.117212163172
0.119768145761
-0.113198654587
0.132717772531
-0.108806444923
0.14500723063
-0.104098725513
0.156611120309
-0.0991376348972
0.167513351012
-0.0939827533751
0.177706128954
-0.0886899499533
0.18718887344
-0.08331057718
0.19596712681
-0.0778909779544
0.204051506507
-0.0724722580953
0.211456732281
-0.0670902737151
0.218200748506
-0.0617757832999
0.22430395098
-0.0565547187061
0.229788519771
-0.0514485354641
0.234677854138
-0.0464746097135
0.238996102043
-0.0416466559214
0.24276777478
-0.03697514581
0.246017436456
-0.0324677143427
0.248769458019
-0.0281295431348
0.25104782606
-0.0239637152614
0.252875997425
-0.0199715382276
0.2542767917
-0.0161528339725
0.255272314621
-0.0125061962466
0.255883906365
-0.00902921653749
0.256132110391
-0.00571868085704
0.256036662021
-0.00257074206148
0.255616480547
0.000418948445431
0.254889520503
0.00325544639961
0.253873198691
0.00594323661846
0.252584029039
0.00848762868627
0.251037773381
0.0108938402886
0.249249456675
0.0131671697382
0.247233393204
0.015312908433
0.245003212832
0.0173363076993
0.242571888121
0.0192425462361
0.239951761442
0.0210367058065
0.237154571737
0.0227237525384
0.234191480645
0.024308523098
0.231073097832
0.025795714869
0.227809505398
0.0271898794297
0.224410281279
0.0284954187316
0.220884521612
0.0297165834589
0.21724086204
0.0308574731422
0.213487497949
0.0319220376507
0.209632203676
0.0329140797605
0.20568235068
0.0338372585313
0.201644924752
0.0346950932823
0.197526542272
0.0354909679781
0.193333465582
0.0362281358835
0.189071617507
0.0369097243567
0.1847465951
0.0375387396881
0.180363682626
0.0381180718984
0.17592786388
0.0386504994365
0.171443833856
0.039138693723
0.166916009832
0.0395852235059
0.162348541927
0.0399925589936
0.157745323159
0.0403630757531
0.15310999907
0.0406990583519
0.148445976947
0.0410027037449
0.143756434683
0.0412761243951
0.139044329324
0.0415213511387
0.134312405335
0.0417403357905
0.129563202607
0.0419349535054
0.12479906426
0.0421070048974
0.120022144257
0.0422582179348
0.115234414847
0.0423902496163
0.11043767389
0.0425046874483
0.105633552052
0.0426030507298
0.100823519923
0.0426867916664
0.0960088950467
0.0427572963195
0.0911908489008
0.0428158854125
0.0863704138308
0.0428638150006
0.0815484899508
0.0429022770251
0.0767258520236
0.0429323997582
0.0719031563291
0.0429552481587
0.067080947528
0.0429718241454
0.0622596655292
0.0429830668067
0.0574396523668
0.0429898525542
0.0526211590964
0.0429929952387
0.0478043527239
0.0429932462354
0.0429893231866
0.0429912945147
0.0381760904146
0.0429877666967
0.0333646115183
0.0429832270836
0.0285547881697
0.0429781776196
0.0237464742374
0.0429730573398
0.0189394833769
0.042968242826
0.0141336117373
0.0429639190569
0.00932888264197
0.0429578923122
0.00453464883669
0.0428681230586
0.0405458650963
0.0156015833791
-0.137267087617
0.0322273244505
-0.146059741311
0.0486428066345
-0.144690604542
0.0647391949954
-0.142471349227
0.0804155528889
-0.139532721421
0.0955862922668
-0.135955370624
0.110177799654
-0.131803672936
0.124129682038
-0.127150539292
0.137394678213
-0.122071443361
0.149938133953
-0.116642183455
0.161737059055
-0.11093656214
0.172778921565
-0.105024617962
0.183060299621
-0.0989713300223
0.192585493017
-0.0928357725251
0.201365171587
-0.0866706584088
0.209415113983
-0.0805222023115
0.216755069763
-0.074430231251
0.223407761068
-0.0684284762992
0.229398027663
-0.0625449869302
0.234752110364
-0.0568026197335
0.2394970624
-0.0512195632552
0.24366027511
-0.0458098700767
0.247269103233
-0.040583975317
0.250350575022
-0.0355491874571
0.252931173308
-0.0307101426866
0.255036674893
-0.026069218053
0.256692037203
-0.0216269016865
0.25792132268
-0.0173821205412
0.258747652829
-0.0133325274305
0.259193184669
-0.00947474935549
0.259279104737
-0.00580460184674
0.25902564859
-0.00231728677828
0.25845212952
0.000992466706229
0.25757676282
0.00413081234566
0.256417142874
0.00710285586671
0.254989901094
0.00991486982332
0.253310849156
0.0125728916369
0.251395014365
0.0150830039923
0.249256672757
0.0174512495546
0.246909384018
0.0196835960012
0.244366025576
0.0217859042909
0.241638825618
0.0237639054241
0.23873939476
0.0256231831036
0.235678756236
0.0273691613746
0.23246737458
0.0290070963221
0.229115182768
0.0305420710835
0.225631607841
0.0319789935426
0.222025595051
0.0333225961744
0.218305630569
0.0345774375905
0.214479762819
0.0357479054077
0.210555622503
0.0368382201214
0.206540441394
0.0378524397229
0.202441069959
0.0387944648364
0.198263993894
0.039668044198
0.194015349642
0.0404767803252
0.189700938965
0.0412241352564
0.185326242647
0.0419134362609
0.180896433388
0.0425478814435
0.176416387962
0.0431305451786