/*--------------------------------*- C++ -*----------------------------------*\
| =========                 |                                                 |
| \\      /  F ield         | OpenFOAM: The Open Source CFD Toolbox           |
|  \\    /   O peration     | Version:  v1906                                 |
|   \\  /    A nd           | Web:      www.OpenFOAM.com                      |
|    \\/     M anipulation  |                                                 |
\*---------------------------------------------------------------------------*/
FoamFile
{
    version     2.0;
    format      ascii;
    class       volScalarField;
    location    "71";
    object      p;
}
// * * * * * * * * * * * * * * * * * * * * * * * * * * * * * * * * * * * * * //

dimensions      [0 2 -2 0 0 0 0];


internalField   nonuniform List<scalar> 
9216
(
307.957898002
308.043530242
308.220934847
308.491559578
308.854094121
309.306843198
309.84805831
310.47521957
311.186000224
311.977336683
312.846408609
313.789582504
314.803699559
315.884913688
317.029948586
318.234636641
319.495696005
320.808912959
322.170929671
323.57729718
325.024686183
326.508618589
328.025850943
329.571967174
331.143852989
332.737088512
334.348365789
335.973082427
337.608729577
339.251057418
340.897089434
342.541486967
344.181301261
345.813164564
347.434451919
349.040239121
350.627837654
352.192826734
353.732719692
355.243392333
356.722548331
358.166088325
359.572068753
360.937158377
362.259738272
363.536696099
364.766996265
365.948278054
367.080045228
368.160631946
369.19026409
370.167963946
371.094658642
371.970185232
372.796089597
373.57287238
374.302621115
374.986447122
375.626814299
376.225057012
376.783935473
377.305067073
377.791221239
378.244052208
378.666202852
379.059006305
379.424839507
379.76532336
380.082778657
380.378459666
380.654441374
380.911704473
381.151949962
381.375996305
381.585296422
381.780385844
381.962461046
382.131931528
382.289821079
382.436487921
382.572751724
382.698828268
382.815430672
382.922697841
383.021251462
383.111210857
383.193386931
383.268738619
383.336808079
383.393102674
383.434155798
383.461977837
383.480372473
383.49158712
383.497561483
383.499717953
307.872653669
307.958645453
308.136317424
308.407926688
308.771859646
309.226432078
309.769710133
310.399246954
311.112559797
311.906709669
312.778668455
313.725002476
314.742376763
315.827134224
316.975550456
318.183684542
319.448071609
320.76486913
322.130419053
323.540454606
324.991340243
326.478891517
327.99947427
329.549123377
331.124335495
332.721052546
334.335724635
335.96408058
337.602953745
339.248701479
340.897581333
342.545412258
344.188884509
345.824303093
347.448556345
349.057551851
350.648095083
352.216296369
353.759122102
355.272836025
356.754440541
358.200653961
359.609004177
360.976461245
362.300957869
363.579730701
364.811267283
365.993813667
367.126258823
368.207451746
369.237149262
370.214791935
371.140876752
372.015726279
372.840457624
373.616035698
374.344217099
375.026482693
375.664854387
376.261187417
376.817973114
377.337174802
377.821234031
378.272133414
378.692355268
379.083512601
379.447559081
379.786465911
380.102254826
380.396557109
380.671180625
380.927330681
381.166418722
381.38955058
381.597942487
381.792310414
381.973625877
382.142480782
382.299722485
382.445907718
382.581607857
382.70725299
382.823392768
382.930249052
383.028307491
383.117801632
383.199224034
383.273057787
383.339866951
383.396324023
383.437661358
383.465140195
383.483107831
383.494092895
383.499655165
383.50182198
307.695288639
307.782451931
307.961624163
308.235506579
308.602418766
309.060678156
309.608258985
310.242706735
310.961368258
311.761342179
312.639437448
313.592233804
314.616288465
315.707904589
316.863376642
318.078810424
319.350527363
320.674606962
322.047222321
323.464469025
324.922486557
326.417300507
327.945101084
329.501998456
331.08428941
332.688192276
334.309792654
335.945012634
337.590763049
339.243336794
340.898937262
342.553683786
344.204031813
345.846536747
347.477434238
349.0929741
350.689931192
352.264508685
353.813321124
355.332947009
356.820212723
358.271955677
359.685316614
361.057416264
362.385819032
363.668108619
364.902741546
366.087780689
367.221738537
368.303962194
369.334000078
370.31122424
371.23614416
372.109401165
372.93185029
373.704712546
374.429649265
375.108369957
375.742906061
376.335323108
376.887971169
377.403061378
377.882979096
378.329962899
378.746255353
379.133630732
379.494027352
379.82952256
380.14209007
380.433417979
380.705334277
380.959128869
381.19591886
381.417146512
381.623863581
381.816692028
381.996538957
382.164106424
382.32001283
382.465141633
382.599973963
382.724754222
382.840014821
382.94596847
383.043006745
383.131616384
383.211768691
383.283562271
383.348175536
383.40417717
383.445094457
383.471183426
383.488507332
383.499404761
383.505208552
383.508002243
307.422636462
307.511069747
307.692586777
307.970015057
308.341601399
308.805605644
309.359872539
310.001883969
310.728875591
311.537804818
312.425430947
313.388256217
314.422692048
315.524969091
316.691228856
317.917653669
319.200466676
320.535723656
321.919508625
323.347912336
324.817025584
326.322986786
327.861854108
329.429759199
331.022916099
332.637363039
334.269456506
335.915375837
337.571699155
339.234963608
340.901111238
342.56634214
344.227282919
345.880192969
347.521394948
349.147282669
350.754368291
352.338760183
353.896911325
355.425684564
356.921729813
358.381988042
359.803081855
361.181819377
362.516408544
363.804195283
365.043165812
366.231739879
367.368380378
368.452224503
369.482666643
370.459470428
371.383045188
372.25379665
373.072687046
373.841237644
374.561185758
375.23440306
375.863004214
376.449202951
376.995442124
377.504081692
377.977574611
378.418306944
378.82847597
379.209954198
379.564694389
379.894946464
380.202642597
380.489601037
380.757493439
381.007535172
381.241093577
381.459404486
381.663322691
381.853695627
382.031350971
382.196980604
382.351253028
382.494772276
382.627935995
382.751168153
382.865002749
382.969515254
383.065322175
383.152677022
383.230839348
383.301051727
383.363914722
383.417058161
383.455672238
383.481585456
383.498790165
383.510015544
383.516059289
383.519182075
307.053653533
307.143704058
307.328444756
307.61073033
307.988723353
308.460570681
309.024031449
309.676411098
310.414750291
311.23594136
312.136564207
313.113019025
314.161516978
315.27816745
316.459117141
317.700489359
318.998331044
320.348664046
321.747509413
323.190990574
324.675077703
326.195867595
327.749663935
329.332333853
330.939934644
332.568682006
334.215101111
335.875462468
337.546079756
339.22354332
340.903983775
342.583594207
344.258856878
345.925854486
347.580897046
349.220587567
350.841123601
352.438902148
354.010032604
355.551300987
357.059065384
358.530035067
359.961315745
361.349697151
362.69293036
363.988291666
365.233864288
366.427442251
367.567617522
368.653656152
369.684757867
370.660810665
371.582105669
372.44942963
373.263611748
374.026119851
374.739185248
375.404809356
376.02526043
376.602860453
377.140319334
377.64008613
378.104819043
378.537179105
378.938897639
379.311984089
379.658933721
379.98214388
380.28327388
380.564372734
380.827030056
381.072306229
381.301415541
381.515634863
381.715936623
381.903121421
382.077871532
382.240810071
382.392666639
382.533882052
382.664911249
382.786427381
382.898523914
383.001295894
383.095361924
383.180723902
383.25718755
383.32557658
383.386233064
383.435576067
383.471890149
383.497701912
383.515204952
383.527115202
383.533317537
383.536547315
306.586564931
306.678668572
306.867559931
307.156109013
307.54235404
308.024292645
308.599507634
309.26519229
310.018131829
310.854987731
311.772204102
312.765986486
313.832351858
314.967294903
316.166925947
317.427188226
318.744033583
320.113428865
321.53126169
322.993574898
324.496521923
326.036144202
327.60864617
329.209734319
330.83529446
332.482187185
334.146753684
335.825163417
337.513956523
339.209473595
340.908002865
342.605512089
344.298391982
345.983130405
347.655958587
349.313252102
350.950885853
352.565386473
354.152628498
355.709222741
357.231895453
358.717072129
360.161805864
361.562892664
362.917222278
364.222134099
365.475726607
366.67573477
367.820874471
368.909687476
369.941515708
370.916522481
371.834839856
372.697518039
373.50537121
374.260140008
374.964317643
375.620151361
376.229976209
376.796353948
377.322416673
377.810899957
378.264631382
378.685508909
379.075244806
379.43743046
379.775069772
380.089620208
380.382599281
380.656610177
380.912918656
381.152101517
381.375628799
381.585125852
381.781209001
381.964487387
382.135521057
382.295242784
382.444261594
382.582748191
382.711319752
382.830495224
382.940144682
383.040721649
383.132673082
383.215832811
383.290491338
383.356907244
383.414696033
383.460625946
383.495481039
383.521201161
383.539096063
383.550943063
383.55822274
383.56145786
306.019128267
306.113782803
306.307835194
306.604166263
307.000657586
307.495098153
308.084872197
308.766949031
309.537869971
310.394019684
311.33162624
312.346562542
313.434737876
314.592078191
315.814428966
317.097630963
318.437527426
319.829901803
321.270668418
322.755905676
324.281632037
325.84395372
327.438787865
329.061847249
330.709279363
332.377988215
334.064443318
335.764812849
337.475420265
339.192722948
340.912786563
342.631798498
344.346342355
346.052583841
347.746869077
349.425241674
351.083503173
352.717984317
354.324705794
355.900419864
357.441637768
358.944730344
360.405962515
361.822012755
363.190058094
364.5072586
365.770878108
366.978715252
368.12949747
369.221771625
370.254900184
371.228479577
372.142854457
372.999534985
373.799318904
374.544459209
375.237260158
375.880515783
376.476960418
377.029393228
377.54182159
378.015274597
378.452901502
378.858462091
379.234501203
379.584664117
379.911217217
380.215173192
380.498697121
380.76450045
381.013345021
381.245544128
381.462968168
381.666712891
381.857783346
382.036795041
382.203862272
382.359701357
382.505259422
382.640643956
382.766273878
382.882721297
382.989778329
383.087925664
383.177504014
383.258603934
383.331152369
383.394645616
383.449001013
383.492958445
383.527228255
383.553041547
383.571336516
383.582387523
383.590641509
383.594017706
305.348608739
305.446347993
305.646665445
305.95243938
306.361329451
306.870934231
307.478296935
308.180127088
308.972650509
309.851953502
310.813881736
311.854095345
312.96829314
314.152164239
315.401396286
316.711713042
318.07870773
319.498136345
320.965945349
322.478064325
324.030499336
325.619339438
327.23997688
328.888620578
330.562025763
332.256464623
333.968557664
335.694564666
337.430567176
339.172990764
340.918373585
342.662881233
344.402869745
346.134260836
347.853397967
349.556387796
351.238895428
352.897029887
354.527295373
356.126319831
357.689595821
359.213409031
360.694435814
362.129148094
363.51365202
364.84498666
366.120754759
367.338535085
368.496430388
369.592768529
370.62689684
371.598426153
372.508144087
373.357057104
374.146857419
374.879755191
375.558490644
376.186681224
376.76741085
377.301816919
377.793777534
378.247030925
378.666712394
379.05571455
379.416726433
379.752276443
380.065725806
380.358003887
380.630918652
380.887358344
381.127384664
381.351556421
381.562193917
381.759903415
381.945443859
382.119212004
382.281551717
382.433464953
382.575413142
382.707065497
382.8295402
382.942919034
383.047262539
383.142950645
383.230121551
383.308862063
383.378557697
383.439440092
383.491647286
383.534282445
383.567604856
383.592939632
383.611862562
383.622720665
383.630777223
383.63436282
304.571642158
304.67307379
304.880896697
305.197975652
305.621678259
306.149322016
306.777613686
307.502864247
308.320916072
309.227470129
310.218028357
311.287882357
312.432499529
313.64728982
314.927675065
316.26927014
317.667607697
319.118321638
320.617232126
322.160247681
323.743412119
325.362151468
327.012403827
328.690737509
330.393641566
332.117631582
333.859097278
335.614127643
337.379090041
339.150655908
340.925137328
342.698813417
344.467653235
346.227914982
347.97580123
349.70699986
351.417433183
353.10342844
354.76149166
356.387157513
357.976155991
359.52490836
361.029428532
362.485516622
363.889390939
365.238146311
366.528655638
367.757943097
368.92379293
370.024954053
371.060192083
372.029229762
372.932955974
373.772498546
374.55006966
375.268041141
375.930028543
376.54040539
377.097895618
377.606913661
378.075496745
378.507598021
378.907014693
379.276845896
379.619776844
379.939239478
380.238306167
380.516732402
380.77784903
381.023574244
381.253761008
381.469435808
381.672532156
381.863505924
382.042862677
382.211143984
382.36876686
382.516286507
382.653722491
382.78186974
382.900922896
383.011159685
383.112536708
383.205498885
383.289949134
383.365989641
383.433498852
383.492619903
383.542783343
383.583977601
383.616676773
383.641444548
383.659907885
383.67257793
383.679476025
383.683363049
303.684204275
303.790022473
304.006754814
304.337231288
304.778488278
305.327416963
305.980327053
306.733044
307.58092901
308.519179083
309.542960831
310.647140889
311.826744314
313.076991374
314.393126026
315.770467516
317.204443042
318.690620902
320.224731039
321.802681743
323.420200924
325.072811269
326.756525916
328.468266868
330.204537614
331.961703568
333.735920705
335.523587291
337.321370168
339.125714405
340.93303046
342.739282491
344.540775422
346.333721213
348.113859735
349.877142293
351.619943224
353.338018561
355.027285956
356.68383233
358.303220557
359.880600737
361.411818859
362.893069483
364.320366817
365.689274125
366.996557678
368.239619545
369.415251207
370.521940043
371.558198661
372.52424848
373.420442343
374.248831776
375.011342687
375.711629408
376.35350542
376.936244282
377.463564851
377.946156741
378.388866934
378.795969591
379.171629294
379.519096338
379.841861404
380.143392379
380.425188275
380.689420324
380.937554039
381.171230818
381.390745289
381.597294252
381.792295386
381.976254885
382.149120743
382.311578484
382.464018205
382.606708223
382.739840982
382.86413195
382.979735936
383.086863595
383.185201291
383.275417997
383.357051989
383.43067966
383.496122966
383.55297106
383.601309847
383.641665607
383.67427133
383.699234676
383.717244712
383.731221262
383.737908532
383.741475348
302.681532676
302.792521722
303.019782882
303.36605658
303.827961934
304.401882507
305.083580998
305.868293976
306.750810481
307.725654615
308.787541355
309.930982533
311.1505668
312.441102974
313.797654301
315.215310556
316.689361367
318.215280871
319.78873531
321.405621482
323.061211163
324.751382692
326.472697737
328.221650766
329.994909715
331.788592162
333.599139397
335.423275334
337.257409659
339.098168581
340.941702753
342.784287462
344.62222076
346.451299171
348.26753516
350.067349207
351.846491268
353.600611172
355.325937509
357.017941932
358.671300314
360.281402735
361.844108641
363.354755943
364.808498658
366.200823056
367.528498798
368.787459594
369.974482568
371.087657275
372.125228715
373.087394715
373.974580306
374.789332528
375.534250691
376.212355971
376.822775201
377.370489256
377.866970238
378.319257767
378.731350227
379.108907786
379.457064767
379.780129427
380.081147565
380.36175545
380.625606179
380.873712498
381.107684408
381.328279517
381.536234402
381.733652142
381.921030017
382.097107078
382.262676413
382.418940651
382.565987642
382.703636854
382.832902361
382.95381678
383.065783579
383.169280657
383.264858023
383.352107432
383.431339202
383.502680253
383.565968572
383.620760865
383.667490007
383.707137605
383.739362201
383.764662294
383.783486154
383.796917031
383.804928126
383.807689099
301.557870541
301.675061579
301.91476166
302.279614519
302.765758378
303.368920211
304.08415631
304.905969211
305.828428424
306.845388121
307.950845487
309.138797616
310.403517105
311.739475989
313.141346761
314.604033602
316.122687865
317.692694611
319.309689288
320.969290502
322.666980588
324.398599856
326.161140366
327.951116126
329.764729242
331.598476708
333.44914877
335.313312314
337.187233532
339.067563299
340.951090909
342.833732235
344.711486751
346.580482769
348.437238553
350.277600597
352.097283843
353.892325954
355.658219548
357.389697531
359.081662817
360.729856121
362.328294017
363.872105908
365.35683374
366.776793526
368.12784224
369.405415729
370.606216919
371.726966445
372.766257446
373.723414137
374.599817298
375.39822863
376.120805837
376.76439907
377.336860045
377.848551198
378.309154614
378.724167471
379.099680952
379.444472369
379.762986449
380.05838244
380.333109302
380.59196023
380.836161496
381.06720004
381.285706685
381.492498169
381.690062364
381.878622962
382.056200822
382.223462962
382.382374839
382.532771573
382.674627678
382.80796058
382.933202702
383.04960963
383.158086137
383.258525123
383.351029876
383.435735899
383.512493262
383.581556014
383.642515028
383.695302912
383.740926174
383.779802554
383.811401619
383.836411988
383.855718773
383.869159213
383.877519238
383.880463859
300.306464677
300.431018418
300.685435409
301.072255758
301.586870024
302.224224421
302.978474457
303.84320406
304.81158742
305.876663267
307.031700185
308.27005291
309.585494021
310.972191114
312.424477628
313.937051692
315.504937676
317.123467198
318.788269589
320.494291592
322.237695084
324.014990924
325.822577203
327.65684591
329.514288107
331.391809953
333.286041594
335.19332646
337.110382335
339.03425227
340.961140591
342.887050675
344.808282314
346.72152219
348.622725917
350.507816977
352.373106988
354.213339031
356.023872964
357.799924106
359.536162706
361.22678488
362.865842616
364.448480708
365.968522935
367.42036599
368.798715994
370.098713352
371.315785672
372.44608614
373.487053528
374.438511738
375.301583862
376.079920127
376.767134925
377.369923346
377.902439798
378.371038367
378.787196314
379.158471573
379.493334513
379.80044178
380.083530507
380.346266802
380.594912404
380.830044613
381.053822862
381.266494667
381.468830238
381.663644678
381.850950829
382.028162368
382.195716361
382.355899394
382.508339678
382.652902463
382.78952998
382.918191706
383.039008761
383.151807965
383.256743587
383.353968499
383.443526268
383.525642382
383.599959921
383.666509636
383.725543156
383.776894729
383.821421426
383.858910519
383.88975472
383.914314227
383.933152871
383.946985621
383.954875659
383.958733749
298.919465748
299.052652263
299.324590984
299.737453428
300.285577005
300.962961203
301.762611734
302.676958043
303.698060899
304.817993779
306.029173879
307.324248683
308.696441496
310.139532918
311.647548965
313.21499906
314.836804938
316.508143915
318.224640585
319.981601534
321.774653715
323.600993925
325.457132545
327.339311367
329.244162225
331.168815102
333.10964118
335.063336358
337.027204961
338.997710996
340.971141065
342.943824182
344.912694175
346.873970458
348.82360917
350.758312371
352.673023021
354.56307824
356.424188919
358.250018595
360.035083715
361.774046594
363.45970536
365.086008867
366.647050584
368.135998939
369.546528728
370.873248506
372.110355616
373.252441533
374.295531375
375.240552859
376.086641067
376.829939387
377.474928988
378.035170349
378.518354363
378.93464578
379.29848704
379.619767162
379.90523373
380.167940644
380.411550794
380.641486432
380.862223356
381.072393433
381.274455663
381.468186686
381.656627208
381.839833493
382.014240162
382.180199307
382.340027318
382.493142575
382.639260184
382.778163597
382.909690665
383.033747769
383.150358562
383.259397092
383.360970346
383.45483541
383.541317401
383.621240895
383.693109431
383.757186255
383.814696822
383.864346234
383.907424214
383.943629841
383.973275358
383.997270486
384.015450941
384.028863564
384.037458737
384.041336617
297.387511877
297.530941067
297.823738256
298.267568296
298.855384451
299.579746191
300.432321271
301.404071688
302.485638942
303.668025674
304.942639163
306.301319083
307.736691993
309.242135697
310.811394622
312.438833372
314.119237023
315.847872195
317.620066319
319.431517931
321.27842103
323.157628376
325.065578458
326.998879924
328.954646198
330.929445008
332.920170546
334.923708471
336.93710577
338.957178651
340.980624056
343.004046252
345.024181539
347.037401901
349.039985884
351.027899798
352.996663995
354.942271174
356.858552853
358.739630823
360.580242781
362.373204542
364.111532374
365.788153516
367.396141155
368.927786608
370.376471025
371.735700773
372.997888835
374.155177602
375.200969228
376.139872781
376.949893147
377.648458319
378.25311493
378.762430571
379.184626804
379.537504284
379.839573828
380.098245601
380.326647028
380.540191804
380.741144467
380.937037163
381.127247898
381.313390799
381.494319164
381.672106901
381.846862586
382.015652015
382.177508614
382.335183346
382.487450217
382.633838063
382.773992394
382.907519188
383.034151476
383.153744878
383.26634122
383.371670454
383.469846994
383.559987669
383.64470097
383.722209223
383.791392893
383.853500883
383.908962527
383.956981663
383.99909529
384.033855831
384.062133912
384.084831621
384.102565122
384.115287883
384.124078468
384.127326316
295.699283437
295.855143981
296.172872064
296.653616172
297.288729447
298.068637449
298.983097786
300.021430042
301.172468101
302.425808803
303.771829627
305.201621789
306.707033083
308.281074321
309.917252916
311.609783091
313.353574455
315.143815617
316.975903599
318.845612041
320.74978443
322.685286628
324.648583396
326.636426959
328.645924121
330.673990786
332.717628508
334.773959274
336.840069833
338.913024576
340.989748325
343.067142827
345.141982762
347.210891984
349.270169228
351.315715852
353.344034001
355.349688197
357.327012662
359.269838801
361.171602775
363.025587803
364.823464424
366.557347036
368.219141678
369.800856837
371.294794925
372.693419302
373.986922999
375.165671227
376.213918777
377.135343788
377.892548846
378.546506475
379.113925908
379.56394454
379.909652502
380.184854901
380.404143303
380.586384945
380.749786716
380.904407776
381.062552747
381.224524018
381.386820354
381.548944594
381.709579762
381.871262975
382.031699369
382.188044048
382.341204944
382.491170743
382.636470271
382.776702234
382.91140068
383.039955866
383.162000671
383.277304109
383.386049085
383.487377784
383.582320146
383.670978934
383.753915497
383.828455891
383.89506197
383.955162879
384.008629377
384.054980241
384.095456046
384.128584842
384.155714478
384.177261554
384.194095356
384.206297802
384.214176994
384.217143051
293.841289089
294.01234265
294.360344002
294.885484828
295.57702577
296.422927623
297.41020119
298.525882153
299.75686757
301.09100046
302.517304513
304.026141452
305.608865456
307.258009653
308.966786898
310.729546178
312.541404455
314.397387252
316.293287834
318.225304419
320.190258162
322.185119249
324.206832772
326.252190248
328.318490247
330.402739441
332.502170943
334.614119944
336.73586811
338.864656762
340.997735359
343.132201742
345.265118806
347.393276858
349.513272166
351.621164731
353.712922094
355.784359796
357.828702869
359.839764367
361.810339512
363.732395213
365.597762
367.396773884
369.12037855
370.759702536
372.306790042
373.753399659
375.089011677
376.300152046
377.329405895
378.256498745
378.947327685
379.576513489
380.132955269
380.465972852
380.662725185
380.813246137
380.943777975
381.053862399
381.146316561
381.247288526
381.366404267
381.495161385
381.628960722
381.768004278
381.915330235
382.063755988
382.213278871
382.359715376
382.50368835
382.646805858
382.785850236
382.920517655
383.050403051
383.174493001
383.292189966
383.402807587
383.507895241
383.607507179
383.701469815
383.788405386
383.867671361
383.939085181
384.002770479
384.061465031
384.112876572
384.157334548
384.195717914
384.227457634
384.253454785
384.273885395
384.289215733
384.300559176
384.307922622
384.310967646
291.797262581
291.987002342
292.372144396
292.951412758
293.710976958
294.635621796
295.70890299
296.914729303
298.23767346
299.663623604
301.180204205
302.776770705
304.444331588
306.175076763
307.962356907
309.800474112
311.684800185
313.610541456
315.573947523
317.571919753
319.600756797
321.658012852
323.741111858
325.846916399
327.97277377
330.116135528
332.273918368
334.444166455
336.624198447
338.811564911
341.003752541
343.198217666
345.392263514
347.583073214
349.767439503
351.941625337
354.102608315
356.244879568
358.362505104
360.448737311
362.495997954
364.495184831
366.436367155
368.309543238
370.103518764
371.808729639
373.4176005
374.923643966
376.319996282
377.579677928
378.564328292
379.657508811
380.109542898
380.31553407
380.480390692
380.64785121
380.799675523
380.937407384
381.06776384
381.192748433
381.316576885
381.446808955
381.583565762
381.716725528
381.83674817
381.968660343
382.108602518
382.245664993
382.387792964
382.523921978
382.661728969
382.801151898
382.93496396
383.064252627
383.190127845
383.310245028
383.423693107
383.531747816
383.636210623
383.734375151
383.825244748
383.908949055
383.984975635
384.052678736
384.115450731
384.172623397
384.221398984
384.26389876
384.30003053
384.330499549
384.355159288
384.374202695
384.388096076
384.39835809
384.405343421
384.408733138
289.546998179
289.760110523
290.191453152
290.837463411
291.679963602
292.699290947
293.874668417
295.186012904
296.614868601
298.145096683
299.762746418
301.456335571
303.216613788
305.035560884
306.906876907
308.825256545
310.786150789
312.785698269
314.82013307
316.886817888
318.982818915
321.105512034
323.252547067
325.421339427
327.609421953
329.813954686
332.032925442
334.263977481
336.50475742
338.753093744
341.006910973
343.263915154
345.521908668
347.778421776
350.030797003
352.275779563
354.509691487
356.728813856
358.926334444
361.095340058
363.227969556
365.314019202
367.341790796
369.298810881
371.172640712
372.951358196
374.628508469
376.211188875
377.723094317
379.166985509
379.777403653
380.008684066
380.235044708
380.389927837
380.508921521
380.644870799
380.789658798
380.932938393
381.075543688
381.221875847
381.374022479
381.527540729
381.677971839
381.821773823
381.96339261
382.114512663
382.262669191
382.403562673
382.541645716
382.675189327
382.813140751
382.94919761
383.077472976
383.205580749
383.330078017
383.446815687
383.558056513
383.666083191
383.767693582
383.862767892
383.951101096
384.032366036
384.105266896
384.171507193
384.233639491
384.287369155
384.332899418
384.37400736
384.408035952
384.437251046
384.460518207
384.478334201
384.49119359
384.500466998
384.506439026
384.510008363
287.065297286
287.308196285
287.797945981
288.527410481
289.472217741
290.606445808
291.903672414
293.338917504
294.890030604
296.53842651
298.268834123
300.069063014
301.929818594
303.843636344
305.804348817
307.807373183
309.848672184
311.925219321
314.034154405
316.172383697
318.337933724
320.528544696
322.742094271
324.976341256
327.228651031
329.497101834
331.779461063
334.073595663
336.37718427
338.688594026
341.00614203
343.327885345
345.65211301
347.977002291
350.300390224
352.61978283
354.931910053
357.232967433
359.516798177
361.776676381
364.004824345
366.188998089
368.315490166
370.369081946
372.332112557
374.185376211
375.926340335
377.598648137
379.240618229
379.661286896
379.89627448
380.004503961
380.170655881
380.331608016
380.477570711
380.627903299
380.780256627
380.930660346
381.083311156
381.241137457
381.401518058
381.561434772
381.720136438
381.879487216
382.043149651
382.205092917
382.358417014
382.50662796
382.655718024
382.805206016
382.945390698
383.084147006
383.215602981
383.344883339
383.464484185
383.581561398
383.6928228
383.799115846
383.899259762
383.992380222
384.078778385
384.157947975
384.227728018
384.294360355
384.354231835
384.404967972
384.448818955
384.488072031
384.520178747
384.546775088
384.568816855
384.58498472
384.59750879
384.605642969
384.610581077
384.613841277
284.320147523
284.601835214
285.166847952
286.002323961
287.074926051
288.350078427
289.793768142
291.374800147
293.066946815
294.848953195
296.704423345
298.621030667
300.589750203
302.604060338
304.659039901
306.750710754
308.87600693
311.032402366
313.217980988
315.43064066
317.667902811
319.928562731
322.210817143
324.512342431
326.83148843
329.165933088
331.513848503
333.873220383
336.241303693
338.617158014
341.000355065
343.388447377
345.780727005
348.175974442
350.572883327
352.969708187
355.363930818
357.752403111
360.129736564
362.489822768
364.823766496
367.118645871
369.35941822
371.526340649
373.592617084
375.521740046
377.334966296
379.049630026
379.47993743
379.653935321
379.80652122
379.939952884
380.101855262
380.265861118
380.426085103
380.589064831
380.752538673
380.91644375
381.084001913
381.253630224
381.422937607
381.590817046
381.757570613
381.924450389
382.092429448
382.258779415
382.422695752
382.586706109
382.747405383
382.899784261
383.047775783
383.196777701
383.336939127
383.469288112
383.594826693
383.714157536
383.824382967
383.931190952
384.030469024
384.122585764
384.207318679
384.284763128
384.35415532
384.420392409
384.477419173
384.524671809
384.568440941
384.604049526
384.635274443
384.65977284
384.679563636
384.694861744
384.706478803
384.71323256
384.717367957
384.719832165
281.270018179
281.603571222
282.267713348
283.240232658
284.47458413
285.924177898
287.544937007
289.29814687
291.152632464
293.084937305
295.078020458
297.120213044
299.203899258
301.323783444
303.476662091
305.659991366
307.871676691
310.110403985
312.374724502
314.663205256
316.974458472
319.306904088
321.659375016
324.030567622
326.418689822
328.821111615
331.236267628
333.662211713
336.096899084
338.53922826
340.988630455
343.443934209
345.905243163
348.37207706
350.844172994
353.320708035
355.800341225
358.280903292
360.758037749
363.227311186
365.678971714
368.100687421
370.476640776
372.781091537
374.978276846
377.019738054
378.884186036
379.296561438
379.415040184
379.543516731
379.691410223
379.83422339
379.991855883
380.159595553
380.333753503
380.513900173
380.696197125
380.880047657
381.066155685
381.251405668
381.434021969
381.613770146
381.791009407
381.966223269
382.139659924
382.310607318
382.479259483
382.646514759
382.811042273
382.972733324
383.134468736
383.287917771
383.432056879
383.570807693
383.70906286
383.835157076
383.950564029
384.061004445
384.161174321
384.251327401