/*--------------------------------*- C++ -*----------------------------------*\
| =========                 |                                                 |
| \\      /  F ield         | OpenFOAM: The Open Source CFD Toolbox           |
|  \\    /   O peration     | Version:  v1906                                 |
|   \\  /    A nd           | Web:      www.OpenFOAM.com                      |
|    \\/     M anipulation  |                                                 |
\*---------------------------------------------------------------------------*/
FoamFile
{
    version     2.0;
    format      ascii;
    class       volScalarField;
    location    "764";
    object      p;
}
// * * * * * * * * * * * * * * * * * * * * * * * * * * * * * * * * * * * * * //

dimensions      [0 2 -2 0 0 0 0];


internalField   nonuniform List<scalar> 
9216
(
268.338087957
268.423743665
268.59759946
268.860021475
269.209583682
269.644558954
270.162817195
270.761886397
271.438980959
272.19106233
273.014864206
273.90695566
274.863758844
275.881610933
276.956770751
278.085477314
279.26394361
280.488411352
281.755131774
283.060417464
284.400610999
285.772135422
287.171452012
288.595111089
290.039700228
291.501897
292.978408886
294.466029273
295.961570176
297.461922684
298.963983557
300.464721083
301.961096944
303.450138566
304.928857355
306.394328464
307.843607125
309.273816643
310.682064222
312.065537583
313.421421261
314.74700157
316.039583601
317.296603228
318.51554404
319.694054476
320.829863588
321.920901611
322.965214494
323.961087979
324.906963572
325.801568212
326.64383638
327.433046424
328.16875034
328.850909463
329.479822918
330.056244944
330.581297611
331.056557707
331.483951539
331.865812516
332.204760615
332.503725709
332.765806765
332.994252352
333.19228989
333.363090633
333.509637913
333.634749411
333.741017298
333.830863612
333.906500604
333.969979003
334.023145621
334.067671421
334.105003364
334.13639402
334.162881632
334.185344256
334.204500564
334.220960279
334.23522007
334.247703827
334.258800371
334.268462903
334.276489209
334.282937173
334.287915144
334.291618011
334.294256234
334.296078976
334.297305704
334.298054817
334.298435486
334.298571367
268.252497399
268.338578205
268.513066648
268.776701322
269.127911665
269.564912987
270.085532923
270.687255113
271.367254571
272.122448087
272.949532059
273.845033554
274.805343136
275.82676173
276.90552464
278.037841795
279.219911419
280.447953218
281.71821185
283.02698394
284.370612468
285.745509145
287.148141203
288.575050794
290.022835668
291.488167092
292.967765731
294.458419375
295.956955155
297.460258189
298.965241238
300.468865375
301.968108065
303.459986889
304.941527564
306.409791851
307.861846721
309.29479759
310.705759941
312.091898656
313.450402885
314.778531535
316.073591285
317.33298723
318.55420286
319.734853952
320.872668798
321.965543568
323.011522109
324.008853027
324.95597141
325.851561055
326.694543361
327.484148464
328.219913382
328.901756884
329.5299753
330.105300797
330.628874442
331.102275167
331.527468569
331.906813459
332.242993098
332.538991333
332.798002874
333.023362116
333.218396947
333.386335633
333.530204256
333.652821037
333.756783195
333.844499845
333.918186578
333.979889221
334.031468738
334.074600542
334.110739779
334.141123621
334.166773159
334.188535994
334.207111491
334.223085764
334.236939872
334.249070347
334.25980069
334.269244344
334.277151777
334.283421561
334.288315544
334.291974799
334.29454141
334.296311646
334.297519915
334.298232296
334.298577884
334.298719677
268.077857969
268.165030651
268.34126484
268.607496575
268.962111853
269.403265319
269.928711014
270.535850207
271.221774171
271.983313223
272.81708207
273.719527665
274.686969691
275.715642133
276.80172507
277.94137755
279.130759424
280.366055312
281.643487007
282.959329683
284.30991632
285.691647879
287.100991483
288.534486292
289.988737044
291.460417146
292.946258919
294.443055137
295.947647088
297.456925619
298.967818037
300.47728969
301.982330748
303.479959426
304.967209939
306.44113862
307.898814391
309.337329138
310.753792044
312.14534528
313.509163064
314.84247301
316.142559744
317.40679095
318.632623975
319.817634292
320.959522538
322.056142895
323.105508909
324.105821702
325.055476951
325.953097948
326.797551458
327.587993886
328.323902091
329.005130278
329.631941679
330.205047174
330.725603082
331.195216308
331.615908706
331.990110354
332.320610737
332.610519505
332.863214974
333.082238309
333.271122133
333.433232506
333.571661516
333.689230248
333.7885245
333.871934089
333.941667079
333.999768904
334.048123395
334.088432534
334.122164719
334.150532811
334.174508982
334.194880251
334.212298921
334.227312819
334.240373627
334.251850999
334.26205714
334.271075566
334.27849126
334.284391231
334.289119426
334.292650449
334.295079844
334.296790535
334.297927446
334.298588702
334.298942567
334.299119019
267.812010734
267.900587141
268.07952032
268.349766435
268.709634919
269.157183697
269.690052149
270.305515098
271.000532378
271.771801591
272.61580922
273.528880382
274.507223756
275.546973017
276.64422176
277.795054423
278.995570356
280.241904506
281.530241708
282.856828777
284.217980964
285.610087525
287.029612378
288.473095073
289.937147378
291.418451204
292.913752465
294.419857134
295.933623427
297.451956959
298.971802151
300.490137444
302.003966966
303.510316882
305.00622854
306.488757328
307.954968823
309.401941733
310.826768616
312.226564338
313.598472519
314.939680151
316.247429722
317.519039022
318.75191697
319.943585577
321.091695716
322.194047245
323.248601452
324.253498044
325.207066428
326.107846521
326.954610976
327.746405754
328.482598038
329.162941633
329.78763438
330.357361713
330.87329673
331.337100392
331.750867589
332.117141145
332.438858017
332.719312399
332.962174011
333.171351508
333.35073297
333.503920264
333.634077686
333.743999749
333.836227348
333.913113806
333.976844567
334.029462862
334.072895468
334.108912856
334.139018869
334.164386684
334.185891953
334.204212367
334.219923042
334.23352123
334.245416109
334.255942045
334.265399957
334.273713555
334.280482026
334.285956195
334.290297016
334.29357526
334.295934464
334.297554805
334.298614735
334.299261835
334.299629994
334.29981196
267.453644153
267.544083309
267.726712755
268.002460638
268.369523129
268.825819596
269.368827855
269.995646176
270.703050874
271.487555811
272.345469941
273.272951548
274.266057204
275.320785101
276.433111707
277.599022394
278.814535606
280.07572184
281.378717208
282.719733163
284.095062055
285.501080183
286.934247775
288.391107534
289.868280912
291.362463749
292.870420158
294.388976346
295.915013044
297.445458333
298.977279372
300.507475069
302.033068054
303.551098218
305.058616149
306.552678992
308.030347082
309.488684022
310.924758452
312.335650264
313.718459181
315.070318244
316.388409497
317.669983825
318.912381357
320.113053619
321.269583133
322.379701456
323.441301813
324.452449161
325.411386657
326.316546292
327.166567573
327.960336733
328.697050318
329.376304964
329.998193632
330.563371325
331.073032917
331.528934081
331.93324445
332.288663815
332.598304366
332.865657554
333.094821395
333.290311544
333.45662016
333.597715402
333.71678842
333.816508458
333.899309282
333.967482302
334.023166446
334.068385464
334.105143391
334.135373495
334.160672315
334.182146941
334.200487894
334.216178075
334.229683887
334.241455166
334.251846917
334.261147779
334.269634733
334.277025899
334.283016018
334.287930843
334.291923088
334.294951051
334.297126861
334.298652295
334.299680439
334.300322116
334.300701471
334.300890847
267.00082039
267.093645483
267.281041581
267.563886427
267.940221213
268.407777989
268.963818362
269.6052061
270.328475093
271.129898195
272.005552894
272.951381763
273.963246077
275.036971802
276.168387668
277.353355629
278.587794222
279.867695701
281.189137722
282.548290587
283.941420718
285.364891268
286.815160287
288.288777158
289.782377483
291.292676949
292.816464173
294.350592967
295.891973887
297.43756551
298.984365229
300.529400187
302.069718137
303.602378954
305.124446725
306.632983413
308.125044167
309.597675408
311.047915825
312.472801509
313.869375091
315.234699858
316.565878007
317.86007315
319.114535024
320.326625146
321.493840103
322.613830203
323.684410578
324.703563616
325.669434887
326.580327625
327.434708405
328.231240458
328.96886305
329.64692597
330.26535773
330.824789582
331.326441988
331.772260051
332.164432746
332.505899596
332.799940761
333.05012283
333.261145217
333.438541241
333.587861144
333.713646072
333.81891664
333.905976506
333.97705206
334.034364088
334.079969641
334.115803378
334.143996303
334.166860662
334.186230286
334.203084724
334.217749412
334.230342707
334.241203583
334.250789484
334.259386736
334.26722529
334.274487319
334.280781183
334.286040982
334.290452952
334.294008209
334.296669417
334.298705674
334.30017162
334.301161888
334.301850233
334.302257857
334.30246426
266.451057177
266.546852403
266.740189397
267.031874661
267.41974588
267.90128991
268.473487332
269.132899264
269.875748971
270.698003017
271.595447225
272.563754998
273.598546327
274.695436848
275.850076953
277.05818169
278.315552367
279.618091162
280.961809868
282.342834033
283.757403426
285.201869796
286.672692507
288.16643269
289.679746181
291.209375639
292.752141901
294.304934805
295.864703441
297.428446012
298.993199208
300.556027488
302.114012181
303.66424091
305.203797529
306.729753356
308.239160193
309.7290461
311.19641468
312.638248944
314.05152046
315.433204528
316.780301358
318.08986286
319.359023289
320.58503135
321.765279429
322.897325933
323.978904551
325.007918814
325.982419165
326.900572139
327.760634845
328.560967329
329.300121617
329.977047102
330.591401407
331.143855661
331.635610901
332.069100073
332.446248077
332.770513538
333.045262309
333.273608428
333.46108803
333.615003288
333.742897945
333.850247444
333.939298467
334.011436898
334.068577273
334.112960242
334.146517377
334.17086686
334.188285228
334.201995797
334.214418526
334.226252511
334.23705938
334.246235397
334.254030606
334.261133054
334.267706175
334.273890315
334.279768391
334.284948518
334.289442157
334.29326748
334.29637736
334.298835195
334.300773068
334.302206842
334.303187802
334.303908673
334.304342436
334.304559831
265.801263192
265.900684623
266.101272625
266.403736641
266.805651487
267.304188223
267.89596783
268.577167145
269.343618442
270.190906476
271.114457373
272.109616447
273.171713348
274.296114107
275.478260721
276.713699458
277.998099593
279.327264235
280.697135013
282.103792062
283.543450647
285.012455348
286.507272659
288.024482434
289.560768632
291.112909482
292.677767235
294.252277468
295.833437964
297.418297081
299.003941574
300.58748403
302.16604991
303.736764485
305.296740049
306.843064078
308.372789109
309.882925376
311.370437388
312.832245827
314.265236023
315.666274225
317.0322322
318.360019951
319.646625005
320.889154624
322.084876081
323.231246291
324.325924157
325.366754293
326.351721249
327.278873659
328.146241
328.951784927
329.693471013
330.369561602
330.97922093
331.523422489
332.003054073
332.42205039
332.780900619
333.084676369
333.33658819
333.537622222
333.694517111
333.817776016
333.919055349
334.005446758
334.07663943
334.131901582
334.172914377
334.202394206
334.222150845
334.232771188
334.236467883
334.238707285
334.24339049
334.250472894
334.257880835
334.263463486
334.267625084
334.27202414
334.276433286
334.280796735
334.28520795
334.289276212
334.293008432
334.29630933
334.299115442
334.301472164
334.303325237
334.304772764
334.305814764
334.30651587
334.306987068
334.307212449
265.047664906
265.151459071
265.36078391
265.676216878
266.094995393
266.613886474
267.229054452
267.936192482
268.730645736
269.607528819
270.5618306
271.588503233
272.682533833
273.838999032
275.053103774
276.320206528
277.635833353
278.995683354
280.395627739
281.831704461
283.30010991
284.797188852
286.319423353
287.863421256
289.425904427
291.003696943
292.593713145
294.192945511
295.798452131
297.407343669
299.01676952
300.623903339
302.225927704
303.820018195
305.40332723
306.97296838
308.526002056
310.059423837
311.570157024
313.055051275
314.510889343
315.934403888
317.322305798
318.671324648
319.978259775
321.240038676
322.453774499
323.61681319
324.726753988
325.781429154
326.77882759
327.716955618
328.593648603
329.406383558
330.152235884
330.828224383
331.432422522
331.967150442
332.431471119
332.834507776
333.170729796
333.451244048
333.678140082
333.84528686
333.96151886
334.043148306
334.111250092
334.175851933
334.229221379
334.266047188
334.288535908
334.301449175
334.306555686
334.301271976
334.286445623
334.273525078
334.270245846
334.274294292
334.280110489
334.281969496
334.281232338
334.282909242
334.285202091
334.287575344
334.290573389
334.293538753
334.296619874
334.299526304
334.302186194
334.304489066
334.306389544
334.30787199
334.308981355
334.309687367
334.310207665
334.310439261
264.185713279
264.294742859
264.514516599
264.84543243
265.284294571
265.827353726
266.470195697
267.207907215
268.035230107
268.946704574
269.936793484
270.999984082
272.130866141
273.324187671
274.574890911
275.878131966
277.229287828
278.623954152
280.05793683
281.527239701
283.028050224
284.556724303
286.109771087
287.683838112
289.275697003
290.882229625
292.500414602
294.127313848
295.760058867
297.395836396
299.031873045
300.665418827
302.293729308
303.914046382
305.523578113
307.119478242
308.698826428
310.258610709
311.795714163
313.306908346
314.788856382
316.238128903
317.651235814
319.024675708
320.355003152
321.638909775
322.873311049
324.055423381
325.182809443
326.253366126
327.265221654
328.216518451
329.105057509
329.927831891
330.68062678
331.35809799
331.955339096
332.48003716
332.922884198
333.31188147
333.616839833
333.872668158
334.075862837
334.200940632
334.261466786
334.284504719
334.317188307
334.370650811
334.412657957
334.428532376
334.425947108
334.418128532
334.407742115
334.381613689
334.336085963
334.300282429
334.290520472
334.296438725
334.305401183
334.302712978
334.293214162
334.293011906
334.293774987
334.293772073
334.295650891
334.297472378
334.300118997
334.302776243
334.30545259
334.307883253
334.309953416
334.311567761
334.312712757
334.313472512
334.314016424
334.314263347
263.209964063
263.325241707
263.557468546
263.906797145
264.369473523
264.941086876
265.616489311
266.390007805
267.255638949
268.207224919
269.238601022
270.343711239
271.516691756
272.751925357
274.044071214
275.388075439
276.779167592
278.212847883
279.684868819
281.19121425
282.728077711
284.291841398
285.879056344
287.486424128
289.110779977
290.749077125
292.398371977
294.055809691
295.71860958
297.384049835
299.049450824
300.712156817
302.369515481
304.018855078
305.657459592
307.282542421
308.891219642
310.4804846
312.047186202
313.588014221
315.099495654
316.578007047
318.019807827
319.421099268
320.778111508
322.087216689
323.345059682
324.548686257
325.695641559
326.783991776
327.812226256
328.77896647
329.682409905
330.51938192
331.284069824
331.966621712
332.5525384
333.070401279
333.474146183
333.86507946
334.118798977
334.383974391
334.599464201
334.671234992
334.637952144
334.513790866
334.378743949
334.35758323
334.394263808
334.431804849
334.457387514
334.476041501
334.484205682
334.45815494
334.374288807
334.297509601
334.290403524
334.313948215
334.340378928
334.329120876
334.298989519
334.301649158
334.302687161
334.298467479
334.30029447
334.300546185
334.30327433
334.305883882
334.308931864
334.311753831
334.31407638
334.315851384
334.317097982
334.317907954
334.318436831
334.318697283
262.113923188
262.236656795
262.483719713
262.854927643
263.345802493
263.951081614
264.664683442
265.479981772
266.390053678
267.387896427
268.466602214
269.61948767
270.840180169
272.122666452
273.461311123
274.850852884
276.286385978
277.763332947
279.277413541
280.824613002
282.401151887
284.003458428
285.628143893
287.271980803
288.931883752
290.604892235
292.288154998
293.97891512
295.674495165
297.37228145
299.069706577
300.764229602
302.453313063
304.134396304
305.804865365
307.462019691
309.103036744
310.724936262
312.324546919
313.898479414
315.443111353
316.954590995
318.428867931
319.861759568
321.249060196
322.586696031
323.870917613
325.09851203
326.266990852
327.374703107
328.420799456
329.404955273
330.326681762
331.18380243
331.969621232
332.666688481
333.22511298
333.759241184
334.077250917
334.604162101
334.653396008
334.47603031
334.517206819
334.589324481
334.585902134
334.535981778
334.476138825
334.44213864
334.43871282
334.444490901
334.447972012
334.446630585
334.436137352
334.411710544
334.380609921
334.364171429
334.375202371
334.410654076
334.438255794
334.382907238
334.271846622
334.304399373
334.314214237
334.299112571
334.305190776
334.301739214
334.30605219
334.308622677
334.312620512
334.316183537
334.318904769
334.320820691
334.322138123
334.322981027
334.323445042
334.323689428
260.889845826
261.021499375
261.286276501
261.683527017
262.207825444
262.85280442
263.611188181
264.475151398
265.436636674
266.487622217
267.620327205
268.8273536
270.10176991
271.437146894
272.827556931
274.267548748
275.752107582
277.276608822
278.836770741
280.428609994
282.048401693
283.692644802
285.358032634
287.041427989
288.739842069
290.450416466
292.170407293
293.89717062
295.628148115
297.360851809
299.092846549
300.821729325
302.54510411
304.26055141
305.965592383
307.657647588
309.333991083
310.991701565
312.627613359
314.238271837
315.819899942
317.368385254
318.879299917
320.347967807
321.769594667
323.139471194
324.453251322
325.707283195
326.898948071
328.026932181
329.091361414
330.093723859
331.036419315
331.92112025
332.74573216
333.489758477
333.972159285
334.699958021
334.534377905
334.531592172
334.612336396
334.592995123
334.572085669
334.583884093
334.566357363
334.525186182
334.481387891
334.452886092
334.44214744
334.439130918
334.436675758
334.430698228
334.418941385
334.401281345
334.383095441
334.373645535
334.376971528
334.388748511
334.391472399
334.376938294
334.384352198
334.408978026
334.360029455
334.278617273
334.312035166
334.297678478
334.309103901
334.310363653
334.316561705
334.321420221
334.324626405
334.326626348
334.327860086
334.328643039
334.328980084
334.329183727
259.528473089
259.670850249
259.956872947
260.385241505
260.949277855
261.641169821
262.452104668
263.372743218
264.393628153
265.505513504
266.699602614
267.967697145
269.302268879
270.696471014
272.144107113
273.63957424
275.177793953
276.754141035
278.364376471
280.004588094
281.671140249
283.360632199
285.069864372
286.795811042
288.535598251
290.286485703
292.045851689
293.811179814
295.580046382
297.350106777
299.119079118
300.884723657
302.644816266
304.397114447
306.13931561
307.869006983
309.583607539
311.28030304
312.95597673
314.607140275
316.229872475
317.819777626
319.371980292
320.881179407
322.341788622
323.748190343
325.095118473
326.378157712
327.594302968
328.742462911
329.8238692
330.842445294
331.805352431
332.724496565
333.632603705
334.613027841
334.575403166
334.595298982
334.648721421
334.610165075
334.614498754
334.595306625
334.573544922
334.563198723
334.539604343
334.503606482
334.467184065
334.440905265
334.426266369
334.419408968
334.41498432
334.408446188
334.398846152
334.387018827
334.37637371
334.371656901
334.373824527
334.379156372
334.380148853
334.374610137
334.375910207
334.378494678
334.37639966
334.393001294
334.379792364
334.272041847
334.314202861
334.308585337
334.321154024
334.328188697
334.331644695
334.333390097
334.334321064
334.334828543
334.334995588
334.335116964
258.018683523
258.174043928
258.485715651
258.95148423
259.562995741
260.310530138
261.183282741
262.169995968
263.259485359
264.441042392
265.70470339
267.041394847
268.442977123
269.902213851
271.412694057
272.968730311
274.565250516
276.197695248
277.861927279
279.554156038
281.270876843
283.008823318
284.764930532
286.536306599
288.32021067
290.114035924
291.915296296
293.721615906
295.530719598
297.340422739
299.148617674
300.953254817
302.752315885
304.543777241
306.325562541
308.095483544
309.851168561
311.589978794
313.308913933
315.004510825
316.672742494
318.308930778
319.90769369
321.462959977
322.968095454
324.416194022
325.800580712
327.115538961
328.357180639
329.524225189
330.618603086
331.645827681
332.61616211
333.550789658
334.541802677
334.630233882
334.670635165
334.646196275
334.645683678
334.61600192
334.597916469
334.571556653
334.54487135
334.521851218
334.493519709
334.460182184
334.428250992
334.403365991
334.388257277
334.380988688
334.376259722
334.371306659
334.365607815
334.359916065
334.356213583
334.356604698
334.360890094
334.366509314
334.369748066
334.369228313
334.369992069
334.371531775
334.371066684
334.373835907
334.367557834
334.378169336
334.375002725
334.292611769
334.32769175
334.338165934
334.340602821
334.341252259
334.341430302
334.341442722
334.341401296
334.341378483
256.347026056
256.518250584
256.861154383
257.372219505
258.040819908
258.854689844
259.800424122
260.864325478
262.033081435
263.294250176
264.636551665
266.049988457
267.525835088
269.056539128
270.635573635
272.257272631
273.916671787
275.609367401
277.331399633
279.079160545
280.849324516
282.6387968
284.444675946
286.264226175
288.094857056
289.934108698
291.77964161
293.629230216
295.480758622
297.332216024
299.181688486
301.02734377
302.867406204
304.700118549
306.523690022
308.336228362
310.135654573
311.919598842
313.685277104
315.429349608
317.1477668
318.835614333
320.48698086
322.094889304
323.651358676
325.14768993
326.57509036
327.925706041
329.193999476
330.377869291
331.479161842
332.504108348
333.468183679
334.424425312
334.572501758
334.655885442
334.661464105
334.640665632
334.619080877
334.58597239
334.553923082
334.518747541
334.484015752
334.4520028
334.41988338
334.387963405
334.359512018
334.337581277
334.32463676
334.319067841
334.316611345
334.31550975
334.315325332
334.316397692
334.319630401
334.325712579
334.334046515
334.342892163
334.350252486
334.355488445
334.360498422
334.364961517
334.366917415
334.368553856
334.367660901
334.371977968
334.373009654
334.37348612
334.358463664
334.356367427
334.352063844
334.34997287
334.348956302
334.34828936
334.347953162
334.347782508
254.497085365
254.687915186
255.069254054
255.635700845
256.373504391
257.266964781
258.299257247
259.453573539
260.713987987
262.066029985
263.496975166
264.995904813
266.553599175
268.162331402
269.815618917
271.507974053
273.234680106
274.991605784
276.77506101
278.581690904
280.408401136
282.252306957
284.110698515
285.981016863
287.860836963
289.747856263
291.639888586
293.534863437
295.430829342
297.32595816
299.218545449
301.107002159
302.989833384
304.865600709
306.732867074
308.590121715
310.435682393
312.267571325
314.083360843
315.879986234
317.653525358
319.398952039
321.10988122
322.77835125
324.394728358
325.947889254
327.425909175
328.817517
330.114458483
331.313037773
332.415238708
333.43445728
334.42523602
334.543648511
334.598841404
334.634556206
334.62897686
334.601037594
334.563692651
334.518806432
334.473364791
334.428409627
334.386118166
334.348125316
334.313857798
334.283606121
334.258876032
334.241878803
334.233665854
334.23183227
334.233817922
334.238440012
334.245153629
334.25385593
334.264704773
334.27764751
334.291944982
334.306326694
334.319551705
334.33115287
334.341670825
334.350804367
334.357802796
334.363454964
334.366834733
334.369806411
334.37224074
334.374788594
334.389853439
334.388273602
334.363047682
334.357877273
334.356278191
334.354952489
334.354358247
334.354112979
252.448605339
252.663995862
253.09323495
253.728157448
254.550647094
255.54031962
256.675823849
257.936379977
259.302874489
260.758507835
262.28903984
263.882724839
265.53004429
267.223337693
268.95641127
270.724177109
272.52235113
274.347219195
276.195468335
278.064072799
279.950221961
281.851276798
283.764743818
285.688258181
287.619571813
289.556545616
291.497147761
293.439460042
295.381692039
297.322198676
299.259494236
301.192254851
303.119304145
305.039578126
306.952069084
308.855746104
310.749448456
312.631744975
314.500751433
316.353896622
318.187628624
319.997054415
321.775516506
323.514133907
325.201398686
326.823034135
328.362535644
329.80309324
331.131940395
332.343309069
333.445954187
334.496896312
334.589250152
334.600572818
334.60829031
334.603575381
334.572978283
334.524851145
334.468787749
334.409456428
334.351792684
334.29805677
334.249961266
334.208672295
334.174292196
334.14701547
334.12743028
334.116887319
334.11486577
334.118658173
334.126955324
334.138872229
334.153712475
334.171020587
334.190466991
334.21158324
334.233554748
334.255338215
334.275983525
334.294974379
334.312268931
334.32758904
334.340605284
334.35153487
334.360063546
334.366874178
334.372170335
334.37598074
334.384175275
334.388097708
334.379594083
334.362481488
334.362909674
334.361010101
334.360354518
334.360216702
250.176256363
250.422914068
250.912737281
251.63342907
252.560677098
253.667638508
254.926938711
256.312734779
257.802069553
259.375552365
261.017472239
262.715505294
264.460188433
266.244308919
268.062317197
269.909825346
271.783216304
273.679363827
275.595448418
277.528848117
279.477081612
281.437783304
283.408693731
285.387654329
287.372601443
289.361560923
291.352648986
293.344086441
295.334227553
297.321597755
299.304928583
301.283176642
303.255519062
305.221322965
307.180090138
309.131377422
311.074687544
313.009320257
314.934169907
316.847453428
318.746347674
320.626509891
322.481448209
324.301726013
326.074023585
327.780252915
329.39730352
330.898745301
332.265007572
333.494814848
334.64632445
334.710353911
334.66700789
334.62607562
334.588756173
334.540626739
334.477534972
334.405189694
334.330254242
334.257113213
334.189381241
334.12916325
334.077744478
334.035849421
334.003604604
333.981038646
333.968269665
333.965236495
333.970192892
333.981112657
333.997185486
334.017600877
334.041536664
334.068290763
334.097221691
334.127610813
334.158578966
334.189166332
334.218511244
334.246013355
334.271342646
334.294159812
334.314181436
334.331385426
334.345650313
334.357235185
334.366183311
334.372287458
334.377163007
334.379064662
334.375167135
334.369722288
334.372193111
334.366498197
334.3657826
334.366137008
247.647865087
247.935085865
248.502853096
249.332562965
250.390962732
251.6422187
253.050916181
254.584791649
256.216344264
257.923449384
259.689186102
261.501150908
263.350526512
265.231123257
267.138532497
269.069456943
271.021229358
272.991499418
274.978054629
276.978737568
278.991424382
281.014034544
283.044548906
285.081020949
287.121575958
289.164402675
291.207751048
293.249953037
295.289471933
297.32497126
299.355382201
301.379946771
303.398226117
305.41007379
307.415581724
309.415005426
311.408662542
313.396789003
315.379333655
317.355668706
319.324184643
321.281717712
323.222731504
325.138125146
327.013527562
328.827000441
330.546067632
332.126959112
333.548460869
334.867569806
334.912384269
334.803447637
334.70242427
334.614775236
334.526964604
334.434670153
334.3384359
334.242146336
334.150115105
334.065549382
333.990801987
333.927217252
333.875439145
333.835666595
333.80777012
333.791583483
333.786760484
333.7918233
333.804336956
333.823267571
333.847960606
333.877547302
333.911106872
333.947775713
333.986716956
334.027056151
334.067853766
334.108158238
334.147106502
334.184008773
334.218356029
334.249711496
334.277730519
334.302231173
334.323059381
334.340238259
334.353754788
334.363477811
334.369859935
334.372378293
334.370422897
334.365058705
334.359773506
334.367317433
334.369895378
334.372201171
244.82181118
245.162834357
245.832857454
246.80341805
248.028157249
249.458633147
251.04870492
252.758058214
254.553995895
256.41178166
258.313921379
260.248822855
262.209247024
264.190861432
266.191065523
268.208137602
270.240679756
272.287303879
274.346493929
276.416584305
278.495803215
280.582340066
282.674405732
284.770265848
286.868240534
288.96668098
291.063949094
293.158440384
295.24866175
297.333351748
299.411599801
301.482925127
303.547298392
305.605112754
307.657126036
309.70439671
311.748204606
313.789931628
315.830876667
317.87198168
319.913437249
321.954103437
323.990608433
326.015895729
328.016745368
329.969264187
331.829949685
333.530675593
335.117388271
335.175316649
335.002067914
334.837118979
334.69230079
334.552033506
334.414600662
334.281931488
334.155923557
334.039125321
333.933981172
333.842141736
333.764516682
333.701354514
333.652473032
333.617477822
333.595930265
333.587598659
333.591043628
333.60378952
333.624061963
333.651301534
333.684787569
333.723578691
333.766699501
333.813197063
333.862125345
333.91251974
333.963392825
334.013770007
334.062749063
334.109550164
334.153527978
334.194134504
334.230926405
334.263588114
334.291879218
334.315679681
334.334920407
334.34953672
334.359721401
334.3653524
334.366394498
334.362645746
334.353112297
334.35158205
334.372859882
334.38019476
241.643091152
242.057376465
242.864572316
244.020390231
245.458992191
247.114196862
248.925642031
250.843122687
252.828330062
254.854553197
256.904988939
258.97034787
261.046383695
263.131785782
265.22661861
267.331301612
269.446032485
271.570534604
273.704019906
275.845279122
277.992831121
280.145078669
282.300430603
284.457362984
286.614409497
288.77009754
290.922876038
293.071128662
295.213292923
297.348070336
299.47463275
301.59275363
303.702838639
305.805874762
307.903351168
309.997212705
312.089825432
314.183906713
316.282385649
318.388181574
320.503893681
322.631348242
324.770887568
326.920124646
329.071337895
331.206977951
333.292952673
335.286935311
335.427571334
335.221375239
335.009461285
334.814544823
334.620316806
334.429458283
334.248914136
334.082932693
333.933821006
333.802968362
333.690951639
333.597580085
333.522137861
333.463608727
333.420898205
333.393012503
333.379242623
333.379352625
333.390697815
333.410383592
333.438045337
333.473166741
333.514861324
333.562153912
333.614067714
333.66962719
333.727849349
333.78773479
333.84827056
333.90845486
333.967335895
334.024047166
334.077824952
334.128003522
334.174023812
334.215445452