/*--------------------------------*- C++ -*----------------------------------*\
| =========                 |                                                 |
| \\      /  F ield         | OpenFOAM: The Open Source CFD Toolbox           |
|  \\    /   O peration     | Version:  v1906                                 |
|   \\  /    A nd           | Web:      www.OpenFOAM.com                      |
|    \\/     M anipulation  |                                                 |
\*---------------------------------------------------------------------------*/
FoamFile
{
    version     2.0;
    format      ascii;
    class       volScalarField;
    location    "944";
    object      pa;
}
// * * * * * * * * * * * * * * * * * * * * * * * * * * * * * * * * * * * * * //

dimensions      [0 2 -2 0 0 0 0];


internalField   nonuniform List<scalar> 
9216
(
975.81925411
975.454765826
974.714186873
973.594315857
972.098814608
970.231937689
967.999048711
965.406492383
962.461572439
959.172443101
955.548092901
951.598224576
947.333244149
942.764132722
937.902445063
932.76017917
927.349788919
921.684056766
915.776123961
909.639370518
903.287464932
896.734253677
889.993830366
883.080435071
876.00854096
868.792761782
861.447952295
853.989120814
846.431538563
838.790652923
831.082200175
823.322114521
815.526636507
807.712212101
799.895591771
792.093713158
784.323782976
776.603138691
768.949308709
761.379850566
753.912387691
746.564425753
739.353368254
732.296317515
725.41007436
718.710933195
712.214670101
705.936340076
699.890250703
694.089762366
688.5472324
683.273809585
678.279324071
673.572065375
669.158601197
665.043545927
661.229326965
657.715987764
654.500964838
651.57899937
648.94201957
646.579290767
644.477582135
642.621606963
640.994319559
639.577454463
638.351730442
637.297381821
636.394751795
635.625058795
634.970822144
634.416198923
633.947023733
633.550816348
633.216640672
632.934982245
632.697579166
632.497316089
632.328124563
632.184898549
632.063351667
631.959885793
631.871471096
631.795541738
631.729662888
631.673687927
631.628450294
631.593420236
631.567400853
631.548804657
631.536084482
631.527662867
631.522213039
631.518998844
631.517419933
631.516880546
976.183324416
975.817689255
975.075856912
973.952939718
972.453147077
970.580886632
968.341602463
965.741714629
962.788586417
959.490447806
955.856348566
951.896070928
947.620081275
943.03943913
938.165753609
933.011094825
927.587960328
921.909194126
915.987967211
909.837707976
903.472099248
896.905022003
890.150569295
883.223003066
876.136783319
868.906535893
861.547093505
854.073470888
846.500913114
838.844873443
831.121063361
823.345427176
815.534187904
807.703813388
799.871050234
792.05287419
784.266506615
776.529343546
768.85894936
761.272961507
753.78905979
746.424847926
739.197801469
732.125132409
725.22372279
718.509981761
711.9997722
705.708267712
699.649873097
693.83807972
688.285367592
683.003044633
678.00110595
673.288036983
668.870610045
664.753651468
660.939791902
657.429244462
654.219573645
651.305557385
648.67905459
646.329091703
644.242134131
642.402502465
640.792779647
639.394354906
638.18753202
637.151907323
636.267220885
635.514214692
634.875153747
634.33409271
633.876897216
633.491179812
633.166143989
632.892411152
632.661838611
632.467400309
632.30312294
632.164023519
632.045943686
631.945399387
631.859474784
631.7857506
631.722190468
631.667707946
631.623422089
631.589723089
631.564520227
631.546466923
631.534354573
631.526384407
631.521165023
631.518206732
631.516827625
631.516283572
976.925413604
976.556619487
975.810568248
974.681324711
973.173132119
971.290461573
969.038849902
966.424828174
963.455874548
960.140347142
956.487421751
952.507015949
948.209723015
943.606734266
938.70977596
933.531036223
928.083110689
922.378939372
916.431765594
910.255086647
903.862628795
897.268313546
890.486249287
883.530712732
876.416155558
869.157198519
861.768649655
854.265507113
846.662984332
838.976516596
831.221787894
823.414735205
815.571570451
807.708776747
799.843118493
791.991621634
784.17156507
776.400438618
768.695909914
761.075756069
753.557804052
746.159836768
738.899510458
731.794242046
724.861112757
718.116748069
711.577218605
705.257922589
699.173488718
693.337659862
687.763186653
682.461692216
677.44352648
672.717577559
668.291056275
664.169237396
660.355190195
656.849499327
653.650020106
650.751648727
648.146114716
645.821924969
643.764876848
641.958457855
640.384432983
639.023636604
637.855552029
636.858348358
636.010380055
635.291387324
634.683120057
634.16948243
633.736432662
633.371815616
633.06514143
632.807334811
632.590492514
632.407748197
632.253297991
632.122426501
632.011246831
631.916493065
631.835432769
631.765820246
631.705702311
631.654140861
631.613254489
631.582276542
631.558667758
631.541959381
631.531066317
631.523770715
631.519171185
631.516630528
631.515332005
631.514695822
978.05301971
977.680567468
976.928021859
975.789038367
974.267945669
972.369319416
970.098835029
967.463186691
964.470031352
961.127920118
957.446227731
953.435076235
949.105260179
944.468169282
939.535716433
934.320266049
928.834571131
923.091713068
917.105052771
910.888186103
904.454912191
897.819206423
890.995206586
883.997202789
876.839639564
869.537119846
862.104419279
854.556499912
846.908531899
839.175911737
831.374286162
823.519568769
815.62795897
807.715951149
799.800341694
791.898221595
784.02696351
776.204190341
768.447735182
760.77558048
753.205787789
745.756407624
738.445382885
731.290437493
724.308965438
717.517913373
710.933671693
704.57196637
698.44776235
692.575166757
686.967333443
681.636352808
676.593114263
671.847130682
667.406298733
663.276621418
659.461865377
655.96325142
652.779130132
649.904717253
647.331596057
645.047347674
643.036669545
641.281627273
639.762557602
638.459960075
637.352272287
636.414974747
635.623910545
634.957186124
634.395858362
633.923748416
633.527069569
633.194112585
632.914937591
632.681000194
632.484767439
632.319538092
632.179685972
632.060974672
631.95998607
631.873773107
631.799849127
631.736239667
631.681086934
631.634330614
631.598085029
631.570497507
631.550008061
631.535556383
631.525917387
631.519680607
631.515877291
631.513728053
631.512570273
631.512004037
979.569121499
979.191971021
978.430640618
977.27845426
975.73987844
973.819641778
971.523611145
968.858703041
965.83282012
962.454777057
958.734222654
954.681558344
950.30785606
945.624776209
940.644488742
935.379597783
929.84307274
924.048185925
918.008459335
911.737619979
905.249565878
898.558341268
891.678122486
884.623212208
877.408042948
870.047186887
862.555372684
854.947506028
847.23869462
839.444274101
831.579836093
823.661253226
815.704702744
807.726684832
799.744034333
791.773921881
783.833844217
775.94159889
768.115243915
760.37303852
752.733367237
745.214645602
737.835212494
730.61321038
723.566461473
716.712343352
710.067673193
703.648602928
697.470531315
691.54802705
685.894762021
680.523429992
675.445645914
670.671773251
666.210691029
662.069437634
658.25282075
654.762983356
651.599100837
648.757102006
646.228649527
643.999559564
642.053058474
640.368792284
638.924452304
637.701796643
636.678555642
635.824980251
635.112571526
634.517073391
634.018926393
633.602193796
633.253657314
632.962369687
632.719302884
632.516790985
632.347830327
632.205709026
632.084785284
631.981708325
631.893864448
631.818677135
631.753902415
631.698017728
631.649358068
631.609011624
631.578516806
631.555357538
631.538133339
631.52628423
631.518734092
631.513961345
631.510961657
631.509297143
631.508409181
631.507966663
981.478341321
981.09529816
980.322823915
979.153860521
977.593065649
975.645373339
973.31690152
970.61485527
967.547455944
964.12385916
960.354068669
956.248846887
951.819624603
947.078411385
942.037709156
936.710430302
931.109822675
925.249402543
919.142897479
912.80419964
906.247330713
899.486418064
892.535682463
885.40943593
878.12208932
870.688167585
863.122332027
855.439407374
847.654413089
839.782596755
831.839469602
823.840839961
815.80284535
807.741980491
799.675117856
791.619518016
783.592827254
775.613058538
767.698553898
759.867925304
752.13997389
744.533587401
737.067619241
729.760753457
722.631363433
715.697373015
708.976130054
702.4843019
696.237797553
690.251720931
684.540340228
679.117069963
673.994410397
669.183834872
664.695524095
660.537970623
656.717402801
653.237250749
650.097860293
647.296817111
644.826758897
642.669616
640.807439969
639.215467107
637.865134789
636.745430123
635.835155961
635.093181272
634.483532377
633.978953038
633.56007403
633.212031828
632.922666682
632.682184963
632.483008346
632.318963227
632.183842805
632.070312699
631.971906682
631.887180901
631.815019944
631.753057684
631.699043064
631.652331349
631.611739493
631.579165431
631.554620994
631.536211993
631.523113233
631.51480335
631.509379759
631.506242088
631.504424371
631.503227255
631.502653946
631.502363132
983.786469663
983.396242674
982.610152959
981.420680267
979.83272498
977.85148284
975.483388404
972.736009245
969.617966067
966.138841086
962.309081727
958.139901192
953.643178028
948.831357
943.71735328
938.314462244
932.636276757
926.696614048
920.509453688
914.088888133
907.449086484
900.604271827
893.568711568
886.356719923
878.982670942
871.461020557
863.806335744
856.033329404
848.156899433
840.192170866
832.154540583
824.059720888
815.923782469
807.763194552
799.594857324
791.436124407
783.304811004
775.219183643
767.19792751
759.260088086
751.424985055
743.712098486
736.140929974
728.730844799
721.500904791
714.469704608
707.655227093
701.074731236
694.744688275
688.680764709
682.897860947
677.410163638
672.231204059
667.373805957
662.849878385
658.669876782
654.841988631
651.371185339
648.25912844
645.507114625
643.112117496
641.045513765
639.292205331
637.8181947
636.576010664
635.582463178
634.822689531
634.227321739
633.747754434
633.354021736
633.02965782
632.762602938
632.542277208
632.360331476
632.211452719
632.092198367
631.997905781
631.918963985
631.845301312
631.780263444
631.725955395
631.679270694
631.63690516
631.600399028
631.569030276
631.544713672
631.52673561
631.514046161
631.505801473
631.500842256
631.497795255
631.496329019
631.495924074
631.495542493
631.495427669
631.495376512
986.50056683
986.101775611
985.299459962
984.085543313
982.465225328
980.44402474
978.028766226
975.227462582
972.049224199
968.504155447
964.603246254
960.358260297
955.781622495
950.886307938
945.685734851
940.193663731
934.424105315
928.391239409
922.109346983
915.592756865
908.855808439
901.912830249
894.778134267
887.466024085
879.99081539
872.366866113
864.60861444
856.730622504
848.747624804
840.674579977
832.52672652
824.319637901
816.069279198
807.792062019
799.504892658
791.225210316
782.97101017
774.7608455
766.613803429
758.549448954
750.587733667
742.748867652
735.053156785
727.520812433
720.171745654
713.025364509
706.100395449
699.414755134
692.985489512
686.828803546
680.960169742
675.394524002
670.146471517
665.230442412
660.660574285
656.450083775
652.609884012
649.146458831
646.061358843
643.364173148
641.067825073
639.109855513
637.499401651
636.181213957
635.041454945
634.197485589
633.64774822
633.245836167
632.925214702
632.657348687
632.438438305
632.263223972
632.121597854
632.005118843
631.91133448
631.842158201
631.797164156
631.760619765
631.710357177
631.663239572
631.629185886
631.600500558
631.56916995
631.543664088
631.522428054
631.506607343
631.496000281
631.489211943
631.485741111
631.484211367
631.484244458
631.484733471
631.485642269
631.486506363
631.48698246
631.487250359
989.62904223
989.220208854
988.398886266
987.156341844
985.498136542
983.430181887
980.959775581
978.095469492
974.84696566
971.22499839
967.241211063
962.908029735
958.238535995
953.24634179
947.945468554
942.350233542
936.475145935
930.334815831
923.943878531
917.316936659
910.468521236
903.413072442
896.164938855
888.738393585
881.14766407
873.406972775
865.530585516
857.532865614
849.428332339
841.231723481
832.958062947
824.622729293
816.241528357
807.830766599
799.407319057
790.988688578
782.593049123
774.239266
765.946884825
757.736081685
749.627567711
741.64244439
733.802009976
726.127524204
718.639946494
711.359671669
704.306296098
697.498448914
690.953727755
684.68875997
678.719419948
673.061187267
667.729641255
662.740958478
658.112178661
653.860573039
650.0014369
646.542104258
643.47615906
640.830330624
638.67782357
636.833310404
635.425046046
634.32795044
633.123979472
632.367423742
632.174912068
632.067536573
631.971059483
631.882214078
631.802562844
631.729486806
631.6609179
631.598909592
631.55174603
631.536003759
631.564897294
631.601084075
631.572458102
631.535879236
631.527630311
631.522508557
631.496768692
631.482983894
631.472515019
631.464991548
631.462421018
631.461866523
631.463431781
631.465938254
631.468882431
631.471896271
631.474396922
631.476548844
631.47774678
631.478382212
993.181745858
992.761275726
991.917961422
990.642302554
988.940294283
986.818320537
984.284247514
981.347273325
978.017807956
974.307337902
970.228285669
965.793865974
961.017941654
955.914881584
950.499423544
944.786544685
938.791343236
932.528934704
926.014366501
919.26255374
912.288238687
905.105974121
897.730129851
890.174919133
882.45444122
874.582735046
866.573840346
858.441863128
850.20104499
841.865836322
833.450976632
824.971577403
816.44321362
807.882019109
799.304779794
790.729020105
782.173074142
773.656131575
765.198247651
756.820305543
748.543920552
740.391277743
732.38490021
724.547353487
716.900903431
709.46715966
702.26674918
695.319076137
688.642219868
682.253022364
676.167397061
670.400910436
664.969660419
659.891434728
655.186920668
650.879824468
646.994787648
643.539894236
640.470530475
637.83854401
635.931438661
634.000545584
632.83866312
632.367020121
631.97171328
631.924328984
631.962977705
631.959820443
631.926936316
631.879627406
631.825584789
631.769868049
631.716353129
631.669309672
631.637738936
631.6366808
631.662615304
631.630218343
631.446822414
631.36178867
631.406669253
631.453906063
631.416838582
631.418676467
631.420508765
631.419480944
631.426358458
631.432045892
631.439420552
631.446696568
631.452859432
631.45821066
631.46269713
631.466139096
631.468218049
631.469234844
997.170075615
996.736236324
995.867698639
994.554074713
992.801877076
990.618055616
988.011155348
984.991144437
981.569274112
977.757922724
973.570434707
969.020956863
964.124274482
958.895649912
953.350665914
947.505077251
941.374674121
934.975162414
928.322065297
921.430651026
914.315889809
906.992441282
899.47467068
891.776689947
883.912417069
875.895647067
867.740128144
859.459639831
851.068072355
842.579509803
834.008322177
825.369263384
816.677583801
807.949152235
799.2005805
790.449345407
781.713897162
773.013742046
764.369484413
755.802811906
747.336406755
738.993768293
730.798936775
722.77611967
714.949237814
707.341431523
699.974589878
692.868983095
686.043081145
679.51361891
673.295969455
667.404915008
661.855980255
656.667569122
651.864228127
647.479884667
643.56296631
640.129099658
636.957167001
633.875134464
632.86401175
632.275435976
632.221723089
632.242782342
632.179899503
632.14180033
632.131589781
632.105891694
632.066599553
632.016232975
631.957931053
631.895601364
631.832302069
631.771609882
631.719551454
631.683195658
631.654735891
631.597378811
631.527230246
631.505725081
631.53421648
631.495345973
631.298629364
631.338868497
631.368277911
631.368434941
631.389938742
631.399927667
631.413942334
631.426684213
631.436881681
631.444823146
631.451049276
631.455857403
631.458931647
631.460347527
1001.60710601
1001.15799735
1000.26071103
998.903834804
997.094498624
994.840327777
992.150675646
989.036424111
985.509819516
981.584291959
977.274270698
972.594997596
967.562341218
962.192613115
956.502388762
950.508336002
944.227056019
937.674942481
930.868066146
923.822091189
916.552228833
909.073230014
901.399415717
893.544738355
885.522865038
877.347271224
869.031335778
860.588431823
852.032014511
843.37571052
834.63341962
825.819426562
816.948537176
808.036231386
799.098826985
790.153646937
781.219177756
772.315203217
763.462894808
754.684835974
746.004955188
737.448341844
729.040923816
720.808996872
712.778619208
704.974918155
697.421397143
690.139362685
683.147596014
676.462334216
670.097608004
664.066045695
658.380467355
653.057011084
648.122402649
643.62392707
639.677643448
636.352454422
632.921721536
632.605170744
632.57317413
632.521038066
632.500164887
632.492178448
632.4471886
632.398097876
632.355925561
632.312649118
632.264114179
632.207018158
632.142454832
632.07274998
632.00006147
631.928189667
631.862105546
631.805789753
631.753408694
631.68705422
631.613540501
631.560846716
631.528609247
631.47593461
631.446473429
631.443579663
631.354113949
631.291031724
631.355392463
631.363567883
631.387856313
631.407427123
631.421674602
631.432452934
631.440460627
631.446450713
631.450512458
631.452389863
1006.50774163
1006.04126365
1005.11134943
1003.70541218
1001.83131632
999.497493732
996.714258649
993.493574911
989.848862015
985.794785385
981.347044625
976.522161988
971.337272218
965.809914537
959.957827548
953.798750252
947.350234205
940.629475276
933.653174385
926.437437906
918.997725605
911.348850833
903.505030542
895.479976664
887.287013317
878.939202579
870.449462845
861.830672383
853.095760063
844.257794649
835.330089509
826.326325937
817.260713916
808.148181962
799.004588677
789.84694787
780.693652013
771.564676309
762.481739679
753.46839318
744.549999379
735.753561928
727.107364183
718.640386967
710.381503058
702.358498365
694.597041955
687.119790988
679.94584414
673.090575145
666.565790163
660.380195609
654.540373656
649.053407485
643.932480956
639.179559394
634.848313663
632.898181494
632.571720706
632.750609833
632.839339355
632.849222566
632.830776017
632.797211865
632.744503663
632.688283667
632.633693596
632.578542141
632.518982708
632.45204592
632.378673892
632.299821648
632.216832735
632.133167801
632.052633609
631.977455923
631.903901665
631.823318668
631.738484117
631.664793912
631.602975698
631.538039051
631.484831057
631.439369269
631.403100617
631.400962862
631.380535357
631.310822008
631.362024245
631.391601426
631.409102063
631.421924231
631.431571917
631.438706834
631.443645119
631.446000347
1011.88890159
1011.40271067
1010.43586779
1008.97443642
1007.027159
1004.60343079
1001.71470903
998.374237311
994.596815255
990.39855401
985.796634391
980.809068569
975.454465181
969.751795371
963.72015899
957.378552341
950.745644066
943.839569452
936.677757993
929.276809422
921.652432585
913.819454736
905.791900509
897.583127195
889.205993271
880.673030312
871.996592591
863.18897065
854.262475242
845.229512457
836.102680651
826.894898819
817.619593466
808.290931248
798.92408933
789.535552145
780.143418623
770.767699852
761.430580699
752.156607952
742.972756356
733.908310399
724.994491337
716.263760868
707.748763037
699.480939265
691.488984024
683.797443099
676.42590498
669.388710667
662.694902906
656.348070604
650.346205369
644.677579311
639.28436141
633.761389982
633.324393744
633.240277428
633.151279902
633.214254969
633.229884215
633.219384055
633.193906193
633.153840961
633.098997979
633.037833044
632.97428746
632.907710487
632.835679296
632.757376689
632.673151688
632.582554726
632.486900833
632.388851825
632.291138421
632.195149065
632.099062339
631.999594012
631.899259946
631.806108012
631.721406139
631.639961717
631.566042853
631.502099843
631.449712548
631.417797828
631.396692177
631.380178822
631.35379236
631.38491094
631.400955056
631.414223801
631.424910897
631.433090765
631.438869823
631.441765544
1017.76973988
1017.26119973
1016.2526183
1014.72851245
1012.69867517
1010.173657
1007.16627667
1003.69129228
999.765124393
995.4055707
990.631530855
985.46274201
979.919520444
974.022502802
967.792381084
961.249631321
954.414242135
947.305458167
939.941558791
932.339697177
924.515822096
916.484698511
908.260027617
899.854649201
891.280788702
882.550300296
873.674859362
864.666081316
855.535578418
846.294996292
836.956082346
827.530809638
818.0315906
808.471561498
798.864924066
789.227330083
779.576292181
769.931602925
760.315734071
750.754173914
741.275640552
731.912084781
722.698368301
713.671484276
704.86920207
696.32810871
688.081256335
680.155897537
672.572448124
665.344335042
658.478132251
651.974136963
645.823869405
639.976982645
634.04034447
633.340186335
633.568155132
633.702978959
633.699352086
633.701231956
633.685728158
633.661232901
633.62517662
633.577402584
633.518392182
633.452214799
633.380890926
633.303829109
633.219628832
633.129474854
633.032753548
632.928079649
632.816944648
632.701366698
632.58344736
632.464436655
632.344051895
632.221856043
632.100354863
631.984170616
631.874989637
631.772082993
631.677914726
631.594765009
631.523568678
631.469053499
631.428140184
631.397543545
631.395863277
631.393305693
631.39587162
631.408861808
631.420533665
631.429909412
631.436751103
631.440280952
1024.17191103
1023.63802565
1022.58228487
1020.98742493
1018.86450545
1016.22546727
1013.0847572
1009.45892814
1005.36630305
1000.82663993
995.860822073
990.490570659
984.738169432
978.626185414
972.177173179
965.41335714
958.356299055
951.026569579
943.443455185
935.624737774
927.586585775
919.343585003
910.908918052
902.294668851
893.512195302
884.572485676
875.486415902
866.264862032
856.918692639
847.45872079
837.895709883
828.240477657
818.504141213
808.698466755
798.836299231
788.932050317
779.002232781
769.066029339
759.145873306
749.26799755
739.462882207
729.765490374
720.215124138
710.854665218
701.728926741
692.881901527
684.353096803
676.173547517
668.364745257
660.939178925
653.901944399
647.249574929
640.937685134
634.578094082
633.815959591
633.971396893
634.18879875
634.251551845
634.251394193
634.23758154
634.209757937
634.173575531
634.127795517
634.073007725
634.009537002
633.938622035
633.86028615
633.773443381
633.677613122
633.57488972
633.463839973
633.342838626
633.213413859
633.077307947
632.936388377
632.792095379
632.645239914
632.496840676
632.349393532
632.206238454
632.069522517
631.940555585
631.821724317
631.71526556
631.623018312
631.54756589
631.48760958
631.44206413
631.418152118
631.405871497
631.395646635
631.403384415
631.41793865
631.4292703
631.43784602
631.442212032
1031.11988973
1030.55722454
1029.44815941
1027.77338013
1025.54548036
1022.77808584
1019.48759968
1015.69270889
1011.41396845
1006.67340578
1001.49417622
995.900263131
989.91619913
983.566778685
976.876735399
969.870371536
962.571144703
955.001238217
947.181158971
939.129421821
930.862382558
922.394273305
913.737463957
904.902925448
895.900806317
886.740979856
877.433405755
867.988214785
858.415563442
848.725419331
838.927445927
829.031068619
819.045764095
808.981502321
798.849285645
788.661753891
778.433855375
768.183590832
757.932819553
747.708092919
737.541449342
727.471052097
717.541451476
707.803098243
698.310560234
689.118761747
680.27718963
671.821880923
663.775085045
656.148415477
648.943159253
642.117145742
635.267894766
634.481078785
634.659135217
634.825923619
634.897862216
634.90330688
634.881150558
634.84771574
634.80597665
634.759093453
634.706117988
634.646409143
634.578974889
634.502996466
634.41701062
634.319728338
634.21261494
634.096155603
633.968094171
633.828374111
633.678249126
633.519321714
633.353370635
633.182046553
633.006829197
632.829478406
632.652545524
632.479018979
632.311498826
632.152335471
632.004231836
631.869787845
631.751399836
631.651104979
631.568897984
631.50438805
631.458881585
631.428260073
631.407276821
631.399355117
631.417382772
631.431515809
631.442985518
631.448460347
1038.64135965
1038.04593348
1036.87647353
1035.11128849
1032.76484785
1029.85283334
1026.3940173
1022.40963756
1017.92287004
1012.95835556
1007.54182526
1001.69980863
995.459379885
988.8478862
981.892610447
974.620341376
967.056854568
959.226337306
951.150821605
942.849712613
934.339514571
925.633849299
916.743827513
907.678756252
898.447055286
889.05713674
879.517951749
869.839003597
860.029922229
850.099930716
840.057513891
829.910429419
819.666081601
809.332109827
798.917069406
788.431156273
777.88701262
767.30065753
756.692556009
746.088806714
735.522411644
725.034543176
714.675586975
704.505455909
694.592236517
685.007450911
675.817216882
667.063523448
658.768373967
650.938331586
643.531534958
636.12382803
635.307895202
635.546525117
635.717797853
635.722836254
635.691314709
635.644217618
635.58944953
635.533665199
635.478244614
635.422542233
635.36374689
635.299198879
635.226355383
635.142998867
635.046920365
634.937130666
634.816471298
634.683892179
634.536987155
634.376827014
634.20459579
634.021813812
633.830161754
633.63135978
633.427185608
633.219717435
633.01155103
632.805632766
632.604918951
632.4123893
632.231190117
632.064416433
631.914945339
631.785070203
631.675793232
631.587376828
631.51974908
631.470118986
631.43464829
631.412787312
631.410287688
631.435758825
631.453489067
631.460234852
1046.76768681
1046.13483972
1044.89679427
1043.02909938
1040.54853196
1037.47330585
1033.82509203
1029.62820386
1024.90890163
1019.69481554
1014.01455192
1007.89745079
1001.37340893
994.472669617
987.225494825
979.661673631
971.809863032
963.696805647
955.346511448
946.779533229
938.012494744
929.058040634
919.925338968
910.621161244
901.151370588
891.522404944
881.742177766
871.819935152
861.765259402
851.58693558
841.29224833
830.886941231
820.375778658
809.763396948
799.055174197
788.258049563
777.381425484
766.438273705
755.446484712
744.430453689
733.422925522
722.467139415
711.619183703
700.950075861
690.546319138
680.505235417
670.924073681
661.850684494
653.298849444
645.225005642
637.178769966
636.312961809
636.615371528
636.813569761
636.775142912
636.66122063
636.552591725
636.454424806
636.367992258
636.292816994
636.225468988
636.161286169
636.095137046
636.022597133
635.940005627
635.844433986
635.733718563
635.607872785
635.470017154
635.318408847
635.151142141
634.96972763
634.77534011
634.569321914
634.353121337
634.12830429
633.896616334
633.660134637
633.421381106
633.183259458
632.948912567
632.72169155
632.505148068
632.302879748
632.118320284
631.954378161
631.813014964
631.695321593
631.601487177
631.529967435
631.478328112
631.444285182
631.427042872
631.437136639
631.472370401
631.479288523
1055.53450188
1054.85871866
1053.54250266
1051.55819542
1048.92542876
1045.66555953
1041.80385782
1037.36839552
1032.38908085
1026.89693089
1020.92368532
1014.50169036
1007.6638929
1000.44377008
992.875057061
984.991194898
976.824488921
968.405031305
959.759505608
950.910053198
941.873444968
932.660843287
923.27842701
913.729019132
904.014544033
894.1386395
884.108293065
873.93337208
863.62444445
853.190515813
842.637714678
831.969264411
821.186483373
810.29014765
799.281619026
788.163656367
776.941307593
765.623146176
754.222898132
742.761406686
731.269040795
719.788858353
708.380837845
697.127176532
686.137983322
675.550513494
665.530498584
656.11957337
647.264876577
638.48197744
637.523420627
637.871590239
638.094047687
638.020959868
637.829524264
637.629693526
637.459493942
637.320516043
637.208737978
637.117024523
637.037231607
636.961496041
636.88290015
636.795985737
636.696655393
636.581929891
636.450511009
636.304879384
636.145961384
635.97175164
635.782872002
635.580406678
635.365269345
635.138377778
634.900718568
634.653436988
634.397941443
634.136025853
633.869950856
633.60243381
633.336591091
633.075904246
632.824175606
632.585402889
632.363573361
632.162345462
631.984709017
631.832837442
631.707921023
631.609890013
631.53791014
631.490646996
631.4658252
631.465754591
631.516493369
631.509341209
1064.98241484
1064.25711998
1062.85136806
1060.73386532
1057.92774643
1054.45829229
1050.35533425
1045.6516377
1040.38146491
1034.57961719
1028.28111277
1021.5213443
1014.33640731
1006.76330273
998.839794904
990.603810289
982.092358463
973.340043401
964.377310059
955.228664614
945.911214627
936.433994086
926.798602077
917.00158116
907.038502928
896.90874759
886.618781923
876.18101269
865.609069339
854.913424418
844.099114243
833.165959497
822.110567727
810.928744096
799.61696252
788.172862834
776.595888488
764.888589922
753.058541413
741.12057256
729.099465227
717.033891491
704.982662082
693.034619749
681.325014934
670.04812548
659.53715512
649.739912502
640.095989664
638.96995763
639.319529282
639.550763508
639.43906176
639.172869732
638.878192318
638.613869985
638.399656014
638.23146961
638.098961728
637.990057783
637.89346156
637.799475009
637.700368677
637.590477686
637.465935718
637.324408521
637.165917867
636.994451063
636.810183738
636.611834081
636.401166359
636.179012206
635.945844857
635.701927079
635.447527251
635.183098841
634.909436204
634.627798202
634.339980525
634.048326568
633.755703963
633.465479743
633.181481628
632.90790824
632.649165791
632.409613828
632.193271573
632.003574367
631.843129781
631.713506924
631.615361616
631.5485277
631.511698693
631.500976615
631.498480765
631.528326063
1075.15788762
1074.37524126
1072.86623211
1070.59587464
1067.59141233
1063.88301037
1059.50646278
1054.50059513
1048.90494962
1042.75845949
1036.09932151
1028.96570495
1021.39669759
1013.43299215
1005.11699119
996.492174903
987.601719654
978.486448969
969.182283492
959.717466879
950.110023385
940.366149212
930.480505309
920.439462618
910.227850622
899.837963814
889.276758749
878.563285704
867.718279486
856.755868687
845.67989135
834.485004355
823.160913814
811.696996059
800.084172277
788.314228951
776.379699663
764.275230452
751.99997644
739.559913806
726.97009464
714.258304571
701.471986416
688.691643403
676.063513281
663.825797266
652.743030303
642.077343847
640.671801748
640.945900275
641.163939211
641.008597733
640.668565136
640.280803232
639.916292207
639.609647227
639.366310621
639.175053099
639.020896151
638.889258795
638.767671462
638.646104548
638.5169941
638.375054332
638.216950738
638.04129358
637.849673042
637.646957137
637.433728028
637.210027336
636.978003806
636.738254577
636.490606164
636.234424968
635.968997756
635.693825917
635.408845773
635.1145689
634.812148552
634.50338652
634.190710514
633.877149778
633.566310567
633.262330577