/*--------------------------------*- C++ -*----------------------------------*\
| =========                 |                                                 |
| \\      /  F ield         | OpenFOAM: The Open Source CFD Toolbox           |
|  \\    /   O peration     | Version:  v1906                                 |
|   \\  /    A nd           | Web:      www.OpenFOAM.com                      |
|    \\/     M anipulation  |                                                 |
\*---------------------------------------------------------------------------*/
FoamFile
{
    version     2.0;
    format      ascii;
    class       volVectorField;
    location    "558";
    object      U;
}
// * * * * * * * * * * * * * * * * * * * * * * * * * * * * * * * * * * * * * //

dimensions      [0 1 -1 0 0 0 0];


internalField   nonuniform List<vector> 
9216
(
(0.00270939460731 -0.0027118804509 0)
(0.00285665642033 -0.00875170733548 1.17272298306e-27)
(0.00284850306282 -0.0148855909995 1.84074329967e-31)
(0.00281122022441 -0.0210198639244 0)
(0.00275947325915 -0.0270513340818 0)
(0.00269470137673 -0.0329557475766 0)
(0.00261861499308 -0.0387072561922 0)
(0.00253252958325 -0.044282892006 0)
(0.00243777755944 -0.0496624556846 0)
(0.00233559605261 -0.0548285510299 0)
(0.00222728808767 -0.0597665048384 0)
(0.00211401666096 -0.0644643487294 0)
(0.00199698390411 -0.068912652362 0)
(0.00187719859947 -0.0731044111938 0)
(0.00175569500456 -0.0770348071676 0)
(0.00163328156613 -0.0807010448533 0)
(0.00151079932285 -0.0841020866677 0)
(0.00138885053697 -0.0872384810746 0)
(0.00126809205964 -0.0901121108118 0)
(0.00114894144619 -0.0927260430375 0)
(0.00103190050961 -0.0950843119721 0)
(0.000917236655728 -0.0971918040911 0)
(0.000805332160109 -0.0990540827565 0)
(0.000696340088779 -0.100677309886 0)
(0.000590556275842 -0.102068109308 0)
(0.000488050084454 -0.103233518218 0)
(0.000389056607764 -0.104180881962 0)
(0.000293584046686 -0.104917826751 0)
(0.000201824973124 -0.105452176961 0)
(0.000113743466944 -0.105791942024 0)
(2.9506311668e-05 -0.105945236736 0)
(-5.09711556291e-05 -0.105920343171 0)
(-0.000127575628122 -0.105725493762 0)
(-0.000200415000612 -0.105368959484 0)
(-0.00026937509679 -0.104859024837 0)
(-0.000334593220306 -0.104203949042 0)
(-0.000395983579406 -0.103411923723 0)
(-0.00045371226559 -0.102491062654 0)
(-0.000507714489047 -0.101449360526 0)
(-0.000558180163901 -0.100294684275 0)
(-0.000605062291022 -0.0990347386656 0)
(-0.000648570417961 -0.097677057831 0)
(-0.00068867225825 -0.0962289785183 0)
(-0.000725592682736 -0.0946976327609 0)
(-0.00075931043645 -0.0930899285823 0)
(-0.000790060910658 -0.0914125436601 0)
(-0.000817830297115 -0.0896719142032 0)
(-0.000842859935571 -0.0878742301037 0)
(-0.000865139780924 -0.0860254311957 0)
(-0.000884912626272 -0.084131203167 0)
(-0.000902169166341 -0.0821969812666 0)
(-0.000917149935773 -0.0802279468673 0)
(-0.000929843782229 -0.0782290372529 0)
(-0.0009404858462 -0.0762049415992 0)
(-0.000949061627636 -0.0741601164146 0)
(-0.000955798881285 -0.0720987804081 0)
(-0.000960679001123 -0.0700249339119 0)
(-0.000963921159895 -0.0679423512013 0)
(-0.000965503067483 -0.0658546033363 0)
(-0.00096563524165 -0.0637650473747 0)
(-0.000964292765293 -0.0616768511291 0)
(-0.000961677996629 -0.0595929781218 0)
(-0.000957765258517 -0.0575162140645 0)
(-0.000952749887742 -0.0554491474477 0)
(-0.000946607421326 -0.0533941968912 0)
(-0.000939527285897 -0.0513535869062 0)
(-0.000931488350703 -0.0493293766077 0)
(-0.000922675205404 -0.0473234312052 0)
(-0.000913071665391 -0.0453374519773 0)
(-0.000902857966502 -0.0433729436956 0)
(-0.000892024099333 -0.041431246869 0)
(-0.000880745953354 -0.0395135020525 0)
(-0.000869020138465 -0.0376206846454 0)
(-0.000857017450332 -0.0357535665491 0)
(-0.000844741070556 -0.0339127545374 0)
(-0.000832355479945 -0.0320986501551 0)
(-0.000819869735956 -0.030311491838 0)
(-0.000807440251471 -0.0285513134055 0)
(-0.000795080972185 -0.0268179905675 0)
(-0.000782938259667 -0.0251111986138 0)
(-0.000771029589123 -0.0234304631943 0)
(-0.000759489007585 -0.0217751174224 0)
(-0.000748335935526 -0.0201443572976 0)
(-0.000737689466117 -0.0185371988619 0)
(-0.000727568464758 -0.0169525386997 0)
(-0.000718072631034 -0.0153891128971 0)
(-0.000709213700754 -0.0138455662979 0)
(-0.000701057903472 -0.0123204221145 0)
(-0.000693579366695 -0.010812179368 0)
(-0.000686735218453 -0.0093193450981 0)
(-0.000680265586987 -0.00784067732895 0)
(-0.000673503657125 -0.00637565361241 0)
(-0.000664565594326 -0.00492604159125 0)
(-0.000645001016725 -0.00350915606837 0)
(-0.000609435846427 -0.00200225878982 0)
(-0.000917919238289 -0.000917761495686 0)
(0.00877141312081 -0.00288688436034 0)
(0.0096988693606 -0.00976946349302 0)
(0.0096764711186 -0.0166392441723 -1.23149532128e-27)
(0.00954702582711 -0.0235144091717 0)
(0.00936791007588 -0.0302650658199 0)
(0.00914644515334 -0.0368694633922 0)
(0.00888706795679 -0.0433001701559 0)
(0.00859394777125 -0.0495319450702 0)
(0.0082714385183 -0.0555423729888 0)
(0.00792380762914 -0.0613121110652 0)
(0.00755540101 -0.0668249007008 0)
(0.00717027711132 -0.0720675266292 0)
(0.00677242605587 -0.0770296616299 0)
(0.00636538964209 -0.08170369628 0)
(0.00595256417267 -0.0860844938117 0)
(0.00553681597056 -0.0901691624394 0)
(0.00512086346254 -0.0939567832767 0)
(0.00470688016474 -0.097448179089 0)
(0.00429694189786 -0.100645659457 0)
(0.00389260568537 -0.10355281948 0)
(0.00349540745474 -0.106174325781 0)
(0.00310640698698 -0.108515759412 0)
(0.00272672403576 -0.110583449287 0)
(0.00235704384089 -0.112384359262 0)
(0.0019981838456 -0.113925964315 0)
(0.00165055816239 -0.115216173729 0)
(0.00131477020613 -0.116263240154 0)
(0.000991038206028 -0.117075707911 0)
(0.000679812004179 -0.117662343758 0)
(0.000381163997526 -0.118032098479 0)
(9.54311806746e-05 -0.118194057582 0)
(-0.000177443653924 -0.118157356102 0)
(-0.000437246236824 -0.117931267375 0)
(-0.000684129646244 -0.117525098414 0)
(-0.000917946401671 -0.116948117211 0)
(-0.00113894405291 -0.116209556407 0)
(-0.00134706175301 -0.115318573535 0)
(-0.00154263472581 -0.114284229907 0)
(-0.00172567665482 -0.113115457585 0)
(-0.00189659882605 -0.111821038765 0)
(-0.00205547909662 -0.110409577308 0)
(-0.00220279225114 -0.108889480827 0)
(-0.00233866866564 -0.107268937973 0)
(-0.00246363267713 -0.105555904028 0)
(-0.00257785396916 -0.103758084379 0)
(-0.00268189133378 -0.101882923987 0)
(-0.00277594025127 -0.0999375973315 0)
(-0.00286057907368 -0.0979290018016 0)
(-0.00293601586217 -0.0958637537976 0)
(-0.00300283445077 -0.0937481856701 0)
(-0.00306124392599 -0.0915883475464 0)
(-0.00311182163656 -0.0893900071742 0)
(-0.00315476824373 -0.0871586564951 0)
(-0.00319064513433 -0.0848995134208 0)
(-0.00321963823337 -0.0826175321817 0)
(-0.0032422868634 -0.0803174059291 0)
(-0.00325875902771 -0.0780035795147 0)
(-0.00326956909231 -0.0756802516711 0)
(-0.00327486745024 -0.0733513891179 0)
(-0.00327514396829 -0.0710207272104 0)
(-0.00327053446417 -0.0686917841807 0)
(-0.00326150715819 -0.0663678592932 0)
(-0.00324818859407 -0.0640520465691 0)
(-0.0032310299513 -0.0617472299111 0)
(-0.00321015466102 -0.0594560958235 0)
(-0.00318600177052 -0.057181125306 0)
(-0.00315869778166 -0.0549246057477 0)
(-0.00312867399233 -0.0526886198799 0)
(-0.00309606485825 -0.0504750571733 0)
(-0.00306129662432 -0.0482856003747 0)
(-0.00302451484795 -0.046121737225 0)
(-0.0029861414598 -0.0439847453857 0)
(-0.00294633394741 -0.0418757051842 0)
(-0.00290550835504 -0.0397954836829 0)
(-0.00286383291062 -0.0377447493379 0)
(-0.00282171432635 -0.035723955977 0)
(-0.00277932848553 -0.0337333599036 0)
(-0.00273706770349 -0.0317730042965 0)
(-0.00269511121305 -0.0298427392892 0)
(-0.00265383091111 -0.0279422072276 0)
(-0.00261340410816 -0.0260708658623 0)
(-0.00257417547581 -0.0242279746526 0)
(-0.00253631437814 -0.0224126212634 0)
(-0.00250013040253 -0.0206237091812 0)
(-0.00246577681106 -0.0188599875944 0)
(-0.0024335160897 -0.0171200406657 0)
(-0.00240346843032 -0.0154023211009 0)
(-0.00237581813745 -0.0137051408679 0)
(-0.00235059234899 -0.0120267033062 0)
(-0.00232776811972 -0.0103650750027 0)
(-0.00230698673685 -0.00871813948719 0)
(-0.00228733785794 -0.00708330191651 0)
(-0.00226636563201 -0.00545637507894 0)
(-0.00223716360267 -0.00382811213919 0)
(-0.0021634972441 -0.00215887082058 0)
(-0.00200068791353 -0.000607414689967 0)
(0.0150159950193 -0.00293276028867 0)
(0.0166266113279 -0.00993025255408 0)
(0.01656591805 -0.0168902870703 -1.22945632837e-27)
(0.0163349435697 -0.0238660976958 0)
(0.0160232524637 -0.0307137367751 0)
(0.0156406040287 -0.0374099409199 0)
(0.0151935162644 -0.0439262432399 0)
(0.0146889083111 -0.0502368478778 0)
(0.0141341222294 -0.0563190189175 0)
(0.0135365935703 -0.0621532737515 0)
(0.0129037373676 -0.0677233862118 0)
(0.0122426571877 -0.0730163079523 0)
(0.0115601192875 -0.0780219992129 0)
(0.0108623207599 -0.0827332149654 0)
(0.0101549584431 -0.0871452445818 0)
(0.00944305276467 -0.0912556446363 0)
(0.00873109726938 -0.0950639581238 0)
(0.00802291854898 -0.0985714527739 0)
(0.00732188200459 -0.101780866408 0)
(0.00663076415799 -0.104696184808 0)
(0.00595199073564 -0.107322435494 0)
(0.00528750161177 -0.109665517268 0)
(0.00463900328793 -0.11173204639 0)
(0.00400781403828 -0.11352923512 0)
(0.00339512023552 -0.115064782709 0)
(0.00280179634661 -0.116346792309 0)
(0.00222866081476 -0.117383694806 0)
(0.00167627106008 -0.118184191574 0)
(0.00114517884159 -0.118757198808 0)
(0.000635703149087 -0.119111804848 0)
(0.000148185135602 -0.119257228005 0)
(-0.000317246495698 -0.119202780058 0)
(-0.000760416682334 -0.118957828244 0)
(-0.0011813696312 -0.118531766057 0)
(-0.00158009600945 -0.117933975273 0)
(-0.00195679423669 -0.117173797148 0)
(-0.00231159756251 -0.116260498575 0)
(-0.00264484540438 -0.115203244652 0)
(-0.00295680213712 -0.114011069127 0)
(-0.0032479325799 -0.112692849555 0)
(-0.00351861485409 -0.11125728156 0)
(-0.00376941925161 -0.109712857694 0)
(-0.00400081657979 -0.108067846724 0)
(-0.00421345951688 -0.106330277111 0)
(-0.00440788791908 -0.104507921705 0)
(-0.00458481199239 -0.102608286169 0)
(-0.00474481616292 -0.100638599492 0)
(-0.00488864333532 -0.0986058074712 0)
(-0.00501689884633 -0.0965165686332 0)
(-0.00513033516994 -0.0943772522881 0)
(-0.00522955748653 -0.0921939395257 0)
(-0.00531530805313 -0.0899724252191 0)
(-0.00538817477148 -0.0877182229978 0)
(-0.00544887447543 -0.0854365701032 0)
(-0.00549796583656 -0.0831324354212 0)
(-0.00553613061445 -0.0808105260707 0)
(-0.00556389201766 -0.0784752970071 0)
(-0.00558189291481 -0.0761309579479 0)
(-0.00559062065064 -0.0737814834634 0)
(-0.0055906809422 -0.0714306190948 0)
(-0.00558252988895 -0.0690818905958 0)
(-0.00556674220597 -0.0667386081579 0)
(-0.00554375107609 -0.0644038741876 0)
(-0.00551410915679 -0.0620805851031 0)
(-0.00547823677265 -0.0597714370742 0)
(-0.00543667418735 -0.0574789251534 0)
(-0.00538983871596 -0.0552053472513 0)
(-0.00533826671859 -0.0529528009633 0)
(-0.00528238025832 -0.0507231861009 0)
(-0.00522271749107 -0.0485181997823 0)
(-0.0051597097316 -0.0463393384666 0)
(-0.0050938989999 -0.044187892205 0)
(-0.00502572648671 -0.0420649469046 0)
(-0.00495573626058 -0.0399713785443 0)
(-0.00488437634182 -0.0379078566555 0)
(-0.00481218762291 -0.0358748393085 0)
(-0.00473961879667 -0.0338725783398 0)
(-0.00466719968435 -0.0319011156248 0)
(-0.00459537132876 -0.0299602906282 0)
(-0.00452464286815 -0.0280497383407 0)
(-0.00445543797112 -0.0261688992447 0)
(-0.00438823438835 -0.0243170190026 0)
(-0.00432342774019 -0.0224931609161 0)
(-0.00426145257051 -0.0206962072777 0)
(-0.0042026639157 -0.0189248738663 0)
(-0.00414743794268 -0.0171777122413 0)
(-0.00409607026992 -0.01545312469 0)
(-0.00404885196573 -0.0137493633578 0)
(-0.00400598012351 -0.0120645356318 0)
(-0.00396760268953 -0.0103965760752 0)
(-0.00393374332285 -0.00874318565233 0)
(-0.00390436610893 -0.00710165553795 0)
(-0.00387948061663 -0.00546841251114 0)
(-0.00385924199479 -0.00383733239943 0)
(-0.00382859646332 -0.00221993400797 0)
(-0.00349986331413 -0.000639278004012 0)
(0.0214083803528 -0.00297810040805 0)
(0.0237228668332 -0.010080670232 0)
(0.0236331714999 -0.0171362446823 1.22888556963e-27)
(0.023298613323 -0.0242083086005 0)
(0.0228479906838 -0.0311468522922 0)
(0.0222957521778 -0.0379271174515 0)
(0.0216513454577 -0.0445194608196 0)
(0.0209248553405 -0.0508973805772 0)
(0.0201269453945 -0.0570377892782 0)
(0.0192684640022 -0.0629211498326 0)
(0.0183601446279 -0.0685314353579 0)
(0.0174122992873 -0.0738559981723 0)
(0.0164346428881 -0.0788853550369 0)
(0.0154361054722 -0.083612920226 0)
(0.0144247823321 -0.0880347039196 0)
(0.0134078515628 -0.0921490015629 0)
(0.012391623837 -0.0959560848557 0)
(0.0113815314027 -0.0994579118334 0)
(0.0103822395458 -0.102657859003 0)
(0.00939766960673 -0.105560485429 0)
(0.0084311370328 -0.108171325775 0)
(0.00748537833963 -0.110496716756 0)
(0.00656269073472 -0.112543650385 0)
(0.00566494441023 -0.11431965541 0)
(0.00479371012074 -0.115832698942 0)
(0.0039502487008 -0.117091108505 0)
(0.00313562226631 -0.118103506613 0)
(0.00235066081496 -0.118878758175 0)
(0.00159605892223 -0.119425924042 0)
(0.000872323555816 -0.119754221791 0)
(0.000179860467917 -0.119872986504 0)
(-0.000481086522797 -0.119791651189 0)
(-0.0011103521688 -0.11951967805 0)
(-0.00170792948793 -0.119066557752 0)
(-0.00227388300934 -0.118441767601 0)
(-0.00280842280909 -0.11765473945 0)
(-0.00331182049033 -0.116714828073 0)
(-0.00378448572313 -0.115631281536 0)
(-0.00422687886728 -0.11441321209 0)
(-0.00463958740147 -0.113069569546 0)
(-0.00502323553602 -0.111609115942 0)
(-0.00537856047933 -0.110040403115 0)
(-0.00570631975083 -0.108371752211 0)
(-0.00600736737311 -0.106611236308 0)
(-0.00628255974438 -0.104766665432 0)
(-0.0065328321491 -0.102845574727 0)
(-0.00675910419276 -0.100855215211 0)
(-0.00696235689119 -0.0988025474448 0)
(-0.00714353857697 -0.096694237808 0)
(-0.00730364294321 -0.0945366573059 0)
(-0.00744361633406 -0.0923358827881 0)
(-0.00756443688735 -0.0900977000893 0)
(-0.00766702395677 -0.0878276092507 0)
(-0.00775231854247 -0.0855308309652 0)
(-0.00782119551905 -0.0832123146221 0)
(-0.00787454522495 -0.080876746718 0)
(-0.00791318890335 -0.0785285603301 0)
(-0.0079379612395 -0.0761719441147 0)
(-0.00794962922812 -0.0738108518292 0)
(-0.00794897502677 -0.0714490105355 0)
(-0.00793671812513 -0.0690899289058 0)
(-0.00791359776065 -0.0667369035677 0)
(-0.00788029809636 -0.0643930253261 0)
(-0.0078375291158 -0.0620611829578 0)
(-0.00778595433732 -0.0597440669163 0)
(-0.0077262691795 -0.0574441704515 0)
(-0.0076591308203 -0.0551637909469 0)
(-0.00758523297906 -0.0529050286977 0)
(-0.00750523764169 -0.0506697864332 0)
(-0.00741984553218 -0.0484597665158 0)
(-0.00732972973185 -0.0462764695582 0)
(-0.0072356012566 -0.0441211909805 0)
(-0.00713814483287 -0.0419950196805 0)
(-0.00703807935637 -0.0398988349201 0)
(-0.00693609636344 -0.0378333059911 0)
(-0.00683291522532 -0.0357988902364 0)
(-0.00672922496078 -0.0337958343904 0)
(-0.00662573420423 -0.0318241743148 0)
(-0.00652311707889 -0.0298837384901 0)
(-0.0064220578855 -0.0279741497715 0)
(-0.00632320166646 -0.0260948311661 0)
(-0.00622719354924 -0.0242450096301 0)
(-0.00613463449706 -0.0224237240183 0)
(-0.00604611497783 -0.0206298306095 0)
(-0.00596217609344 -0.0188620125689 0)
(-0.00588333699936 -0.017118786097 0)
(-0.00581006136478 -0.0153985094214 0)
(-0.00574277820777 -0.0136993859373 0)
(-0.00568185549132 -0.0120194653792 0)
(-0.0056276215628 -0.0103566305997 0)
(-0.00558036891682 -0.00870857530854 0)
(-0.00554043685964 -0.00707274858905 0)
(-0.00550832173485 -0.00544628798288 0)
(-0.00548383530543 -0.003824737278 0)
(-0.00544145478138 -0.00222987467358 0)
(-0.004898842813 -0.000653158487036 0)
(0.0279075891951 -0.00303763941262 0)
(0.0309278285663 -0.0102784443123 0)
(0.0308065240987 -0.0174665541055 0)
(0.030363045058 -0.0246679927693 0)
(0.0297662124786 -0.0317278948105 0)
(0.0290356068817 -0.0386197917225 0)
(0.0281841047196 -0.0453126078691 0)
(0.0272253812777 -0.0517789266619 0)
(0.0261738135494 -0.0579952180054 0)
(0.0250439779616 -0.063941921146 0)
(0.0238502086549 -0.0696033405388 0)
(0.0226062202924 -0.0749674418439 0)
(0.0213248385796 -0.0800255639214 0)
(0.0200177997693 -0.0847720789696 0)
(0.0186956531236 -0.0892040269284 0)
(0.0173677120401 -0.0933207483726 0)
(0.0160420862645 -0.0971235323242 0)
(0.0147257327007 -0.100615292633 0)
(0.0134245619071 -0.103800279364 0)
(0.0121435349461 -0.106683829843 0)
(0.0108867956765 -0.109272158561 0)
(0.00965777271456 -0.111572184936 0)
(0.0084593047935 -0.113591394234 0)
(0.00729372356577 -0.115337727985 0)
(0.00616295536764 -0.116819497823 0)
(0.00506857522809 -0.118045318635 0)
(0.00401188106197 -0.119024055381 0)
(0.00299391968594 -0.119764780232 0)
(0.00201553753509 -0.120276735758 0)
(0.00107738525705 -0.120569302359 0)
(0.000179952662923 -0.120651963261 0)
(-0.000676440412177 -0.120534297434 0)
(-0.00149161116742 -0.120225893345 0)
(-0.00226553875515 -0.119736374342 0)
(-0.00299833357258 -0.119075341953 0)
(-0.00369025432978 -0.118252347707 0)
(-0.00434168226535 -0.117276861287 0)
(-0.00495313629879 -0.116158239721 0)
(-0.00552524485717 -0.114905697675 0)
(-0.00605875916229 -0.113528279626 0)
(-0.00655452245868 -0.112034833912 0)
(-0.00701348159544 -0.110433989337 0)
(-0.00743665424517 -0.108734134313 0)
(-0.00782513941126 -0.106943398964 0)
(-0.00818008355176 -0.105069640059 0)
(-0.0085026908251 -0.103120429074 0)
(-0.00879418907018 -0.101103043201 0)
(-0.00905584058152 -0.099024459376 0)
(-0.00928890887419 -0.0968913510791 0)
(-0.00949467072578 -0.0947100878511 0)
(-0.0096743845402 -0.0924867373018 0)
(-0.00982930427263 -0.0902270693386 0)
(-0.00996065011318 -0.0879365623339 0)
(-0.0100696247933 -0.0856204108847 0)
(-0.0101573871162 -0.0832835349091 0)
(-0.0102250709069 -0.0809305895479 0)
(-0.0102737616751 -0.07856597562 0)
(-0.0103045181835 -0.0761938500768 0)
(-0.0103183521619 -0.0738181363119 0)
(-0.0103162520661 -0.0714425336827 0)
(-0.0102991653983 -0.0690705262187 0)
(-0.0102680238825 -0.0667053899541 0)
(-0.0102237276053 -0.0643501990907 0)
(-0.0101671705468 -0.0620078304263 0)
(-0.0100992255952 -0.059680966474 0)
(-0.0100207693129 -0.0573720968296 0)
(-0.00993266689902 -0.055083518475 0)
(-0.00983579517189 -0.0528173345577 0)
(-0.0097310267883 -0.0505754525273 0)
(-0.00961925074397 -0.0483595812016 0)
(-0.00950135550613 -0.046171227827 0)
(-0.00937824668048 -0.0440116945621 0)
(-0.00925082910515 -0.0418820755494 0)
(-0.00912002170849 -0.0397832538961 0)
(-0.00898673892394 -0.0377158998238 0)
(-0.00885190299052 -0.0356804690589 0)
(-0.00871642524166 -0.0336772027744 0)
(-0.00858121624178 -0.0317061279802 0)
(-0.00844716755717 -0.029767059742 0)
(-0.00831516009304 -0.0278596038587 0)
(-0.00818604689809 -0.0259831614404 0)
(-0.00806065999944 -0.0241369338252 0)
(-0.0079397946766 -0.0223199293299 0)
(-0.00782421494869 -0.0205309700161 0)
(-0.00771463965757 -0.0187686999102 0)
(-0.00761174684109 -0.0170315926593 0)
(-0.00751616237421 -0.015317959876 0)
(-0.00742846469507 -0.0136259574352 0)
(-0.00734917992743 -0.0119535914724 0)
(-0.00727879557849 -0.0102987207962 0)
(-0.00721778026709 -0.00865906206869 0)
(-0.00716663677558 -0.00703220201126 0)
(-0.00712589493317 -0.00541564847709 0)
(-0.00709443711784 -0.00380542451808 0)
(-0.00703693340904 -0.00222492183284 0)
(-0.00631615768757 -0.000654444941351 0)
(0.034551523336 -0.00311307961445 0)
(0.0382884761316 -0.0105316186455 0)
(0.0381309536277 -0.017891771857 0)
(0.0375705334358 -0.0252599340603 0)
(0.0368171205942 -0.0324755433171 0)
(0.0358959221065 -0.0395100356053 0)
(0.0348238083115 -0.0463305965815 0)
(0.0336185992256 -0.0529087079746 0)
(0.032298903781 -0.0592203514954 0)
(0.0308834703691 -0.0652460308561 0)
(0.0293906050105 -0.0709705805432 0)
(0.0278376991856 -0.0763828610564 0)
(0.0262408861812 -0.0814753674009 0)
(0.0246148136451 -0.0862437901709 0)
(0.0229725309188 -0.0906865623499 0)
(0.0213254634853 -0.0948044188803 0)
(0.0196834661698 -0.0985999879967 0)
(0.0180549232328 -0.102077426983 0)
(0.0164468892321 -0.105242108297 0)
(0.0148652414776 -0.108100357824 0)
(0.0133148444472 -0.110659242828 0)
(0.0117997019219 -0.112926405309 0)
(0.0103231042283 -0.114909934431 0)
(0.00888775084875 -0.116618271519 0)
(0.00749586156572 -0.118060140512 0)
(0.00614925952027 -0.11924449755 0)
(0.00484944354833 -0.120180493571 0)
(0.0035976348192 -0.120877445166 0)
(0.00239481768259 -0.121344809549 0)
(0.00124175989108 -0.121592160873 0)
(0.000139034347117 -0.121629161439 0)
(-0.000912981657532 -0.121465568718 0)
(-0.00191408159817 -0.121111125366 0)
(-0.00286424599733 -0.120575620978 0)
(-0.00376362540463 -0.119868812477 0)
(-0.0046125432129 -0.119000402732 0)
(-0.00541148512817 -0.117980006905 0)
(-0.00616109745126 -0.116817120432 0)
(-0.00686217350957 -0.115521088037 0)
(-0.00751564881048 -0.114101074528 0)
(-0.00812258428525 -0.112566037734 0)
(-0.00868415879154 -0.110924704092 0)
(-0.00920165001672 -0.109185547057 0)
(-0.00967642531676 -0.107356768654 0)
(-0.010109921416 -0.105446284213 0)
(-0.0105036347566 -0.103461710408 0)
(-0.0108591011775 -0.101410356529 0)
(-0.0111778868503 -0.0992992189551 0)
(-0.0114615690043 -0.0971349786734 0)
(-0.0117117284583 -0.0949240017082 0)
(-0.011929932359 -0.0926723422001 0)
(-0.0121177291502 -0.0903857478895 0)
(-0.0122766341413 -0.088069667696 0)
(-0.0124081276452 -0.0857292610346 0)
(-0.0125136440165 -0.0833694084794 0)
(-0.0125945733864 -0.0809947233328 0)
(-0.0126522544669 -0.0786095636909 0)
(-0.0126879799635 -0.0762180445195 0)
(-0.0127029930057 -0.0738240493411 0)
(-0.0126984957739 -0.0714312410705 0)
(-0.012675648885 -0.0690430717113 0)
(-0.0126355823169 -0.0666627905474 0)
(-0.0125793966531 -0.0642934506951 0)
(-0.0125081749851 -0.0619379137958 0)
(-0.0124229846619 -0.0595988529336 0)
(-0.0123248887849 -0.0572787537241 0)
(-0.0122149471613 -0.0549799138468 0)
(-0.012094226141 -0.0527044411021 0)
(-0.0119637977663 -0.0504542504289 0)
(-0.0118247471449 -0.0482310600393 0)
(-0.0116781692815 -0.0460363871808 0)
(-0.011525173654 -0.0438715436749 0)
(-0.0113668787119 -0.0417376317597 0)
(-0.0112044138327 -0.0396355403141 0)
(-0.011038911896 -0.0375659419502 0)
(-0.0108715090915 -0.0355292909243 0)
(-0.0107033362087 -0.033525822298 0)
(-0.0105355169446 -0.0315555521704 0)
(-0.0103691586187 -0.0296182793569 0)
(-0.0102053495885 -0.0277135881915 0)
(-0.0100451500254 -0.0258408527897 0)
(-0.00988958897446 -0.0239992423268 0)
(-0.00973965572103 -0.0221877276291 0)
(-0.00959629691659 -0.0204050885188 0)
(-0.00946040905204 -0.0186499221529 0)
(-0.00933283625026 -0.0169206517391 0)
(-0.00921436486884 -0.0152155358739 0)
(-0.00910572368536 -0.0135326781715 0)
(-0.00900758379033 -0.0118700374237 0)
(-0.00892056680776 -0.0102254393386 0)
(-0.0088452583123 -0.00859659968556 0)
(-0.00878222606078 -0.00698114758245 0)
(-0.00873191932835 -0.00537667671055 0)
(-0.00869241092651 -0.00377922465406 0)
(-0.00861952579372 -0.00221198226997 0)
(-0.0077301966499 -0.00065159448924 0)
(0.0413772413999 -0.00320652692775 0)
(0.0458467953437 -0.0108459037437 0)
(0.0456466165549 -0.0184202127261 1.21931586129e-27)
(0.0449583982154 -0.0259952519784 0)
(0.0440346071636 -0.0334033129597 0)
(0.0429067472817 -0.0406132018306 0)
(0.0415963998738 -0.0475899954768 0)
(0.0401262500333 -0.0543039008286 0)
(0.0385198100275 -0.0607304232324 0)
(0.0368005795723 -0.0668503027995 0)
(0.0349913057682 -0.0726492007826 0)
(0.033113402031 -0.078117255561 0)
(0.031186537955 -0.0832485498185 0)
(0.0292283900228 -0.0880405396837 0)
(0.0272545362823 -0.0924934872505 0)
(0.0252784667683 -0.0966099275978 0)
(0.0233116840881 -0.100394190966 0)
(0.0213638639831 -0.103851991469 0)
(0.0194430541009 -0.106990086124 0)
(0.0175558873752 -0.109816002345 0)
(0.0157077968788 -0.112337828162 0)
(0.0139032169649 -0.114564057154 0)
(0.0121457658931 -0.116503478903 0)
(0.0104384016706 -0.118165105497 0)
(0.00878355257316 -0.119558124929 0)
(0.00718321886054 -0.120691873051 0)
(0.00563905129784 -0.12157581681 0)
(0.00415240575209 -0.122219542883 0)
(0.00272438160925 -0.122632747255 0)
(0.00135584393146 -0.12282522152 0)
(4.74431564282e-05 -0.122806835372 0)
(-0.00120039713071 -0.122587550617 0)
(-0.00238744941496 -0.122177295072 0)
(-0.00351370019957 -0.121586055282 0)
(-0.00457934221991 -0.120823775845 0)
(-0.00558477206056 -0.119900343462 0)
(-0.00653058377666 -0.118825550734 0)
(-0.00741756250433 -0.117609062318 0)
(-0.00824667342609 -0.116260382096 0)
(-0.00901905086907 -0.114788822159 0)
(-0.00973598308585 -0.113203474203 0)
(-0.0103988977788 -0.111513183797 0)
(-0.0110093439546 -0.109726527859 0)
(-0.0115689753119 -0.10785179556 0)
(-0.0120795306894 -0.105896972764 0)
(-0.0125428168172 -0.103869730069 0)
(-0.0129606888059 -0.101777414402 0)
(-0.0133350336323 -0.099627044102 0)
(-0.0136677519635 -0.0974253072995 0)
(-0.0139607435778 -0.0951785634619 0)
(-0.0142158916551 -0.0928928478299 0)
(-0.0144350511999 -0.0905738784814 0)
(-0.0146200368078 -0.0882270656629 0)
(-0.014772615001 -0.0858575230242 0)
(-0.0148944962608 -0.0834700803058 0)
(-0.0149873318985 -0.0810692970131 0)
(-0.0150527107707 -0.0786594765433 0)
(-0.0150921608211 -0.0762446802717 0)
(-0.0151071503064 -0.0738287410704 0)
(-0.0150990934976 -0.0714152757902 0)
(-0.0150693555774 -0.0690076962611 0)
(-0.0150192613309 -0.0666092184898 0)
(-0.0149501022733 -0.0642228697941 0)
(-0.0148631466747 -0.061851493743 0)
(-0.0147596471578 -0.0594977528615 0)
(-0.0146408502595 -0.0571641292088 0)
(-0.0145080027803 -0.0548529230173 0)
(-0.0143623593203 -0.0525662496739 0)
(-0.0142051860815 -0.0503060353878 0)
(-0.0140377653682 -0.0480740119431 0)
(-0.0138613961773 -0.0458717109579 0)
(-0.0136773953299 -0.0437004580386 0)
(-0.0134870948664 -0.0415613672283 0)
(-0.0132918400994 -0.0394553360671 0)
(-0.0130929843564 -0.0373830415891 0)
(-0.0128918846558 -0.0353449374325 0)
(-0.0126898946325 -0.0333412522777 0)
(-0.0124883587094 -0.0313719896656 0)
(-0.0122886040961 -0.0294369293217 0)
(-0.0120919342874 -0.0275356298978 0)
(-0.0118996209274 -0.0256674331897 0)
(-0.0117128973392 -0.0238314696498 0)
(-0.0115329509064 -0.0220266651996 0)
(-0.0113609172209 -0.0202517491056 0)
(-0.0111978735925 -0.0185052628633 0)
(-0.0110448345034 -0.0167855699857 0)
(-0.0109027471618 -0.0150908667379 0)
(-0.0107724895302 -0.0134191937277 0)
(-0.010654869801 -0.0117684499627 0)
(-0.0105506291849 -0.010136409213 0)
(-0.010460446526 -0.00852074261219 0)
(-0.0103849357956 -0.0069190460414 0)
(-0.0103244888365 -0.0053288742912 0)
(-0.0102765645268 -0.00374612749223 0)
(-0.0101886821186 -0.00219348839531 0)
(-0.00913495788515 -0.000646472413932 0)
(0.048425861788 -0.00332009097832 0)
(0.0536479825724 -0.0112279328191 0)
(0.0533967907037 -0.0190623869717 -1.21866682956e-27)
(0.0525666950411 -0.0268879855594 0)
(0.0514547149526 -0.0345281176821 0)
(0.0500995945011 -0.0419483081918 0)
(0.0485285840739 -0.0491111104758 0)
(0.0467701792499 -0.0559853116741 0)
(0.0448536617588 -0.0625460356017 0)
(0.0428080186387 -0.0687745487218 0)
(0.0406610169753 -0.0746577717029 0)
(0.0384385039259 -0.0801876425454 0)
(0.036163938493 -0.0853603931778 0)
(0.0338581370843 -0.0901758057222 0)
(0.0315392019587 -0.0946364995903 0)
(0.0292225934166 -0.0987472851447 0)
(0.026921306529 -0.102514604898 0)
(0.0246461146379 -0.105946071081 0)
(0.0224058485081 -0.109050098951 0)
(0.0202076848458 -0.111835628965 0)
(0.0180574257719 -0.114311926966 0)
(0.0159597550121 -0.11648844977 0)
(0.0139184631234 -0.118374762891 0)
(0.0119366364209 -0.119980497643 0)
(0.0100168092624 -0.121315335718 0)
(0.00816108016623 -0.122389010773 0)
(0.00637119606762 -0.123211318145 0)
(0.00464860853961 -0.12379212581 0)
(0.00299450845654 -0.124141381799 0)
(0.00140984345298 -0.124269109401 0)
(-0.000104668461588 -0.124185421105 0)
(-0.00154855560662 -0.123900473158 0)
(-0.0029215740657 -0.123424440668 0)
(-0.00422371925754 -0.122767526182 0)
(-0.00545522866863 -0.121939896883 0)
(-0.00661657816717 -0.120951656963 0)
(-0.0077084769371 -0.119812810136 0)
(-0.00873185956823 -0.118533222963 0)
(-0.00968787433855 -0.11712258936 0)
(-0.0105778691544 -0.115590397205 0)
(-0.0114033743768 -0.113945897701 0)
(-0.0121660842062 -0.112198078039 0)
(-0.0128678359052 -0.110355637672 0)
(-0.0135105885811 -0.108426968456 0)
(-0.0140964007668 -0.106420138753 0)
(-0.0146274084971 -0.104342881508 0)
(-0.0151058030257 -0.102202586261 0)
(-0.0155338098262 -0.100006294945 0)
(-0.0159136679477 -0.0977607013507 0)
(-0.0162476113439 -0.0954721540154 0)
(-0.0165378511938 -0.0931466623062 0)
(-0.0167865608163 -0.0907899053799 0)
(-0.0169958621628 -0.0884072436739 0)
(-0.017167815458 -0.0860037324901 0)
(-0.0173044108859 -0.0835841371918 0)
(-0.0174075637828 -0.0811529494573 0)
(-0.0174791120905 -0.0787144040156 0)
(-0.0175208173499 -0.0762724952334 0)
(-0.0175343677736 -0.073830992961 0)
(-0.017521384447 -0.0713934570399 0)
(-0.0174834289831 -0.0689632499884 0)
(-0.017422013476 -0.0665435474239 0)
(-0.0173386109169 -0.064137345948 0)
(-0.0172346667896 -0.061747468311 0)
(-0.0171116099792 -0.0593765658644 0)
(-0.0169708637141 -0.0570271184027 0)
(-0.0168138547718 -0.0547014316691 0)
(-0.0166420217806 -0.0524016328672 0)
(-0.0164568210729 -0.0501296646405 0)
(-0.0162597311056 -0.0478872779971 0)
(-0.0160522541653 -0.0456760247023 0)
(-0.015835916556 -0.043497249622 0)
(-0.0156122662427 -0.0413520834862 0)
(-0.0153828692655 -0.0392414364624 0)
(-0.0151493040821 -0.0371659928685 0)
(-0.0149131551729 -0.0351262072692 0)
(-0.0146760051786 -0.0331223021305 0)
(-0.0144394268433 -0.0311542671272 0)
(-0.0142049740754 -0.0292218601466 0)
(-0.0139741732829 -0.0273246099573 0)
(-0.0137485143252 -0.0254618205031 0)
(-0.0135294421055 -0.023632576699 0)
(-0.0133183481789 -0.0218357516397 0)
(-0.013116563281 -0.0200700150736 0)
(-0.0129253502295 -0.0183338430479 0)
(-0.012745898023 -0.0166255286685 0)
(-0.0125793167198 -0.0149431940118 0)
(-0.0124266338416 -0.0132848036781 0)
(-0.0122887918735 -0.0116481797397 0)
(-0.0121666473059 -0.0100310191225 0)
(-0.0120609690425 -0.00843092020737 0)