/*--------------------------------*- C++ -*----------------------------------*\
| =========                 |                                                 |
| \\      /  F ield         | OpenFOAM: The Open Source CFD Toolbox           |
|  \\    /   O peration     | Version:  v1906                                 |
|   \\  /    A nd           | Web:      www.OpenFOAM.com                      |
|    \\/     M anipulation  |                                                 |
\*---------------------------------------------------------------------------*/
FoamFile
{
    version     2.0;
    format      ascii;
    class       volVectorField;
    location    "325";
    object      U;
}
// * * * * * * * * * * * * * * * * * * * * * * * * * * * * * * * * * * * * * //

dimensions      [0 1 -1 0 0 0 0];


internalField   nonuniform List<vector> 
9216
(
(0.00158332541451 -0.00158455359695 0)
(0.0015916687397 -0.00485684394312 6.54585402662e-28)
(0.00158409390688 -0.00817223770389 1.08619012381e-31)
(0.00156228872085 -0.0114559841369 0)
(0.00153151864614 -0.0146835939032 0)
(0.00149327083519 -0.0178387370191 0)
(0.00144856995829 -0.0209070639482 0)
(0.00139827359973 -0.0238760596123 0)
(0.00134320162364 -0.0267349276505 0)
(0.00128415231669 -0.0294745512645 0)
(0.0012218965123 -0.0320874565423 0)
(0.00115716351296 -0.0345677332351 0)
(0.00109062385337 -0.0369109410636 0)
(0.00102288591293 -0.0391139682619 0)
(0.000954477919571 -0.0411748989542 0)
(0.000885862015528 -0.0430928390121 0)
(0.000817411801837 -0.0448677776678 0)
(0.000749445587538 -0.0465004093049 0)
(0.000682193017242 -0.0479920142838 0)
(0.000615848869472 -0.0493442940519 0)
(0.000550521640764 -0.0505592849454 0)
(0.000486310488535 -0.0516392136796 0)
(0.000423229163013 -0.0525864484955 0)
(0.000361310041727 -0.0534033744004 0)
(0.000300496888769 -0.0540923811253 0)
(0.00024078151918 -0.0546557547159 0)
(0.000182059397713 -0.0550956995574 0)
(0.000124305323086 -0.05541424198 0)
(6.73855188214e-05 -0.0556132849367 0)
(1.12801552609e-05 -0.0556945194211 0)
(-4.41580116395e-05 -0.0556595209125 0)
(-9.89263690524e-05 -0.0555096462032 0)
(-0.000153163964098 -0.0552461724578 0)
(-0.000206817858076 -0.0548702238982 0)
(-0.000260003244005 -0.0543829220913 0)
(-0.000312598151865 -0.0537853253855 0)
(-0.000364676396808 -0.0530786125917 0)
(-0.000416027212589 -0.0522640289463 0)
(-0.000466669398547 -0.0513430977476 0)
(-0.000516289202918 -0.0503175665618 0)
(-0.00056484417959 -0.0491896397786 0)
(-0.000611911739776 -0.0479619185041 0)
(-0.000657388974879 -0.0466376435752 0)
(-0.000700744954693 -0.0452206233487 0)
(-0.000741821612433 -0.0437154801972 0)
(-0.000779983391055 -0.0421275698897 0)
(-0.000815020958073 -0.0404632242249 0)
(-0.000846199048452 -0.0387296697698 0)
(-0.000873264438107 -0.0369352535315 0)
(-0.000895403817239 -0.0350893606312 0)
(-0.000912354258516 -0.033202577223 0)
(-0.000923296778468 -0.0312865690858 0)
(-0.000928058620033 -0.0293540974396 0)
(-0.000925966824271 -0.0274187882909 0)
(-0.000917105177198 -0.025494915852 0)
(-0.000901135064658 -0.0235970225516 0)
(-0.000878548267746 -0.0217394907516 0)
(-0.000849451282366 -0.0199360848356 0)
(-0.000814773060602 -0.0181994643584 0)
(-0.000775022829243 -0.0165407870704 0)
(-0.000731457340992 -0.0149693420536 0)
(-0.000684829823142 -0.0134923124033 0)
(-0.000636528690584 -0.0121146280501 0)
(-0.000587317862702 -0.0108389557808 0)
(-0.000538473803801 -0.0096658241694 0)
(-0.000490539668474 -0.00859385133939 0)
(-0.000444496410763 -0.00762006387661 0)
(-0.000400553226274 -0.00674025134163 0)
(-0.000359356357743 -0.00594930797192 0)
(-0.000320817532722 -0.00524157238807 0)
(-0.000285328024315 -0.00461104937442 0)
(-0.000252616958802 -0.00405165970401 0)
(-0.000222925930654 -0.00355731568161 0)
(-0.000195894948361 -0.00312210693017 0)
(-0.000171673039843 -0.0027402879353 0)
(-0.000149855129713 -0.00240644445987 0)
(-0.000130526034171 -0.00211543231309 0)
(-0.000113265457407 -0.00186252728483 0)
(-9.81152845144e-05 -0.00164332997866 0)
(-8.46498063736e-05 -0.00145390240929 0)
(-7.28434914341e-05 -0.00129069549121 0)
(-6.21458275222e-05 -0.00115073984404 0)
(-5.18935001191e-05 -0.00103294971167 0)
(-3.97616996904e-05 -0.000923309730739 0)
(-3.63341195885e-05 -0.000857493091084 0)
(-3.67394712442e-05 -0.000784044984527 0)
(-3.25063120803e-05 -0.00070960540161 0)
(-2.77748137965e-05 -0.000650874564393 0)
(-2.84939865825e-05 -0.000601769281372 0)
(-3.17503365598e-05 -0.00054260156879 0)
(-3.25018720427e-05 -0.000482246562316 0)
(-3.37042530134e-05 -0.000416341026558 0)
(-3.91438740423e-05 -0.000343137230576 0)
(-4.50664109514e-05 -0.000261904992602 0)
(-5.09671439377e-05 -0.000162308341478 0)
(-5.41492537733e-05 -5.22035290954e-05 0)
(0.00486954180112 -0.00160939318057 0)
(0.00512466568418 -0.00516374913904 0)
(0.00509020138971 -0.00869574851302 -6.73089717607e-28)
(0.00501548144625 -0.0122020968859 0)
(0.0049147473359 -0.0156417278744 0)
(0.00479100392979 -0.0190017818752 0)
(0.00464685284885 -0.0222677688458 0)
(0.0044848516288 -0.0254266403607 0)
(0.00430757959943 -0.0284670141392 0)
(0.00411759580177 -0.031379277823 0)
(0.00391738234201 -0.0341555811629 0)
(0.00370928815433 -0.0367897661568 0)
(0.00349547495395 -0.0392772545537 0)
(0.00327789408752 -0.0416149003995 0)
(0.00305824778683 -0.0438008290708 0)
(0.00283800668836 -0.0458342590165 0)
(0.00261837744538 -0.0477153329292 0)
(0.00240035865523 -0.0494449419419 0)
(0.00218470014745 -0.0510245758847 0)
(0.00197199408825 -0.0524561690853 0)
(0.00176261097916 -0.0537419829797 0)
(0.00155682572267 -0.0548844803831 0)
(0.00135471759473 -0.055886243725 0)
(0.00115633485729 -0.0567498769969 0)
(0.000961548032963 -0.0574779573535 0)
(0.000770260366273 -0.0580729604864 0)
(0.000582205521943 -0.0585372418603 0)
(0.000397213542627 -0.0588729812872 0)
(0.000214944447803 -0.0590821906635 0)
(3.52212887948e-05 -0.0591666762741 0)
(-0.000142311529347 -0.0591280643281 0)
(-0.000317776300827 -0.0589677998228 0)
(-0.000491480879172 -0.058687189617 0)
(-0.000663421317129 -0.0582874001514 0)
(-0.000833797432317 -0.057769547272 0)
(-0.00100241419153 -0.0571347084341 0)
(-0.00116930381718 -0.0563840392082 0)
(-0.00133402002825 -0.0555188004505 0)
(-0.00149638040799 -0.0545404979918 0)
(-0.00165564536616 -0.0534509184413 0)
(-0.00181139393193 -0.0522522836828 0)
(-0.00196257731163 -0.0509472859325 0)
(-0.00210853696887 -0.049539246677 0)
(-0.00224792093582 -0.0480321435708 0)
(-0.00237984845825 -0.0464307669735 0)
(-0.00250267753513 -0.0447407391862 0)
(-0.00261531682531 -0.0429686683771 0)
(-0.00271584623125 -0.0411221682247 0)
(-0.0028029827881 -0.03921000682 0)
(-0.00287458364132 -0.0372421232944 0)
(-0.00292928095388 -0.035229737347 0)
(-0.00296492609164 -0.0331853134054 0)
(-0.00298039574065 -0.0311225393587 0)
(-0.00297401966881 -0.029056136102 0)
(-0.00294548865141 -0.0270015963116 0)
(-0.00289423142944 -0.0249747739865 0)
(-0.00282127832881 -0.022991393489 0)
(-0.00272751978286 -0.02106651386 0)
(-0.00261542990297 -0.0192139860511 0)
(-0.00248721173799 -0.0174459873044 0)
(-0.00234641509824 -0.0157726247477 0)
(-0.00219603853255 -0.0142016519236 0)
(-0.00204006707824 -0.0127383060006 0)
(-0.00188153318294 -0.0113852932402 0)
(-0.00172404505628 -0.0101429386198 0)
(-0.00156989905917 -0.00900946105411 0)
(-0.00142171812912 -0.00798135247257 0)
(-0.00128069148609 -0.00705379157027 0)
(-0.00114834167097 -0.0062210483752 0)
(-0.00102487894676 -0.00547684848532 0)
(-0.00091101409619 -0.00481464083498 0)
(-0.000806364154188 -0.00422781999983 0)
(-0.000711191485857 -0.00370983579674 0)
(-0.000624817750657 -0.00325432263011 0)
(-0.000547241552428 -0.00285513983242 0)
(-0.000477614645003 -0.00250647831358 0)
(-0.000415761953986 -0.00220286686726 0)
(-0.000360758781977 -0.001939250991 0)
(-0.000312339173318 -0.00171095951672 0)
(-0.000269565748163 -0.00151374485192 0)
(-0.000232095441212 -0.00134369830662 0)
(-0.000198865500186 -0.00119716676138 0)
(-0.000169061329002 -0.00107060472178 0)
(-0.000139622608049 -0.000957228594797 0)
(-0.000120035778331 -0.000841177268708 0)
(-0.000113654259531 -0.000771797245722 0)
(-9.67945380623e-05 -0.000690683487656 0)
(-8.32284780338e-05 -0.000636412612012 0)
(-8.31987085056e-05 -0.000577777081672 0)
(-9.14302076358e-05 -0.000531526964573 0)
(-9.66740735868e-05 -0.000481194958084 0)
(-0.000103966515103 -0.000411810223198 0)
(-0.000116365444963 -0.000336974814802 0)
(-0.000145454240634 -0.000269561779197 0)
(-0.000178090380316 -0.000173527569918 0)
(-0.000159503305273 -4.7700496046e-05 0)
(0.00825021841437 -0.00163452315954 0)
(0.00868985468671 -0.00523405747438 0)
(0.00861530592641 -0.00879765792022 -6.72144113903e-28)
(0.00848320130544 -0.0123431239033 0)
(0.00830962022603 -0.0158199541621 0)
(0.00809799272903 -0.019214418295 0)
(0.00785213201841 -0.0225114952628 0)
(0.00757621174059 -0.0256979123288 0)
(0.00727458763923 -0.0287622023716 0)
(0.00695162441062 -0.0316947813913 0)
(0.00661156879079 -0.03448792289 0)
(0.00625842704941 -0.0371356724668 0)
(0.0058958875874 -0.0396337138586 0)
(0.00552725383683 -0.0419792046074 0)
(0.00515541620559 -0.0441705930214 0)
(0.00478283659759 -0.0462074281831 0)
(0.00441155605403 -0.0480901729734 0)
(0.0040432174973 -0.049820024609 0)
(0.00367908979532 -0.0513987512201 0)
(0.00332011457879 -0.0528285416783 0)
(0.00296692928255 -0.0541118773255 0)
(0.00261992847829 -0.0552514163336 0)
(0.00227927349068 -0.0562499014044 0)
(0.00194496475497 -0.057110075932 0)
(0.00161683070119 -0.0578346233659 0)
(0.0012946127836 -0.0584261097381 0)
(0.000977929926509 -0.0588869494453 0)
(0.000666381226303 -0.0592193691722 0)
(0.000359484035895 -0.0594253966011 0)
(5.68005879537e-05 -0.0595068432883 0)
(-0.000242150503081 -0.0594653163853 0)
(-0.000537737203159 -0.059302217672 0)
(-0.000830335705242 -0.0590187800647 0)
(-0.00112013579476 -0.0586160899076 0)
(-0.0014072977566 -0.0580951462045 0)
(-0.00169172030121 -0.057456905426 0)
(-0.00197324186565 -0.0567023670031 0)
(-0.00225136962589 -0.0558326386499 0)
(-0.0025255350922 -0.054849043481 0)
(-0.00279478461729 -0.0537531986952 0)
(-0.00305809816948 -0.052547134872 0)
(-0.00331403839388 -0.0512333766621 0)
(-0.00356113573306 -0.049815061514 0)
(-0.00379748663474 -0.0482960115868 0)
(-0.00402120021319 -0.0466808448546 0)
(-0.00422993227186 -0.0449750384809 0)
(-0.00442138741875 -0.0431850380129 0)
(-0.00459278843474 -0.0413183264472 0)
(-0.00474144721721 -0.0393835453211 0)
(-0.00486420853832 -0.0373905772235 0)
(-0.00495814134057 -0.0353506598495 0)
(-0.00502003961794 -0.0332764285645 0)
(-0.00504728980813 -0.0311819173363 0)
(-0.00503747351644 -0.0290824148428 0)
(-0.00498934849576 -0.02699418466 0)
(-0.00490242851558 -0.0249340154289 0)
(-0.00477784488667 -0.0229186488188 0)
(-0.00461771374079 -0.020964150507 0)
(-0.00442574016716 -0.0190852816068 0)
(-0.0042063443918 -0.0172949689947 0)
(-0.00396512593089 -0.0156038746119 0)
(-0.00370790955774 -0.0140200614367 0)
(-0.00344108221428 -0.0125487980936 0)
(-0.00317052769837 -0.0111925372148 0)
(-0.00290193789687 -0.00995110138328 0)
(-0.00263984520188 -0.00882203384298 0)
(-0.00238814074155 -0.00780106635798 0)
(-0.00214935292576 -0.00688262315495 0)
(-0.00192540816029 -0.00606030033101 0)
(-0.00171710721256 -0.0053272707931 0)
(-0.00152499826244 -0.00467657289612 0)
(-0.00134889220619 -0.00410129990307 0)
(-0.00118865276422 -0.00359469037469 0)
(-0.00104361782137 -0.00315020170733 0)
(-0.000913260969513 -0.0027615615301 0)
(-0.000796610455826 -0.00242284444163 0)
(-0.000692881762342 -0.00212851053613 0)
(-0.00060094841331 -0.00187345042243 0)
(-0.0005199309959 -0.00165297915722 0)
(-0.000448702026206 -0.00146283581543 0)
(-0.000386424649645 -0.0012991235685 0)
(-0.00033210797585 -0.00115821055943 0)
(-0.000285173670962 -0.00103682559558 0)
(-0.000245847743293 -0.000928645109299 0)
(-0.000212654460061 -0.000821743283522 0)
(-0.00019106857366 -0.000750936006953 0)
(-0.000169673170178 -0.000688640303698 0)
(-0.000146202707695 -0.000607474023019 0)
(-0.000133488887704 -0.000537381719462 0)
(-0.000140878518687 -0.000497404287813 0)
(-0.000165836740313 -0.000466862515781 0)
(-0.000172720198143 -0.000373900180865 0)
(-0.000199884511371 -0.000311354345372 0)
(-0.000235918535174 -0.000229301410044 0)
(-0.000266368668083 -0.000139210441675 0)
(-0.000258309023267 -4.32555606575e-05 0)
(0.0116849196832 -0.00166232688394 0)
(0.0123198213773 -0.0053181857468 0)
(0.0122121533822 -0.00893309369347 6.72055246326e-28)
(0.0120216960507 -0.0125297461259 0)
(0.0117719003031 -0.0160545076804 0)
(0.0114679586861 -0.0194927447418 0)
(0.0111153969465 -0.0228287754507 0)
(0.0107202667565 -0.0260489726573 0)
(0.0102888856065 -0.029141742367 0)
(0.00982758063751 -0.032097564172 0)
(0.00934248779485 -0.0349089323392 0)
(0.00883937465527 -0.0375702363078 0)
(0.00832352462727 -0.0400775925589 0)
(0.00779964455078 -0.0424286475744 0)
(0.00727182976117 -0.0446223649437 0)
(0.00674354340534 -0.0466588111176 0)
(0.00621764051034 -0.0485389480332 0)
(0.0056963940265 -0.0502644405995 0)
(0.00518155041702 -0.0518374825925 0)
(0.00467437782688 -0.0532606432338 0)
(0.00417573025389 -0.0545367350431 0)
(0.00368610082224 -0.055668701349 0)
(0.00320568024128 -0.0566595233138 0)
(0.00273440715061 -0.0575121424842 0)
(0.00227201461813 -0.0582293995863 0)
(0.00181807673661 -0.0588139842591 0)
(0.00137204250334 -0.0592683985297 0)
(0.000933282237977 -0.0595949277123 0)
(0.00050111098418 -0.0597956241732 0)
(7.48401560089e-05 -0.0598722960737 0)
(-0.000346206507295 -0.0598265134822 0)
(-0.000762630825335 -0.059659610426 0)
(-0.00117495174712 -0.0593727156554 0)
(-0.00158352987435 -0.0589667817725 0)
(-0.00198856787722 -0.0584426356134 0)
(-0.00239002348077 -0.0578010347887 0)
(-0.00278762610475 -0.0570427455118 0)
(-0.00318078319277 -0.0561686240558 0)
(-0.00356862307606 -0.0551797182572 0)
(-0.00394990136186 -0.0540773664575 0)
(-0.00432307906499 -0.0528633109481 0)
(-0.00468623091924 -0.0515397992783 0)
(-0.00503715920032 -0.0501096928061 0)
(-0.00537329426835 -0.0485765549607 0)
(-0.00569183092451 -0.0469447441278 0)
(-0.00598960006285 -0.0452194880815 0)
(-0.00626320986978 -0.0434069738534 0)
(-0.00650887949813 -0.0415144358723 0)
(-0.00672259912652 -0.0395502799 0)
(-0.00689997620561 -0.0375242196006 0)
(-0.00703650541898 -0.0354474437979 0)
(-0.00712756122626 -0.0333327561736 0)
(-0.00716891084886 -0.0311946562459 0)
(-0.00715694390501 -0.0290492616642 0)
(-0.00708937557812 -0.0269140241455 0)
(-0.00696548617729 -0.0248071983854 0)
(-0.00678660776014 -0.0227471381485 0)
(-0.00655601753867 -0.020751501854 0)
(-0.00627898450498 -0.0188364682575 0)
(-0.00596223542002 -0.0170161296541 0)
(-0.00561385888575 -0.0153020150466 0)
(-0.00524272116501 -0.0137026785844 0)
(-0.00485815454524 -0.0122234256429 0)
(-0.00446912804218 -0.0108662722169 0)
(-0.00408385906376 -0.00963019287096 0)
(-0.00370915093588 -0.00851160304378 0)
(-0.0033503588377 -0.00750498517052 0)
(-0.00301114567296 -0.00660354527367 0)
(-0.00269384184449 -0.00579981626984 0)
(-0.00239951349685 -0.00508613489863 0)
(-0.00212851069577 -0.00445494909126 0)
(-0.00188056976253 -0.00389895754529 0)
(-0.00165521794843 -0.00341112573246 0)
(-0.00145163910173 -0.00298468680486 0)
(-0.0012688758866 -0.00261317973985 0)
(-0.0011056672538 -0.00229052714061 0)
(-0.000960695056456 -0.00201109348507 0)
(-0.000832473562763 -0.00176972048405 0)
(-0.000719582498678 -0.00156172776268 0)
(-0.000620558425134 -0.00138290285945 0)
(-0.000534109067516 -0.0012294669183 0)
(-0.000459041720848 -0.00109801705255 0)
(-0.000394562662663 -0.000986141728246 0)
(-0.000341420283758 -0.000883754631345 0)
(-0.000299112416599 -0.000794632133995 0)
(-0.000267109570679 -0.00072539833053 0)
(-0.0002389614309 -0.000652938637708 0)
(-0.000211830552339 -0.000572459408067 0)
(-0.000201729885334 -0.00052002116739 0)
(-0.00019576331633 -0.000447239141251 0)
(-0.000213420104375 -0.0003873772231 0)
(-0.000257161355806 -0.000348327712854 0)
(-0.000272144578843 -0.000254516086816 0)
(-0.000310560034473 -0.000179832652663 0)
(-0.000349513766858 -0.000110828019063 0)
(-0.000348350107755 -3.66401356718e-05 0)
(0.0151845094277 -0.00169810032197 0)
(0.0160111780678 -0.00543045962549 0)
(0.0158684119222 -0.00911801478197 0)
(0.015616226496 -0.0127846840983 0)
(0.0152856953803 -0.0163745469933 0)
(0.0148840546411 -0.019871937239 0)
(0.0144188630174 -0.0232603762997 0)
(0.0138983343362 -0.0265257809951 0)
(0.0133309937733 -0.0296564075844 0)
(0.0127253393331 -0.0326428530793 0)
(0.012089561895 -0.035477950137 0)
(0.0114313156507 -0.0381565965674 0)
(0.0107575600342 -0.0406755366152 0)
(0.0100744516584 -0.0430331157341 0)
(0.00938730017309 -0.0452290258428 0)
(0.00870055832982 -0.0472640562989 0)
(0.00801785772137 -0.0491398602057 0)
(0.00734205826956 -0.0508587434003 0)
(0.00667532449926 -0.0524234789154 0)
(0.00601919877573 -0.0538371482 0)
(0.00537468751075 -0.0551030077533 0)
(0.00474233456067 -0.0562243791753 0)
(0.00412229994898 -0.0572045598039 0)
(0.00351442276157 -0.0580467508208 0)
(0.00291828641197 -0.0587540003715 0)
(0.00233326992915 -0.059329158697 0)
(0.00175860118272 -0.0597748441027 0)
(0.00119340103955 -0.0600934173489 0)
(0.000636729693891 -0.0602869651258 0)
(8.76302809047e-05 -0.0603572899014 0)
(-0.000454826072922 -0.0603059142469 0)
(-0.000991490553323 -0.0601340809027 0)
(-0.00152308970017 -0.059842781834 0)
(-0.00205016811665 -0.0594327871502 0)
(-0.00257303983871 -0.0589046930411 0)
(-0.00309172656999 -0.0582589827874 0)
(-0.00360591558026 -0.0574961056063 0)
(-0.00411490284672 -0.056616568194 0)
(-0.00461757064078 -0.0556210419186 0)
(-0.00511234828409 -0.0545104767601 0)
(-0.00559722203147 -0.0532862225561 0)
(-0.00606972050718 -0.051950145362 0)
(-0.00652695754134 -0.0505047384465 0)
(-0.00696563073643 -0.0489532167032 0)
(-0.0073820744135 -0.0472995989171 0)
(-0.00777223629644 -0.0455487759301 0)
(-0.00813170243553 -0.043706581928 0)
(-0.00845562239852 -0.041779882296 0)
(-0.00873870796995 -0.0397767073698 0)
(-0.00897516456105 -0.0377064447582 0)
(-0.00915879904284 -0.0355800997964 0)
(-0.00928317873023 -0.0334105810257 0)
(-0.00934210856675 -0.031212938327 0)
(-0.00933023276839 -0.0290044090863 0)
(-0.00924387583001 -0.0268041484166 0)
(-0.00908173395372 -0.0246325626385 0)
(-0.00884532829618 -0.0225103911737 0)
(-0.0085391568256 -0.0204576373791 0)
(-0.00817042614463 -0.0184925126384 0)
(-0.00774839893308 -0.0166307639947 0)
(-0.00728412073629 -0.014885193396 0)
(-0.0067899361165 -0.0132651078439 0)
(-0.00627880445122 -0.0117758789853 0)
(-0.00576327691504 -0.0104188446751 0)
(-0.00525461462727 -0.00919166184415 0)
(-0.00476205217296 -0.00808901140628 0)
(-0.00429252492442 -0.00710348456077 0)
(-0.00385061024177 -0.00622648051602 0)
(-0.00343885780381 -0.00544899835295 0)
(-0.00305819636089 -0.00476223032372 0)
(-0.00270855823323 -0.00415788464786 0)
(-0.00238932928508 -0.00362823142922 0)
(-0.00209969514252 -0.00316595642679 0)
(-0.00183859434974 -0.00276403210874 0)
(-0.00160468158831 -0.0024157408902 0)
(-0.0013962812733 -0.00211479624651 0)
(-0.00121154200939 -0.00185543330553 0)
(-0.00104849408137 -0.00163244027805 0)
(-0.000905180253239 -0.00144115427045 0)
(-0.000779680844233 -0.00127744212213 0)
(-0.000670218256534 -0.0011376772356 0)
(-0.000575165985639 -0.00101871635044 0)
(-0.000493285814523 -0.000918913780394 0)
(-0.000423531032646 -0.000821954964688 0)
(-0.000380734679054 -0.000758901953356 0)
(-0.000346079208857 -0.00069263609596 0)
(-0.000320285553528 -0.000625636165812 0)
(-0.000290403010902 -0.000547840045535 0)
(-0.000260940802379 -0.000456609440785 0)
(-0.000261732191154 -0.000400052482483 0)
(-0.000268237919636 -0.000325896511533 0)
(-0.000314518603995 -0.000283717261198 0)
(-0.000366790208893 -0.000226909741276 0)
(-0.000380558029282 -0.000145346503937 0)
(-0.000404013578479 -8.54929286112e-05 0)
(-0.000403311333565 -2.86087358707e-05 0)
(0.0187680746462 -0.00174349272629 0)
(0.0197883044687 -0.00557432025056 0)
(0.0196070851874 -0.00935634484976 0)
(0.0192881295134 -0.0131133330794 0)
(0.01887045427 -0.016786729946 0)
(0.0183636504827 -0.0203596079913 0)
(0.0177776827657 -0.0238145310382 0)
(0.0171232924327 -0.0271368821215 0)
(0.0164115448799 -0.0303147823562 0)
(0.0156533911722 -0.0333390455971 0)
(0.0148593020256 -0.0362030099163 0)
(0.0140389811551 -0.0389022961886 0)
(0.0132011685632 -0.0414345184699 0)
(0.0123535213763 -0.0437989730188 0)
(0.0115025702216 -0.0459963272854 0)
(0.0106537290126 -0.0480283257735 0)
(0.00981135258567 -0.0498975232523 0)
(0.00897881876095 -0.0516070516978 0)
(0.00815863218862 -0.0531604224473 0)
(0.00735253004924 -0.054561362837 0)
(0.00656159228187 -0.0558136839018 0)
(0.00578634105809 -0.0569211753614 0)
(0.00502683689587 -0.0578875231556 0)
(0.00428275992765 -0.0587162454445 0)
(0.00355348662026 -0.0594106430177 0)
(0.00283815305377 -0.0599737610619 0)
(0.00213571615927 -0.0604083597722 0)
(0.00144500578974 -0.0607168921408 0)
(0.000764778669537 -0.0609014882531 0)
(9.3768408085e-05 -0.0609639446755 0)
(-0.000569259334211 -0.0609057273214 0)
(-0.00122544941851 -0.0607279665695 0)
(-0.00187579527716 -0.0604314850657 0)
(-0.00252107240039 -0.0600168228788 0)
(-0.00316176805651 -0.059484283947 0)
(-0.0037980098591 -0.0588339991167 0)
(-0.00442949765403 -0.0580660088779 0)
(-0.00505544062729 -0.0571803645084 0)
(-0.00567450975909 -0.0561772471943 0)
(-0.00628480376482 -0.0550570992646 0)
(-0.00688384213047 -0.0538207623211 0)
(-0.00746857451149 -0.0524696114939 0)
(-0.00803541871349 -0.0510056771295 0)
(-0.00858030102244 -0.0494317431555 0)
(-0.00909870544373 -0.0477514180931 0)
(-0.00958568826153 -0.0459691814562 0)
(-0.0100358664916 -0.0440904221413 0)
(-0.0104433359423 -0.042121500327 0)
(-0.0108015644655 -0.0400698776483 0)
(-0.0111032583497 -0.0379443628766 0)
(-0.0113403435059 -0.0357555067736 0)
(-0.0115041239485 -0.0335161111126 0)
(-0.0115858396462 -0.0312417523434 0)
(-0.0115775995605 -0.0289510676876 0)
(-0.011473678476 -0.0266655608925 0)
(-0.0112717470565 -0.024408683369 0)
(-0.0109733796862 -0.0222045907054 0)
(-0.0105845486996 -0.020076626805 0)
(-0.0101149284191 -0.0180457351514 0)
(-0.00957666133948 -0.0161298469347 0)
(-0.00898424542925 -0.0143435730076 0)
(-0.00835421289046 -0.0126973813113 0)
(-0.0077041122175 -0.0111967838089 0)
(-0.00705094692883 -0.00984209820148 0)
(-0.00640970941698 -0.00862898245161 0)
(-0.0057923664896 -0.0075495262389 0)
(-0.00520746772033 -0.00659355478343 0)
(-0.00466022571652 -0.00574988841927 0)
(-0.00415298815637 -0.00500741146969 0)
(-0.00368598619309 -0.00435584332325 0)
(-0.00325827567899 -0.00378608903707 0)
(-0.00286858008404 -0.00329010061416 0)
(-0.00251572601992 -0.00286039620308 0)
(-0.0021984447716 -0.00248967799767 0)
(-0.00191502697778 -0.00217087083596 0)
(-0.00166326935881 -0.0018973912325 0)
(-0.00144070708172 -0.00166330952764 0)
(-0.00124478050549 -0.00146336158268 0)
(-0.00107294454726 -0.00129291705059 0)
(-0.000922741676906 -0.0011479430741 0)
(-0.000791877158317 -0.00102495312709 0)
(-0.000678253178232 -0.000921057765902 0)
(-0.000580614798085 -0.000833613036106 0)
(-0.000494578183081 -0.000743850667201 0)
(-0.000447936753943 -0.000687014612336 0)
(-0.000413267374758 -0.000625408889146 0)
(-0.000376538001723 -0.000549248770373 0)
(-0.000359159845164 -0.000493503578381 0)
(-0.000348009239513 -0.000431760038965 0)
(-0.000348820213144 -0.000370230709928 0)
(-0.000330379077317 -0.000278640170245 0)
(-0.000355479418087 -0.000218211059852 0)
(-0.000422180064763 -0.000182806106091 0)
(-0.000447842899202 -0.000125686698229 0)
(-0.000455908881383 -7.10686241802e-05 0)
(-0.00045655649064 -2.37601709283e-05 0)
(0.0224571565495 -0.00179984199374 0)
(0.0236743261854 -0.00575328939883 0)
(0.0234500059144 -0.00965314943077 6.673169275e-28)
(0.0230574305377 -0.0135223668989 0)
(0.0225440527739 -0.0172990577254 0)
(0.0219222427234 -0.0209647097542 0)
(0.0212048490924 -0.0245007344252 0)
(0.0204056151661 -0.0278919189133 0)
(0.0195385795531 -0.0311263088672 0)
(0.0186175111416 -0.0341950959587 0)
(0.0176554449817 -0.0370923601981 0)
(0.0166643333471 -0.0398147301087 0)
(0.0156548161799 -0.0423609965236 0)
(0.0146360989858 -0.0447317142692 0)
(0.0136159244533 -0.0469288184756 0)
(0.0126006146011 -0.0489552742878 0)
(0.0115951657444 -0.0508147709015 0)
(0.0106033737825 -0.0525114643375 0)
(0.00962797702285 -0.0540497682682 0)
(0.00867080047318 -0.0554341888523 0)
(0.00773289637616 -0.0566691975988 0)
(0.00681467174048 -0.0577591355283 0)
(0.00591600388528 -0.0587081420188 0)
(0.00503633952269 -0.0595201023033 0)
(0.00417478212148 -0.0601986085808 0)
(0.00333016564813 -0.0607469306282 0)
(0.00250112114758 -0.0611679929793 0)
(0.00168613547767 -0.0614643566007 0)
(0.000883609091531 -0.0616382044051 0)
(9.19125229608e-05 -0.0616913290827 0)
(-0.000690552651709 -0.0616251335003 0)
(-0.00146528596681 -0.0614406180242 0)
(-0.0022336154886 -0.0611384057652 0)
(-0.00299661583449 -0.0607187606234 0)
(-0.00375501981573 -0.060181630911 0)
(-0.00450912697001 -0.059526712487 0)
(-0.00525871270903 -0.0587535361418 0)
(-0.00600294529293 -0.0578615797076 0)
(-0.00674031828971 -0.0568504040841 0)
(-0.00746860648916 -0.0557198077596 0)
(-0.00818485361455 -0.0544699915149 0)
(-0.00888539457312 -0.0531017197272 0)
(-0.00956591261954 -0.051616462299 0)
(-0.0102215184201 -0.0500165003255 0)
(-0.0108468325222 -0.0483049825929 0)
(-0.0114360358282 -0.0464859329565 0)
(-0.0119828521817 -0.0445642251327 0)
(-0.0124804270117 -0.0425455753502 0)
(-0.0129210919733 -0.0404366244394 0)
(-0.0132960632581 -0.0382452180802 0)
(-0.0135951815217 -0.0359809593501 0)
(-0.0138069481343 -0.0336560708485 0)
(-0.0139190941908 -0.0312864074008 0)
(-0.0139199952373 -0.0288922411981 0)
(-0.0138007307138 -0.0264982890631 0)
(-0.0135573761691 -0.0241322569973 0)
(-0.0131912221246 -0.0218231861348 0)
(-0.0127102932225 -0.0195991798471 0)
(-0.0121277119654 -0.0174846196738 0)
(-0.0114587697609 -0.0155000761905 0)
(-0.0107218334075 -0.0136627409792 0)
(-0.00993865001558 -0.0119849715095 0)
(-0.00913282304985 -0.0104726106881 0)
(-0.00832721138025 -0.0091244402105 0)
(-0.00754151620616 -0.0079330802649 0)
(-0.00679083336054 -0.00688676894241 0)
(-0.00608526884601 -0.00597134326028 0)
(-0.00543021137133 -0.0051720005584 0)
(-0.00482709529419 -0.00447475849474 0)
(-0.00427456288659 -0.00386751752697 0)
(-0.00377000175441 -0.00334047822377 0)
(-0.00331105353607 -0.00288568147019 0)
(-0.00289629251488 -0.00249582084555 0)
(-0.00252453412078 -0.00216333283526 0)
(-0.00219376894908 -0.00188056528297 0)
(-0.00190108609003 -0.00164047618969 0)
(-0.0016432381861 -0.00143694432149 0)
(-0.00141696283721 -0.00126467763843 0)
(-0.00121904707182 -0.00111911535491 0)
(-0.00104642441153 -0.000996374550101 0)
(-0.000896211225629 -0.000893185225621 0)
(-0.000765701389013 -0.00080735383041 0)
(-0.000653288497011 -0.000732419940038 0)
(-0.000570114588715 -0.000668662404637 0)
(-0.000515111576305 -0.00061079550789 0)
(-0.000477362431154 -0.000553009505239 0)
(-0.000444081737996 -0.000492984473727 0)
(-0.000415575836688 -0.000427717779709 0)
(-0.000411968699784 -0.000375241747014 0)
(-0.000403642439712 -0.000305977969756 0)
(-0.000418646643719 -0.000253693788758 0)
(-0.000411220164509 -0.000179822097159 0)
(-0.000445283098976 -0.000136998765735 0)
(-0.000495110216602 -0.000104454473784 0)
(-0.000499130484603 -5.92875594445e-05 0)
(-0.000500592552317 -1.98514879373e-05 0)
(0.0262760092457 -0.00186857037608 0)
(0.0276945306924 -0.00597161283464 0)
(0.0274210727097 -0.0100150687988 -6.67214497033e-28)
(0.0269459402573 -0.0140205441701 0)
(0.026325744181 -0.0179219549056 0)
(0.0255762373429 -0.021698811907 0)
(0.0247137946125 -0.0253311575256 0)
(0.0237557855732 -0.0288031503644 0)
(0.0227197813243 -0.0321028849093 0)
(0.0216228299986 -0.0352221785503 0)
(0.0204808790384 -0.0381561859764 0)
(0.0193083609083 -0.0409029231702 0)
(0.0181179401303 -0.0434627509534 0)
(0.016920403228 -0.0458378628338 0)
(0.0157246661593 -0.0480318097448 0)
(0.0145378682777 -0.0500490825599 0)
(0.0133655245617 -0.0518947621647 0)
(0.0122117091875 -0.0535742385408 0)
(0.0110792508924 -0.0550929939161 0)
(0.00996992373378 -0.0564564416907 0)
(0.00888462459476 -0.0576698108987 0)
(0.00782353063172 -0.0587380661834 0)
(0.00678623602228 -0.0596658537817 0)
(0.0057718670771 -0.0604574657047 0)
(0.00477917929925 -0.0611168154885 0)
(0.00380663812052 -0.061647420744 0)
(0.00285248863197 -0.0620523887759 0)
(0.00191481703822 -0.0623344031678 0)
(0.000991609720312 -0.0624957103037 0)
(8.08128170452e-05 -0.0625381045716 0)
(-0.000819603079694 -0.0624629242015 0)
(-0.00171156615807 -0.0622710275498 0)
(-0.00259682056359 -0.0619628128581 0)
(-0.00347682757525 -0.0615382248897 0)
(-0.00435265659484 -0.0609967925021 0)
(-0.00522486836192 -0.0603376891427 0)
(-0.0060933958199 -0.0595598240248 0)
(-0.00695743212012 -0.0586619665846 0)
(-0.00781533644082 -0.0576429045403 0)
(-0.00866457112377 -0.0565016303793 0)
(-0.0095016825284 -0.0552375458239 0)
(-0.0103223357007 -0.0538506655383 0)
(-0.01112140454 -0.0523417956301 0)
(-0.0118931074108 -0.0507126573199 0)
(-0.0126311584495 -0.0489659293654 0)
(-0.0133288848496 -0.0471051945771 0)
(-0.0139792416632 -0.0451348063809 0)
(-0.0145746441352 -0.0430597327755 0)
(-0.0151065760357 -0.0408855061725 0)
(-0.0155649609715 -0.0386184443674 0)
(-0.0159374989495 -0.0362663833177 0)
(-0.0162092373618 -0.0338400152451 0)
(-0.0163630587189 -0.0313547907437 0)
(-0.0163816158149 -0.0288326953409 0)
(-0.0162508185548 -0.0263029327421 0)
(-0.0159645664739 -0.0237991656402 0)
(-0.0155229101396 -0.021357498748 0)
(-0.0149372845013 -0.0190131081791 0)
(-0.0142264272918 -0.0167942041802 0)
(-0.0134083855036 -0.0147239619885 0)
(-0.0125053841916 -0.0128234480669 0)
(-0.0115458436144 -0.0111083669692 0)
(-0.0105618390848 -0.00958534232233 0)
(-0.00958435813954 -0.00825078945496 0)
(-0.0086392055632 -0.00709260323833 0)
(-0.00774504637905 -0.00609327815977 0)
(-0.00691327910056 -0.00523293235532 0)
(-0.00614874750987 -0.00449171455609 0)
(-0.00545083547383 -0.00385176269146 0)
(-0.00481514690923 -0.00329874944532 0)