/*--------------------------------*- C++ -*----------------------------------*\
| =========                 |                                                 |
| \\      /  F ield         | OpenFOAM: The Open Source CFD Toolbox           |
|  \\    /   O peration     | Version:  v1906                                 |
|   \\  /    A nd           | Web:      www.OpenFOAM.com                      |
|    \\/     M anipulation  |                                                 |
\*---------------------------------------------------------------------------*/
FoamFile
{
    version     2.0;
    format      ascii;
    class       volScalarField;
    location    "602";
    object      pa;
}
// * * * * * * * * * * * * * * * * * * * * * * * * * * * * * * * * * * * * * //

dimensions      [0 2 -2 0 0 0 0];


internalField   nonuniform List<scalar> 
9216
(
915.384956409
915.07947077
914.447499606
913.483550294
912.19303314
910.582004841
908.658011352
906.429956885
903.907975999
901.103295636
898.028107891
894.695426142
891.118956014
887.312952218
883.292096488
879.071363732
874.665914155
870.090974781
865.361750025
860.493321658
855.500579247
850.39813901
845.200293288
839.920946929
834.573583597
829.171217378
823.726373257
818.251051506
812.756719771
807.254288049
801.754109914
796.265968154
790.799083712
785.362104775
779.963123386
774.609673621
769.308751743
764.066818566
758.889823544
753.783211128
748.751947516
743.80053003
738.933015586
734.153032258
729.463808631
724.868186795
720.368651822
715.96734548
711.666095155
707.466427621
703.369596782
699.376596922
695.488188747
691.704911613
688.027107457
684.454931655
680.988374589
677.62727091
674.371318656
671.220086876
668.173032372
665.229505792
662.388766207
659.649985906
657.012263142
654.474625937
652.036043375
649.695428776
647.451649929
645.303531971
643.249866908
641.289416502
639.420921359
637.643104027
635.954677854
634.354350417
632.840832238
631.412840583
630.069108031
628.808386589
627.629456046
626.531128269
625.512255199
624.571733143
623.708510184
622.92159018
622.21003919
621.572988559
621.009639189
620.519261299
620.101190798
619.754812875
619.47951545
619.274519207
619.136878694
619.080217316
915.689447541
915.382234088
914.748615088
913.780309729
912.483588239
910.864792797
908.93163694
906.693169228
904.159664463
901.342494455
898.253996076
894.907330115
891.31634473
887.495435357
883.459414983
879.223384612
874.80261803
870.212448901
865.468174357
860.584961595
855.577771617
850.461285488
845.249847246
839.957408133
834.597486335
829.183126608
823.726874091
818.240746713
812.736220553
807.224212827
801.715076991
796.218593208
790.743971552
785.299852031
779.894312626
774.534873731
769.228512278
763.981671273
758.800277589
753.689755122
748.655045431
743.700623597
738.830520811
734.048342116
729.35729013
724.760183897
720.259483007
715.857306842
711.555458417
707.355443355
703.258492819
699.265581644
695.377449827
691.594619306
687.917413608
684.345972918
680.880271609
677.520131408
674.265236704
671.115145776
668.069303957
665.127053043
662.287642519
659.550237419
656.913927929
654.377736032
651.940623883
649.601499603
647.359224814
645.212619951
643.160471302
641.201536147
639.33454958
637.558229693
635.871284376
634.27241667
632.760331629
631.333741877
629.99137453
628.731976902
627.554323401
626.457221268
625.439517294
624.500103416
623.637923056
622.85197634
622.141325816
621.505101036
620.942503449
620.452810513
620.035381322
619.689667065
619.415238982
619.211894372
619.080066415
619.023504368
916.322879395
916.010937968
915.371558853
914.394552511
913.086287909
911.453244223
909.503328878
907.245810924
904.691202391
901.851124849
898.73817024
895.365756666
891.747984925
887.899496531
883.835338047
879.570831273
875.121453322
870.502725077
865.730111292
860.818929936
855.78427338
850.640938385
845.403367001
840.085595021
834.70120987
829.263314547
823.784499462
818.276819023
812.751774811
807.220302514
801.692764471
796.178944736
790.688049753
785.228710855
779.808990571
774.436390901
769.117864883
763.859829479
758.668181017
753.548311566
748.505127275
743.543067293
738.666124141
733.877864351
729.181450064
724.579660632
720.074914707
715.669292093
711.364555644
707.162172687
703.063336107
699.068984737
695.17982308
691.396340166
687.718827472
684.147395882
680.681991532
677.322410666
674.068313296
670.919235942
667.874603178
664.93373839
662.095873447
659.360157751
656.725666368
654.191407751
651.756330724
649.419331276
647.17925881
645.034922392
642.985096626
641.028527678
639.163939068
637.390037695
635.705519732
634.109076792
632.599402
631.175196328
629.835174841
628.578073137
627.402653675
626.307712197
625.292083987
624.354650104
623.494343394
622.71015436
622.00113678
621.366413172
620.805180218
620.316714637
619.900380597
619.555641148
619.282078564
619.079446908
618.947957147
618.885949705
917.296681897
916.979296187
916.330916738
915.340317467
914.014062415
912.358862325
910.382918827
908.095838509
905.508501488
902.632917609
899.482077274
896.069799043
892.410577922
888.519437249
884.411786939
880.103289921
875.609738452
870.946941178
866.130621617
861.176328091
856.099354953
850.914674527
845.636879028
840.280131598
834.858125501
829.384050664
823.870566645
818.329781504
812.773235779
807.211891344
801.656124445
796.11572285
790.599886882
785.117232655
779.67579927
774.283058615
768.945927148
763.670780071
758.463466982
753.329329422
748.273219388
743.299519317
738.412162596
733.614655185
728.910097346
724.30120614
719.79033766
715.379509695
711.070423763
706.864487268
702.762834683
698.766348576
694.875679377
691.091264738
687.413347422
683.841992631
680.377103708
677.01843722
673.765616388
670.618143895
667.575413128
664.636718891
661.801266703
659.06818173
656.436516516
653.905258545
651.473336833
649.139628564
646.902964985
644.762137521
642.715903366
640.762991426
638.902107893
637.131942262
635.451173084
633.85847418
632.352520654
630.931995328
629.595594987
628.342036972
627.170065551
626.07845853
625.0660336
624.131654786
623.274238595
622.492760155
621.786259046
621.153845139
620.594704323
620.108104645
619.693403208
619.35005451
619.077620691
618.875788393
618.744626722
618.681532174
918.614888007
918.290499981
917.629818003
916.620603439
915.269719322
913.584213643
911.572697567
909.245244377
906.613242702
903.689238038
900.486769982
897.020207676
893.304587195
889.355454307
885.188715071
880.820496514
876.267018669
871.544479135
866.668950331
861.656289665
856.52206188
851.281473076
845.949315087
840.539919396
835.067119108
829.544218268
823.983967252
818.398543896
812.79953936
807.197948749
801.604165642
796.027980832
790.478584864
784.964571787
779.493948119
774.074143766
768.712024911
763.413909213
758.185582452
753.032316957
747.958891012
742.96960962
738.068325829
733.258463048
728.543037553
723.92468162
719.40566649
714.987925617
710.673077389
706.462447793
702.357092219
698.357816885
694.465199114
690.679606964
687.001217483
683.430034129
679.965902689
676.608526272
673.35747878
670.21221748
667.172094123
664.236365295
661.404201484
658.674695563
656.046870232
653.519685096
651.092042963
648.762796016
646.530751451
644.394677188
642.353307283
640.405347548
638.549481042
636.784373871
635.108680944
633.521052077
632.020138095
630.60459725
629.273101619
628.024343763
626.857043295
625.769953616
624.761868488
623.831628652
622.978128223
622.200321015
621.497226619
620.867936387
620.311619237
619.827527495
619.415002704
619.073481033
618.802497547
618.601690447
618.471066343
618.407862752
920.284144172
919.950897182
919.274457728
918.241361341
916.858880985
915.134519056
913.07742747
910.698290865
908.009161244
905.023280566
901.754900399
898.219101349
894.431616469
890.408662132
886.166779053
881.722685583
877.093144658
872.294845269
867.34429866
862.257749014
857.051097807
851.739840759
846.339015912
840.863161395
835.326281345
829.741818767
824.122634213
818.480989598
812.82853654
807.176308972
801.534719662
795.913560632
790.322007631
784.768624628
779.261375083
773.807634072
768.414202676
763.087324384
757.832703052
752.655522379
747.560466469
742.551741511
737.633098171
732.807854727
728.07892058
723.448820159
718.919716835
714.493436891
710.171493133
705.955108197
701.845237155
697.842589457
693.947649865
690.160698436
686.481829231
682.91096789
679.447887778
676.092224908
672.843491415
669.701087841
666.664314069
663.732379209
660.904410339
658.179460417
655.556515311
653.034500277
650.612285834
648.288693365
646.062500381
643.932445757
641.897234853
639.955544788
638.106029757
636.347326618
634.678060603
633.09685134
631.602319025
630.193090865
628.867807648
627.625130514
626.463747756
625.382381738
624.379795732
623.454800757
622.60626224
621.833106557
621.134327341
620.508991577
619.956245423
619.475319745
619.065535189
618.726306122
618.457142779
618.257653552
618.127818795
618.06490708
922.312888627
921.968725155
921.27283337
920.210242262
918.788751818
917.016448627
914.903173802
912.460386717
909.700976049
906.639058495
903.289776159
899.669095952
895.793615576
891.680379803
887.346709817
882.810047729
878.08781753
873.197303279
868.155544419
862.979247783
857.684714985
852.287783725
846.803780946
841.247485964
835.633101516
829.974231274
824.283862484
818.574353105
812.85742289
807.144148355
801.444961534
795.769652362
790.127374978
784.526653855
778.975397398
773.480911662
768.04991645
762.688563276
757.402454801
752.196665637
747.075764197
742.043835553
737.104504978
732.260962178
727.515985888
722.871968809
718.330942578
713.894602708
709.564333203
705.341230753
701.226128225
697.219617368
693.322070447
689.533660774
685.854381894
682.284065432
678.822397432
675.468933273
672.223111048
669.084263567
666.051628953
663.124360028
660.301532532
657.582152399
654.965162178
652.449446821
650.03383895
647.717123809
645.49804399
643.375304135
641.347575641
639.413501556
637.571701644
635.820777753
634.159319439
632.585909938
631.099132385
629.697576356
628.379844605
627.144560021
625.990372698
624.915967097
623.920069196
623.001453604
622.158950536
621.391452614
620.69792142
620.077393762
619.528987559
619.051907287
618.645448763
618.309002646
618.042056515
617.844198233
617.715393827
617.652991969
924.71150803
924.354169772
923.634825245
922.536679107
921.068191026
919.238180109
917.057347509
914.538114332
911.694402646
908.541404124
905.095349867
901.373285238
897.392854804
893.172101189
888.729280683
884.082697579
879.250558487
874.250847113
869.101219326
863.818917523
858.420702695
852.922801878
847.340868423
841.689952271
835.984477773
830.238226976
824.464327056
818.67524116
812.882762501
807.098011714
801.331438429
795.592824954
789.891295044
784.235322611
778.632747199
773.090789926
767.616071598
762.214632466
756.89195339
751.652978148
746.502136782
741.443369763
736.480152892
731.615522754
726.852102601
722.192128476
717.637475433
713.189683638
708.849984169
704.619324296
700.498392045
696.48763982
692.587306909
688.79744068
685.117916338
681.548455117
678.088640838
674.737934812
671.49568908
668.361158066
665.333508722
662.411829299
659.595136887
656.882383916
654.272463786
651.764215824
649.356429766
647.047849936
644.837179288
642.723083467
640.704195009
638.779117784
636.946431754
635.2046981
633.552464746
631.988272282
630.510660268
629.118173892
627.809370929
626.582828948
625.437152692
624.370981569
623.382997163
622.4719307
621.636570383
620.875768527
620.188448415
619.573610807
619.030340014
618.557809432
618.155286404
617.822135901
617.557823054
617.361917887
617.234373554
617.172634027
927.492517242
927.119512362
926.372333507
925.232010609
923.707818549
921.809483735
919.548767393
916.939269638
913.996172028
910.735968766
907.176202738
903.335210873
899.231884174
894.885446322
890.315253511
885.540617395
880.58065217
875.454146213
870.179457734
864.774433199
859.256346159
853.641853504
847.946965417
842.187025337
836.37669644
830.52995214
824.660068964
818.779621405
812.900478908
807.033805603
801.190064388
795.379022555
789.609762707
783.89069462
778.229573098
772.633516468
767.109026964
761.662012624
756.297810318
751.021209825
745.836478733
740.747388155
735.75723904
730.868889083
726.084779983
721.406965004
716.837136567
712.376653765
708.02656951
703.787657155
699.660436285
695.645197503
691.742025928
687.950823257
684.271328152
680.703134899
677.245710173
673.898407951
670.660482528
667.531099762
664.509346609
661.594239157
658.784729295
656.079710267
653.4780213
650.978451573
648.579743705
646.280597013
644.079670709
641.975587214
639.966935727
638.052276162
636.230143528
634.499052811
632.857504367
631.303989837
629.836998543
628.455024331
627.156572797
625.940168814
624.804364297
623.747746096
622.768943941
621.866638348
621.03956838
620.286539196
619.606429283
618.998197304
618.460888465
617.993640319
617.59568789
617.266367701
617.005121002
616.81149942
616.685440616
616.624492927
930.670769006
930.279320546
929.499454381
928.309636279
926.720144521
924.741822881
922.387731065
919.672903975
916.61404551
913.229213365
909.537514316
905.558814752
901.31347194
896.822089583
892.105300045
887.183574755
882.077063759
876.805464595
871.38791993
865.84294217
860.188362147
854.441297616
848.618136627
842.734530391
836.805391053
830.844890843
824.86646104
818.882790587
812.905825525
806.946770522
801.016095176
795.123542014
789.278138939
783.488215518
777.761423508
772.104758242
766.524581745
761.026646945
755.616122841
750.297620397
745.0752192
739.952494747
734.932546369
730.018025656
725.211165318
720.513808286
715.927436936
711.453202177
707.091952223
702.844260747
698.710454177
694.690637834
690.784720662
686.992438283
683.313374196
679.746978939
676.292587131
672.949432349
669.716659879
666.593337408
663.578463829
660.670976325
657.869755977
655.173632139
652.581385859
650.091752602
647.703424568
645.41505282
643.225249473
641.132590116
639.135616648
637.232840622
635.4227472
633.703799765
632.074445189
630.533119763
629.078255732
627.708288385
626.42166361
625.21684584
624.092326272
623.046631265
622.078330806
621.186046943
620.368462063
619.624326938
618.952468429
618.351796754
617.821312255
617.360111565
616.967393115
616.64246165
616.384731894
616.193734765
616.069389076
616.009356337
934.263708664
933.850687889
933.032697338
931.785204848
930.119723025
928.048470527
925.586093602
922.749366703
919.556824373
916.028389215
912.185018621
908.048375093
903.640525028
898.983668816
894.099903795
889.011021244
883.738338099
878.302563782
872.723701465
867.020981896
861.21282592
855.316830207
849.349769023
843.327604649
837.265499644
831.177826449
825.078172487
818.979341722
812.893355133
806.831453032
800.804102753
794.821009593
788.891130144
783.022694729
777.223230784
771.499587839
765.857963655
760.303931102
754.842465502
749.477972511
744.214316499
739.054849551
734.002441018
729.059507645
724.228044098
719.50965386
714.905580221
710.416737232
706.043740304
701.786936212
697.646432131
693.622123433
689.71371985
685.92076977
682.242682363
678.678747378
675.228152474
671.889998058
668.663309651
665.547047926
662.540116555
659.64136815
656.849608534
654.163599686
651.58206167
649.103673872
646.727075875
644.450868253
642.273613547
640.193837654
638.210031791
636.320655174
634.524138497
632.818888258
631.203291915
629.675723876
628.234552227
626.878146148
625.604883895
624.413161248
623.301400304
622.268058476
621.311637596
620.430692967
619.623842271
618.889774202
618.227256725
617.635144871
617.112387976
616.658036305
616.271246992
615.95128897
615.697547172
615.509528973
615.387130562
615.32813596
938.291688568
937.853528304
936.991252397
935.676842209
933.923334522
931.744643049
929.157353472
926.180346394
922.834351214
919.141505025
915.124942744
910.808422139
906.215987218
901.37167103
896.299238243
891.021967859
885.56247693
879.942585904
874.183225632
868.30438404
862.325088094
856.263413449
850.136511969
843.960645999
837.751219661
831.522800607
825.28913066
819.063127948
812.856885851
806.681674006
800.547946289
794.465354984
788.442765235
782.488285367
776.609293832
770.812468431
765.10381603
759.488702202
753.971880875
748.557524073
743.24925208
738.050164076
732.962869432
727.989519556
723.131840305
718.391164767
713.768466301
709.264391556
704.879293238
700.613262235
696.466158774
692.437642141
688.527198631
684.734167284
681.05776317
677.497097906
674.051197338
670.719016285
667.499450435
664.391345516
661.393503985
658.504689517
655.723629661
653.049017013
650.479509334
648.013728985
645.650262074
643.387657646
641.224427242
639.159045057
637.189948918
635.315542204
633.534196812
631.84425718
630.244045378
628.731867197
627.306019166
625.964796385
624.706501043
623.529451498
622.431991757
621.412501212
620.469404493
619.601181271
618.806375898
618.083606736
617.431575078
616.849073538
616.334993857
615.888334023
615.508204691
615.193834619
614.944575124
614.759906676
614.639699439
614.581869453
942.778358058
942.310942547
941.397316793
940.005425768
938.150199204
935.847650665
933.116742387
929.978905834
926.457497346
922.57727456
918.363922179
913.843628082
909.04270985
903.987289785
898.70301649
893.214832653
887.546790043
881.721913717
875.762116674
869.68816403
863.51968163
857.275199368
850.972214847
844.627260988
838.255962415
831.873071213
825.492480656
819.127223303
812.789463319
806.490493042
800.240739894
794.049782581
787.926370451
781.878462538
775.91325941
770.037237759
764.256184041
758.57522704
752.998869577
747.531020014
742.175023938
736.933696461
731.809355167
726.803853838
721.918616789
717.154673787
712.512695298
707.99302792
703.595729592
699.320604282
695.167235596
691.135018895
687.223191323
683.430859366
679.757023458
676.200599427
672.760436521
669.435332045
666.224042612
663.125292248
660.137777612
657.260170712
654.491119541
651.829247109
649.273149346
646.821392363
644.472509521
642.224998726
640.077320298
638.02789572
636.075107474
634.217300128
632.452782737
630.7798326
629.196700308
627.701616035
626.292796936
624.968455524
623.72680887
622.566088448
621.484550457
620.480486445
619.552234046
618.698187681
617.916809053
617.206637287
616.56629861
615.99451544
615.49011481
615.052036072
614.679337806
614.371203667
614.12694729
613.94601889
613.828258897
613.77172481
947.751150586
947.249669691
946.276494907
944.794912069
942.822223685
940.377062049
937.481313675
934.159503573
930.438128598
926.345037369
921.908886063
917.158664879
912.12328925
906.831248495
901.310306814
895.587255042
889.687715334
883.636003136
877.455050911
871.16639483
864.790219853
858.345450362
851.849865786
845.320215649
838.772310114
832.221071041
825.680543404
819.163880051
812.683318561
806.250169486
799.874817116
793.566739852
787.334542216
781.186000248
775.128102603
769.167091435
763.308500386
757.557189725
751.917379742
746.392683439
740.986139527
735.700246123
730.536995433
725.497909317
720.584075752
715.796185979
711.134572278
706.599246043
702.189935912
697.906125391
693.747089497
689.711929694
685.799606531
682.008969346
678.338782557
674.787748139
671.354524109
668.037738934
664.836001985
661.747910275
658.772051852
655.907006305
653.151342939
650.503617159
647.962365704
645.526101268
643.193307093
640.962431999
638.831886288
636.800038847
634.865215709
633.025700205
631.279734801
629.6255246
628.061242445
626.585035509
625.195033218
623.889356327
622.666126965
621.523479426
620.45957151
619.472596198
618.560793459
617.722461988
616.955970704
616.259769834
615.632401456
615.072509377
614.578848261
614.150291927
613.785840809
613.48462832
613.245925947
613.069149893
612.954107491
612.899006754
953.241897013
952.700653392
951.658287983
950.072727235
947.964281377
945.3548777
942.2700198
938.737991353
934.789038871
930.454643125
925.766904095
920.758022961
915.459864353
909.903583401
904.119307473
898.135870044
891.980600989
885.679182631
879.255581692
872.732063681
866.12928698
859.466460856
852.761537079
846.031394947
839.29197968
832.558369393
825.844772439
819.164481843
812.529821394
805.952116446
799.441688292
793.007882148
786.659118095
780.402947591
774.246106986
768.19456616
762.253570719
756.427678996
750.72079594
745.136206251
739.676608064
734.344147955
729.14045722
724.066689467
719.123559222
714.311381561
709.630112555
705.079390427
700.658576973
696.36679878
692.202987444
688.165918037
684.254244892
680.466533998
676.801291291
673.25698643
669.832071746
666.524996359
663.334215571
660.258195884
657.2954161
654.444365105
651.703536977
649.071424173
646.546509485
644.127257501
641.81210621
639.59945937
637.487680099
635.475086096
633.559946756
631.740482335
630.014865211
628.381223202
626.837644832
625.382186377
624.012880482
622.727746139
621.524799771
620.402067185
619.357596138
618.38946927
617.49581717
616.674831332
615.924776821
615.244004435
614.630962237
614.084206308
613.602410646
613.184376147
612.829038604
612.535475504
612.302911555
612.130725273
612.018687057
611.965164048
959.287606982
958.699750899
957.576697116
955.870228661
953.60452436
950.805701062
947.503763998
943.731571384
939.523837078
934.916287673
929.944985924
924.645783354
919.05386805
913.203379429
907.127073337
900.856033904
894.419441065
887.844411298
881.15593257
874.376909778
867.528323976
860.629486874
853.698346652
846.75177975
839.805799887
832.87563926
825.975708499
819.119488757
812.31942123
805.586846016
798.931995438
792.364035177
785.891147058
779.520605194
773.25884556
767.111523492
761.083559366
755.179175308
749.401927674
743.754739073
738.239932198
732.85926583
727.613972938
722.504800299
717.532049478
712.695618974
707.995047643
703.429559211
698.998107614
694.699422442
690.532053623
686.494414178
682.584819988
678.801525467
675.142754363
671.606725049
668.191670032
664.895849602
661.717559872
658.655135599
655.706948421
652.871401236
650.146919575
647.531940825
645.024902238
642.624228548
640.328320034
638.135541707
636.044214217
634.05260692
632.158933396
630.36134956
628.657954395
627.046793193
625.52586315
624.093121052
622.746492834
621.483884672
620.303195375
619.202329736
618.179212571
617.231803156
616.358109762
615.556204054
614.82423509
614.160442727
613.563170261
613.030876161
612.562144817
612.155696205
611.810394496
611.525255382
611.299451769
611.132320372
611.023591124
610.971798273
965.931478063
965.288638999
964.070968165
962.223247522
959.774717252
956.756887357
953.205401474
949.15869015
944.656768074
939.740286593
934.449823162
928.825336513
922.90572648
916.728452598
910.329185883
903.741490558
896.99655216
890.122983865
883.146749742
876.091239917
868.977513957
861.824694928
854.650450723
847.471455959
840.303711243
833.162633108
826.062929395
819.01836994
812.041574972
805.143904907
798.335459325
791.625154827
785.020860146
778.529503713
772.157163823
765.90913528
759.789975689
753.803537899
747.95299723
742.24088041
736.669098736
731.23898534
725.951335307
720.806447747
715.804169122
710.943938037
706.22483168
701.645614135
697.204786205
692.900636073
688.731289439
684.694757763
680.788982938
677.011877147
673.361356695
669.835369179
666.431913557
663.149053175
659.984921987
656.937724617
654.005730973
651.18726642
648.480698509
645.884421387
643.396838964
641.016347925
638.741321519
636.570095011
634.500953451
632.5321223
630.661761193
628.887960993
627.208744066
625.622067632
624.125829896
622.717878667
621.396022101
620.158041236
619.001703951
617.924780036
616.925056981
616.000356192
615.148549272
614.367574081
613.655450283
613.010294171
612.430332544
611.913915531
611.459528237
611.065801182
610.73151949
610.455630632
610.237250559
610.075670168
609.970574824
609.920673273
973.224222254
972.515978686
971.186518398
969.172715788
966.510571819
963.23863408
959.399651548
955.038834776
950.202442399
944.936770035
939.28746533
933.299043434
927.014503162
920.474973913
913.719357761
906.7839652
899.702173964
892.504164391
885.216799415
877.863716202
870.46567372
863.041148664
855.60709329
848.179679446
840.774803127
833.408169285
826.094987869
818.849512004
811.684652128
804.611792193
797.64081724
790.780285722
784.037644542
777.419387192
770.931167396
764.577871929
758.363661664
752.291991599
746.365626654
740.586664528
734.956568237
729.476205365
724.145891313
718.965434195
713.93418063
709.051062861
704.314648229
699.723191483
695.27468996
690.966940555
686.797596886
682.764224404
678.864351438
675.095514212
671.455294522
667.941349083
664.551430243
661.28339802
658.135224013
655.104987871
652.1908674
649.391123464
646.704081007
644.128107536
641.661590429
639.302914338
637.050439905
634.902484758
632.85730767
630.913096403
629.067959607
627.319922832
625.666928536
624.106839779
622.637447227
621.256479019
619.961613065
618.750491349
617.62073583
616.569965541
615.595814497
614.695949998
613.868090963
613.110025927
612.419630372
611.794883148
611.233881751
610.734856324
610.29618228
609.916391504
609.59418214
609.328426879
609.118179174
608.962679636
608.861565306
608.813726051
981.225844107
980.438947606
978.976094519
976.765373049
973.852036173
970.283950893
966.112859882
961.392183859
956.1754429
950.515282398
944.462924566
938.067840428
931.377490144
924.437033327
917.288963024
909.972667516
902.523968287
894.974720091
887.352585363
879.681104476
871.980160313
864.266864017
856.556755893
848.865037006
841.207409705
833.600128529
826.05932055
818.600082991
811.235797092
803.977848307
796.835752278
789.817523303
782.930026586
776.179206417
769.570217438
763.107495205
756.794780609
750.635112837
744.630822907
738.783547564
733.094262887
727.563328301
722.190534834
716.975153855
711.915984846
707.01140419
702.259417063
697.657713972
693.203732124
688.894720473
684.727805831
680.700057041
676.808544096
673.050389813
669.422812166
665.923156303
662.548915778
659.297743248
656.167451243
653.156004099
650.261502338
647.482161033
644.816283754
642.262233813
639.818404393
637.483189218
635.254955132
633.132017878
631.112622022
629.194925718
627.376990636
625.656777066
624.032143927
622.500853202
621.060578225
619.708915246
618.443397693
617.261512665
616.160719162
615.138467631
614.192220361
613.319472277
612.517771671
611.784740449
611.118093525
610.515657039
609.975385192
609.495375519
609.073882536
608.709329743
608.400319978
608.145644041
607.944287278
607.795435734
607.698673766
607.653078328
990.008079386
989.125285878
987.501229592
985.054520751
981.843448421
977.92840214
973.372517597
968.239046094
962.589770687
956.484273579
949.979712928
943.130799519
935.989758548
928.606148935
921.026485927
913.293681651
905.44637915
897.51830885
889.537843602
881.527959601
873.506803929
865.488983708
857.487484193
849.515772421
841.589297798
833.725451187
825.942090629
818.25580529
810.680714481
803.228107398
795.906818751
788.723989615
781.685674132
774.797130006
768.062938818
761.487056919
755.072806346
748.822812926
742.738959767
736.822390694
731.073552335
725.492248567
720.07769776
714.82858646
709.743117909
704.819060412
700.05380047
695.4444032
690.987681206
686.68026999
682.51870607
678.499503034
674.619221294
670.874528108
667.262245728
663.779386425
660.423174151
657.191053183
654.080684795
651.089933307
648.216843272
645.459609669
642.816543146
640.28603234
637.866505316
635.556392021
633.354089549
631.257931685
629.266163967
627.376925007
625.588234446
623.897987398
622.30395492
620.803789733
619.395036387
618.075145056
616.841488288
615.691380135
614.622097173
613.630900939
612.715061287
611.8718801
611.098714856
610.393001491
609.752276151
609.174195454
608.656555026
608.197306147
607.794570459
607.446652706
607.15205163
606.90946901
606.717816175
606.576219913
606.484207995
606.441049621
999.657820097
998.656105733
996.834084183
994.100736715
990.533379039
986.209442898
981.206396965
975.598998953
969.458090798
962.850479302
955.839332959
948.484675678
940.843697845
932.970739018
924.916885139
916.729213977
908.449797856
900.114645016
891.752837139
883.386198475
875.029877082
866.694156481
858.387528902
850.120401866
841.907996875
833.770106341
825.727888252
817.800556678
810.003340643
802.347113535
794.83938214
787.485845109
780.291435538
773.26058527
766.397247183
759.704904268
753.186509474
746.84431487
740.679753565
734.693439219
728.885237003
723.254339579
717.799339364
712.518288816
707.40874559
702.467816298
697.692208097
693.078292279
688.622182178
684.319822754
680.16708504
676.159858374
672.294133995
668.566075742
664.972075148
661.508789888
658.173165425
654.962440723
651.874139371
648.906048118
646.056184932
643.322759057
640.704125484
638.198736376
635.805091859
633.521692564
631.346996036
629.279378912
627.317106305
625.458309369
623.700971359
622.042921903
620.481838628
619.015254987
617.640573075
616.355080348
615.155969426
614.040360372
613.005324986
612.047912642
611.165177119
610.3542038
609.612136543
608.936203624
608.323742187
607.772220802
607.279259873
606.842649716
606.460366318
606.130584811
605.851690776
605.622289416
605.44121222
605.307522388
605.220686668
605.180170981
1010.28204192
1009.12985137
1007.05978815
1003.97233152
999.973827687
995.165052586
989.64110156
983.489620491
976.790746855
969.618211701
962.040772767
954.123502821
945.928600963
937.515594645
928.940879971
920.256663205
911.509451056
902.738320457
893.973313074
885.234457812
876.532097696
867.869263668
859.24655761
850.668848142
842.151346735
833.718956553
825.399139347
817.215681248
809.185327405
801.317688718
793.617615398
786.088377528
778.733441919
771.556344631
764.56040284
757.74868963
751.123932898
744.688115699
738.442228586
732.386296057
726.519529469
720.840439946
715.346934307
710.03638342
704.90565377
699.951137658
695.16879894
690.554237663
686.102779709
681.809586487
677.669772697
673.678520723
669.831182546
666.12336369
662.550986579
659.110332434
655.798062255
652.611218125
649.54720701
646.603769503
643.778936462
641.07097641
638.478336794
635.999582034
633.633331377
631.378199351
629.23274151
627.195407767
625.264505202
623.438171507
621.714359465
620.090831818
618.565165178
617.134761127
615.796862739
614.548575058
613.386888574
612.308705146
611.310866053
610.390181777
609.543462953
608.767551686