/*--------------------------------*- C++ -*----------------------------------*\
| =========                 |                                                 |
| \\      /  F ield         | OpenFOAM: The Open Source CFD Toolbox           |
|  \\    /   O peration     | Version:  v1906                                 |
|   \\  /    A nd           | Web:      www.OpenFOAM.com                      |
|    \\/     M anipulation  |                                                 |
\*---------------------------------------------------------------------------*/
FoamFile
{
    version     2.0;
    format      ascii;
    class       surfaceScalarField;
    location    "127";
    object      phi;
}
// * * * * * * * * * * * * * * * * * * * * * * * * * * * * * * * * * * * * * //

dimensions      [0 3 -1 0 0 0 0];
oriented        oriented;


internalField   nonuniform List<scalar> 
18240
(
-0.000352116951779
0.000352065460185
-0.000737707396824
0.000385516908139
-0.00112293776909
0.000385182426848
-0.00150324634206
0.000380230757702
-0.00187650004463
0.000373213147802
-0.00224103620826
0.000364455162
-0.00259525760745
0.000354188759134
-0.00293790519092
0.000342564529296
-0.00326771532054
0.000329786060211
-0.00358379263464
0.000315993490835
-0.00388520006315
0.000301392699887
-0.00417139283265
0.000286109520893
-0.00444173773549
0.000270340055443
-0.00469600478738
0.00025418580154
-0.00493382466515
0.000237825498949
-0.00515523220273
0.000221329758392
-0.00536006821039
0.000204852413776
-0.00554857403213
0.000188433044504
-0.00572074997549
0.000172203476062
-0.00587699344364
0.000156177215178
-0.00601742102657
0.000140466260453
-0.00614254152658
0.000125062279284
-0.00625255359167
0.000110061889904
-0.00634804255825
9.54401957374e-05
-0.00642926351831
8.12815789104e-05
-0.00649685238177
6.75508670501e-05
-0.00655110308128
5.43217116949e-05
-0.00659268176114
4.15526160897e-05
-0.00662191211051
2.93110033502e-05
-0.00663947578311
1.75505345264e-05
-0.00664571800004
6.33169795173e-06
-0.00664131970609
-4.3977425444e-06
-0.00662663201976
-1.45905027415e-05
-0.00660232812278
-2.42891036431e-05
-0.00656877348298
-3.34509352182e-05
-0.00652662020916
-4.2123955446e-05
-0.00647623457789
-5.0276818435e-05
-0.00641823810345
-5.79526064036e-05
-0.00635299631226
-6.51293291242e-05
-0.00628109281971
-7.18453410037e-05
-0.00620289004241
-7.80882551254e-05
-0.00611892433794
-8.38938036495e-05
-0.00602954846698
-8.92609014665e-05
-0.00593524820259
-9.42154203453e-05
-0.00583636713243
-9.87672840156e-05
-0.00573333490131
-0.00010293547832
-0.00562648411242
-0.000106739812289
-0.00551618469967
-0.000110191976777
-0.00540275820679
-0.000113319849627
-0.00528651564589
-0.000116125796642
-0.00516776747072
-0.000118647357916
-0.00504676757348
-0.000120875234104
-0.00492381871061
-0.000122855160235
-0.00479911960793
-0.000124568010992
-0.00467296837196
-0.000126065917713
-0.0045455137466
-0.000127318598692
-0.004417052462
-0.000128385377732
-0.00428768889981
-0.000129224151481
-0.00415772450889
-0.000129898972765
-0.00402722457874
-0.00013035876809
-0.00389649564178
-0.000130674849544
-0.00376556908512
-0.000130785429991
-0.00363476061969
-0.00013076666598
-0.00350407283904
-0.000130548643752
-0.00337382923579
-0.000130214796397
-0.0032440054545
-0.000129688812888
-0.0031149344953
-0.000129055959818
-0.00298657006523
-0.000128235981712
-0.00285924785641
-0.000127321493065
-0.0027328981719
-0.00012623026623
-0.00260785200955
-0.000125060202645
-0.00248401765844
-0.000123726489113
-0.00236171731025
-0.000122329112559
-0.00224083691301
-0.000120786535035
-0.00212167856284
-0.000119201588353
-0.00200410765173
-0.000117493188016
-0.00188840012076
-0.000115764285667
-0.00177440122834
-0.000113938984652
-0.00166235232554
-0.000112117749749
-0.00155208008158
-0.000110231140518
-0.00144378617478
-0.00010837262615
-0.00133728826693
-0.00010647600488
-0.00123274886044
-0.000104625601409
-0.00112999176386
-0.000102754648288
-0.00102915766254
-0.000100925616924
-0.000930115731941
-9.90591177409e-05
-0.000833054532077
-9.71561423469e-05
-0.000738040145228
-9.50497264268e-05
-0.00064556990231
-9.25662347743e-05
-0.000556227862806
-8.93922037569e-05
-0.000471672410164
-8.46451162669e-05
-0.000395423162473
-7.63056186299e-05
-0.000327455879985
-6.80391581483e-05
-0.000246925091172
-8.06247567706e-05
-0.000135539012118
-0.000111533232605
-0.000135619558611
-0.000389225245188
0.000741230910478
-0.000823813951911
0.000820035522082
-0.00125593278174
0.000817239400154
-0.00168177420341
0.000806002533083
-0.00209939264303
0.000790772948709
-0.00250704016639
0.000772034114186
-0.00290303244853
0.000750126486289
-0.00328591620072
0.000725381705811
-0.00365435323116
0.000698173645331
-0.004007276591
0.000668853395476
-0.00434372727602
0.000637800016727
-0.00466302330315
0.00060534636635
-0.00496456186273
0.000571842315784
-0.00524800606004
0.000537576263426
-0.005513056755
0.000502847858078
-0.00575966010555
0.000467885983417
-0.00598776161241
0.000432934445626
-0.00619753199204
0.000398164059918
-0.00638910252465
0.000363764158771
-0.00656280591334
0.000329850086722
-0.00671890459446
0.000296565419928
-0.00685784744467
0.000263984464711
-0.00697998890386
0.000232214673686
-0.00708585877953
0.000201300129305
-0.00717587638859
0.0001713217497
-0.00725062437718
0.000142300361104
-0.0073105661741
0.00011429747971
-0.00735631870065
8.73186303052e-05
-0.00738837029667
6.14079756391e-05
-0.00740735595958
3.6562008279e-05
-0.00741378034091
1.28126283043e-05
-0.00740828495037
-9.85488793124e-06
-0.0073913886261
-3.14195427882e-05
-0.00736372759906
-5.18995556674e-05
-0.00732581874643
-7.12824125954e-05
-0.00727828622541
-8.95939129028e-05
-0.0072216400055
-0.000106836423239
-0.00715648129393
-0.000123037335939
-0.00708330830288
-0.000138207489724
-0.00700269029024
-0.000152378751679
-0.00691510349083
-0.000165573224741
-0.00682108027631
-0.000177822806966
-0.00672107655054
-0.000189157129414
-0.00661558216441
-0.000199607188108
-0.00650502540258
-0.00020921236203
-0.00638984791025
-0.000218003303767
-0.00627044600599
-0.000226027354795
-0.00614721391403
-0.00023330881652
-0.00602052078706
-0.000239897517326
-0.00589071064102
-0.000245816623818
-0.00575812176336
-0.000251121175089
-0.00562305174872
-0.000255823376043
-0.00548581298019
-0.000259980761521
-0.00534665805401
-0.000263599996854
-0.005205877228
-0.000266736820014
-0.00506368464809
-0.000269388612064
-0.00492035295446
-0.000271611745988
-0.00477606283025
-0.000273393520019
-0.00463107242684
-0.000274789896747
-0.00448553450741
-0.000275779198885
-0.00433970174144
-0.000276415305667
-0.00419370515085
-0.000276669336977
-0.00404779192135
-0.000276596035299
-0.00390207329765
-0.000276161017584
-0.00375679625435
-0.000275417823583
-0.00361205870546
-0.000274328301311
-0.00346810156346
-0.000272950286851
-0.00332500620392
-0.000271243300884
-0.00318300791532
-0.000269269569718
-0.00304217274899
-0.000266989283379
-0.0029027268207
-0.000264469771856
-0.00276471556719
-0.000261675267073
-0.00262835015921
-0.000258673098623
-0.00249365487119
-0.000255434600917
-0.00236081637237
-0.000252034297862
-0.00222983611253
-0.000248442666863
-0.00210087372218
-0.000244736736699
-0.00197390279202
-0.00024089621203
-0.00184905029944
-0.000236995697798
-0.0017262633481
-0.000233021383258
-0.00160562652149
-0.000229049143075
-0.00148706513352
-0.000225056984644
-0.00137063282607
-0.000221110339405
-0.00125623902354
-0.000217183543037
-0.00114391498665
-0.000213313541172
-0.00103357594736
-0.000209448116462
-0.000925262174403
-0.000205543996361
-0.000818946262834
-0.00020142858397
-0.00071473668441
-0.000196858330182
-0.000612733126155
-0.000191470733532
-0.000512912445007
-0.000184548738591
-0.000414939361317
-0.000174351758822
-0.000320775562154
-0.000162286938643
-0.000223337402251
-0.000178158293324
-0.000110929686207
-0.000224058165659
-0.000246617812123
-0.000396177716544
0.00113734659006
-0.000836397984394
0.00126018846133
-0.00127476854662
0.00125554381182
-0.00170678299757
0.0012379499963
-0.0021303093742
0.00121423558829
-0.00254349221961
0.00118515194049
-0.0029446235319
0.00115119724132
-0.00333219980805
0.00111289596624
-0.00370489441804
0.00107081182277
-0.00406160927313
0.00102551033848
-0.00440142175101
0.000977561265901
-0.00472363131925
0.000927503229063
-0.00502769023737
0.000875856235597
-0.00531324906544
0.000823088703696
-0.00558007646977
0.000769637564454
-0.00582810839678
0.000715878922466
-0.00605736097889
0.000662157603737
-0.00626798692929
0.000608759479453
-0.00646018549724
0.000555942548924
-0.00663426831005
0.00050391179341
-0.00679056639358
0.000452853381898
-0.00692950078681
0.000402908054518
-0.00705149260611
0.000354207170582
-0.00715703764857
0.000306845390542
-0.00724661800407
0.000260914103484
-0.00732078089091
0.000216475061158
-0.00738004733302
0.00017358763982
-0.00742499202159
0.000132287089193
-0.00745616381537
9.26153491375e-05
-0.00747415667732
5.45907733407e-05
-0.0074795335972
1.82369690306e-05
-0.00747289907135
-1.64414464109e-05
-0.00745482168553
-4.94379582985e-05
-0.00742590441038
-8.07570703841e-05
-0.00738671091477
-0.000110405855445
-0.00733783020594
-0.000138403582255
-0.00727981781062
-0.000164768400333
-0.00721324584414
-0.000189527704702
-0.00713865152601
-0.000212711925032
-0.00705657956719
-0.000234359504412
-0.00696754228352
-0.000254512274379
-0.00687205151232
-0.000273213902322
-0.00677058948967
-0.000290513849261
-0.00666363266814
-0.000306457190168
-0.0065516262862
-0.000321107799834
-0.00643500208832
-0.00033451499426
-0.00631417446571
-0.00034673992831
-0.00618953128791
-0.000357835343801
-0.00606144324864
-0.000367867963995
-0.00593025641363
-0.000376884229066
-0.00579630897257
-0.000384950053525
-0.00565990114208
-0.000392110929002
-0.00552133454686
-0.000398429301221
-0.00538087583335
-0.000403938853462
-0.00523879955946
-0.000408696989549
-0.00509533784838
-0.000412732288226
-0.00495073914224
-0.000416097630459
-0.00480520780997
-0.000418810016116
-0.00465897454125
-0.000420914995471
-0.00451222316175
-0.000422420323087
-0.00436517037791
-0.000423365899361
-0.0042179837622
-0.000423751730286
-0.00407087117302
-0.000423613872577
-0.00392398845262
-0.000422947073824
-0.00377753711214
-0.000421783315303
-0.0036316616829
-0.000420116264923
-0.0034865562267
-0.000417980409503
-0.00334235347991
-0.000415369469501
-0.00319923919427
-0.000412320592539
-0.00305733236361
-0.000408832137694
-0.00291680835539
-0.000404944161825
-0.0027777753277
-0.000400658509345
-0.00264038654114
-0.00039602722438
-0.00250472905139
-0.000391057866885
-0.00237093960487
-0.000385805093819
-0.00223907599814
-0.000380288550247
-0.00210924175886
-0.000374568820309
-0.00198146720491
-0.000368669926595
-0.00185581922593
-0.000362657898253
-0.00173230204961
-0.000356554240854
-0.00161095504327
-0.000350425856768
-0.00149174296269
-0.000344300303992
-0.0013746648844
-0.000338232405831
-0.00125965645889
-0.000332237662123
-0.00114668093578
-0.000326346231718
-0.00103564558445
-0.000320542748478
-0.000926473909304
-0.000314784927156
-0.000819008540109
-0.000308965653304
-0.000713029038319
-0.00030291753014
-0.000608241689395
-0.000296340082163
-0.000503693060858
-0.000289186639418
-0.000396982198615
-0.000281145790716
-0.000285101853388
-0.000274248237627
-0.000175913629639
-0.000287442464441
-7.95406215077e-05
-0.000320536583915
-0.000326206913123
-0.000402368381405
0.00153965188595
-0.000848690461249
0.00170644134417
-0.00129314838623
0.00169993427719
-0.00173100539954
0.00167573955845
-0.00215999871935
0.00164316330716
-0.00257817643587
0.00160326463323
-0.00298377945317
0.00155673749449
-0.00337526436215
0.00150431911195
-0.00375130049261
0.0014467890978
-0.00411078494943
0.00138493735163
-0.00445282411984
0.00131954657068
-0.00477673774843
0.00125136483539
-0.00508202758994
0.00118109831889
-0.0053683762229
0.00110939184677
-0.00563560861179
0.00103682937679
-0.0058836937567
0.000963926199761
-0.00611270600371
0.000891137530828
-0.00632282684132
0.000818851123435
-0.0065143087662
0.000747401390283
-0.00668748240942
0.000677065883948
-0.00684272336795
0.00060808140419
-0.00698046435514
0.000540639989278
-0.00710116218317
0.000474902960415
-0.00720531685758
0.000411002220062
-0.00729344206952
0.000349048790403
-0.00736607979292
0.000289126689175
-0.00742377744745
0.00023130669142
-0.0074671074825
0.000175643119587
-0.00749664149577
0.000122182903966
-0.00751296969841
7.09572006555e-05
-0.00751667526035
2.19882090755e-05
-0.00750835424329
-2.47121079386e-05
-0.0074885963247
-6.91382926551e-05
-0.00745799653101
-0.000111294692314
-0.00741713899547
-0.000151194356918
-0.00736660895422
-0.000188860181805
-0.00730697835465
-0.000224319196204
-0.00723881232329
-0.000257609790996
-0.00716266057157
-0.000288774000721
-0.00707906584184
-0.000317860774088
-0.00698855272073
-0.000344926963957
-0.00689163444444
-0.000370030397409
-0.00678879827785
-0.000393244128498
-0.00668051154356
-0.000414635203849
-0.00656722990258
-0.000434277576851
-0.00644938519595
-0.000452245564008
-0.00632738793564
-0.0004686209141
-0.00620162901176
-0.000483476319734
-0.00607248234475
-0.00049689557866
-0.00594029304458
-0.00050895338725
-0.00580539314628
-0.000519729697133
-0.00566808849914
-0.000529294800275
-0.00552867518489
-0.000537722685263
-0.00538741757016
-0.00054507652971
-0.0052445764714
-0.000551419880406
-0.00510039087063
-0.000556800171678
-0.00495509587914
-0.000561277505074
-0.00480890224422
-0.000564889499163
-0.00466202577998
-0.000567680746519
-0.00451465946706
-0.000569677401
-0.00436700373606
-0.000570916710359
-0.00421923815641
-0.000571414409343
-0.00407155356133
-0.000571200767534
-0.0039241196631
-0.000570285914152
-0.00377712427882
-0.000568689789264
-0.00363072959013
-0.000566425360006
-0.00348511048161
-0.00056352101845
-0.00334041856204
-0.000559986948936
-0.00319682456733
-0.000555848198713
-0.00305447059076
-0.000551124532581
-0.00291351188395
-0.000545850209888
-0.00277407782813
-0.000540045437153
-0.00263631359315
-0.000533754003729
-0.00250032746073
-0.000527012679504
-0.00236623405622
-0.000519877359739
-0.00223411701256
-0.000512391013829
-0.00210406511161
-0.000504616526697
-0.00197613103204
-0.000496606511385
-0.00185036908184
-0.000488432531237
-0.00172679354541
-0.000480148973395
-0.00160541962918
-0.000471828545896
-0.00148622151542
-0.000463533291968
-0.00136917462573
-0.000455322975539
-0.00125421623964
-0.000447245424099
-0.0011412764874
-0.00043934344597
-0.0010302391132
-0.000431643040866
-0.000920937114417
-0.000424157193199
-0.000813145509352
-0.000416832531368
-0.000706486318586
-0.000409658778139
-0.000600289668494
-0.000402624491687
-0.000493506655528
-0.000396057321448
-0.000383989446377
-0.000390752285715
-0.000269057699471
-0.000389275997247
-0.000158859177737
-0.000397730629842
-6.67421375108e-05
-0.00041274344073
-0.00039299984082
-0.000410349034156
0.00194993639809
-0.000865138919756
0.00216116260637
-0.00131784147567
0.00215256747563
-0.00176352520519
0.00212135509971
-0.00219979469029
0.00207936560452
-0.00262459038968
0.00202799437998
-0.00303608283351
0.00196816563846
-0.00343268354539
0.00190085713985
-0.00381304974328
0.00182709484495
-0.00417608651504
0.00174791580723
-0.00452093287431
0.0016643374376
-0.00484695099823
0.00157733014411
-0.00515370180136
0.00148779970791
-0.00544092548554
0.00139656935595
-0.00570851639649
0.00130437809222
-0.0059565054998
0.0012118768905
-0.00618503245562
0.00111963059803
-0.00639433234573
0.00102812143916
-0.00658471403799
0.000937758546847
-0.00675655057465
0.000848882674145
-0.00691026042622
0.000761776993652
-0.00704630448458
0.000676675001309
-0.00716517506472
0.000593770358923
-0.00726739251893
0.000513222046168
-0.00735349398684
0.000435158777823
-0.0074240329445
0.000359679982376
-0.00747957673353
0.000286871154334
-0.00752070704894
0.000216800075628
-0.00754800939852
0.000149518307752
-0.00756207955237
8.50664346452e-05
-0.00756351594449
2.34700593663e-05
-0.0075529220972
-3.52545424622e-05
-0.00753089986707
-9.11028918094e-05
-0.00749804718358
-0.000144083956978
-0.00745495718049
-0.00019421499561
-0.00740222084116
-0.000241521659278
-0.00734042002473
-0.000286039597136
-0.00727012823955
-0.000327816060126
-0.00719190457344
-0.000366907104639
-0.00710629599759
-0.000403374204307
-0.0070138293993
-0.00043729398896
-0.00691501531383
-0.000468740952031
-0.00681034998594
-0.000497802221316
-0.00670030791128
-0.000524566814598
-0.00658534654038
-0.000549125578679
-0.0064659014427
-0.000571574863814
-0.00634238769905
-0.000592016805568
-0.00621519263128
-0.000610551938259
-0.00608468365189
-0.00062728390558
-0.00595120819127
-0.000642307417085
-0.00581509454363
-0.00065572153888
-0.00567664668161
-0.000667620835091
-0.00553615254456
-0.000678095386212
-0.00539387920647
-0.000687229102061
-0.00525007842194
-0.000695101017048
-0.00510498340767
-0.00070177683857
-0.00495882084612
-0.000707323523063
-0.00481180041222
-0.000711795311574
-0.00466412799609
-0.000715241042143
-0.00451599794415
-0.00071769788284
-0.00436759993274
-0.000719208363705
-0.00421911729273
-0.000719793929902
-0.00407073316234
-0.000719485763794
-0.00392262306377
-0.000718300858636
-0.00377497320409
-0.000716249296109
-0.00362794311537
-0.00071336989904
-0.00348169694178
-0.000709687318809
-0.00333639837646
-0.00070521129663
-0.00319221614669
-0.000699962763817
-0.00304930234388
-0.000693977198387
-0.00290781091513
-0.000687287905522
-0.00276788705803
-0.000679922885146
-0.00262967103698
-0.000671931748938
-0.00249328089679
-0.000663372542276
-0.00235882876635
-0.000654307887267
-0.00222641150002
-0.000644795106303
-0.00209611809545
-0.000634905675939
-0.00196801026619
-0.000624718636866
-0.00184213365366
-0.000614322236128
-0.00171851072487
-0.000603793282211
-0.00159715034831
-0.000593218606036
-0.00147803476124
-0.000582686315144
-0.00136112506448
-0.000572277775202
-0.00124635210736
-0.000562070629518
-0.00113361507802
-0.000552139820442
-0.00102277783025
-0.000542546334283
-0.000913661209788
-0.0005333463406
-0.000805997188868
-0.000524575691215
-0.000699434723948
-0.000516305506752
-0.000593238082243
-0.000508910199392
-0.000486825852623
-0.000502565471736
-0.000379543518109
-0.000498128047742
-0.000271637562074
-0.000497268556465
-0.000167490962675
-0.00050197956655
-7.28539483263e-05
-0.000507483746775
-0.000465900071495
-0.000420495751508
0.00237036662769
-0.000886286775178
0.00262688186024
-0.0013496423383
0.00261585280153
-0.00180539168509
0.00257703458085
-0.00225097588411
0.00252488128072
-0.00268420764535
0.00246115875957
-0.0031031682904
0.00238706048493
-0.00350621931477
0.00230384407028
-0.00389200664242
0.00221282018445
-0.00425945290088
0.00211530233903
-0.00460774304752
0.00201257055009
-0.00493630395617
0.00190583685068
-0.00524477342731
0.00179621828115
-0.00553297626248
0.00168472469187
-0.00580089639898
0.00157225463587
-0.00604864909301
0.00145958995169
-0.00627645608788
0.00134740245444
-0.00648462678625
0.00123626148624
-0.00667353605181
0.00112664219452
-0.00684361241111
0.0010189383876
-0.00699532644247
0.000913475896768
-0.00712918143539
0.000810520253113
-0.00724570648868
0.000710291588996
-0.00734544909533
0.000612966557795
-0.00742896776423
0.000518685584826
-0.00749683893463
0.000427565265605
-0.00754964791278
0.0003397006857
-0.00758798868384
0.000255167522973
-0.00761246419498
0.00017402703513
-0.00762368135514
9.63229779365e-05
-0.00762225192765
2.20865320127e-05
-0.00760878730432
-4.86671783743e-05
-0.00758389701099
-0.000115934823642
-0.00754819298183
-0.000179723721099
-0.00750228132166
-0.000240056281643
-0.0074467625803
-0.000296964421855
-0.0073822268888
-0.000350493589841
-0.00730925598768
-0.000400700071692
-0.007228415903
-0.000447655096993
-0.00714025657833
-0.000491436777743
-0.00704531597773
-0.000532133285411
-0.00694411132885
-0.000569840282836
-0.00683714562479
-0.000604658826059
-0.00672490234655
-0.000636697730111
-0.00660783727134
-0.000666075382125
-0.00648638434622
-0.000692910072765
-0.00636095949329
-0.00071732195423
-0.00623195567684
-0.000739434457588
-0.00609974277113
-0.000759374448942
-0.00596466183445
-0.000777265221855
-0.00582703313055
-0.000793226902648
-0.0056871588912
-0.000807371730199
-0.00554532197564
-0.000819809523079
-0.0054017834605
-0.000830645518813
-0.00525678747492
-0.000839976157551
-0.00511056102012
-0.000847883765429
-0.00496332252181
-0.000854444402496
-0.00481527800515
-0.000859724137275
-0.00466662262524
-0.000863783289628
-0.00451754786068
-0.000866662081495
-0.00436823515064
-0.000868413764912
-0.00421886339684
-0.000869061624433
-0.00406963305346
-0.000868616061446
-0.00392070289161
-0.000867134986486
-0.00377222969492
-0.000864631316053
-0.00362438612209
-0.000861127134445
-0.00347734707156
-0.000856645785894
-0.00333128366574
-0.000851199839721
-0.00318636264678
-0.000844815607342
-0.00304274397471
-0.000837534298224
-0.00290058661972
-0.000829391272202
-0.00276003712926
-0.000820425819024
-0.00262123726368
-0.000810693440952
-0.00248432562924
-0.000800254115488
-0.00234942510112
-0.000789187332139
-0.00221662782341
-0.000777579861203
-0.002086021794
-0.000765508460777
-0.00195768203427
-0.000753063828858
-0.00183166299363
-0.00074035589983
-0.00170798470048
-0.000727494611166
-0.00158665686673
-0.000714578199631
-0.00146765565033
-0.000701727144323
-0.00135093283113
-0.000689048275207
-0.00123641808823
-0.000676640270245
-0.00112400701234
-0.000664613245705
-0.00101355253607
-0.000653069916406
-0.000904871956451
-0.000642102981643
-0.00079772525216
-0.000631804544272
-0.00069180633454
-0.000622313107938
-0.000586682403999
-0.000614128483174
-0.000481837131679
-0.000607503614682
-0.000377363714764
-0.000602696604105
-0.000274109375174
-0.000600628840545
-0.000174040398496
-0.000602146998789
-7.9395158799e-05
-0.000602229433708
-0.000545351994393
-0.000433073609457
0.00280337285867
-0.000912563747127
0.00310630061176
-0.00138916118193
0.00309237776053
-0.00185737820145
0.00304518045986
-0.00231444976417
0.00298188250379
-0.00275803033422
0.00290467034306
-0.00318609544542
0.00281505806412
-0.00359695252797
0.00271463537853
-0.00398924023111
0.00260504414571
-0.0043619151123
0.00248791580524
-0.00471422972733
0.00236482637649
-0.00504569889564
0.00223725017356
-0.00535606596408
0.00210653272877
-0.00564527052167
0.00197388020451
-0.00591340983591
0.00184034872735
-0.00616070850971
0.0017068475973
-0.00638749171039
0.0015741490205
-0.00659415896616
0.00144289688958
-0.00678116672985
0.00131362303237
-0.00694901493443
0.0011867649769
-0.00709823320495
0.00106267794689
-0.00722937430713
0.000941650904375
-0.00734300885652
0.00082392147804
-0.0074397133779
0.000709672557119
-0.00752007442393
0.000599054203404
-0.00758469083056
0.000492195656908
-0.00763416871537
0.000389198856541
-0.00766912022275
0.000290145888207
-0.00769016292805
0.000195102997557
-0.00769791867989
0.000104118612233
-0.00769300912082
1.72232391362e-05
-0.00767605805551
-6.5565436539e-05
-0.0076476920291
-0.000144241796645
-0.00760853441559
-0.0002188159311
-0.00755920523921
-0.000289314058453
-0.00750031490188
-0.000355777330554
-0.00743246491344
-0.00041826052673
-0.00735624483893
-0.000476831514896
-0.00727223032371
-0.000531575859862
-0.00718098210216
-0.000582586257417
-0.00708304913829
-0.000629963019706
-0.00697896144475
-0.000673820490904
-0.00686922221109
-0.000714286846289
-0.0067543136484
-0.000751491688958
-0.00663470245974
-0.00078556909491
-0.00651083166951
-0.000816660952049
-0.00638311312599
-0.000844918619371
-0.0062519356754
-0.0008704885799
-0.00611766771155
-0.000893518001231
-0.00598065245058
-0.000914155559576
-0.00584121079138
-0.000932543371424
-0.00569963413527
-0.000948823509316
-0.00555619406488
-0.000963125170662
-0.00541114665887
-0.000975569522035
-0.0052647279353
-0.000986272579997
-0.00511715753332
-0.000995333511787
-0.00496864203757
-0.00100284094651
-0.0048193746419
-0.00100887483501
-0.00466954544716
-0.00101349810162
-0.00451934211431
-0.00101675392248
-0.00436896580866
-0.00101868154671
-0.00421857685259
-0.00101934565865
-0.00406831617883
-0.00101877551771
-0.00391835773632
-0.0010169966155
-0.00376887042661
-0.00101402633666
-0.00362004163139
-0.00100986893592
-0.00347204690326
-0.00100455894327
-0.00332504605783
-0.000998125353357
-0.0031792183267
-0.000990574365569
-0.0030347340037
-0.000981956846376
-0.00289175664653
-0.000972314135219
-0.00275044947537
-0.000961686588486
-0.00261095522818
-0.000950149387504
-0.00247340824641
-0.000937771638875
-0.00233794459843
-0.000924630250496
-0.00220468292848
-0.00091083013759
-0.00207371345155
-0.000896475599516
-0.00194510569606
-0.000881678729845
-0.00181891338334
-0.000866564352537
-0.00169517416488
-0.000851259190878
-0.00157389169521
-0.000835894575047
-0.00145504616432
-0.000820615203735
-0.00133858774809
-0.000805557113021
-0.00122443463558
-0.000790851709757
-0.00111247920245
-0.000776634317433
-0.00100258396718
-0.000763038150831
-0.000894561537057
-0.000750205195038
-0.000788192878081
-0.000738260181577
-0.00068320214573
-0.000727395933543
-0.000579465702255
-0.000717961038002
-0.000476696345947
-0.000710376577771
-0.000374769427371
-0.000704723752635
-0.000274371991087
-0.000701118657219
-0.000176662159144
-0.000699970110114
-8.21942250777e-05
-0.000696814574533
-0.000627597928218
-0.000448359242823
0.00325166350642
-0.000944506938976
0.0036023730403
-0.00143716926292
0.00358496648016
-0.00192045758067
0.00352839544807
-0.00239134503512
0.00345269792379
-0.00284729340804
0.00336054778978
-0.00328615539464
0.00325385062206
-0.00370618244086
0.00313459469628
-0.00410601852229
0.00300481453092
-0.00448467731364
0.00286651120022
-0.00484150702386
0.00272159535285
-0.0051761463917
0.00257183173012
-0.00548848112911
0.00241881298066
-0.00577859723577
0.00226394537643
-0.00604673707286
0.00210844161598
-0.00629326333951
0.00195333108258
-0.00651862516378
0.00179947268553
-0.00672333381182
0.00164757212346
-0.00690794394136
0.001498204953
-0.0070730363542
0.0013518344485
-0.00721920816243
0.00120883253476
-0.00734707087522
0.00106950211191
-0.00745723225688
0.000934077505084
-0.00755030502784
0.000802746052066
-0.00762691063808
0.000675667024173
-0.00768766957879
0.000552968151961
-0.00773320784362
0.000434757388851
-0.00776415685278
0.000321121667837
-0.00778114780593
0.000212127547428
-0.00778481454788
0.000107825507571
-0.00777579740475
8.25306693445e-06
-0.0077547377574
-8.65716384662e-05
-0.00772227689176
-0.000176642535732
-0.00767905067672
-0.000261975729154
-0.00762569086679
-0.000342601029982
-0.00756282455394
-0.000418564823705
-0.00749106617344
-0.000489934061652
-0.00741101677495
-0.000556790526938
-0.00732326603876
-0.000619230729341
-0.0072283913801
-0.00067736008982
-0.00712694625707
-0.000731302545903
-0.00701946338608
-0.000781193533647
-0.00690645992606
-0.000827176578641
-0.00678843003986
-0.000869404481927
-0.00666583970224
-0.000908039437387
-0.00653912904256
-0.00094324920589
-0.00640871865401
-0.000975204751461
-0.00627500112974
-0.00100408040455
-0.00613834481011
-0.00103004779021
-0.00599908503526
-0.00105328826329
-0.00585753355925
-0.00107396784237
-0.00571397909412
-0.00109225121844
-0.0055686851889
-0.00110829313239
-0.00542189396953
-0.00112223570868
-0.00527383109866
-0.00113421185777
-0.00512470539707
-0.00114433711128
-0.00497470995056
-0.00115271631138
-0.00482403559418
-0.00115943115771
-0.0046728757879
-0.0011645424875
-0.00452141476819
-0.00116810216785
-0.00436978031344
-0.00117020650773
-0.00421813193157
-0.00117088787286
-0.00406664152971
-0.00117016380025
-0.00391548342337
-0.00116805671577
-0.00376483325361
-0.00116458342708
-0.00361485289481
-0.00115976121363
-0.00346571644032
-0.00115361320514
-0.00331761159942
-0.0011461539579
-0.0031707140398
-0.00113740259042
-0.00302520776907
-0.00112740071853
-0.00288125490234
-0.00111621249924
-0.00273902913904
-0.00110386571592
-0.00259869452228
-0.00109044616006
-0.00246040118656
-0.00107603578237
-0.0023242832073
-0.00106072851521
-0.00219046286598
-0.00104463995284
-0.00205904048932
-0.00102789729854
-0.00193010580121
-0.00101062210549
-0.00180372112636
-0.000992967520806
-0.00167991783045
-0.000975090103869
-0.00155870166257
-0.000957147696531
-0.00144005900217
-0.000939303349166
-0.00132394171166
-0.000921728500903
-0.00121027297272
-0.000904582369396
-0.00109893904672
-0.000888038082918
-0.000989796279894
-0.000872258084434
-0.000882661079254
-0.000857425032468
-0.000777326350095
-0.000843686018987
-0.000673583733333
-0.000831236644523
-0.000571318053348
-0.000820330433698
-0.000470490699457
-0.000811304486235
-0.000370951585548
-0.000804366134541
-0.000272732310418
-0.000799454573806
-0.000176671470843
-0.000796138929763
-8.29143739644e-05
-0.000790683380531
-0.000710575774127
-0.000466692545858
0.00371828512797
-0.000982796407316
0.00411840193469
-0.00149465504905
0.00409674879582
-0.00199587173095
0.00402953715853
-0.00248309479725
0.00393984670559
-0.00295355351489
0.00383093352049
-0.00340496163036
0.00370518712339
-0.00383551918243
0.00356508233982
-0.00424389716934
0.0034131245953
-0.00462920031411
0.00325174874245
-0.00499091499557
0.00308324706153
-0.00532885009586
0.00290970686437
-0.00564307788494
0.00273298409452
-0.00593387188361
0.00255468641364
-0.00620165657527
0.0023761772949
-0.00644696380674
0.00219859370379
-0.00667039534226
0.00202286418683
-0.00687259546674
0.00184973725873
-0.00705422970583
0.00167980935544
-0.00721597090136
0.00151355142526
-0.00735849386635
0.00135133693849
-0.00748246267227
0.00119345846522
-0.00758853325611
0.00104014171667
-0.00767735874969
0.000891571678458
-0.00774958597041
0.000747900785959
-0.00780586175231
0.000609257273393
-0.00784683280446
0.000475748413019
-0.00787314385025
0.000347459660079
-0.00788544287786
0.000224460267312
-0.00788438366932
0.000106807031416
-0.00787062185559
-5.46127234704e-06
-0.00784481649046
-0.000112322568714
-0.00780762213378
-0.000213775845113
-0.00775969313213
-0.000309836910668
-0.00770168041474
-0.000400539560693
-0.00763422335103
-0.000485941254255
-0.00755795108859