/*--------------------------------*- C++ -*----------------------------------*\
| =========                 |                                                 |
| \\      /  F ield         | OpenFOAM: The Open Source CFD Toolbox           |
|  \\    /   O peration     | Version:  v1906                                 |
|   \\  /    A nd           | Web:      www.OpenFOAM.com                      |
|    \\/     M anipulation  |                                                 |
\*---------------------------------------------------------------------------*/
FoamFile
{
    version     2.0;
    format      ascii;
    class       surfaceScalarField;
    location    "823";
    object      phi;
}
// * * * * * * * * * * * * * * * * * * * * * * * * * * * * * * * * * * * * * //

dimensions      [0 3 -1 0 0 0 0];
oriented        oriented;


internalField   nonuniform List<scalar> 
18240
(
-0.000200037338189
0.000200034227557
-0.000409555596224
0.000209511926903
-0.000617684775576
0.000208127086992
-0.000822802191151
0.000205110180123
-0.00102384569564
0.00020104246186
-0.00121989907318
0.000196045237897
-0.00141012712661
0.000190227977395
-0.00159382556401
0.000183689426466
-0.00177036180542
0.000176537121083
-0.00193924093201
0.000168869290345
-0.00210003007413
0.000160791001656
-0.00225243221212
0.000152391518221
-0.00239619363544
0.000143764259042
-0.00253118671612
0.000134981720887
-0.00265730278546
0.000126119905136
-0.00277454582081
0.000117230984221
-0.00288291298593
0.000108371997447
-0.00298250065479
9.95749865975e-05
-0.0030733743114
9.08795157396e-05
-0.00315568754272
8.22999871426e-05
-0.00322954226126
7.38615976283e-05
-0.00329512059084
6.55646046103e-05
-0.00335253604864
5.74233775736e-05
-0.00340197774745
4.94275802179e-05
-0.00344355293726
4.15841173814e-05
-0.00347744265308
3.38753022989e-05
-0.00350373623148
2.63035016593e-05
-0.00352259736308
1.88465326721e-05
-0.00353409137975
1.15048651023e-05
-0.0035383606016
4.25457502707e-06
-0.0035354455646
-2.90330216292e-06
-0.00352546797845
-9.99210573322e-06
-0.00350844776048
-1.70076774714e-05
-0.00348449272096
-2.39692021944e-05
-0.00345361284169
-3.08665665684e-05
-0.00341591408255
-3.77122934486e-05
-0.00337141215859
-4.44879183679e-05
-0.00332022808105
-5.11967153761e-05
-0.00326240320308
-5.78102621651e-05
-0.00319809334273
-6.43214393142e-05
-0.00312738626761
-7.06920696751e-05
-0.0030504911042
-7.69057713201e-05
-0.00296755872098
-8.29173199608e-05
-0.0028788639651
-8.87048631126e-05
-0.00278462853208
-9.4220816328e-05
-0.00268519609028
-9.94429513374e-05
-0.00258085698698
-0.000104325423903
-0.00247202073192
-0.000108848412492
-0.00235904185872
-0.000112966540201
-0.00224239912878
-0.000116657814065
-0.00212252134655
-0.000119866697851
-0.00199998428385
-0.000122555647428
-0.00187533110624
-0.000124642440522
-0.00174929046745
-0.000126061693336
-0.0016225778483
-0.000126700603919
-0.00149612068577
-0.000126478237955
-0.00137082216876
-0.000125283729514
-0.00124777083923
-0.000123069299081
-0.00112796908532
-0.000119782788428
-0.00101252190537
-0.000115459041698
-0.000902346724522
-0.00011015104188
-0.000798348526316
-0.000104002707031
-0.00070116315629
-9.71571652979e-05
-0.000611342347764
-8.98195439405e-05
-0.000529165446165
-8.21473349643e-05
-0.000454862199672
-7.42977716743e-05
-0.00038842926638
-6.6403429392e-05
-0.000329770250409
-5.86504139509e-05
-0.000278535405823
-5.12063529905e-05
-0.000234281697855
-4.42431398915e-05
-0.000196385761605
-3.78692442418e-05
-0.000164208056643
-3.21661225919e-05
-0.000137032593576
-2.7150970644e-05
-0.000114203807335
-2.28168557237e-05
-9.50756655223e-05
-1.91058746705e-05
-7.91182330606e-05
-1.5945951339e-05
-6.58590406865e-05
-1.32393874916e-05
-5.49370518504e-05
-1.09116324407e-05
-4.6008532606e-05
-8.91109794555e-06
-3.87792445151e-05
-7.21974407097e-06
-3.29567594664e-05
-5.80668209883e-06
-2.83087838969e-05
-4.63896165111e-06
-2.46223623519e-05
-3.67195933534e-06
-2.17557223276e-05
-2.85824415478e-06
-1.96544817497e-05
-2.08795840312e-06
-1.79824986965e-05
-1.66306780259e-06
-1.64895050788e-05
-1.47927049232e-06
-1.52410154893e-05
-1.23713583509e-06
-1.40089633742e-05
-1.21566445043e-06
-1.26411091724e-05
-1.35207055137e-06
-1.11924527119e-05
-1.42739142453e-06
-9.63140062502e-06
-1.53902733421e-06
-7.75848506721e-06
-1.84714062011e-06
-5.42762226148e-06
-2.3004077174e-06
-2.65574728472e-06
-2.73426686829e-06
-2.63682503591e-06
-0.000211633587597
0.000411663853007
-0.000435881624972
0.000433754633675
-0.000657915771629
0.000430157341038
-0.000876489846613
0.000423678943922
-0.00109059842401
0.000415147391779
-0.00129929854114
0.000404739887618
-0.00150172082649
0.000392646858178
-0.00169710894683
0.000379071908343
-0.00188480449359
0.000364229543993
-0.00206427324897
0.000348332265919
-0.00223507518379
0.000331590115002
-0.00239688806166
0.000314198504764
-0.00254946741826
0.000296341125376
-0.00269267086997
0.000278179200954
-0.00282641112919
0.000259858022159
-0.00295068359174
0.000241497429399
-0.00306551478538
0.000223201432084
-0.00317099501609
0.000205049197471
-0.003267223795
0.000187106944782
-0.0033543484199
0.000169418637752
-0.00343250713472
0.000152019413906
-0.00350187379913
0.000134925393701
-0.00356259901362
0.000118148169726
-0.00361486057174
0.000101683413469
-0.0036588025579
8.55261897939e-05
-0.00369459108445
6.96583067009e-05
-0.00372235139695
5.40644193028e-05
-0.00374222835736
3.87182256043e-05
-0.00375432174674
2.35993995563e-05
-0.00375875094698
8.67882881807e-06
-0.00375558901831
-6.06352880266e-06
-0.00374493152249
-2.06541362967e-05
-0.00372682968178
-3.51072086725e-05
-0.00370136208107
-4.94407953763e-05
-0.00366856822357
-6.36574405951e-05
-0.00362852304171
-7.77607656202e-05
-0.00358127116486
-9.17360518748e-05
-0.00352690285746
-0.000105567461898
-0.00346548940293
-0.000119219185489
-0.00339715877148
-0.000132653610015
-0.00332203179634
-0.000145813819448
-0.00324029542228
-0.000158642948937
-0.00315213870571
-0.000171068446641
-0.00305782168644
-0.000183022423134
-0.00295761008232
-0.000194427033141
-0.00285183940778
-0.000205214692486
-0.00274084821754
-0.000215312214843
-0.00262504045665
-0.00022465878322
-0.0025048193287
-0.000233185047404
-0.00238065514682
-0.000240827106114
-0.00225302372948
-0.000247497690941
-0.00212248858839
-0.000253098530753
-0.00198964504532
-0.000257487089755
-0.0018552176848
-0.000260498287642
-0.00171999858568
-0.000261920510331
-0.0015849414585
-0.000261543978241
-0.00145106676109
-0.000259156667993
-0.00131952549593
-0.000254615722156
-0.00119146691657
-0.000247834660386
-0.00106807996923
-0.000238844466598
-0.000950425993851
-0.000227791858914
-0.000839465804443
-0.000214953964933
-0.000735930727105
-0.000200673974321
-0.000640360873482
-0.000185376379351
-0.000553059690105
-0.000169427973226
-0.000474244682437
-0.000153097327188
-0.000403959253138
-0.000136667159792
-0.0003420812016
-0.000120511361808
-0.000288243909478
-0.000105021628319
-0.000241916752782
-9.05525167048e-05
-0.000202412237953
-7.73524168798e-05
-0.000168988515303
-6.55722128959e-05
-0.000140861736688
-5.52575722631e-05
-0.000117286212519
-4.63753448271e-05
-9.75637504503e-05
-3.8809589747e-05
-8.11083004284e-05
-3.23855950389e-05
-6.74412511957e-05
-2.68895287475e-05
-5.61982392593e-05
-2.2140876346e-05
-4.70462990067e-05
-1.80480664948e-05
-3.96636189897e-05
-1.45897736527e-05
-3.37396105495e-05
-1.1716830165e-05
-2.90135549515e-05
-9.35310478078e-06
-2.52525633509e-05
-7.42014476408e-06
-2.22455301915e-05
-5.85424007485e-06
-1.9711865172e-05
-4.60991583078e-06
-1.76470449859e-05
-3.7170985801e-06
-1.60855173999e-05
-3.02840850149e-06
-1.48407046835e-05
-2.46926531808e-06
-1.37040129384e-05
-2.33764244133e-06
-1.25258483246e-05
-2.51335775058e-06
-1.11557354667e-05
-2.77748874921e-06
-9.59270715155e-06
-3.08037427546e-06
-7.81051573414e-06
-3.60383243045e-06
-5.59784979112e-06
-4.48310526834e-06
-2.77219319283e-06
-5.52642542407e-06
-5.39221539077e-06
-0.000214493409275
0.000626153046668
-0.00044102336148
0.000660280056465
-0.000665524042728
0.000654653482281
-0.000886486026997
0.000644636210429
-0.00110282718963
0.000631484176685
-0.00131356423548
0.000615472173775
-0.00151781187355
0.00059689022778
-0.00171479966961
0.000576054939945
-0.00190387151537
0.000553297236081
-0.00208449273405
0.000528948749385
-0.00225623886451
0.000503332235698
-0.00241879649805
0.000476751459428
-0.00257194519515
0.000449485975013
-0.00271555566933
0.000421785079577
-0.00284956824478
0.000393866943755
-0.00297399135572
0.000365916057392
-0.00308887906493
0.000338085705274
-0.00319433182581
0.000310497624905
-0.00329047452714
0.000283246470012
-0.00337746041788
0.000256400384091
-0.00345545020438
0.000230006314873
-0.0035246192726
0.000204090549736
-0.00358513781747
0.000178664162793
-0.00363718107615
0.000153723030185
-0.00368091021304
0.000129253131473
-0.00371648516135
0.000105229920401
-0.00374404603561
8.16234887763e-05
-0.00376372823372
5.83974302773e-05
-0.00377564428303
3.55140547775e-05
-0.00377990102584
1.29329678731e-05
-0.00377658205549
-9.38342963672e-06
-0.00376576689836
-3.14714362546e-05
-0.00374751436256
-5.33601442117e-05
-0.00372188381334
-7.50729134368e-05
-0.00368891979047
-9.6621212386e-05
-0.00364867524365
-0.000118006166346
-0.00360119766236
-0.000139212613103
-0.00354655383782
-0.000160211293001
-0.00348481724584
-0.000180953901016
-0.00341609324737
-0.000201376730843
-0.00334050669035
-0.000221397709564
-0.00325822573754
-0.000240922296701
-0.0031694479063
-0.000259843101798
-0.00307442037763
-0.000278048053519
-0.00297342254503
-0.000295421758576
-0.0028667816364
-0.000311854149015
-0.00275485139621
-0.000327240252416
-0.00263802502986
-0.000341485120556
-0.00251671344009
-0.000354496334797
-0.00239136257281
-0.000366180259193
-0.00226243940841
-0.000376422963201
-0.00213046455859
-0.000385078149231
-0.00199601347076
-0.000391942104191
-0.00185976829178
-0.00039674950116
-0.00172252503794
-0.000399168048925
-0.00158523939442
-0.000398834819498
-0.00144899911908
-0.000395399201238
-0.00131501620326
-0.000388599714108
-0.00118455711136
-0.000378290087815
-0.00105892240329
-0.000364473108592
-0.000939299249286
-0.000347403124639
-0.000826721403545
-0.000327518623068
-0.000721987234319
-0.000305391202906
-0.000625586728394
-0.000281760851847
-0.000537755571603
-0.000257240887485
-0.00045871878023
-0.0002321166558
-0.000388592392652
-0.000206774236028
-0.000327267152483
-0.000181817842403
-0.000274340336678
-0.000157928445119
-0.00022918213441
-0.000135691749428
-0.000191008813537
-0.000115505909982
-0.000158974643331
-9.75879905335e-05
-0.000132214845776
-8.19982791755e-05
-0.000109901921608
-6.86705672404e-05
-9.12804317674e-05
-5.74131288542e-05
-7.57295510287e-05
-4.79199685558e-05
-6.28004204655e-05
-3.98028436295e-05
-5.22024848277e-05
-3.27244630024e-05
-4.36645590248e-05
-2.65720942957e-05
-3.68487883322e-05
-2.13920698361e-05
-3.14229689584e-05
-1.71293304982e-05
-2.7121217589e-05
-1.36421613165e-05
-2.37246751716e-05
-1.08042373453e-05
-2.10405931768e-05
-8.52675760679e-06
-1.88748786145e-05
-6.76415090996e-06
-1.71088148968e-05
-5.47160712706e-06
-1.55475052058e-05
-4.57710711895e-06
-1.41046099937e-05
-3.89896691503e-06
-1.29681998334e-05
-3.45929412048e-06
-1.20406651539e-05
-3.42371018361e-06
-1.06894734823e-05
-4.10878531219e-06
-8.94662793722e-06
-4.80137197896e-06
-6.99989183682e-06
-5.52669105231e-06
-4.73314328429e-06
-6.72316411997e-06
-2.42239563726e-06
-7.80845786671e-06
-7.80015529581e-06
-0.000217913949212
0.000844062748357
-0.000447797347258
0.000890158466372
-0.000675575240274
0.000882426815986
-0.000899638837585
0.000868695074258
-0.00111884153411
0.000850682328183
-0.00133215372372
0.000828779707931
-0.00153866261008
0.000803394608933
-0.00173758240919
0.000774970133708
-0.00192825664676
0.000743967046487
-0.00211015834032
0.000710845909227
-0.00228288243714
0.000676052009089
-0.00244613841198
0.000640002995888
-0.00259973666291
0.000603080033343
-0.00274357766751
0.000565621765089
-0.00287763624769
0.000527921482876
-0.00300195069843
0.000490226334653
-0.0031166076915
0.00045273884113
-0.00322173343411
0.000415619371574
-0.00331748059412
0.000378989985509
-0.00340402226985
0.000342938275596
-0.00348154125018
0.000307521901706
-0.00355022673727
0.000272772499302
-0.00361026564928
0.00023869996004
-0.00366184165037
0.000205295770355
-0.00370512802007
0.00017253669614
-0.00374028850351
0.000140387446337
-0.0037674713397
0.000108803849549
-0.00378681158706
7.77350499685e-05
-0.0037984261216
4.71264773706e-05
-0.00380241733595
1.69219262469e-05
-0.00379886916544
-1.29333000307e-05
-0.00378785225994
-4.24901546655e-05
-0.00376942135293
-7.17922452494e-05
-0.00374362224532
-0.00010087327414
-0.003710490866
-0.000129753149425
-0.0036700622723
-0.000158435302109
-0.00362237165053
-0.000186902999873
-0.00356746525246
-0.00021511737761
-0.003505403002
-0.000243015016446
-0.00343627050832
-0.000270507997523
-0.00336018198219
-0.000297484215717
-0.00327729138113
-0.000323810875116
-0.0031877931698
-0.000349338648972
-0.00309192971521
-0.000373909070406
-0.00298998688458
-0.000397361815213
-0.00288229520958
-0.000419543676235
-0.00276921891726
-0.000440314551925
-0.00265115176632
-0.000459551444358
-0.00252850343195
-0.000477144534128
-0.00240169824995
-0.000492986904264
-0.00227117142805
-0.000506952091222
-0.00213738725043
-0.00051886611082
-0.00200086236366
-0.000528471243695
-0.00186221636944
-0.000535401084197
-0.00172221808063
-0.000539171100705
-0.00158183822611
-0.000539220273289
-0.00144224840565
-0.000534991565194
-0.00130477800492
-0.000526071011519
-0.00117085011264
-0.000512213908095
-0.00104199178464
-0.000493322641979
-0.000919571685191
-0.00046981053746
-0.00080477057874
-0.000442303475704
-0.000698511994341
-0.000411632897346
-0.000601163178471
-0.000379092831091
-0.000512731138374
-0.000345655925097
-0.000433505227158
-0.000311325496037
-0.000363777224606
-0.000276484352498
-0.000303502779904
-0.000242074087856
-0.000252195321577
-0.000209217220601
-0.000209052312018
-0.000178815950279
-0.00017311495811
-0.000151424829505
-0.000143381358354
-0.00012730302956
-0.000118858077966
-0.000106503663105
-9.85932607011e-05
-8.89173662726e-05
-8.17237582159e-05
-7.42653049308e-05
-6.75609334294e-05
-6.20664565431e-05
-5.57068511012e-05
-5.1641312532e-05
-4.60563592967e-05
-4.23613781838e-05
-3.84749645764e-05
-3.41395614913e-05
-3.25624045018e-05
-2.72912050455e-05
-2.79137340425e-05
-2.17643674076e-05
-2.42667009576e-05
-1.727629792e-05
-2.14354353168e-05
-1.36229601628e-05
-1.92500652566e-05
-1.07003620553e-05
-1.75728952975e-05
-8.42980825534e-06
-1.60191790606e-05
-7.01315780032e-06
-1.46467423489e-05
-5.93640780301e-06
-1.34601852181e-05
-5.07151373166e-06
-1.22050619544e-05
-4.69913895331e-06
-1.08274657048e-05
-4.78438878293e-06
-9.7228644667e-06
-5.19459110002e-06
-8.02918381703e-06
-6.47390326433e-06
-5.89041406436e-06
-7.64291784831e-06
-3.9446005319e-06
-8.64626681916e-06
-2.0432578193e-06
-9.68534806709e-06
-9.8303682148e-06
-0.000222479523657
0.00106653784894
-0.000457031217591
0.00112470568017
-0.000689302354184
0.00111469310424
-0.000917588711662
0.00109697675569
-0.00114066929544
0.00107375820807
-0.00135745701722
0.00104556276345
-0.00156700214887
0.00101293511339
-0.00176850066191
0.000976464031994
-0.00196129606741
0.000936757902569
-0.00214487581837
0.000894421127361
-0.0023188621969
0.000850033938903
-0.00248300024969
0.000804136621614
-0.00263714269925
0.000757218153656
-0.00278123454981
0.000709709315249
-0.00291529678884
0.000661979535776
-0.00303941166386
0.000614337059184
-0.00315370824827
0.000567031405016
-0.00325835051465
0.000520257663959
-0.00335352602603
0.000474161672203
-0.00343943734032
0.000428845821082
-0.00351629380939
0.000384374767265
-0.00358430592004
0.000340781073339
-0.00364367958645
0.000298070271188
-0.0036946127059
0.000256225607769
-0.00373729121888
0.000215212118519
-0.00377188721413
0.000174980432651
-0.00379855621048
0.000135470040645
-0.00381743638942
9.66125148002e-05
-0.00382864684084
5.833443359e-05
-0.00383228782464
2.05605315881e-05
-0.00382844006499
-1.67831854916e-05
-0.00381716626336
-5.37659205371e-05
-0.00379851183542
-9.04483304166e-05
-0.00377250817469
-0.00012687835476
-0.00373917539503
-0.000163086961528
-0.00369852786432
-0.000199083536811
-0.00365057940902
-0.000234851688055
-0.00359535133921
-0.000270345265528
-0.00353287998066
-0.000305485662744
-0.00346322650164
-0.000340160312542
-0.00338648538283
-0.000374223649894
-0.00330279380553
-0.000407500366843
-0.00321233788413
-0.000439792085856
-0.00311535759914
-0.00047088667548
-0.00301214616096
-0.000500570466009
-0.00290304601966
-0.000528641275794
-0.00278843781899
-0.000554920630042
-0.00266872657024
-0.00057926144493
-0.00254432350441
-0.000601547359946
-0.00241563168507
-0.000621679533215
-0.0022830385673
-0.000639547481354
-0.0021469260079
-0.000654981759279
-0.00200770627747
-0.000667695699599
-0.00186588822371
-0.000677224110347
-0.00172217187477
-0.000682893941301
-0.00157753721618
-0.0006838606829
-0.0014332839354
-0.000679248935842
-0.00129091236756
-0.000668442885148
-0.00115203540968
-0.000651085253854
-0.00101860671894
-0.000626741503963
-0.000892223130133
-0.000596177945177
-0.000774325958477
-0.00056018393959
-0.000666159430571
-0.000519781481472
-0.000567757749161
-0.000477478474326
-0.000478468771893
-0.000434929341443
-0.000398820795002
-0.000390958063984
-0.000329562649481
-0.000345726849211
-0.000270813200188
-0.000300806918425
-0.000221904204684
-0.000258109179961
-0.000181717023121
-0.000218986001563
-0.000149006971935
-0.000184117262867
-0.000122561349926
-0.000153731704184
-0.000101216502088
-0.000127830967801
-8.38487667437e-05
-0.000106267775318
-6.94043671582e-05
-8.86930744073e-05
-5.70363962579e-05
-7.44178724648e-05
-4.6416664596e-05
-6.22471810291e-05
-3.78766330137e-05
-5.0887597025e-05
-3.16142144157e-05
-4.03891980036e-05
-2.69869963265e-05
-3.19042335796e-05
-2.33878432051e-05
-2.53500120242e-05
-2.05897882394e-05
-2.00608318839e-05
-1.84926535299e-05
-1.5707508776e-05
-1.69395878223e-05
-1.22415431817e-05
-1.58584172508e-05
-9.49917017888e-06
-1.48597011839e-05
-7.99906932005e-06
-1.38138047579e-05
-6.96849819376e-06
-1.24617620389e-05
-6.40883491947e-06
-1.11258676144e-05
-6.0193035692e-06
-9.78741204542e-06
-6.10563862188e-06
-8.540523938e-06
-6.42324044385e-06
-7.2654098891e-06
-7.72933003809e-06
-5.3325332335e-06
-9.55561010211e-06
-3.39271409791e-06
-1.05655011808e-05
-1.72030389168e-06
-1.13362884935e-05
-1.15400303454e-05
-0.000228333735524
0.00129486718119
-0.000468935080599
0.00136530182248
-0.000707005917528
0.00135275919825
-0.000940720374473
0.00133068633923
-0.0011687624032
0.00130179549111
-0.00138997346383
0.00126676906194
-0.00160335812352
0.00122631506341
-0.00180809222526
0.00118119344334
-0.00200352268415
0.00113218372511
-0.00218916023429
0.00108005407551
-0.00236466635314
0.00102553551992
-0.00252983647125
0.000969302245803
-0.00268458088852
0.000911958152239
-0.00282890523623
0.000854029294942
-0.00296289134524
0.000795961361811
-0.00308667972952
0.000738121220053
-0.00320045382668
0.000680801376342
-0.0033044266225
0.00062422640213
-0.00339882925713
0.000568560358236
-0.00348390190657
0.000513914599853
-0.00355988625166
0.000460355363031
-0.00362701973321
0.000407910889722
-0.00368553081428
0.000356577816607
-0.00373563551012
0.00030632685678
-0.00377753441512
0.000257107714293
-0.00381141061555
0.000208853414728
-0.00383742775752
0.000161484110133
-0.0038557288181
0.00011491060189
-0.00386643489665
6.90377045194e-05
-0.0038696447441
2.37676920269e-05
-0.00386543439168
-2.09960191184e-05
-0.00385385777752
-6.53448478274e-05
-0.00383494775046
-0.00010936039359
-0.00380871850999
-0.000153109387072
-0.00377516882561
-0.000196638062554
-0.00373428717937
-0.000239966258045
-0.0036860580349
-0.000283081421197
-0.00363047033043
-0.000325933126742
-0.0035675270353
-0.000368428537016
-0.00349725661469
-0.000410429827249
-0.00341972456551
-0.00045175417895
-0.00333504535683
-0.000492177605324
-0.0032433919782
-0.000531442966179
-0.00314500286794
-0.000569273030366
-0.00304018264667
-0.000605387746471
-0.00292929644734
-0.000639524761373
-0.00281275487097
-0.000671459989315
-0.00269099116794
-0.000701023725444
-0.0025644313172
-0.000728106705455
-0.00243346374449
-0.000752648125967
-0.0022984150573
-0.000774597623445
-0.00215955072472
-0.000793849722396
-0.00201711026915
-0.000810140102673
-0.0018714074985
-0.000822933974024
-0.00172298698459
-0.00083132168927
-0.00157281427558
-0.00083404078437
-0.00142240139125
-0.000829666841287
-0.00127349611424
-0.000817347607061
-0.00112781623919
-0.000796759881558
-0.00098821812942
-0.000766325091118
-0.000856428606942
-0.000727951557105
-0.000734330432961
-0.000682261923589
-0.000624179596734
-0.000629914353935
-0.000525077258555
-0.000576565224329
-0.000434510794675
-0.000525480484472
-0.000353833883438
-0.0004716220881
-0.000284968445766
-0.000414577364323
-0.0002283682884
-0.000357393183573
-0.000182922451171
-0.000303539224211
-0.000146904852246
-0.000254988400722
-0.000118627339786
-0.000212378616174
-9.66299106803e-05
-0.000175713345272
-7.95781262904e-05
-0.000144866144177
-6.61333410683e-05
-0.000119696370442
-5.49129842152e-05
-9.98966508787e-05
-4.46707317347e-05
-8.4646388817e-05
-3.50826134531e-05
-7.18211570497e-05
-2.75411284604e-05
-5.84178502917e-05
-2.31109443584e-05
-4.48060639513e-05
-2.03249057676e-05
-3.46767114074e-05
-1.80384389117e-05
-2.76220620642e-05
-1.62137185901e-05
-2.1872228177e-05
-1.49899914344e-05
-1.69182767293e-05
-1.41637372649e-05
-1.30557929523e-05
-1.35590069612e-05
-1.00918293422e-05
-1.29763873584e-05
-8.56859685453e-06
-1.239264019e-05
-7.5381101244e-06
-1.17417976966e-05
-7.04403752727e-06
-1.07029065112e-05
-7.04099759956e-06
-9.29418850654e-06
-7.4965221406e-06
-7.59086894653e-06
-8.10922118132e-06
-6.27927919533e-06
-9.02305820481e-06
-4.95691638653e-06
-1.08588918447e-05
-3.17518291525e-06
-1.23291656601e-05
-1.59749033106e-06
-1.28956145022e-05
-1.31273908425e-05
-0.000235623275025
0.00153048580513
-0.000483769024379
0.00161344295473
-0.000729056073596
0.00159804115619
-0.00096949734963
0.00157112275511
-0.0012036557944
0.00153594901485
-0.00143028391564
0.00149339233503
-0.00164833222347
0.00144435853811
-0.00185695629384
0.00138981272658
-0.00205551346782
0.0013307361502
-0.00224355046206
0.00126808637273
-0.00242078444686
0.00120276485749
-0.00258708000477
0.00113559321607
-0.00274242435338
0.00106729796958
-0.00288690268656
0.000998503163821
-0.00302067512644
0.000929729400514
-0.00314395613362
0.000861397900105
-0.00325699691549
0.000793837900602
-0.00336007085191
0.000727296163014
-0.00345346185917
0.000661947266629
-0.00353745527514
0.000597904005613
-0.00361233095005
0.000535227108698
-0.00367835801848
0.000473934122601
-0.00373579105423
0.000414007099985
-0.00378486714502
0.000355399290848
-0.00382580371062
0.000298040705477
-0.00385879671355
0.00024184294237
-0.00388401923336
0.000186703240009
-0.00390162016341
0.000132508251909
-0.00391172315796
7.91375186108e-05
-0.00391442569836
2.64671933233e-05
-0.00390979858006
-2.56260368392e-05
-0.00389788580089
-7.72603239028e-05
-0.00387870530924
-0.00012854337071
-0.00385225068621
-0.000179566195696
-0.00381849437009
-0.000230396248702
-0.00377739247482
-0.000281069601867
-0.00372889186161
-0.000331583050783
-0.00367293934377
-0.000381886114519
-0.00360949348625
-0.000431874326645
-0.00353853838204
-0.000481384222792
-0.00346009924252
-0.000530192020356
-0.00337425820156
-0.000578016705063
-0.00328116901156
-0.000624529698048
-0.00318106774726
-0.000669371455155
-0.00307427672861
-0.00071217579055
-0.00296119841245
-0.000752600443205
-0.0028422957659
-0.000790360388672
-0.00271805909827
-0.000825259148596
-0.00258895820582
-0.000857207482607
-0.00245538646552
-0.000886219847097
-0.0023176104033
-0.000912376369668
-0.00217573480233
-0.000935727510963
-0.00202973482565
-0.000956146902189
-0.00187957084033
-0.000973105037664
-0.00172546733439
-0.000985434821888
-0.00156828871391
-0.000991229741603
-0.00140997440004
-0.000987986018291
-0.00125269445337
-0.000974627946121
-0.00109764650121
-0.000951797769808
-0.000950065261411
-0.000913891435385
-0.000810901431478
-0.000867093167661
-0.000682816144363
-0.000810324710469
-0.000571466222625
-0.000741245708344
-0.00047327702809
-0.000674735092107
-0.000380494459886
-0.000618244294081
-0.000297231458292
-0.000554869625767
-0.000228372361323
-0.000483420874243
-0.000174895937808
-0.000410855088645
-0.000134522338636
-0.000343897905786
-0.000104312852151
-0.000285182976676
-8.19333872402e-05
-0.000234742925068
-6.57350552025e-05
-0.000191896858251
-5.43179949302e-05
-0.000156267106479
-4.61330148598e-05
-0.000127865940944
-3.92560246982e-05
-0.000106759056673
-3.13997680063e-05
-9.24894270481e-05
-2.17997885934e-05
-8.14099819845e-05
-1.44495303242e-05
-6.57570317669e-05
-1.29135698635e-05
-4.63305447978e-05
-1.2995428458e-05
-3.45808025252e-05
-1.21986004803e-05
-2.84051396472e-05
-1.12727153618e-05
-2.27843846899e-05
-1.10720745986e-05
-1.71062378576e-05
-1.10803326894e-05
-1.30357507916e-05
-1.12431330949e-05
-9.91658244024e-06
-1.13833649507e-05
-8.41500652838e-06
-1.11986761272e-05
-7.7078368265e-06
-1.07231418129e-05
-7.50298877537e-06
-9.87686714566e-06
-7.86960402333e-06
-8.85890010805e-06
-8.49671066564e-06
-7.37186968271e-06
-9.57833486949e-06
-5.70121859252e-06
-1.06767379063e-05
-4.57025888372e-06
-1.19738476713e-05
-3.05293860206e-06
-1.38291931124e-05
-1.53515199076e-06
-1.43957917179e-05
-1.46537723948e-05
-0.000244522100737
0.00177500327456
-0.000501872160803
0.00187078747694
-0.000755937277133
0.00185210128739
-0.00100452424869
0.00181970458283
-0.00124604228415
0.00177746205274
-0.00147913549172
0.0017264805306
-0.00170269238331
0.00166791047257
-0.00191585134412
0.00160296675796
-0.00211799200649
0.00153287193445
-0.00230871557993
0.0014588051116
-0.00248781748604
0.00138186198707
-0.00265525592058
0.00130302692485
-0.00281111935487
0.00122315674187
-0.00295559546922
0.00114297467073
-0.00308894311851
0.00106307251031
-0.00321146833711
0.000983918637474
-0.00332350464176
0.000905869796522
-0.0034253975676
0.000829184741327
-0.00351749292983
0.000754038357035
-0.00360012828798
0.000680535154837
-0.00367362689015
0.000608721579353
-0.00373829355646
0.000538596718511
-0.00379441186888
0.000470121417995
-0.00384224229997
0.000403225784595
-0.00388202081984
0.00033781536281
-0.00391395781224
0.000273776126082
-0.0039382369888
0.000210978687161
-0.00395501431961
0.000149281914278
-0.00396441679651
8.85364282902e-05
-0.00396654124732
2.8588167382e-05
-0.00396145315097
-3.07174560367e-05
-0.00394918591583
-8.95307280076e-05
-0.00392974066706
-0.00014799154246
-0.00390308727415
-0.000206222256144
-0.00386916675729
-0.000264319058532
-0.00382789597908
-0.000322342288149
-0.00377917474018
-0.000380305672873
-0.00372289624413
-0.00043816547212
-0.003658960717
-0.00049581004616
-0.00358729282069
-0.000553051677622
-0.00350786171644
-0.000609621930645
-0.00342070329819
-0.000665173270839
-0.00332594172966
-0.000719288817975
-0.0032238075323
-0.00077150284225
-0.0031146474148
-0.000821333162544
-0.00299892037654
-0.000868324912678
-0.00287717560792
-0.000912103474653
-0.00275000614157
-0.000952427654905
-0.00261797856351
-0.000989234388235
-0.00248154252642
-0.00102265745907
-0.00234092399871
-0.0010529955323
-0.00219604193478
-0.00108061499565
-0.00204646936792
-0.00110572523774
-0.00189156138446
-0.00112802500611
-0.00173086363418
-0.001146145839
-0.00156487291765
-0.00115723040019
-0.00139654651019
-0.00115631787832
-0.00122912921757
-0.00114204023053
-0.00106048861448
-0.00112042499224
-0.000903399111157
-0.00107095711899
-0.000753843325541
-0.00101661869078
-0.00061578482062
-0.000948363097534
-0.000506663360844
-0.000850341733512
-0.000414311499828
-0.000767054489285
-0.00031635594865
-0.000716191627814
-0.000226335431276
-0.000644858710578
-0.000156438759522
-0.000553316259831
-0.000107916687182
-0.000459347902407
-7.52752607611e-05
-0.000376537932616
-5.31598238064e-05
-0.000307271307669
-3.84257875999e-05
-0.000249474547433
-2.95569067968e-05
-0.000200739837116
-2.54365205527e-05
-0.00016038320082
-2.44561405275e-05
-0.000128822211269
-2.39471914565e-05
-0.000107262572743
-1.90173110815e-05
-9.74014532794e-05
-6.44177306294e-06
-9.39778110137e-05
3.3740839926e-06
-7.55616256499e-05
-8.30118850455e-07
-4.21138345613e-05
-6.0482823994e-06
-2.93496797628e-05
-6.46737675687e-06
-2.79716387683e-05
-5.76143915626e-06
-2.34775570941e-05
-6.86770679815e-06
-1.59886014651e-05
-7.62929416411e-06
-1.22625072823e-05
-8.94671008737e-06
-8.5873754564e-06
-9.95259471721e-06
-7.39543115423e-06
-1.04203104669e-05
-7.22462192942e-06
-1.0156761658e-05
-7.74908583406e-06
-9.50897511582e-06
-8.49916071387e-06
-8.43632305025e-06
-9.55125789613e-06
-7.3537463946e-06
-1.06436602414e-05
-5.8434147752e-06
-1.21704739971e-05
-4.38712603613e-06
-1.3413621654e-05
-3.09521127188e-06
-1.51054980343e-05
-1.52982402992e-06
-1.59452648916e-05
-1.6174572538e-05
-0.000255251590576
0.00203024987223
-0.000523680907265
0.00213921191046
-0.000788275664605
0.00211669059317
-0.00104657866423
0.00207800240429
-0.00129680770979
0.00202768584431
-0.00153747622396
0.00196714387782
-0.00176740483102
0.00189783392742
-0.00198572263886
0.00182127946718
-0.00219185066083
0.00173899489682
-0.00238547125929
0.00165242070691
-0.00256648900114
0.00156287477319
-0.00273498769806
0.00147152072687
-0.00289118785722
0.00137935205572
-0.00303540745817
0.00128718948955
-0.00316802805309
0.0011956883732
-0.00328946692776
0.00110535284443
-0.00340015549088
0.00101655374151
-0.00350052323855
0.000929547935479
-0.00359098658467
0.000844497197575
-0.00367194143772
0.000761485565129
-0.00374375871232
0.000680534454486
-0.00380678175987
0.000601615425097
-0.00386132516537
0.000524660518582
-0.00390767417272
0.000449570539779
-0.00394608448698
0.000376221453442
-0.00397678194755
0.000304469414237
-0.00399996205194
0.00023415464824
-0.00401578898403