/*--------------------------------*- C++ -*----------------------------------*\
| =========                 |                                                 |
| \\      /  F ield         | OpenFOAM: The Open Source CFD Toolbox           |
|  \\    /   O peration     | Version:  v1906                                 |
|   \\  /    A nd           | Web:      www.OpenFOAM.com                      |
|    \\/     M anipulation  |                                                 |
\*---------------------------------------------------------------------------*/
FoamFile
{
    version     2.0;
    format      ascii;
    class       volScalarField;
    location    "205";
    object      pa;
}
// * * * * * * * * * * * * * * * * * * * * * * * * * * * * * * * * * * * * * //

dimensions      [0 2 -2 0 0 0 0];


internalField   nonuniform List<scalar> 
9216
(
943.264974974
942.952626503
942.306263817
941.320263591
939.999823895
938.351042823
936.381136046
934.099057955
931.514537064
928.63887629
925.483809785
922.06247317
918.388086832
914.475092852
910.337683219
905.991100941
901.450030127
896.730056845
891.845936442
886.813205819
881.646339836
876.360505221
870.969616638
865.488219763
859.929455322
854.307059163
848.633243189
842.920798934
837.180903649
831.425315144
825.664112782
819.907971209
814.165847254
808.447315736
802.76021131
797.113019792
791.512486721
785.966044861
780.479401987
775.058991729
769.709551316
764.436582375
759.243930641
754.136242466
749.116557224
744.1887472
739.35513398
734.618898878
729.981733059
725.446207771
721.013468283
716.685552832
712.463138914
708.34780195
704.339822769
700.440376708
696.649409746
692.967750729
689.395063973
685.931877024
682.577616338
679.332544818
676.195887451
673.167672621
670.246953416
667.433548356
664.726364142
662.125031228
659.62833256
657.235730878
654.94590776
652.758179398
650.671148997
648.684009009
646.795309552
645.004144998
643.309039888
641.709018814
640.20261091
638.78880185
637.466157107
636.233655602
635.089931605
634.033989232
633.06456211
632.180707822
631.381282717
630.665412942
630.032074225
629.480425129
629.009446606
628.618052671
628.304438514
628.062303438
627.916598445
627.867525606
943.576110952
943.262044442
942.61413605
941.623838864
940.297312002
938.6408412
936.661920588
934.369516494
931.773635148
928.885563417
925.717344635
922.282074685
918.593307318
914.665414266
910.512934684
906.151004382
901.594660828
896.859343233
891.960161435
886.912465441
881.731083795
876.430958686
871.026357074
865.53156571
859.960077113
854.32533815
848.639912517
842.916276447
837.165959824
831.400383003
825.62997935
819.86506681
814.114954119
808.388843518
802.694924937
797.041300189
791.435069062
785.883271649
780.391969155
774.967197229
769.614045466
764.337615723
759.142104029
754.031757911
749.009964415
744.080200936
739.245132924
734.507552946
729.869491534
725.333139769
720.899976527
716.571670152
712.349225201
708.233859351
704.226172609
700.326995889
696.536585541
692.855440612
689.283525532
685.821053337
682.467739256
679.223547762
676.087979767
673.060781567
670.141268211
667.3289929
664.623108949
662.022998313
659.527674276
657.136368152
654.847974551
652.66159534
650.576028892
648.590270673
646.703047556
644.913274365
643.219633865
641.620988825
640.116007994
638.70353318
637.382251147
636.15101535
635.008563484
633.953793363
632.985525495
632.102732534
631.304345664
630.589436531
629.957064796
629.406413682
628.936681987
628.547196499
628.237425651
628.00654018
627.867356988
627.818343723
944.223346266
943.904557083
943.251016632
942.252188917
940.914361671
939.243906523
937.248550898
934.937417137
932.320798151
929.410153705
926.217842811
922.757131515
919.041898612
915.086666126
910.906291277
906.516027672
901.931212365
897.167362464
892.23986293
887.164099656
881.955150352
876.627952779
871.196999022
865.67653533
860.080258556
854.421543767
848.713141719
842.967430132
837.196111311
831.41048402
825.621141298
819.838259851
814.071298136
808.329300541
802.620596184
796.953115206
791.334089059
785.770375798
780.268162047
774.83329423
769.470982451
764.186135065
758.983065051
753.865824973
748.837916231
743.902622178
739.062720962
734.32081428
729.679044291
725.139416196
720.70351999
716.372844787
712.148505946
708.031549763
704.022686821
700.12258545
696.331611997
692.650112184
689.078159336
685.615822588
682.262924026
679.019293398
675.884535376
672.858270272
669.939912516
667.128897403
664.424472041
661.82590792
659.332305334
656.942791959
654.65634172
652.471959247
650.38851384
648.404909889
646.519936473
644.732423528
643.041107247
641.444771937
639.942131288
638.531955561
637.212968539
635.983959837
634.843697268
633.791023894
632.824785469
631.943912162
631.147361048
630.434183255
629.803484161
629.254484109
628.786517147
628.39914007
628.092316994
627.866745169
627.727912801
627.672739619
945.218238678
944.894070438
944.231719618
943.219576213
941.8641247
940.171940887
938.151048384
935.810872118
933.162076881
930.216470733
926.986818717
923.486744704
919.730534901
915.733049847
911.50952997
907.075527146
902.446720626
897.638873571
892.667663762
887.548666933
882.29720345
876.928347216
871.456786828
865.896856953
860.262411313
854.566872807
848.82311558
843.043530708
837.239915575
831.423552812
825.605105863
819.794709984
814.001873603
808.23557788
802.504183072
796.815538048
791.176891066
785.595005135
780.076072465
774.625834406
769.249498779
763.951862553
758.737231351
753.609543204
748.572289754
743.628639633
738.781360902
734.032942737
729.385518853
724.840986338
720.400929768
716.066736195
711.839519814
707.720232271
703.7095878
699.808168182
696.016348487
692.334396283
688.762398211
685.300353241
681.948100588
678.705407058
675.571896904
672.547133475
669.63055178
666.821534806
664.119349558
661.523218434
659.032259521
656.645553439
654.362088518
652.180823414
650.100637658
648.120390252
646.23887589
644.454879568
642.767138569
641.174393036
639.675353652
638.268747959
636.953293536
635.727739829
634.590846566
633.541420883
632.578300809
631.700387827
630.90663592
630.196080894
629.567837886
629.021134482
628.555330507
628.169973444
627.864882282
627.640205495
627.497213667
627.431480341
946.564700606
946.233634922
945.559245687
944.528877242
943.149303989
941.427415827
939.371630964
936.991811974
934.299115263
931.305852775
928.025323346
924.471670139
920.659709172
916.604794907
912.322658541
907.82929176
903.140802836
898.273324313
893.242890817
888.065372316
882.756373681
877.331191875
871.804734545
866.191497247
860.505496976
854.760265196
848.96879274
843.143535299
837.296367374
831.438598379
825.580934567
819.733505385
813.905832862
808.106863876
802.344946623
796.627872362
790.962857075
785.356587994
779.815209758
774.344374848
768.949232838
763.634483347
758.40436732
753.262721151
748.212969027
743.258177218
738.40104676
733.643966908
728.989007464
724.437970622
719.992382451
715.653542314
711.422513004
707.300167195
703.28717596
699.384051731
695.591135031
691.908633775
688.336608341
684.875007141
681.523650321
678.282261898
675.150452624
672.127749067
669.213576272
666.407284397
663.708131898
661.115310289
658.627928528
656.245036505
653.965611229
651.788579464
649.712806125
647.737116377
645.860286511
644.081065574
642.398168756
640.81029853
639.316140441
637.91438354
636.603718349
635.382856345
634.250529867
633.205510431
632.246610446
631.37270053
630.582713448
629.875661239
629.250643501
628.706866747
628.243660519
627.860503918
627.557037457
627.333032936
627.188667547
627.11996843
948.269240188
947.929460616
947.239661478
946.185927825
944.775425907
943.01547516
940.915008625
938.484468187
935.735644188
932.681510956
929.336050775
925.714086346
921.831106648
917.703109939
913.346444743
908.777673938
904.013439073
899.070351166
893.964881787
888.713281683
883.331497795
877.83511689
872.239304278
866.558767214
860.807709778
854.999810609
849.148189285
843.26539478
837.363380883
831.453503852
825.546505938
819.652522987
813.781075768
807.941081969
802.140855919
796.388130756
790.690062868
785.053258834
779.483784347
773.987194996
768.568548179
763.232436235
757.983000106
752.823963599
747.758647844
742.790005672
737.920636046
733.152817708
728.488522911
723.929449559
719.477033581
715.132478901
710.89676789
706.770688607
702.75484287
698.849670366
695.055454115
691.372341287
687.800346051
684.339367177
680.989188549
677.749493921
674.619865582
671.599796815
668.688689414
665.885864518
663.190559754
660.601939198
658.119090865
655.741036434
653.46672975
651.295066851
649.224885885
647.25497777
645.384087804
643.610927049
641.934175639
640.352494833
638.864531879
637.468932513
636.164347108
634.949443338
633.822913324
632.783486225
631.829936179
630.96109481
630.175860079
629.47320895
628.852207296
628.312023134
627.851936934
627.471345186
627.169758683
626.94676877
626.802270807
626.732735735
950.340109645
949.989601648
949.280796033
948.198228141
946.749568392
944.942689
942.787177413
940.294210786
937.476376487
934.34748228
930.922362658
927.216688837
923.24678194
919.029437906
914.581761701
909.92101814
905.06449529
900.029386763
894.832687216
889.491106546
884.020995376
878.438286921
872.758446314
866.99643291
861.166665773
855.282999334
849.358699217
843.406427027
837.438224075
831.465504287
825.4990457
819.548993333
813.624858637
807.73552522
801.889258749
796.093723448
790.355995987
784.682586856
779.079458961
773.552052489
768.105306436
762.743685522
757.471203285
752.291449895
747.20761573
742.222519252
737.338630216
732.558096856
727.882767964
723.314218713
718.853770927
714.502516826
710.261336857
706.130920766
702.111782513
698.204278195
694.408617758
690.724879593
687.153019057
683.692879824
680.34419951
677.106618208
673.979681803
670.962848293
668.055489598
665.256896516
662.566279842
659.982774841
657.505442478
655.133274178
652.865193921
650.700063872
648.636687753
646.673817756
644.810159462
643.044380107
641.375115046
639.800977271
638.320565229
636.932473343
635.635300846
634.427662948
633.308200355
632.275590738
631.328558615
630.465886927
629.686427042
628.989109988
628.372956363
627.837085066
627.380719484
627.003191807
626.703927952
626.482427081
626.338547483
626.269074475
952.787456988
952.424014465
951.692314535
950.575020254
949.080429955
947.217109533
944.995461342
942.427575158
939.527021123
936.308631333
932.788280816
928.982673838
924.909137595
920.585429959
916.029560874
911.259632782
906.293697909
901.149636571
895.845052808
890.39719006
884.822861777
879.138398197
873.359603315
867.501722661
861.57941616
855.606737398
849.597114843
843.563337837
837.517544009
831.471212037
825.435156279
819.419529912
813.433827392
807.4868895
801.586918437
795.741494845
789.957595338
784.241615267
778.599390632
773.036224336
767.556910656
762.165763303
756.866641092
751.662976618
746.557802184
741.553778218
736.653218712
731.858118679
727.170178432
722.590829366
718.121256359
713.762421171
709.515082264
705.379815159
701.357029066
697.446983712
693.649802419
689.965485208
686.393918267
682.934883494
679.588064656
676.353053857
673.229355073
670.216388318
667.313491445
664.519922953
661.83486305
659.257416128
656.786612054
654.421409154
652.160696585
650.003298508
647.947978011
645.993442905
644.138351482
642.38131997
640.720930101
639.155738086
637.68428373
636.305100619
635.016726352
633.817713513
632.706640602
631.682123334
630.742825806
629.887471739
629.114855372
628.423851975
627.813427121
627.282645099
626.83067457
626.456785029
626.160347296
625.94082987
625.798081894
625.729114934
955.623497094
955.244689001
954.485848722
953.327404585
951.778431336
949.848352329
947.548573288
944.892301543
941.894303792
938.5706523
934.938474701
931.015711845
926.820888559
922.372901018
917.690823851
912.793738183
907.700582888
902.430028283
897.000373422
891.429464214
885.734631711
879.932646094
874.039683926
868.071304004
862.042428981
855.96733014
849.859613638
843.732208742
837.597357417
831.466607774
825.350810579
819.260123474
813.204015049
807.191271181
801.230014949
795.327724689
789.491255964
783.726865653
778.040238486
772.436514049
766.9203157
761.495778844
756.16658069
750.935968768
745.806790529
740.78152146
735.86229383
731.050923854
726.348938889
721.757602997
717.277941861
712.91076596
708.656692409
704.516164964
700.489472135
696.576763368
692.778063043
689.093282526
685.522230057
682.064618761
678.720072775
675.488131885
672.368254674
669.359820601
666.462131253
663.674411032
660.995807676
658.425392762
655.962162558
653.6050394
651.352873855
649.204447708
647.158477969
645.213621985
643.368483529
641.621620057
639.971550816
638.416766044
636.955736755
635.586925449
634.308797093
633.119830823
632.018531552
631.003442095
630.073154851
629.226323786
628.461675494
627.778020067
627.174260818
626.649401392
626.2025512
625.832931588
625.539867812
625.322792548
625.181569922
625.113389611
958.862710553
958.46583593
957.675162686
956.468488042
954.855838787
952.847693264
950.456684139
947.697377142
944.585983492
941.14006295
937.378235219
933.319905207
928.985005899
924.393764029
919.566489239
914.523390357
909.284418109
903.869136559
898.296621209
892.585383695
886.753318876
880.817671211
874.795014489
868.701240206
862.551549449
856.360445215
850.141723516
843.908463652
837.673018967
831.447010121
825.241323722
819.066115644
812.930817075
806.844145194
800.81412488
794.848111104
788.95281366
783.134325762
777.398152772
771.749243592
766.192021046
760.730414074
755.367888366
750.107478269
744.95181698
739.903167605
734.96345245
730.134282761
725.41698658
720.812636491
716.322075258
711.945940741
707.684688368
703.538612335
699.507864036
695.592468846
691.792339938
688.107290345
684.537042042
681.081233402
677.739424068
674.511098523
671.395667536
668.392468958
665.500767056
662.719751849
660.048537756
657.486162855
655.031588168
652.683698067
650.441301289
648.303133352
646.267859974
644.334081974
642.50034133
640.765128572
639.126891345
637.584043998
636.134978201
634.7780742
633.511712885
632.334288075
631.244219342
630.23996466
629.320033284
628.482998076
627.727507646
627.052297487
626.456199844
625.938152716
625.497207008
625.132525783
624.843393829
624.629228752
624.48987249
624.42267527
962.522083995
962.1041059
961.276358979
960.013561654
958.326910912
956.228180452
953.731499811
950.853079296
947.610865115
944.024189513
940.1134368
935.899730304
931.404644599
926.649945748
921.657362141
916.448386181
911.044109738
905.465091938
899.731261441
893.861848889
887.875348374
881.789499884
875.621287589
869.386944686
863.101959024
856.781074544
850.438286706
844.086834147
837.739187981
831.407044295
825.101322753
818.832169906
812.608966272
806.440342074
800.33420242
794.297753333
788.337531877
782.45943762
776.668766939
770.9702462
765.368067238
759.865920388
754.467029505
749.174184179
743.989773686
738.915818258
733.954001677
729.105701415
724.372019386
719.753810337
715.251709933
710.866160396
706.597434844
702.445659018
698.410830898
694.492837523
690.691469266
687.006431214
683.437351993
679.983789924
676.645236955
673.421120262
670.3108024
667.313579714
664.428680186
661.655260302
658.992402218
656.439110794
653.994311671
651.656849901
649.425490177
647.298918109
645.275743345
643.354504028
641.533672958
639.811665205
638.186847139
636.657546741
635.222064907
633.878687798
632.625699706
631.461396632
630.384099897
629.392170184
628.484021066
627.658132701
626.913064436
626.247467071
625.660093971
625.14980962
624.715597277
624.356569557
624.071965149
623.861160039
623.723990154
623.657960289
966.621405857
966.178872906
965.308129969
963.980317294
962.208072351
960.004763096
957.386345639
954.37101829
950.97880475
947.231139974
943.1504831
938.759961804
934.083049934
929.143281576
923.964000427
918.568147544
912.978086901
907.215471924
901.301151762
895.255117012
889.096479493
882.843479001
876.513506641
870.123133115
863.688132451
857.223493772
850.743420717
844.261320614
837.789790411
831.340604268
824.924711831
818.552240664
812.232503738
805.974022816
799.784556765
793.67113379
787.640085743
781.697086172
775.847187541
770.09486045
764.444030633
758.898117038
753.460067412
748.132394671
742.917211076
737.816263108
732.830964459
727.962429395
723.211504306
718.578798966
714.064715672
709.669477268
705.393152484
701.235679355
697.196885397
693.276505299
689.474194963
685.789542894
682.222077973
678.771274755
675.436555457
672.217290086
669.112794051
666.122324712
663.245076342
660.480175046
657.82667319
655.283544668
652.849680655
650.523886953
648.304882569
646.191300333
644.181689182
642.274518479
640.468184199
638.76101692
637.151291509
635.637238153
634.21705482
632.888920527
631.651009656
630.501506517
629.438620571
628.460601365
627.565753707
626.752452083
626.01915487
625.364417324
624.786903338
624.285396603
623.858810302
623.506188895
623.226722747
623.019763136
622.885100536
622.820399242
971.183633313
970.712573583
969.792066337
968.389106576
966.518117091
964.194436695
961.436255362
958.264175334
954.700703229
950.769759764
946.496232293
941.90557264
937.023439279
931.87538294
926.486575018
920.88157809
915.084162488
909.117169227
903.002424083
896.760699212
890.411720254
883.974206174
877.465929139
870.903775757
864.303794694
857.681221232
851.050476402
844.42515017
837.817975974
831.240811674
824.704632786
818.219536062
811.794746072
805.438649549
799.158828143
792.962096899
786.854546468
780.841585503
774.927985555
769.117922516
763.415020037
757.822388193
752.3426641
746.97804812
741.73034222
736.600984758
731.591087238
726.701468193
721.932688183
717.285082218
712.758791912
708.353794961
704.069932803
699.906935262
695.86444214
691.942021313
688.139183191
684.455391553
680.890070605
677.442608581
674.112358212
670.898634173
667.800708562
664.817804137
661.949086902
659.193657616
656.55054391
654.018692459
651.596962912
649.284122846
647.07884523
644.979707612
642.98519396
641.093698623
639.303532788
637.612932937
636.020071278
634.523067948
633.12000451
631.808938819
630.587920502
629.455007362
628.408281747
627.445867395
626.565945641
625.766771719
625.046689772
624.40414749
623.837709505
623.34606818
622.928053645
622.58264777
622.308982558
622.106353005
621.974527124
621.911333332
976.235347907
975.73113438
974.753032574
973.263250718
971.278443563
968.816402158
965.898060029
962.546929238
958.788480647
954.649563891
950.157894662
945.341605386
940.228852122
934.847473658
929.224696669
923.386889091
917.359363007
911.166234574
904.830344745
898.373243732
891.815233976
885.175458318
878.472012443
871.72205348
864.941881658
858.146977142
851.351994982
844.570729286
837.816069915
831.099966836
824.433419174
817.826475797
811.288247654
804.826953739
798.449960089
792.163828024
785.974363045
779.886666755
773.9051857
768.033760734
762.275671784
756.633682351
751.110079891
745.706716453
740.42504652
735.266165707
730.23084768
725.319581809
720.532609316
715.869959291
711.331482687
706.916884896
702.625755309
698.457594182
694.411835402
690.487865664
686.685039052
683.002687581
679.440126959
675.996658802
672.67156844
669.464120057
666.373548543
663.399049861
660.53976957
657.794791389
655.163125346
652.643697408
650.235340133
647.936785833
645.74666186
643.663488826
641.685681581
639.811553174
638.039321511
636.367118514
634.793001691
633.314967466
631.930966415
630.638919477
629.436735518
628.322329119
627.293639177
626.348647043
625.485394966
624.702003448
623.996688392
623.367776774
622.813720926
622.333112252
621.924693365
621.587361603
621.320186647
621.12242629
620.993785762
620.932267815
981.80733064
981.26449977
980.219626916
978.629408979
976.513321461
973.892234707
970.790467922
967.235062454
963.255022601
958.880636381
954.142896245
949.073007114
943.701964075
938.060187117
932.177204852
926.081385386
919.799722666
913.357686393
906.779150341
900.086402845
893.300240175
886.440123213
879.524367715
872.570324542
865.594507948
858.612647349
851.639662088
844.689592252
837.775515699
830.909493586
824.102543068
817.364642821
810.704758513
804.130899837
797.650170981
791.268829207
784.992345726
778.825463868
772.772258679
766.836188577
761.020147789
755.326510387
749.757175669
744.313607414
738.996875718
733.807694948
728.746464656
723.81330791
719.008111555
714.330564263
709.780194391
705.356405268
701.058507841
696.885749799
692.837340221
688.912469949
685.110326425
681.430103736
677.871007256
674.432253574
671.113065863
667.912665259
664.830259489
661.865028426
659.016109096
656.282579217
653.663442031
651.157611485
648.763900274
646.481009751
644.307523574
642.241904258
640.282493735
638.427517078
636.675089715
635.023227624
633.469860104
632.012844959
630.649985267
629.379047922
628.197782849
627.103943345
626.095306276
625.169692837
624.324988381
623.559162278
622.870286182
622.256551764
621.716286904
621.247969034
620.850237432
620.521909967
620.261982161
620.069640335
619.944554482
619.88490788
987.935288875
987.347293257
986.224746092
984.518013018
982.250189647
979.446051395
976.134122912
972.345731625
968.11408533
963.47348711
958.458699307
953.104422659
947.444856894
941.513319923
935.341908907
928.961204959
922.400030453
915.685280775
908.841851973
901.892682496
894.858912674
887.760141024
880.61473304
873.440110159
866.252950861
859.069251701
851.904261559
844.772339352
837.686809994
830.659870251
823.702550236
816.824726417
810.035176145
803.341646545
796.750921869
790.268896762
783.900647307
777.650503098
771.522111925
765.5185015
759.64213222
753.894946863
748.278413723
742.793569467
737.441058954
732.221176825
727.133908213
722.178971329
717.355859611
712.66388437
708.102215957
703.669923322
699.366010035
695.18944648
691.139196999
687.21424154
683.413590988
679.736296781
676.1814539
672.748198561
669.435699861
666.243147717
663.169736127
660.214644522
657.377016795
654.655940476
652.050425875
649.559387466
647.181627435
644.91582293
642.760516915
640.714113597
638.774878084
636.940940354
635.210303267
633.580854003
632.050378756
630.616579685
629.277094254
628.029515728
626.871415266
625.800364228
624.813957369
623.909835398
623.085707698
622.339373679
621.668743744
621.071858265
620.546904972
620.092235439
619.706379637
619.388050948
619.136166114
618.949861152
618.828728313
618.771141979
994.660798188
994.019665427
992.806280897
990.963778507
988.519974087
985.504660802
981.951617418
977.897382393
973.38014226
968.438853022
963.11257216
957.439938685
951.458741171
945.20553329
938.715275111
932.020998533
925.153519405
918.141227432
911.009999826
903.783270969
896.482279343
889.126468905
881.7339802
874.322116839
866.907657472
859.50692432
852.135621069
844.808562522
837.539413932
830.340545373
823.222983991
816.196457976
809.269492298
802.449503579
795.74288533
789.155096201
782.690748974
776.353691293
770.147085679
764.073472859
758.134832534
752.33262992
746.667861732
741.141095145
735.752510126
730.501939117
725.38891169
720.412698185
715.572356913
710.866780498
706.29474233
701.854941018
697.546040784
693.366707854
689.315640316
685.391591881
681.593387458
677.919932482
674.370214111
670.943295782
667.638305224
664.454416774
661.390829906
658.446743596
655.621329934
652.913706112
650.322908549
647.847868045
645.487389345
643.240134051
641.104609277
639.079161105
637.161973932
635.351074767
633.644342391
632.039520814
630.534235932
629.126015381
627.812310123
626.590518247
625.45800938
624.412150412
623.450330934
622.56998915
621.768636603
621.043882674
620.393457037
619.815231154
619.307237814
618.867687274
618.4949819
618.187735457
617.944772694
617.765142543
617.64838982
617.593085262
1002.03253002
1001.32836721
1000.00798131
998.00629196
995.357409861
992.097659276
988.267427067
983.909576913
979.068150163
973.787430235
968.111300176
962.082777032
955.743626916
949.133999568
942.29204779
935.253537262
928.051477605
920.71583421
913.273391964
905.747840907
898.160131454
890.529086822
882.872184958
875.206317385
867.548295066
859.91490294
852.32254919
844.786740956
837.321639584
829.939829904
822.652296485
815.46853618
808.396734116
801.443887789
794.61591167
787.917743
781.353445541
774.926311699
768.638949044
762.493355913
756.49097958
750.632765203
744.919194877
739.350326957
733.925833588
728.645042987
723.506983489
718.510432093
713.653965078
708.936010659
704.354901298
699.908924614
695.596370259
691.415570281
687.364933496
683.442970839
679.648312296
675.979715915
672.43606648
669.016366745
665.719719823
662.545306617
659.492356496
656.560115008
653.747809107
651.054612265
648.479610672
646.021772542
643.679921318
641.452714931
639.33863071
637.335957601
635.442794973
633.657057737
631.976487474
630.398668155
628.92104604
627.540952232
626.255628021
625.062251422
623.957965467
622.939906594
622.005234043
621.151158254
620.374969315
619.67406351
619.04596906
618.488369169
617.999123063
617.576285478
617.21812377
616.923124377
616.690014849
616.517779629
616.405871093
616.353065945
1010.10790181
1009.32818437
1007.88053254
1005.69067732
1002.80131959
999.257420314
995.10770898
990.40269221
985.193206292
979.52952321
973.460836084
967.03493782
960.297946949
953.29398967
946.064797615
938.649226899
931.082756065
923.397048232
915.619702191
907.774312979
899.880950982
891.957079877
884.018803572
876.082137772
868.163861933
860.281534769
852.452738425
844.69409357
837.020490831
829.444762184
821.977737215
814.628545451
807.404901703
800.313276301
793.359000262
786.546382127
779.878840622
773.359021024
766.988905215
760.769886541
754.702833457
748.788128118
743.025700869
737.415060566
731.955331337
726.645291212
721.483420228
716.467950908
711.596925704
706.868256356
702.279783908
697.829340323
693.514799458
689.334124804
685.285409672
681.36690576
677.577040465
673.914425087
670.377851211
666.966277006
663.678804787
660.51464994
657.473104281
654.553493677
651.755135064
649.077290997
646.519128614
644.079679253
641.757806411
639.55217865
637.461251691
635.483258571
633.616208458
631.857893419
630.20590204
628.657638892
627.210347659
625.86113822
624.607015189
623.444908878
622.371706704
621.384286104
620.479546939
619.654444307
618.906019711
618.231431614
617.627983054
617.093147814
616.624593834
616.220202382
615.878085146
615.596605821
615.374380248
615.210289473
615.10372542
615.053674311
1018.95532257
1018.08381012
1016.48291219
1014.06829887
1010.89477175
1007.01887406
1002.49988178
997.39742762
991.770064545
985.674601177
979.165893576
972.29680727
965.118142968
957.678408618
950.023385139
942.195506171
934.233130981
926.169845806
918.033980757
909.848555752
901.631870389
893.398847861
885.163041087
876.938817196
868.742901906
860.594281
852.51260907
844.516338744
836.621430232
828.840917527
821.185229167
813.662866973
806.280905079
799.045163438
791.960270588
785.029781746
778.256345057
771.641860779
765.187600247
758.894294705
752.762189099
746.791070032
740.980281694
735.328749334
729.835006851
724.4972369
719.313318712
714.280884602
709.397383911
704.660152941
700.06648416
695.613697271
691.29920257
687.12055815
683.075514397
679.162045307
675.378368321
671.722951274
668.194505349
664.791967022
661.514467814
658.361294791
655.331842715
652.42556182
649.641902173
646.980258469
644.439916297
642.020003715
639.719449976
637.536952732
635.470955782
633.519637481
631.680910318
629.952429982
628.331613304
626.815661798
625.401590454
624.086258742
622.86640441
621.738677983
620.699679201
619.745993434
618.874229246
618.08105459
617.363232937
616.717656437
616.141377718
615.631637926
615.185891903
614.801830851
614.477401928
614.210816108
614.000571808
613.84547013
613.744795614
613.697752135
1028.6573481
1027.67246967
1025.88409746
1023.19743739
1019.6849461
1015.41891685
1010.47185488
1004.91404427
998.812475848
992.230761867
985.229508554
977.866760068
970.198246348
962.277292556
954.154338134
945.876094573
937.484462477
929.015389316
920.497947075
911.953971798
903.398673424
894.842537453
886.294551305
877.766079628
869.273865638
860.839701893
852.487000979
844.237283815
836.108013591
828.112180066
820.259239473
812.556607323
805.010507296
797.626017889
790.4069457
783.355928164
776.47469607
769.764276402
763.225147429
756.857320115
750.660388108
744.633521224
738.775456327
733.084503283
727.558568132
722.195188458
716.991587297
711.94473294
707.051416269
702.308327345
697.712135186
693.259585842
688.947573825
684.773208514
680.733863846
676.827216898
673.051268133
669.40434811
665.885106292
662.492487074
659.225690741
656.084122187
653.067331615
650.17494807
647.406610598
644.761897796
642.240262532
639.84097015
637.563048271
635.405245752
633.366006035
631.443453686
629.63539538
627.939333448
626.352489012
624.871832877
623.494119662
622.215925536
621.033686073
619.94373646
618.942351584
618.025788197
617.190326579
616.432312634
615.748197784
615.134577264
614.588224461
614.106122696
613.68549276
613.323815425
613.018850604
612.768660827
612.571611619
612.426383912
612.332187764
612.288446433
1039.31518332
1038.18754422
1036.16525253
1033.14371068
1029.2224051
1024.49517067
1019.05072651
1012.97123806
1006.3323278
999.204127577
991.652618063
983.740820106
975.529506649
967.077307479
958.44014315
949.670052293
940.813558998
931.909822298
922.988929341
914.070860337
905.165839778
896.276843441
887.404746372
878.555348243
869.745709061
861.003327912
852.358572754
843.83809655
835.46134863
827.240469294
819.182701304
811.293556758
803.578279698
796.041242752
788.685334251
781.512051683
774.521988493
767.715162991
761.091163469
754.649239022
748.388329737
742.306995181
736.403355986
730.675086108
725.119423895
719.73321182
714.512953961
709.454886492
704.555061115
699.809428969
695.213953814
690.76473731
686.458094676
682.290632771
678.25931238
674.361492092
670.594949913
666.957888957
663.448921978
660.067039885
656.811560823
653.682067397
650.678330378
647.800226914
645.047652979
642.420438017
639.91826089
637.540575772
635.286548137
633.155005515
631.144403886
629.252813454
627.477922378
625.817056499
624.267211807
622.825093563
621.487159576
620.249663715
619.108700309
618.060247992
617.100215718
616.224489186
615.428979414
614.709669788