/*--------------------------------*- C++ -*----------------------------------*\
| =========                 |                                                 |
| \\      /  F ield         | OpenFOAM: The Open Source CFD Toolbox           |
|  \\    /   O peration     | Version:  v1906                                 |
|   \\  /    A nd           | Web:      www.OpenFOAM.com                      |
|    \\/     M anipulation  |                                                 |
\*---------------------------------------------------------------------------*/
FoamFile
{
    version     2.0;
    format      ascii;
    class       volScalarField;
    location    "158";
    object      pa;
}
// * * * * * * * * * * * * * * * * * * * * * * * * * * * * * * * * * * * * * //

dimensions      [0 2 -2 0 0 0 0];


internalField   nonuniform List<scalar> 
9216
(
957.15320164
956.841927701
956.197991042
955.215370512
953.899263249
952.255079967
950.289973877
948.011975669
945.430708314
942.55636614
939.400569323
935.975215702
932.293439533
928.368372592
924.214180853
919.84477677
915.274905467
910.518847995
905.591526216
900.507234265
895.280730278
889.926028689
884.457447327
878.88848918
873.23281579
867.503242192
861.712610989
855.872920106
849.996076222
844.093171099
838.175098648
832.251990686
826.333687726
820.429338107
814.547712668
808.696977614
802.884850612
797.118540312
791.404745535
785.749759748
780.159315449
774.638847603
769.19318852
763.826981535
758.54423425
753.348872122
748.244159249
743.233379598
738.319136699
733.504148728
728.790440167
724.180235401
719.675056431
715.276698837
710.986251788
706.805138675
702.73407608
698.77416155
694.925789758
691.189769036
687.566212611
684.055666358
680.657994167
677.373498965
674.201820039
671.143031443
668.196568283
665.362286673
662.639435336
660.027664347
657.526054847
655.134065021
652.850629439
650.675032894
648.606088378
646.642931824
644.784284238
643.029162796
641.376230713
639.82442192
638.37237946
637.01899299
635.762923971
634.603056365
633.538104484
632.566976679
631.688456685
630.901473567
630.204830481
629.597356586
629.077580531
628.643450294
628.289488807
628.025235088
627.88052825
627.833126411
957.463576146
957.150685838
956.505315971
955.518684293
954.196762488
952.545339499
950.571609631
948.283860271
945.691701171
942.805603506
939.637159292
936.198562926
932.502905436
928.56362194
924.394817883
920.010703607
915.425945724
910.655107797
905.713017716
900.614229993
895.373397543
890.004768329
884.522549457
878.940447913
873.272014835
867.530238189
861.727855954
855.877006957
849.989503804
844.076546634
838.148949797
832.216921258
826.290235521
820.378083434
814.489192316
808.631740794
802.813421683
797.041426095
791.32244878
785.662737682
780.068042611
774.543727066
769.094661792
763.725395335
758.439994549
753.242269264
748.135562757
743.123025064
738.20735781
733.391130088
728.676481614
724.065475373
719.559764014
715.160972433
710.870333489
706.689093407
702.618122989
698.658339097
694.810298223
691.074626837
687.451604412
683.941596487
680.544634381
677.260844181
674.090030515
671.03209613
668.086636512
665.25334353
662.531618349
659.920955427
657.420578003
655.029798609
652.747681851
650.573377735
648.505815786
646.544008975
644.686780711
642.933037643
641.281531049
639.731097292
638.280453799
636.92840635
635.673678306
634.515085109
633.45139417
632.481465838
631.604140509
630.818344006
630.122994834
629.517080594
628.999602596
628.569646442
628.225983857
627.972347343
627.832889686
627.785560358
958.10902456
957.791608009
957.14092352
956.146283782
954.813701031
953.149122256
951.159860386
948.85444786
946.242641716
943.335193194
940.143850519
936.681103355
932.96019321
928.994847762
924.799305192
920.388051191
915.775859969
910.977543588
906.008009393
900.882028246
895.614305624
890.219272631
884.711165928
879.103843556
873.410868346
867.645349192
861.820022874
855.947121199
850.038446514
844.105265705
838.158376997
832.208029969
826.263980441
820.335438182
814.431109884
808.559171243
802.727295302
796.942650941
791.211915703
785.54129799
779.936534277
774.402933642
768.945358888
763.568291612
758.275797162
753.071608255
747.959073993
742.941259935
738.020881911
733.200419077
728.482034054
723.867697305
719.359093214
714.957753163
710.664950544
706.481839043
702.40933781
698.448273396
694.599257232
690.862828579
687.239326824
683.729033762
680.33204342
677.0484017
673.877976613
670.820594156
667.875911317
665.043546349
662.32295806
659.713570114
657.214657687
654.825465086
652.545102134
650.37265301
648.307084548
646.34734716
644.492293475
642.740770777
641.091552124
639.543418552
638.095102618
636.745361031
635.492927963
634.336578306
633.2750912
632.307302759
631.432080951
630.648370706
629.955183988
629.35166257
628.837164082
628.411474261
628.075170229
627.832067765
627.692896439
627.640522833
959.100891851
958.778366211
958.119389421
957.112228769
955.763049377
954.078008382
952.064654867
949.7318303
947.089590727
944.14904547
940.922268311
937.422122866
933.662174275
929.656513173
925.419677388
920.96648467
916.311970169
911.471234988
906.459401791
901.291482589
895.982352104
890.546635587
884.998697139
879.352546429
873.62183805
867.819795441
861.959217475
856.052417969
850.111236937
844.146994604
838.170505923
832.1920482
826.221376489
820.26770567
814.339726537
808.445599499
802.592970265
796.78897548
791.040256503
785.352975251
779.732826033
774.18506043
768.714495882
763.325548543
758.022237238
752.80822406
747.686813716
742.660998593
737.733453908
732.906586325
728.182523758
723.563166692
719.050172207
714.645006765
710.348924659
706.163020409
702.088202591
698.125245369
694.274757521
690.537232426
686.913013543
683.402342548
680.005322377
676.721963228
673.552144777
670.495660159
667.552178294
664.721285643
662.002451126
659.395066244
656.898412665
654.511701142
652.234042593
650.064485566
648.001992693
646.045476035
644.193778249
642.445706683
640.800019364
639.255457025
637.810733961
636.464567494
635.215672779
634.062790588
633.004685248
632.040171046
631.168117491
630.387474687
629.69729481
629.096785359
628.585402361
628.162966232
627.829884282
627.587700476
627.439146268
627.376813702
960.442821972
960.11376556
959.44346941
958.419175285
957.047299984
955.334293284
953.288049335
950.917817429
948.234086156
945.248436677
941.97341364
938.422370885
934.609341778
930.54888869
926.255983537
921.745870669
917.033964782
912.135732873
907.066612742
901.841916266
896.476768561
890.986031537
885.384260783
879.685646847
873.903985855
868.052634463
862.144491039
856.191962154
850.206951843
844.200837747
838.184467697
832.16814521
826.161631424
820.174140003
814.214344497
808.290380282
802.409856724
796.579865841
790.806997395
785.097353276
779.45656476
773.889811847
768.401841013
762.996989002
757.679200076
752.452052904
747.318777003
742.282281224
737.34516851
732.509764677
727.778131416
723.152094333
718.633252617
714.223005948
709.922560798
705.732954798
701.655059064
697.689600845
693.837162012
690.098198505
686.473035806
682.961886143
679.564841311
676.281887751
673.112898512
670.057646142
667.115793588
664.286907169
661.57044882
658.965787899
656.472195141
654.088855738
651.814864254
649.649238678
647.590918825
645.638781189
643.791639672
642.0482616
640.40737092
638.867665409
637.427822023
636.086514036
634.842419451
633.694238081
632.640700664
631.680588792
630.812747809
630.036108715
629.349711574
628.752752496
628.244627857
627.824972508
627.49370415
627.250977527
627.096905991
627.025459129
962.140936973
961.803638969
961.118871217
960.072626347
958.671675528
956.922857569
954.834528436
952.416464137
949.679723934
946.636493926
943.299936739
939.684030489
935.803420315
931.67326457
927.309099898
922.726704709
917.941985146
912.970861208
907.829176946
902.532610852
897.096609452
891.536320128
885.86654419
880.101687673
874.255728697
868.342180862
862.374071539
856.363915501
850.323700339
844.264869251
838.198313757
832.134365118
826.082793064
820.052805406
814.053053759
808.091639474
802.176124646
796.313543765
790.510418943
784.772776263
779.106163759
773.515672149
768.005954279
762.581248714
757.245400562
752.001886258
746.853834553
741.804052517
736.855045389
732.009042216
727.268014018
722.633697618
718.107611927
713.691079146
709.385237965
705.191061565
701.109366737
697.140829674
693.285991283
689.545268955
685.918958561
682.407244242
679.010196976
675.727783043
672.559860676
669.506184199
666.566402976
663.740067082
661.026623606
658.42542143
655.935711968
653.556655224
651.287319295
649.126689136
647.073670992
645.127101424
643.285753135
641.5483462
639.913557138
638.380032049
636.946396181
635.611268629
634.37327512
633.231061754
632.183309528
631.228751245
630.366186788
629.594502748
628.912692297
628.31989013
627.815379347
627.39859967
627.069124163
626.826546717
626.670448406
626.596080734
964.20299059
963.85555911
963.15295877
962.079651891
960.642863365
958.8499319
956.709801838
954.232914714
951.431049261
948.317149329
944.905150423
941.209806835
937.24652285
933.031192071
928.580046308
923.909517154
919.036110076
913.976293669
908.746402107
903.362552766
897.840575861
892.195956776
886.443787445
880.598726961
874.674967508
868.686206572
862.645623222
856.565858365
850.458998033
844.336560783
838.209489038
832.088143926
825.98230357
819.901165486
813.853352854
807.846922593
801.889377695
795.98768015
790.148268268
784.377073624
778.67954191
773.060653398
767.52494592
762.076537433
756.7191504
751.45613608
746.290499389
741.224923117
736.261792059
731.403217109
726.651057547
722.006943039
717.472293507
713.048337821
708.736131432
704.536570659
700.450406164
696.478254157
692.620605759
688.87783423
685.250199697
681.737856232
678.34085108
675.059127036
671.892524707
668.840780683
665.90352962
663.080304379
660.370534007
657.773545414
655.288566975
652.914729753
650.651069494
648.496533382
646.449985458
644.5102144
642.675941953
640.945831835
639.318500729
637.792531529
636.366484626
635.038912111
633.808372444
632.673444404
631.632742725
630.684934855
629.82875668
629.063030589
628.386679995
627.798751065
627.298413015
626.884952217
626.557740041
626.31616113
626.159764146
626.084569418
966.63850504
966.278868403
965.554816429
964.448954311
962.969076821
961.123146378
958.920841628
956.373427119
953.493570102
950.295142279
946.793024976
943.002913742
938.941133707
934.624461508
930.069964386
925.294849834
920.316336088
915.151534898
909.817356046
904.330423848
898.707013081
892.962993752
887.113791061
881.174348914
875.159103761
869.081959735
862.956269319
856.794814817
850.609794658
844.41281104
838.214862985
832.026342596
825.857034714
819.716120886
813.612187192
807.553234855
801.54669351
795.599437085
789.717801393
783.907604566
778.174168455
772.522341402
766.956521784
761.480683873
756.098402816
750.81288101
745.626973699
740.54321624
735.56384874
730.690842311
725.925921952
721.27059066
716.726149577
712.293718827
707.974254028
703.768562859
699.677317217
695.701065147
691.840239402
688.095165453
684.466063459
680.953053272
677.556154
674.275287342
671.110274878
668.060837596
665.126592898
662.307056677
659.601638754
657.009643366
654.53027239
652.162624836
649.905698207
647.758396613
645.719534474
643.787844834
641.961987547
640.240559014
638.622104684
637.10513204
635.688122082
634.369546167
633.147880416
632.021620846
630.989300375
630.049504643
629.200889347
628.442194091
627.772257972
627.190032533
626.69458414
626.285082823
625.960782267
625.720994283
625.565334471
625.490281199
969.458927941
969.084813533
968.335363673
967.19097654
965.660145971
963.751606171
961.475937556
958.845412043
955.873776467
952.576025763
948.968177533
945.067054823
940.890076907
936.455067101
931.780073883
926.883213777
921.782530654
916.495879097
911.040824476
905.434566523
899.693876686
893.835054534
887.873891391
881.825646053
875.705022436
869.526152934
863.302580378
857.04724421
850.772465884
844.489939435
838.210724447
831.945243989
825.703286034
819.494008336
813.325949897
807.207042645
801.144627618
795.145471974
789.215790144
783.361265051
777.587072206
771.897903283
766.29799341
760.791147109
755.380766439
750.069878061
744.861162463
739.756981366
734.759405682
729.870241718
725.091058196
720.423209501
715.867859164
711.426000042
707.098473318
702.885983905
698.789114404
694.808335169
690.944016765
687.196429578
683.565748322
680.052057955
676.655351791
673.375529515
670.212395767
667.165654886
664.234910118
661.419661416
658.719298832
656.133103348
653.660248641
651.299797923
649.050707105
646.911830557
644.881925999
642.959661438
641.143624924
639.432334684
637.824252257
636.317794662
634.911350383
633.603294515
632.39200515
631.275879766
630.253352814
629.322912505
628.48311716
627.732610896
627.070137715
626.49455142
626.004820504
625.600024239
625.27934143
625.042044149
624.887818317
624.813434922
972.677810589
972.286696532
971.507506385
970.318033086
968.727630695
966.745979455
964.384762192
961.657472262
958.579159352
955.166162451
951.43585314
947.406386413
943.096469963
938.525148113
933.711610616
928.675019659
923.434365224
918.008340804
912.415248348
906.672922434
900.79867999
894.809283106
888.720918121
882.549178771
876.309056612
870.014927994
863.680542681
857.319009341
850.942783658
844.563657833
838.192755048
831.840527727
825.516760706
819.230579075
812.990461777
806.804256358
800.679196608
794.621924009
788.638509233
782.734476894
776.914830758
771.184081272
765.546272614
760.005012454
754.563501243
749.224563089
743.990674886
738.863997479
733.846405233
728.939515016
724.144713837
719.463185591
714.89593484
710.443809473
706.10751951
701.88765433
697.784695377
693.799030893
689.930958035
686.180687207
682.548349359
679.033995189
675.637591588
672.359019472
669.198068044
666.154429821
663.227696275
660.417352345
657.722771278
655.143212041
652.677817462
650.325613527
648.085510066
645.956306294
643.936695447
642.025271708
640.2205404
638.520929366
636.924802052
635.430471515
634.036217493
632.740302518
631.540990461
630.43656276
629.425339182
628.505693166
627.676071505
626.935009458
626.281144681
625.713228122
625.230132848
624.830855906
624.514517301
624.280356738
624.128090117
624.054719495
976.311024268
975.900088152
975.086319705
973.844472734
972.18495252
970.118600677
967.658441475
964.819445627
961.618223985
958.072716428
954.201892403
950.025471141
945.563659689
940.836917783
935.86574457
930.670496454
925.271229431
919.687575662
913.938645908
908.04296524
902.018430598
895.882292348
889.651146028
883.340934967
876.966948848
870.543822271
864.085523848
857.605345009
851.115885084
844.629040885
838.156001277
831.707243846
825.29254206
818.920976863
812.600952096
806.340211988
800.14586398
794.024400442
787.981724906
782.023177587
776.153564814
770.377186428
764.697867508
759.11898892
753.643520405
748.274052071
743.012827661
737.861777475
732.822550669
727.896546191
723.084943936
718.388732362
713.80873577
709.345636917
704.999998688
700.772280846
696.662856835
692.672018667
688.799984576
685.046906662
681.412871714
677.897896375
674.501925432
671.22482369
668.06637121
665.02625466
662.104057223
659.299254291
656.611205165
654.039147798
651.582195717
649.239334272
647.009424728
644.891206458
642.883299984
640.984215292
639.192364064
637.506070641
635.923585223
634.443101662
633.062774549
631.780736343
630.595117164
629.504066084
628.50576862
627.598467865
626.780482482
626.050224904
625.406214874
624.847093674
624.371635929
623.978754462
623.667506839
623.437105748
623.287250928
623.215152282
980.377025178
979.943065941
979.089275591
977.786871079
976.047552771
973.883587494
971.30963451
968.342446085
965.000500441
961.303632155
957.272689181
952.929211906
948.295144164
943.392569489
938.243482229
932.86958593
927.292130424
921.531780124
915.608524179
909.541618174
903.349562747
897.050102792
890.660246365
884.196285167
877.673813044
871.107730061
864.512237431
857.900821738
851.286237787
844.680492984
838.094841853
831.539782299
825.025065658
818.559713611
812.152035602
805.809652766
799.539521738
793.347961766
787.240681958
781.222811341
775.298928206
769.473092401
763.748878349
758.129408781
752.617388984
747.215143453
741.9246498
736.747575801
731.685313434
726.739014436
721.90962227
717.197904706
712.604481163
708.129849648
703.774408383
699.538476523
695.422302485
691.426075895
687.549935525
683.7939748
680.158236015
676.642705495
673.247310899
669.971911238
666.81628425
663.780115421
660.862989447
658.064378698
655.383633262
652.819973906
650.372484091
648.040111242
645.821665412
643.71581829
641.721108829
639.835954895
638.058661815
636.387435771
634.820399112
633.355609163
631.991075121
630.724780499
629.554703834
628.478840039
627.495222959
626.601945565
625.797182151
625.079205711
624.446405413
623.897302898
623.430566351
623.045018665
622.73964812
622.513621349
622.366610218
622.296013548
984.897181795
984.436531487
983.536517097
982.164265157
980.333075353
978.056974281
975.352615978
972.23890361
968.736541683
964.867602393
960.655127465
956.122769784
951.294468547
946.194163537
940.845540656
935.271817727
929.495565335
923.538575142
917.421769651
911.165162938
904.78785798
898.308081583
891.743233462
885.109940434
878.424093426
871.700865475
864.954703388
858.199306992
851.447599746
844.711707951
838.002951253
831.331840093
824.708089266
818.140641045
811.637689439
805.206706391
798.854472398
792.587105014
786.410090906
780.328315797
774.346099556
768.467228791
762.694993797
757.032223567
751.481325298
746.044321212
740.72288804
735.518395253
730.431944286
725.464405708
720.616456436
715.888613875
711.281268029
706.794709488
702.429157538
698.184769427
694.061659337
690.059912173
686.179584537
682.420708843
678.783287578
675.267285488
671.87262317
668.599160779
665.446683088
662.414889146
659.503374154
656.711616571
654.03896512
651.484625983
649.047660097
646.726977209
644.521330392
642.42931767
640.449392109
638.579867006
636.818928263
635.164648472
633.615004392
632.16789663
630.821170403
629.572638848
628.420106392
627.361393181
626.39435935
625.516928485
624.72710975
624.023020572
623.402904202
622.865150253
622.408307939
622.031099819
621.732434499
621.511422716
621.36768848
621.298816167
989.896182586
989.404580119
988.451195337
986.998429408
985.061579408
982.656856827
979.803361185
976.522592696
972.837909152
968.77401276
964.356498855
959.61145298
954.565098637
949.243481552
943.67219695
937.87615087
931.879370624
925.704861176
919.374523907
912.9091312
906.328361903
899.650875954
892.894417703
886.075910816
879.211529369
872.316723648
865.406208192
858.493920327
851.592974201
844.715625817
837.873258279
831.076383044
824.334657719
817.656921857
811.051225215
804.52486275
798.084408078
791.735747177
785.484110782
779.334110356
773.289771801
767.354573433
761.531484292
755.823003506
750.231200524
744.757757953
739.404012195
734.170996752
729.059484081
724.070028031
719.203003577
714.45864719
709.837090818
705.338398243
700.962583039
696.709626882
692.579504377
688.57218846
684.687651307
680.925869568
677.286812829
673.770433338
670.376656221
667.105356045
663.956342047
660.929340925
658.023971275
655.239730703
652.575973621
650.031904448
647.606566325
645.298828903
643.107385789
641.030760958
639.067310428
637.215231764
635.472576672
633.837267122
632.307114724
630.879842412
629.553108583
628.324532404
627.19172058
626.152293439
625.203915353
624.344316834
623.571321134
622.88287077
622.277045778
621.752086565
621.306410441
620.93862757
620.647555897
620.432231951
620.292223232
620.22530881
995.402546215
994.874978788
993.859878305
992.314205998
990.255778877
987.70354732
984.679622033
981.208646276
977.31713184
973.032863202
968.384387662
963.400579645
958.110258123
952.541851807
946.723098038
940.680784362
934.440532652
928.026647094
921.462030486
914.768185729
907.965292844
901.072353093
894.107362305
887.087476669
880.029124649
872.948046939
865.85926052
858.776984681
851.714557379
844.684380763
837.697897987
830.76560182
823.897066557
817.100995498
810.385261727
803.756948246
797.222389391
790.787204075
784.456335145
778.23408206
772.124141056
766.12964352
760.253198278
754.496933141
748.862539771
743.351318265
737.964223079
732.701908904
727.564778469
722.553027585
717.666691214
712.905689109
708.269870081
703.759036128
699.372974915
695.111483856
690.974386184
686.961536863
683.072826028
679.308182355
675.667550594
672.15088297
668.758128738
665.48919439
662.343934673
659.322119753
656.423412082
653.64734142
650.993286896
648.460460862
646.047891126
643.754409285
641.578654091
639.519067086
637.573898802
635.74121798
634.018926245
632.404775713
630.896390925
629.491293748
628.186929864
626.980698947
625.869980557
624.852172125
623.92471388
623.085117994
622.330999015
621.660101753
621.070322179
620.559735484
620.126610832
619.769430073
619.486905481
619.277996804
619.142193092
619.077474954
1001.44927098
1000.87975077
999.7930537
998.139891795
995.941309891
993.219727199
990.000986462
986.31353739
982.187634343
977.654650419
972.746524934
967.495301312
961.932733824
956.089930832
949.997033233
943.682919256
937.174959779
930.498836537
923.678457588
916.735979648
909.691950945
902.565547168
895.374862092
888.137175049
880.869132816
873.586793162
866.305546264
859.039967658
851.803674749
844.609240108
837.46815601
830.390865035
823.386819799
816.464545296
809.631694532
802.895101156
796.260821092
789.734172883
783.319772284
777.021570775
770.842894494
764.786487196
758.854554508
753.048809952
747.370521906
741.820562957
736.399458934
731.107440243
725.94449282
720.910409369
716.004839703
711.227353638
706.577473979
702.054710553
697.658610836
693.388771599
689.244853038
685.226589136
681.333794934
677.566356626
673.924206916
670.407324057
667.015695728
663.749289185
660.608026658
657.591750074
654.700187778
651.932922668
649.289375002
646.768776377
644.370147913
642.092293159
639.933791969
637.892998847
635.968048478
634.156867029
632.457187738
630.866571345
629.382430784
628.002059996
626.722662984
625.541388251
624.455362586
623.461727769
622.557670305
621.740455646
621.007463594
620.356215954
619.784403703
619.289914605
618.87085111
618.525554471
618.25261826
618.050902589
617.919820602
617.857558386
1008.07466792
1007.45592525
1006.28574651
1004.50769191
1002.14701519
999.230585001
995.788897329
991.855016357
987.463613433
982.650209043
977.450597027
971.900391372
966.034635873
959.887445253
953.49165208
946.878470848
940.077194139
933.114967546
926.016677572
918.805001009
911.500625793
904.12263088
896.68895206
889.216823311
881.723062235
874.224114383
866.73587428
859.27340898
851.850703586
844.480527461
837.174400242
829.942663639
822.794588147
815.738461507
808.781667453
801.93074369
795.191431481
788.568708599
782.066828512
775.689352942
769.439197051
763.318672329
757.329535821
751.473039234
745.749979807
740.160752711
734.705405143
729.383691548
724.195130406
719.139059052
714.214695913
709.421206521
704.757750913
700.223512462
695.817781063
691.539943767
687.389484481
683.366012525
679.469265825
675.699104412
672.055479467
668.538407399
665.147950018
661.88416791
658.747081997
655.736633083
652.85264132
650.094776239
647.46251848
644.955136134
642.571657828
640.310860516
638.171267363
636.151139751
634.248485907
632.461073307
630.786446523
629.221950673
627.764757855
626.411902773
625.160316682
624.006865548
622.948387695
621.981733228
621.103802374
620.31158213
619.602188287
618.972892604
618.421154961
617.944653366
617.541305918
617.20929209
616.947073004
616.753407418
616.627607094
616.568072119
1015.32345586
1014.64649985
1013.37828441
1011.45424131
1008.90522923
1005.76390566
1002.06660422
997.851971016
993.159851185
988.030493692
982.50401308
976.619988511
970.417120899
963.932880559
957.203128163
950.261707132
943.140053716
935.866877666
928.467996081
920.966387042
913.38251749
905.734926394
898.040979492
890.31759671
882.581721529
874.850340963
867.140109115
859.46681742
851.84495957
844.287525696
836.806007728
829.410555554
822.110164655
814.912810284
807.825543301
800.854560193
794.005245606
787.282204155
780.689286303
774.229624586
767.905676746
761.719275634
755.67168044
749.763630461
743.995399508
738.366852006
732.877501095
727.526569516
722.313051871
717.235777466
712.293454079
707.484782815
702.808549265
698.263589412
693.848915668
689.56365179
685.407060914
681.378640047
677.478081237
673.705251729
670.060122454
666.542797384
663.153460052
659.892287803
656.75945113
653.75501642
650.878944552
648.131017265
645.510797417
643.017617237
640.650520431
638.408268682
636.289330412
634.291867364
632.413747171
630.652561427
629.005642469
627.470089749
626.042804121
624.720528019
623.499883173
622.377411737
621.34962383
620.413040939
619.564237551
618.799889728
618.116815095
617.51200308
616.982656343
616.526217397
616.140397628
615.823201244
615.572940735
615.388248564
615.268340136
615.211835654
1023.24822154
1022.50169264
1021.11725143
1019.0211877
1016.25202357
1012.85006323
1008.85899423
1004.32417917
999.291435014
993.806299301
987.913622159
981.657308849
975.080072979
968.223124633
961.125749892
953.824804273
946.354168589
938.744272071
931.021797214
923.209704067
915.32767263
907.392992322
899.421778996
891.430208214
883.435319815
875.454975885
867.507067419
859.608520296
851.774545091
844.018353709
836.351275952
828.783106112
821.322428493
813.976804138
806.752883228
799.656470685
792.692565515
785.865365121
779.178284274
772.633981023
766.234408839
759.98086973
753.874072784
747.914191085
742.100918882
736.433531748
730.910949461
725.531800689
720.294498624
715.197284355
710.238251064
705.415744634
700.728093567
696.173566779
691.750822787
687.458750294
683.296475092
679.263386365
675.359147831
671.583623471
667.9368782
664.419142269
661.030744672
657.772042433
654.64338569
651.64501685
648.777099996
646.039551501
643.43206432
640.954046559
638.6045786
636.382421512
634.28598582
632.313321798
630.462148174
628.729859291
627.113545223
625.610028266
624.215905444
622.927583133
621.741328346
620.653317649
619.659688366
618.756588392
617.940226611
617.206928835
616.553173602
615.975634698
615.471227335
615.0371326
614.670833984
614.370134491
614.133182931
613.958488603
613.845141025
613.791986155
1031.91142037
1031.080632
1029.55668201
1027.25580869
1024.22733455
1020.52182343
1016.1922307
1011.29189492
1005.87336538
999.987907598
993.685398276
987.014332804
980.021765173
972.753062544
965.251439001
957.557283593
949.707378039
941.734136586
933.665065818
925.522660766
917.324955095
909.086838771
900.822036668
892.54525642
884.273660998
876.026678391
867.824343709
859.685416585
851.626124425
843.659804573
835.797325996
828.047839905
820.419317916
812.918789624
805.552429739
798.325616175
791.242942396
784.308185882
777.524290858
770.893396507
764.416897051
758.095508491
751.929332582
745.917919152
740.060324322
734.355172413
728.800723764
723.394939092
718.135571102
713.020358353
708.046785055
703.212396639
698.514769482
693.951860925
689.52204944
685.223968107
681.056580413
677.019191316
673.111403063
669.333119986
665.68455593
662.166108879
658.77831701
655.521751274
652.397004832
649.404599647
646.544913495
643.818061029
641.223907845
638.761964344
636.431385911
634.230926214
632.15894091
630.213366133
628.391754559
626.691268771
625.10873266
623.640654447
622.283279655
621.032634973
619.884583826
618.834885369
617.879254433
617.013412846
616.233161083
615.534423831
614.913300255
614.366112595
613.889454
613.480216227
613.135624833
612.853270614
612.631119105
612.467528624
612.361472467
612.312026916
1041.38817314
1040.45364461
1038.75957151
1036.2115804
1032.87482271
1028.8138101
1024.09308028
1018.77520693
1012.92001852
1006.5846741
999.824110735
992.691509112
985.238522818
977.515148764
969.569182365
961.445305922
953.183919721
944.819920844
936.38169756
927.890711196
919.362059724
910.806363573
902.232984991
893.653873282
885.086471858
876.553212553
868.07797805
859.682562105
851.384568385
843.197127048
835.130016092
827.191218468
819.387835343
811.726251296
804.212109143
796.85033923
789.645153705
782.599916188
775.717076459
768.998197923
762.444054164
756.054710788
749.829601488
743.767594213
737.867046069
732.12586373
726.541565198
721.111326713
715.832614732
710.702440886
705.716749818
700.872365299
696.166532919
691.596870406
687.161346555
682.858312447
678.686533942
674.64522599
670.733957766
666.952764139
663.302031813
659.782396621
656.394619347
653.13962373
650.018311394
647.031528236
644.179949076
641.463962203
638.883622721
636.438607103
634.128157307
631.951046453
629.905574439
627.989550431
626.200330682
624.534827279
622.989556406
621.560667487
620.244004833
619.03516158
617.929542149
616.922429032
616.009054093
615.184661389
614.444583921
613.784295392
613.199466706
612.686031812
612.240219083
611.858603284
611.538130123
611.276144969
611.070418336
610.919162064
610.821197914
610.775839933
1051.77027883
1050.70553972
1048.79979822
1045.9485128
1042.24117535
1037.7613817
1032.58776924
1026.79308285
1020.44445714
1013.60457711
1006.33304363
998.687533135
990.724456316
982.498982776
974.064388161
965.470774451
956.763328126
947.980352349
939.151455401
930.296433097
921.425572653
912.542168741
903.647704383
894.748907596
885.86394278
877.021255804
868.251801398
859.582410153
851.032411625
842.613798964
834.333915241
826.198688904
818.214097547
810.385855457
802.719047101
795.218176171
787.887162868
780.729020938
773.745675987
766.938038541
760.306180266
753.849442758
747.56652715
741.455563481
735.514149976
729.739391642
724.127931395
718.676645368
713.382553221
708.240699674
703.24536851
698.393428917
693.68179008
689.107463843
684.66788208
680.361137234
676.185774481
672.14091781
668.226203563
664.441816439
660.788344597
657.266722697
653.878108093
650.623796859
647.5051061
644.523333964
641.679503564
638.974326895
636.408128529
633.980815555
631.691724185
629.539668295
627.522888761
625.639055555
623.885306513
622.258270328
620.754104552
619.368551463
618.096998494
616.934538892
615.876051197
614.916273565
614.04988935