/*--------------------------------*- C++ -*----------------------------------*\
| =========                 |                                                 |
| \\      /  F ield         | OpenFOAM: The Open Source CFD Toolbox           |
|  \\    /   O peration     | Version:  v1906                                 |
|   \\  /    A nd           | Web:      www.OpenFOAM.com                      |
|    \\/     M anipulation  |                                                 |
\*---------------------------------------------------------------------------*/
FoamFile
{
    version     2.0;
    format      ascii;
    class       surfaceScalarField;
    location    "521";
    object      phi;
}
// * * * * * * * * * * * * * * * * * * * * * * * * * * * * * * * * * * * * * //

dimensions      [0 3 -1 0 0 0 0];
oriented        oriented;


internalField   nonuniform List<scalar> 
18240
(
-0.000352262202982
0.000352277960701
-0.000737974488963
0.000385729171725
-0.00112333791217
0.000385380280941
-0.00150373995798
0.000380419061168
-0.00187710089866
0.000373377853087
-0.00224168701964
0.000364603250224
-0.00259597266671
0.000354302553247
-0.0029386091082
0.000342653742974
-0.00326842226832
0.000329830035474
-0.00358440960437
0.00031600485914
-0.00388574040921
0.000301347612864
-0.00417174597932
0.000286023346702
-0.00444191587534
0.000270186588818
-0.00469588055978
0.000253982728131
-0.00493340625995
0.000237542214878
-0.00515437247463
0.000220984520794
-0.00535876879889
0.000204412595176
-0.005546669467
0.000187919213474
-0.00571823463338
0.000171581118623
-0.00587368321898
0.000155467330182
-0.00601330003394
0.000139632380156
-0.00613740733208
0.000124126186059
-0.00624637818255
0.000108985956798
-0.00634060655285
9.42473334291e-05
-0.00642052669308
7.99347310694e-05
-0.00648658131146
6.60735779999e-05
-0.00653924635201
5.26790605526e-05
-0.00657899684953
3.97693689379e-05
-0.00660633640044
2.73529663633e-05
-0.00662176060002
1.54428935083e-05
-0.00662579097577
4.04315690793e-06
-0.00661893392845
-6.83862023433e-06
-0.00660171598237
-1.72058042708e-05
-0.00657464442086
-2.70534905046e-05
-0.00653824671938
-3.63861989341e-05
-0.00649302658605
-4.52025022757e-05
-0.00643950456055
-5.35111367675e-05
-0.00637817337356
-6.13140749076e-05
-0.00630953982652
-6.86232423083e-05
-0.00623407978101
-7.54435229017e-05
-0.0061522805143
-8.1789493345e-05
-0.00606459609984
-8.76685441974e-05
-0.00597148947495
-9.30973274503e-05
-0.0058733890296
-9.80852795922e-05
-0.00577072962664
-0.000102650507619
-0.00566391120726
-0.000106804000753
-0.00555333796217
-0.000110564676938
-0.00543937974115
-0.000113944579956
-0.00532240859086
-0.000116962821707
-0.00520276370483
-0.000119632041808
-0.00508078454102
-0.000121970987626
-0.00495677999425
-0.000123992505161
-0.00483105735807
-0.000125714519013
-0.00470389631923
-0.00012714979256
-0.00457557307742
-0.000128315091927
-0.0044463396773
-0.000129222926827
-0.00431644269284
-0.000129888710811
-0.00418610830313
-0.00013032465173
-0.00405555505865
-0.000130544758622
-0.00392498499704
-0.000130561004549
-0.00379459014964
-0.000130386068355
-0.00366454986163
-0.000130031839922
-0.00353503087075
-0.000129509841097
-0.00340619086104
-0.000128832081023
-0.00327817212607
-0.000128009150598
-0.00315111123128
-0.000127053377782
-0.00302512648977
-0.000125974663296
-0.00290033344664
-0.000124785814318
-0.00277682658612
-0.000123496249012
-0.00265470017726
-0.000122119330644
-0.0025340248509
-0.000120664150143
-0.00241487316816
-0.000119144610288
-0.00229729186951
-0.000117569554246
-0.00218133135563
-0.000115953301054
-0.00206701459487
-0.000114304461374
-0.0019543695439
-0.000112637561832
-0.00184339580848
-0.000110960932195
-0.00173409890151
-0.000109289023619
-0.00162645587158
-0.000107629799415
-0.00152045019505
-0.000105997308959
-0.00141603762437
-0.000104399028945
-0.00131318046776
-0.000102848244264
-0.00121181495616
-0.000101351793517
-0.00111188367918
-9.99217830673e-05
-0.00101330577762
-9.85641467728e-05
-0.000916006486942
-9.72891731724e-05
-0.000819891688639
-9.61011035165e-05
-0.000724874311301
-9.50065844353e-05
-0.000630856300026
-9.40044695897e-05
-0.000537756298222
-9.30886640288e-05
-0.000445513569979
-9.22296653986e-05
-0.000354153252932
-9.13488095325e-05
-0.000263916591813
-9.02248857117e-05
-0.000175817758613
-8.80877776935e-05
-9.37508898203e-05
-8.20534287593e-05
-9.37433976993e-05
-0.000389372904827
0.000741667673884
-0.000824088245216
0.000820462240998
-0.00125633206443
0.000817642070883
-0.00168227313206
0.000806378104112
-0.00209998458466
0.000791107310008
-0.00250768632644
0.000772323063307
-0.00290372001832
0.000750354292841
-0.00328659359546
0.000725545501816
-0.00365500179216
0.000698256338004
-0.00400783184904
0.000668853227815
-0.00434416405939
0.000637697983272
-0.0046632635574
0.000605141290288
-0.00496457229795
0.000571513518771
-0.00524769312438
0.000537122120068
-0.00551237821316
0.000502245485073
-0.00575850942627
0.000467134389613
-0.00598608704958
0.000432008339163
-0.00619520933775
0.000397060203096
-0.00638606411958
0.000362453901371
-0.00655890919142
0.000328331093024
-0.00671406806669
0.00029480906765
-0.00685191176959
0.000261988503556
-0.00697285898
0.000229950722386
-0.0070773590336
0.0001987658536
-0.00716589606363
0.00016848898745
-0.00723897264634
0.000139168404131
-0.00729711724046
0.000110840487521
-0.00734086784981
8.35379242327e-05
-0.00737078197835
5.72834720476e-05
-0.00738741965782
3.20981493471e-05
-0.00739135454188
7.99391188774e-06
-0.00738315838963
-1.50176322056e-05
-0.0073634157404
-3.69331334338e-05
-0.00733270327568
-5.77493113212e-05
-0.00729160370358
-7.74710314144e-05
-0.00724068763603
-9.61024722589e-05
-0.00718052897127
-0.000113655662479
-0.00711168585336
-0.000130141682301
-0.00703471644875
-0.00014557911412
-0.00695015988587
-0.000159985191925
-0.0068585523144
-0.000173384133907
-0.00676040821212
-0.000185798388632
-0.00665623647124
-0.00019725672216
-0.00654652242767
-0.000207785709395
-0.00643174369113
-0.00021741745573
-0.00631235322973
-0.000226181490287
-0.0061887946315
-0.00023411200738
-0.00606148655189
-0.000241240316677
-0.00593083708509
-0.000247601495177
-0.00579722984707
-0.000253227543151
-0.00566103712152
-0.000258153340999
-0.00552260781497
-0.000262410648476
-0.00538227905221
-0.000266033269234
-0.00524036619754
-0.000269052015108
-0.0050971725838
-0.000271498987065
-0.00495298175159
-0.00027340360624
-0.00480806503275
-0.000274795931923
-0.00466267611524
-0.000275703834467
-0.00451705624315
-0.000276155279148
-0.00437143117364
-0.000276176686959
-0.00422601382529
-0.000275794130194
-0.00408100365328
-0.000275032892616
-0.00393658665414
-0.000273917538225
-0.00379293714491
-0.000272472650495
-0.00365021512867
-0.000270721764013
-0.00350857042099
-0.000268689228549
-0.00336813747638
-0.000266398022147
-0.00322904175543
-0.000263872658841
-0.00309139221057
-0.000261135942249
-0.00295528973148
-0.000258212807566
-0.00282081757716
-0.000255126112774
-0.00268805167129
-0.000251901284404
-0.00255704934271
-0.000248561285673
-0.00242786117502
-0.000245131911742
-0.00230051848075
-0.000241636108012
-0.00217504633991
-0.000238099742779
-0.00205145027479
-0.000234545478323
-0.00192973005394
-0.000230998829062
-0.00180986606831
-0.000227481806099
-0.00169183343003
-0.000224019055682
-0.00157558856011
-0.000220631504729
-0.00146108308808
-0.000217342360137
-0.00134825117022
-0.000214170974464
-0.00123702269754
-0.000211138468423
-0.00112731184994
-0.000208261992055
-0.00101902915423
-0.000205559670488
-0.000912071740978
-0.000203045287248
-0.000806333705557
-0.000200732012473
-0.00070169778355
-0.000198626988313
-0.000598041063484
-0.000196732477929
-0.000495219065161
-0.000195038565584
-0.000393035120109
-0.000193520140993
-0.000291119429458
-0.000192127939337
-0.000188420161823
-0.000190774957759
-8.18122620504e-05
-0.000188649382889
-0.000175549625343
-0.000396331198379
0.00113801572764
-0.000836690005957
0.00126083908355
-0.00127519014173
0.00125616017103
-0.00170731626179
0.00123852230212
-0.00213093884927
0.00121474796061
-0.00254418919169
0.00118559153707
-0.00294536389256
0.00115154713698
-0.00333294410615
0.00111314394081
-0.00370561031029
0.00107094077762
-0.0040622467368
0.00102550799195
-0.00440193990377
0.000977409477881
-0.00472396967838
0.000927189511453
-0.00502779825203
0.000875360496168
-0.00531305385306
0.000822396255123
-0.00557951561598
0.000768725694134
-0.00582709465364
0.000714732011601
-0.00605581892786
0.000660751056213
-0.00626581493657
0.000607074795651
-0.00645729512748
0.000553952472538
-0.00663054192204
0.0005015964097
-0.00678589876477
0.000450184163115
-0.00692375695202
0.000399865081979
-0.007044550341
0.000350762163807
-0.00714874464789
0.000302978347738
-0.0072368352395
0.000256597360071
-0.00730933819288
0.000211689266299
-0.00736679036319
0.00016831009444
-0.00740974145227
0.000126506572005
-0.00743875559266
8.63146398621e-05
-0.00745440382865
4.77635261405e-05
-0.00745726673376
1.08733731873e-05
-0.00744792694261
-2.43407608867e-05
-0.00742697236251
-5.78716791101e-05
-0.00739498859143
-8.97169512377e-05
-0.00735256239737
-0.000119881755767
-0.00730027408934
-0.000148375220757
-0.00723870133749
-0.000175213536849
-0.00716841164139
-0.000200416421107
-0.00708996638732
-0.000224010102779
-0.00700391350227
-0.000246023740032
-0.0069107917266
-0.000266492260851
-0.00681112361439
-0.000285452792313
-0.00670541997615
-0.00030294732517
-0.00659417337021
-0.000319019231055
-0.00647786265354
-0.000333715733552
-0.00635694707984
-0.000347084590423
-0.00623187086292
-0.000359176357375
-0.00610305797408
-0.000370041317944
-0.00597091660951
-0.000379731528564
-0.00583583474769
-0.000388298070254
-0.00569818438771
-0.000395792862502
-0.00555831790522
-0.000402266306085
-0.00541657192288
-0.000407768853437
-0.00527326447396
-0.000412349098301
-0.00512869835686
-0.000416055087344
-0.00498315909692
-0.000418932900196
-0.00483691764491
-0.000421027682386
-0.00469022910789
-0.000422382738538
-0.00454333466625
-0.000423040261671
-0.00439646103809
-0.000423040940759
-0.00424982151951
-0.000422424354278
-0.00410361614425
-0.000421229070602
-0.00395803179431
-0.000419492673606
-0.00381324302308
-0.000417252313586
-0.00366941123062
-0.000414544334571
-0.00352668612488
-0.000411405221415
-0.00338520401109
-0.000407870813847
-0.00324508986917
-0.000403977585974
-0.00310645484941
-0.000399761448764
-0.00296939894081
-0.000395259300921
-0.00283400780902
-0.000390507449182
-0.00270035601568
-0.000385543368544
-0.00256850335373
-0.000380403791015
-0.00243849855809
-0.000375126621039
-0.0023103753148
-0.000369748767634
-0.00218415637395
-0.000364308157702
-0.00205984940546
-0.000358841397758
-0.00193745140149
-0.000353385831418
-0.00181694455669
-0.000347977126243
-0.00169830082054
-0.000342651312686
-0.00158147796417
-0.000337442387411
-0.00146642413015
-0.000332384268154
-0.00135307424054
-0.000327508494869
-0.00124135437302
-0.000322846016296
-0.00113117862032
-0.000318425039922
-0.00102245307588
-0.000314272537286
-0.000915073113053
-0.000310412235859
-0.000808926416404
-0.000306865675953
-0.000703889796287
-0.000303650344014
-0.000599828707364
-0.000300780379043
-0.0004965880097
-0.000298266007029
-0.000393976863454
-0.000296118445733
-0.000291733239432
-0.000294359239204
-0.000189494985318
-0.000293000614217
-8.73482517361e-05
-0.000290783600252
-0.000262891948402
-0.00040253478355
0.00154056741044
-0.00084901070637
0.00170733275012
-0.00129361213393
0.00170077964948
-0.0017315967362
0.00167652492221
-0.00216069921412
0.00164386853371
-0.00257896018099
0.00160387062117
-0.00298461897063
0.00155722409915
-0.00337612428009
0.00150466747233
-0.00375214422251
0.0014469789998
-0.00411156808071
0.00138495018917
-0.00445350139643
0.00131936118695
-0.00477725454898
0.00125096111499
-0.00508232792167
0.0011804523599
-0.0053683934633
0.00110848033649
-0.00563527594976
0.00103562673733
-0.00588293289431
0.000962407545378
-0.00611143642162
0.0008892731576
-0.0063209550444
0.000816612004169
-0.00651173870811
0.000744754669088
-0.00668410406794
0.000673980288302
-0.00683842356455
0.000604522082146
-0.00697511441457
0.000536574312784
-0.00709463144965
0.000470297438363
-0.00719745920504
0.000405824271261
-0.00728410768267
0.000343263817862
-0.00735510659775
0.000282706061444
-0.00741100309223
0.000224224236876
-0.00745235723047
0.000167878229819
-0.00747974083102
0.000113715485569
-0.00749373354683
6.17733333649e-05
-0.00749492231544
1.20789219981e-05
-0.00748389735067
-3.53491230499e-05
-0.00746125187971
-8.0500891953e-05
-0.00742757840614
-0.000123374362885
-0.00738346852036
-0.000163975948401
-0.00732950910394
-0.000202319155033
-0.0072662821871
-0.000238425358568
-0.00719436131633
-0.000272322417755
-0.00711431160418
-0.000304045337791
-0.00702668631302
-0.00033363478139
-0.0069320271352
-0.000361137589213
-0.00683086109157
-0.000386605215701
-0.00672370107455
-0.000410094117723
-0.0066110431409
-0.000431664167803
-0.00649336732401
-0.000451378938233
-0.00637113537019
-0.000469304154274
-0.00624479179749
-0.000485507906702
-0.00611476209833
-0.000500059207407
-0.00598145399782
-0.000513028161777
-0.00584525611834
-0.000524484684638
-0.00570653936786
-0.000534498660251
-0.00556565603934
-0.000543138869512
-0.00542294124368
-0.000550473160697
-0.00527871239494
-0.000556567629355
-0.00513327058772
-0.000561486813147
-0.00498690040402
-0.000565293153105
-0.00483987113126
-0.000568047214973
-0.00469243681807
-0.000569807439904
-0.00454483723202
-0.000570630377129
-0.00439729809427
-0.000570570710478
-0.00425003169701
-0.000569681470618
-0.00410323726048
-0.000568014300671
-0.0039571011577
-0.00056561960032
-0.00381179736008
-0.000562546977761
-0.0036674872574
-0.000558845273838
-0.00352432018499
-0.000554563139115
-0.00338243286384
-0.000549748889402
-0.00324195002502
-0.000544451151085
-0.00310298353049
-0.000538718517034
-0.00296563312562
-0.000532600214466
-0.00282998532239
-0.000526145550797
-0.00269611431234
-0.000519404575838
-0.00256408070546
-0.000512427332976
-0.0024339326278
-0.000505264502029
-0.00230570440718
-0.000497966489687
-0.0021794178615
-0.000490584050882
-0.00205508101348
-0.000483167266896
-0.0019326895565
-0.000475766146108
-0.00181222566753
-0.000468429542119
-0.00169365961566
-0.00046120573292
-0.00157694872694
-0.000454141329814
-0.00146203908238
-0.000447281826334
-0.001348864669
-0.000440670540151
-0.00123734908797
-0.000434349112901
-0.00112740487944
-0.000428356516224
-0.00101893509603
-0.00042272947767
-0.000911832661036
-0.000417501592946
-0.000805981429328
-0.000412703724463
-0.000701254962989
-0.000408363434128
-0.000597515959594
-0.000404505975744
-0.000494613235343
-0.000401155575527
-0.000392378925469
-0.000398339794719
-0.000290631356324
-0.00039609378903
-0.000189239527854
-0.000394379975885
-8.87241273452e-05
-0.000391286567217
-0.000351609763912
-0.000410533247429
0.00195111747151
-0.00086549793962
0.00216231548448
-0.00131836346903
0.00215366309965
-0.00176419506266
0.00212237457672
-0.00220059277869
0.00208028430177
-0.00262549173343
0.00202878770034
-0.00303705834013
0.00196880886896
-0.00343369928237
0.00190132665136
-0.00381406860728
0.00182736661407
-0.00417706584691
0.0017479657978
-0.00452182665796
0.00166414041728
-0.00484770695874
0.00157685991237
-0.00515426328301
0.00148702721848
-0.0054412302736
0.00139546592669
-0.00570849788188
0.00130291296143
-0.00595608847639
0.00121001680078
-0.00618413595562
0.00111733928592
-0.00639286624173
0.00102536095683
-0.00658258082402
0.000934487872177
-0.00675364205248
0.000845060122412
-0.00690646161415
0.000757360166658
-0.00704149043118
0.000671621600849
-0.00715921136609
0.000588036721886
-0.00726013270214
0.00050676386626
-0.00734478387282
0.000427933085949
-0.00741371126926
0.000351651427156
-0.00746747576788
0.000278006504903
-0.0075066497583
0.000207069825283
-0.00753181551374
0.000138898611317
-0.00754356268082
7.35376721035e-05
-0.0075424869403
1.10200866516e-05
-0.00752918727998
-4.86321075317e-05
-0.00750426491113
-0.000105406878697
-0.00746832057643
-0.00015930257026
-0.00742195319782
-0.000210327513961
-0.00736575730404
-0.000258499509414
-0.00730032162336
-0.00030384582808
-0.00722622663349
-0.000346402484171
-0.00714404330662
-0.000386214077834
-0.00705433088337
-0.000423332913137
-0.00695763586012
-0.000457818659434
-0.0068544900811
-0.00048973733985
-0.00674541003162
-0.000519160847201
-0.00663089531273
-0.000546165861654
-0.00651142827299
-0.000570833278291
-0.00638747289461
-0.000593247120448
-0.00625947476147
-0.000613493938498
-0.00612786035679
-0.000631661785472
-0.00599303734007
-0.000647839643231
-0.00585539422841
-0.000662116519187
-0.00571530092945
-0.000674580949478
-0.00557310875667
-0.00068532026963
-0.0054291511467
-0.000694420237208
-0.00528374393713
-0.000701964517831
-0.00513718617707
-0.00070803445903
-0.00498976058087
-0.000712708818718
-0.00484173433311
-0.000716063703234
-0.00469335962211
-0.000718172542396
-0.00454487434042
-0.000719106181638
-0.00439650260912
-0.000718933079086
-0.00424845529099
-0.00071771951456
-0.00410093043494
-0.000715529956342
-0.00395411354915
-0.000712427327801
-0.00380817792702
-0.000708473471104
-0.00366328466581
-0.000703729399692
-0.00351958287126
-0.000698255779725
-0.00337720944814
-0.000692113101069
-0.003236289214
-0.000685362105089
-0.00309693451934
-0.000678063823371
-0.00295924532302
-0.000670279902432
-0.00282330872072
-0.000662072487469
-0.00268919904216
-0.000653504420288
-0.00255697736817
-0.000644638972594
-0.00242669170425
-0.000635539920293
-0.00229837655955
-0.000626271154894
-0.00217205323475
-0.000616896653838
-0.00204772951631
-0.000607480010627
-0.00192540009792
-0.00059808433107
-0.00180504642535
-0.000588771726513
-0.00168663724947
-0.000579603164237
-0.00157012863402
-0.000570637962651
-0.00145546462047
-0.000561933620178
-0.00134257738977
-0.000553545343728
-0.00123138799369
-0.000545525873815
-0.00112180662072
-0.000537925073607
-0.00101373330828
-0.000530789780777
-0.000907058204465
-0.000524163516721
-0.000801662072135
-0.000518086474844
-0.000697416409166
-0.000512595621072
-0.000594183625261
-0.000507725253343
-0.000491817345077
-0.000503508298229
-0.000390165214595
-0.00049997875808
-0.000289078679434
-0.00049716777439
-0.000188466725231
-0.000494978865554
-8.88235797384e-05
-0.000490916679417
-0.000440427231548
-0.000420703267279
0.00237183759976
-0.000886694178582
0.00262832402749
-0.00135023829182
0.00261722522612
-0.00180616045408
0.00257831470292
-0.00225189733983
0.00252603925749
-0.00268525632144
0.00246216477717
-0.00310431500623
0.00238788572786
-0.00350743083743
0.00230446071341
-0.00389324526084
0.00221319935394
-0.00426067726394
0.0021154161819
-0.00460890787319
0.00201238949469
-0.00493735803066
0.00190532859637
-0.00524566233767
0.00179535012988
-0.00553364091211
0.00168346314799
-0.00580127128284
0.00157056203801
-0.00604866171103
0.00145742595312
-0.00627602698504
0.00134472331554
-0.0064836671782
0.00123301989368
-0.0066719497024
0.00112278913782
-0.0068412945
0.00101442361443
-0.00699216230388
0.000908246623944
-0.0071250454522
0.000804523317952
-0.00724046105267
0.000703470809156
-0.00733894583687
0.000605267013637
-0.00742105253782
0.000510058025977
-0.0074873471157
0.000417964082497
-0.00753840680291
0.000329084104851
-0.0075748183485
0.000243499085804
-0.00759717661504
0.000161274389497
-0.00760608298508
8.24613232087e-05
-0.00760214401429
7.09815912455e-06
-0.00758596925519
-6.47900842289e-05
-0.00755816998386
-0.000133189636712
-0.00751935698178
-0.000198099342814
-0.00747013868884
-0.000259529869647
-0.00741111902869
-0.000317503533317
-0.00734289551378
-0.000372054016506
-0.00726605713104
-0.000423225852579
-0.00718118259424
-0.00047107392102
-0.00708883844097
-0.000515662690513
-0.00698957755923
-0.000557065491097
-0.00688393760681
-0.000595363559668
-0.00677243989527
-0.000630645150906
-0.00665558819807
-0.000663004463071
-0.00653386803132
-0.000692540667583
-0.00640774587572
-0.000719356800135
-0.00627766885634
-0.000743558788536
-0.00614406437045
-0.000765254388498
-0.0060073401395
-0.000784552281331
-0.00586788420804
-0.000801561124993
-0.00572606531583
-0.000816388784933
-0.00558223320977
-0.000829141562786
-0.00543671926212
-0.000839923615332
-0.00528983701425
-0.000848836413034
-0.00514188294548
-0.000855978388844
-0.00499313714928
-0.00086144466204
-0.00484386414228
-0.000865326936926
-0.0046943135646
-0.000867713498643
-0.00454472091626
-0.000868689349857
-0.00439530817844
-0.000868336450579
-0.00424628438133
-0.000866734043636
-0.00409784606746
-0.000863959074553
-0.00395017762646
-0.000860086624297
-0.00380345156075
-0.000855190419566
-0.00365782856815
-0.000849343274588
-0.00351345761574
-0.00084261759398
-0.00337047579598
-0.000835085727648
-0.00322900825573
-0.00082682038187
-0.00308916788913
-0.000817894814773
-0.00295105519621
-0.000808383100396
-0.00281475789482
-0.000798360126712
-0.00268035079164
-0.000787901694744
-0.00254789539789
-0.000777084319353
-0.00241743988652
-0.00076598517856
-0.00228901878222
-0.000754681746676
-0.00216265305736
-0.000743251631938
-0.00203834994538
-0.00073177208964
-0.00191610320312
-0.00072031979392
-0.00179589307301
-0.00070897028304
-0.0016776867141
-0.000697797708927
-0.001561438318
-0.000686874262388
-0.00144708968916
-0.000676269935237
-0.00133457049877
-0.000666051966371
-0.00122379897435
-0.000656284644389
-0.00111468225215
-0.000647028815741
-0.00100711711846
-0.000638341763207
-0.00090099041399
-0.000630276847302
-0.000796179803518
-0.000622883561105
-0.000692554264368
-0.000616207444476
-0.000589975123332
-0.000610290611936
-0.000488297676967
-0.000605172272019
-0.000387374145784
-0.000600888963743
-0.000287061740747
-0.000597466683639
-0.00018726313508
-0.00059476461636
-8.84168291312e-05
-0.000589750147463
-0.000528837500784
-0.000433308858174
0.00280516318063
-0.000913030534117
0.00310806370818
-0.00138984686364
0.00309405938034
-0.00185826687407
0.00304675271713
-0.0023155201711
0.00298331055033
-0.00275925668155
0.00290591937795
-0.00318744835226
0.00281609554341
-0.0035983984416
0.0027154290422
-0.00399074187549
0.00260556110039
-0.00436343200683
0.00248812472726
-0.00471571687629
0.00236469285084
-0.00504710813677
0.00223673844198
-0.0053573462466
0.00210560688497
-0.00564636450858
0.00197250013941
-0.00591425455383
0.00183847085073
-0.00616123453602
0.00170442476307
-0.00638762138688
0.00157112900279
-0.00659380721255
0.00143922458426
-0.00678024026307
0.00130924102668
-0.00694740982565
0.00118161200642
-0.00709583500588
0.00105669056827
-0.00722605643983
0.000934763465757
-0.0073386307606
0.000816063737691
-0.00743412682064
0.000700781588315
-0.00751312352995
0.000589073103225
-0.00757620841354
0.000481067198012
-0.00762397687591
0.000376870613251
-0.00765703145382
0.000276571532933
-0.00767598120483
0.000180241787753
-0.00768144068383
8.79382347545e-05
-0.00767402914616
-2.96200660262e-07
-0.00765436855452
-8.44337478554e-05
-0.0076230820869
-0.000164459459527
-0.00758079249729
-0.000240372564895
-0.00752811986972
-0.000312186433588
-0.00746567945455
-0.000379928183036
-0.00739407960195
-0.000443638422019
-0.00731391960454
-0.000503370715932
-0.0072257877537
-0.000559190964723
-0.00713025941551
-0.000611176542982
-0.00702789537961
-0.000659415370682
-0.0069192402996
-0.000704004807317
-0.00680482143285
-0.000745050511702
-0.00668514751542
-0.000782665195125
-0.00656070793686
-0.000816967378848
-0.00643197207028
-0.000848080111503
-0.00629938888357
-0.000876129725064
-0.0061633867099
-0.000901244610548
-0.00602437326692
-0.00092355406014
-0.00588273582617
-0.000943187182238
-0.00573884158657
-0.000960271906765
-0.00559303817764
-0.000974934112309
-0.00544565430983
-0.00098729686384
-0.00529700052057
-0.000997479814941
-0.00514736999846
-0.00100559873416
-0.0049970394579
-0.00101176522706
-0.00484627001465
-0.00101608658185
-0.00469530806037
-0.00101866582078
-0.00454438606168
-0.00101960185614
-0.00439372331107
-0.00101898983517
-0.00424352653859
-0.00101692154843
-0.00409399044255
-0.00101348598458
-0.00394529804217
-0.00100876989131
-0.00379762093922
-0.00100285842132
-0.00365111939365
-0.000995835722382
-0.0035059423228
-0.000987785545114
-0.00336222713846
-0.000978791743398
-0.00322009954078
-0.000968938731688
-0.00307967319841
-0.000958311807021
-0.00294104942691
-0.000946997383718
-0.00280431681582
-0.000935083095109
-0.00266955089058
-0.000922657782644
-0.00253681378763
-0.000909811383536
-0.00240615398616
-0.000896634696583
-0.00227760611203
-0.000883219098797
-0.00215119079978
-0.000869656139793
-0.00202691467507
-0.000856037149108
-0.00190477037801
-0.000842452722651
-0.00178473674381
-0.00082899228415
-0.00166677899238
-0.000815743524081
-0.00155084910083
-0.000802791968685
-0.00143688614454
-0.000790220423006
-0.00132481683531
-0.000778108588938
-0.00121455598581
-0.000766532555379
-0.001106007171
-0.000755564500462
-0.000999063293925
-0.000745272276473
-0.000893607355171
-0.000735719240868
-0.000789513131659
-0.000726963997417
-0.000686646232209
-0.000719060463749
-0.000584865142177
-0.00071205777968
-0.000484022881631
-0.00070600050128
-0.000383969950224
-0.000700928278277
-0.000284559310148
-0.00069686441163
-0.00018567752007
-0.000693632812623
-8.77237099313e-05
-0.00068769040457
-0.000616554903062
-0.000448628077437
0.00325380802476
-0.000945043459173
0.00360449653812
-0.00143796127046
0.00358699510617
-0.00192148776722
0.00353029706454
-0.00239259092867
0.00345443170136
-0.00284872851913
0.00336207499442
-0.00328774940626
0.00325513456153
-0.00370790150381
0.00313559934725
-0.00410782562418
0.00300550354215
-0.00448653258205
0.00286685009329
-0.00484336765455
0.00272154644831
-0.00517796749802
0.00257135689073
-0.00549021374088
0.00241787184041
-0.00578018716281
0.0022624923361
-0.00604812492382
0.00210642747318
-0.00629438285694
0.0019507015926
-0.00651940346619
0.0017961685652
-0.0067236901291
0.00164353020138
-0.00690778697443
0.00149335684615
-0.00707226413168
0.00134610810003
-0.00721770733769
0.00120215268877
-0.00734471134546
0.00106178630874
-0.00745387606031
0.000925247221485
-0.0075458048753
0.000792729050416
-0.00762110426766
0.000664391031214
-0.00768038427415
0.000540365576746
-0.00772425913878
0.000420763694717
-0.00775334795951
0.000305678367855
-0.00776827490353
0.000195186549249
-0.00776966902854
8.93499388374e-05
-0.00775816324055
-1.17846441337e-05
-0.00773439368236
-0.000108186233352
-0.00769899771365
-0.000199838623672
-0.00765261196164
-0.000286741808627
-0.00759587022734
-0.00036891195272
-0.0075294012088
-0.000446381300914
-0.00745382617681
-0.000519197865118
-0.0073697567187
-0.000587424911481
-0.00727779257153
-0.000651140173122
-0.00717851961803
-0.000710434889772
-0.00707250806903
-0.000765412642579
-0.00696031086152
-0.000816188069554
-0.0068424622986
-0.000862885458718
-0.00671947692278
-0.000905637281257
-0.00659184865466
-0.000944582680998
-0.00646005015819
-0.000979865957574
-0.00632453247285
-0.00101163507302
-0.0061857248502
-0.00104004019623
-0.00604403484438
-0.00106523232672
-0.00589984857446
-0.00108736199403
-0.00575353121495
-0.00110657808619
-0.00560542761528
-0.00112302678978
-0.00545586310621
-0.00113685070485
-0.00530514437889
-0.00114818810506
-0.00515356049174
-0.00115717241007
-0.00500138388133
-0.00116393182616
-0.00484887142717
-0.00116858921778
-0.00469626544576
-0.00117126214897
-0.00454379465967
-0.00117206314427
-0.00439167502987
-0.00117110009271
-0.00424011049257
-0.0011684768254
-0.00408929351739
-0.00116429378135
-0.00393940552183
-0.00115864877142
-0.00379061710176
-0.00115163775955
-0.00364308809981
-0.00114335565085
-0.00349696752499
-0.00113389702785
-0.00335239332017
-0.00112335680519
-0.00320949205058
-0.00111183078454
-0.00306837846879
-0.00109941605859
-0.00292915509138
-0.00108621130149
-0.00279191168428
-0.0010723168665
-0.00265672485436
-0.00105783479429
-0.00252365757321
-0.00104286861189
-0.00239275889054
-0.00102752309815
-0.00226406358532
-0.00101190383987
-0.00213759207135
-0.000996116828003
-0.0020133502282
-0.000980267850575
-0.00189132952921
-0.000964462002483
-0.00177150707002
-0.000948802995956
-0.00165384591644
-0.000933392657159
-0.00153829532316
-0.000918330223377
-0.00142479127628
-0.000903711882017
-0.0013132568785
-0.000889630109142
-0.0012036030498
-0.000876173290523
-0.00109572905034
-0.000863425146023
-0.000989523312943
-0.000851464461368
-0.000884864104586
-0.000840364640725
-0.000781620542845
-0.000830193580872
-0.000679653465511
-0.000821013336344
-0.000578816772497
-0.000812880178177
-0.000478959045391
-0.000805844287981
-0.000379925014142
-0.000799948479778
-0.000281559162639
-0.000795216149802
-0.000183735002744
-0.000791443625971
-8.68244210132e-05
-0.000784587676107
-0.000703372478401
-0.000466999952241
0.00372082452112
-0.000983414893406
0.00412092935913
-0.00149557053595
0.00409916838184
-0.00199706587434
0.0040318102625
-0.00248454334974
0.00394192703173
-0.00295522876251
0.00383277838661
-0.0034068318513
0.00370675570513
-0.0038375498862
0.00356633556175
-0.00424605153114
0.00341402346606
-0.00463143940979
0.00325225638478
-0.00499319825287
0.00308332380428
-0.00533113517838
0.00290931246022
-0.00564531832376
0.002732073716
-0.00593601817247
0.00255321103023
-0.00620365504742
0.00237408325513
-0.00644875425191
0.00219581979257
-0.00667190985478
0.00201934319233
-0.00687375659848
0.00184539602266
-0.00705494955079
0.00167456886603
-0.00721615010926
0.00150732773815
-0.00735801755897
0.00134403916565
-0.00748120466551
0.00118499240935
-0.00758635656334
0.00103041801656
-0.00767411159411
0.00088050289848
-0.00774510356226
0.000735401675582
-0.00779996433303
0.000595244897043
-0.00783932651024
0.000460144237873
-0.00786382546113
0.000330195513303
-0.00787410073387
0.000205479793689
-0.00787079647093
8.60634347307e-05
-0.00785456079309
-2.80028222573e-05
-0.00782604553832
-0.000136684240455
-0.0077859039669
-0.000239963237264
-0.00773478876984
-0.000337840329608
-0.00767334977721
-0.000430334581303
-0.00760223139768
-0.000517483621026