/*--------------------------------*- C++ -*----------------------------------*\
| =========                 |                                                 |
| \\      /  F ield         | OpenFOAM: The Open Source CFD Toolbox           |
|  \\    /   O peration     | Version:  v1906                                 |
|   \\  /    A nd           | Web:      www.OpenFOAM.com                      |
|    \\/     M anipulation  |                                                 |
\*---------------------------------------------------------------------------*/
FoamFile
{
    version     2.0;
    format      ascii;
    class       volVectorField;
    location    "145";
    object      Ua;
}
// * * * * * * * * * * * * * * * * * * * * * * * * * * * * * * * * * * * * * //

dimensions      [0 1 -1 0 0 0 0];


internalField   nonuniform List<vector> 
9216
(
(-0.0104085922834 0.0104050294898 0)
(-0.0109900912629 0.0335842722954 4.09376218097e-27)
(-0.0109961362526 0.0571370492209 -7.09105263687e-31)
(-0.0109089971503 0.0807247746142 0)
(-0.0107824485683 0.103960696115 0)
(-0.0106215993929 0.126759678129 0)
(-0.0104290914663 0.14902962319 0)
(-0.010209341168 0.170685598412 0)
(-0.00996293172309 0.19165164004 0)
(-0.00969420858137 0.211859087171 0)
(-0.0094035048147 0.231248223655 0)
(-0.00909540277412 0.249767092376 0)
(-0.0087700632978 0.26737253102 0)
(-0.0084321408473 0.284029180423 0)
(-0.00808159058591 0.299709848997 0)
(-0.00772295124572 0.314394728949 0)
(-0.00735591545697 0.328071097966 0)
(-0.00698475267543 0.340732874641 0)
(-0.00660892777199 0.352379783698 0)
(-0.00623236292937 0.363017290279 0)
(-0.00585434455019 0.372655343878 0)
(-0.00547838582239 0.381308714123 0)
(-0.0051036831805 0.388995405826 0)
(-0.00473332099752 0.395737398742 0)
(-0.00436649308402 0.401558806911 0)
(-0.00400585590469 0.406486992825 0)
(-0.00365067836011 0.410550559913 0)
(-0.00330317695696 0.413780701031 0)
(-0.00296278215047 0.416209079761 0)
(-0.00263124231046 0.417869514323 0)
(-0.00230819865883 0.418795509262 0)
(-0.00199487789548 0.419022466255 0)
(-0.00169102515094 0.418584786484 0)
(-0.00139738676466 0.417517918989 0)
(-0.0011140967722 0.415856226385 0)
(-0.000841329924687 0.413634984457 0)
(-0.000579461583439 0.410887624705 0)
(-0.000328099702711 0.407648347707 0)
(-8.79308880679e-05 0.403949071922 0)
(0.000142010336084 0.399822258062 0)
(0.000360690707532 0.395297810588 0)
(0.000569665193418 0.390405988873 0)
(0.000767543194797 0.385174226577 0)
(0.00095641040899 0.379630210897 0)
(0.00113448960323 0.373798768355 0)
(0.00130438406332 0.367704780824 0)
(0.0014639174783 0.361370336014 0)
(0.00161617348469 0.354817477445 0)
(0.00175856439172 0.34806558952 0)
(0.0018945737176 0.341133953257 0)
(0.00202123330107 0.334039420045 0)
(0.0021423519908 0.326798702877 0)
(0.0022546026029 0.319426420212 0)
(0.00236204606109 0.311936997499 0)
(0.00246104329827 0.304343161633 0)
(0.00255582163843 0.296657417333 0)
(0.00264249820304 0.288891014074 0)
(0.00272537425593 0.28105488781 0)
(0.00280039416118 0.273159226495 0)
(0.00287187437722 0.265213818403 0)
(0.00293569622894 0.257228096483 0)
(0.00299609642283 0.24921101275 0)
(0.00304897767931 0.241171552017 0)
(0.0030984480267 0.233118086112 0)
(0.00314054937851 0.22505934053 0)
(0.00317920553136 0.217003253229 0)
(0.00321065252609 0.208958344835 0)
(0.00323860171557 0.200932189867 0)
(0.0032596029657 0.192933119325 0)
(0.00327712003587 0.18496823111 0)
(0.00328807585749 0.177045445075 0)
(0.00329564777199 0.169171281664 0)
(0.00329716346837 0.161353057624 0)
(0.00329552492884 0.153596511509 0)
(0.00328849850711 0.145908062083 0)
(0.00327867957639 0.138292422107 0)
(0.00326426467108 0.130754862008 0)
(0.00324755382123 0.123298849993 0)
(0.003227150273 0.115928248085 0)
(0.00320505635845 0.10864509135 0)
(0.00318021409053 0.101451675328 0)
(0.00315430223982 0.0943485687473 0)
(0.00312652760198 0.0873365566578 0)
(0.00309815978832 0.0804149649335 0)
(0.00306845409278 0.0735835620978 0)
(0.00303801038493 0.0668414167583 0)
(0.00300544101418 0.0601890332566 0)
(0.00296935552157 0.0536288362522 0)
(0.00292511470179 0.0471681253968 0)
(0.00286480979333 0.0408281765729 0)
(0.00276656032026 0.0346556052164 0)
(0.00256155690223 0.0287884829895 0)
(0.0021950729877 0.0226254184182 0)
(0.00241519070078 0.0180663128862 0)
(0.00366688127604 0.0131535846935 0)
(0.00540232004223 0.00540605001694 0)
(-0.0336858413026 0.011060743895 0)
(-0.0372532206967 0.03748130977 0)
(-0.0371999831885 0.0638468539221 -4.2974985915e-27)
(-0.0367488011468 0.0902762087014 0)
(-0.0361168919517 0.116277048062 0)
(-0.0353315745121 0.141775318091 0)
(-0.0344037552308 0.166673435709 0)
(-0.0333483278969 0.190878457569 0)
(-0.0321753492649 0.214305598542 0)
(-0.0309009874117 0.236878526852 0)
(-0.0295357284752 0.258530412873 0)
(-0.028096434237 0.279203618639 0)
(-0.0265932774333 0.298850110936 0)
(-0.0250428105591 0.317430951035 0)
(-0.0234541677815 0.334916241073 0)
(-0.0218427361872 0.351284412204 0)
(-0.0202161052092 0.366521932043 0)
(-0.0185879597406 0.380622575126 0)
(-0.0169641493293 0.393586845408 0)
(-0.015356376803 0.405421334657 0)
(-0.0137687907462 0.416137915711 0)
(-0.0122110971949 0.425753469164 0)
(-0.0106859714049 0.434288800099 0)
(-0.00920123364688 0.44176868457 0)
(-0.00775838923223 0.448220730795 0)
(-0.00636353480727 0.453675593008 0)
(-0.00501730591928 0.458165799273 0)
(-0.00372424217326 0.461726247178 0)
(-0.00248436568131 0.464392799654 0)
(-0.00130077367345 0.466203070142 0)
(-0.000173102211993 0.467195073313 0)
(0.000896949909459 0.467407796163 0)
(0.00191007377279 0.466880107685 0)
(0.00286587375826 0.465651776026 0)
(0.00376502682746 0.463761683139 0)
(0.0046083705434 0.461248912989 0)
(0.00539660193376 0.458151378098 0)
(0.00613171199297 0.454506842891 0)
(0.00681420575115 0.450351511559 0)
(0.00744716995005 0.445721175346 0)
(0.00803080076012 0.440649711497 0)
(0.00856918705425 0.435170339391 0)
(0.00906208743625 0.42931425883 0)
(0.00951444503338 0.423111808759 0)
(0.00992547739566 0.416591144716 0)
(0.010300890971 0.409779535607 0)
(0.0106392768795 0.402701941708 0)
(0.0109469359814 0.395382462494 0)
(0.0112217264524 0.387843048975 0)
(0.0114704348519 0.380104702826 0)
(0.0116901987736 0.372186481724 0)
(0.0118880680087 0.364106553953 0)
(0.0120604567409 0.355881404034 0)
(0.012214590639 0.347526712667 0)
(0.0123461823562 0.339056775679 0)
(0.0124624677916 0.330485210982 0)
(0.0125585792425 0.321824578676 0)
(0.0126416371876 0.313086870395 0)
(0.0127063127501 0.304283370314 0)
(0.0127595361646 0.295424824159 0)
(0.012795686941 0.286521663356 0)
(0.0128214201303 0.277583854625 0)
(0.0128310121962 0.268621238984 0)
(0.0128308079337 0.259643259546 0)
(0.0128151717057 0.250659349486 0)
(0.0127901106455 0.241678718275 0)
(0.0127502623865 0.232710503466 0)
(0.0127012854108 0.223763487172 0)
(0.0126382929809 0.214846629967 0)
(0.0125665989797 0.205968206339 0)
(0.0124819277633 0.197136781548 0)
(0.0123892445441 0.188360029598 0)
(0.0122849170321 0.179645786579 0)
(0.0121736155141 0.171000901001 0)
(0.0120524652631 0.162432206162 0)
(0.011925732782 0.153945401226 0)
(0.0117912804389 0.145546036187 0)
(0.0116530485261 0.137238414472 0)
(0.0115095484104 0.129026471773 0)
(0.0113643636035 0.120912910521 0)
(0.0112165555532 0.11289991719 0)
(0.0110691334943 0.10498831465 0)
(0.0109214962161 0.0971786757115 0)
(0.0107759178842 0.0894701826607 0)
(0.0106315566301 0.081861914722 0)
(0.0104892029606 0.0743520516002 0)
(0.0103460598147 0.0669390181305 0)
(0.0101982814581 0.059621521784 0)
(0.0100352443951 0.0523987572075 0)
(0.00983839643293 0.0452719439684 0)
(0.00956287330018 0.0382454099787 0)
(0.00910818769181 0.0313307312022 0)
(0.00829855072138 0.024088173034 0)
(0.008308380148 0.0169393689804 0)
(0.0112332465906 0.0112037164296 0)
(0.0131238593836 0.00365927683521 0)
(-0.0576494173247 0.0111976880534 0)
(-0.0638499227734 0.0380643839259 0)
(-0.0636908329807 0.0647389742373 -4.30118614633e-27)
(-0.0629078036339 0.0915298647418 0)
(-0.0618413580975 0.117882944906 0)
(-0.0605239743628 0.143719368108 0)
(-0.0589724572869 0.168937925985 0)
(-0.0572069917379 0.193443814902 0)
(-0.055247143406 0.217150618101 0)
(-0.0531159987208 0.239981029743 0)
(-0.0508347388659 0.261867443354 0)
(-0.0484273659874 0.282751968637 0)
(-0.0459148943506 0.302586560432 0)
(-0.0433205457964 0.321332684985 0)
(-0.0406637364258 0.338961006193 0)
(-0.0379656071409 0.355450894721 0)
(-0.0352430444054 0.370789766484 0)
(-0.0325143534451 0.384972584573 0)
(-0.0297934347061 0.39800096583 0)
(-0.0270954208449 0.409882741704 0)
(-0.0244312221764 0.420631055373 0)
(-0.0218129080451 0.430263909429 0)
(-0.019248688015 0.438803362671 0)
(-0.0167478946896 0.44627518631 0)
(-0.0143164636152 0.452708126911 0)
(-0.0119613583591 0.458133683177 0)
(-0.00968665269473 0.462585500968 0)
(-0.00749725774704 0.466099088494 0)
(-0.00539574546066 0.468711338514 0)
(-0.00338526117535 0.470460548976 0)
(-0.00146711354933 0.471385565667 0)
(0.000357175651884 0.471526168026 0)
(0.00208735337512 0.470922111909 0)
(0.00372330057321 0.469613501621 0)
(0.00526564567189 0.46764006519 0)
(0.00671563739384 0.465041206921 0)
(0.00807461581427 0.461855653568 0)
(0.00934497181374 0.458121488572 0)
(0.0105285645688 0.453875626991 0)
(0.011628821321 0.449154078574 0)
(0.0126479546228 0.443991377422 0)
(0.0135902006515 0.438420907458 0)
(0.0144578939244 0.432474383713 0)
(0.0152558837546 0.426182195924 0)
(0.0159865273766 0.419572997397 0)
(0.0166551211094 0.412673897219 0)
(0.0172637584075 0.40551030792 0)
(0.0178179744969 0.398106235789 0)
(0.018319472692 0.390483816179 0)
(0.0187738223282 0.382663838292 0)
(0.0191822154551 0.374665582971 0)
(0.019550080974 0.366506983672 0)
(0.0198779912149 0.358204505048 0)
(0.020171073044 0.349773661629 0)
(0.0204292316562 0.34122872453 0)
(0.020657226492 0.332583107847 0)
(0.0208543257065 0.323849302185 0)
(0.0210248215662 0.3150391115 0)
(0.0211674113263 0.306163714841 0)
(0.0212859302067 0.29723379446 0)
(0.0213786138625 0.28825964304 0)
(0.021448884561 0.279251192878 0)
(0.0214947026955 0.270218193079 0)
(0.0215191563096 0.261170122916 0)
(0.0215200861948 0.25211642034 0)
(0.0215003431739 0.243066308039 0)
(0.02145789268 0.234028968702 0)
(0.0213954596557 0.225013343496 0)
(0.0213112943485 0.216028383739 0)
(0.0212081027131 0.207082684064 0)
(0.0210845545854 0.198184674859 0)
(0.0209434232808 0.189342536879 0)
(0.0207839307447 0.180564058236 0)
(0.0206089466962 0.171856345432 0)
(0.0204182843777 0.163226425731 0)
(0.0202149387925 0.15468025405 0)
(0.0199992899774 0.146223357574 0)
(0.0197744310172 0.137860313498 0)
(0.0195412341839 0.129595063015 0)
(0.0193027434947 0.121430264664 0)
(0.0190602311154 0.113368334776 0)
(0.0188165331513 0.105409988732 0)
(0.0185729315447 0.097555483678 0)
(0.018331707591 0.0898037825695 0)
(0.0180935544502 0.0821530746876 0)
(0.0178592866578 0.0746003494784 0)
(0.017627293531 0.0671417419465 0)
(0.0173943165186 0.0597715673776 0)
(0.0171519781598 0.0524809638408 0)
(0.016885908514 0.0452528875304 0)
(0.0165714624082 0.0380618636945 0)
(0.0161611205069 0.0308365584318 0)
(0.0155935294788 0.0233061824193 0)
(0.0154557269461 0.0153798784456 0)
(0.0168818542323 0.00822502715966 0)
(0.017930063017 0.00239798739058 0)
(-0.0821446584264 0.011311429405 0)
(-0.0910509609442 0.0385913061745 0)
(-0.0908163355408 0.0655760256561 4.29918605088e-27)
(-0.0896856867529 0.092699371113 0)
(-0.0881490543131 0.119371523915 0)
(-0.0862532064962 0.145509241912 0)
(-0.084023257545 0.171007442488 0)
(-0.081487012288 0.195768724191 0)
(-0.0786739832472 0.21970483298 0)
(-0.075616179115 0.242737336699 0)
(-0.0723456704145 0.264798073946 0)
(-0.0688956472761 0.285829216468 0)
(-0.0652979689013 0.305783213085 0)
(-0.0615844953735 0.324622488417 0)
(-0.0577847165934 0.342318979552 0)
(-0.0539273293426 0.358853564426 0)
(-0.0500380768975 0.374215437359 0)
(-0.0461414638624 0.38840136141 0)
(-0.0422588049115 0.401414901943 0)
(-0.0384100513752 0.41326572588 0)
(-0.0346120844697 0.423968819604 0)
(-0.0308805184118 0.433543866071 0)
(-0.0272282214311 0.44201458244 0)
(-0.0236670241583 0.449408119526 0)
(-0.0202064358879 0.45575467228 0)
(-0.0168550886745 0.46108690399 0)
(-0.0136196692943 0.465439560157 0)
(-0.0105061312825 0.468849218936 0)
(-0.0075188907788 0.471353781984 0)
(-0.00466161360629 0.472992349288 0)
(-0.00193669230563 0.473804791555 0)
(0.000654225250703 0.473831480271 0)
(0.00311049009216 0.47311309916 0)
(0.00543222793222 0.47169031994 0)
(0.00762032628624 0.469603553253 0)
(0.00967655244142 0.466892829358 0)
(0.011603058256 0.463597439108 0)
(0.013402971832 0.459755953663 0)
(0.0150795017731 0.455405714806 0)
(0.0166369038206 0.450583099584 0)
(0.0180791948101 0.445323060085 0)
(0.0194114757424 0.43965916011 0)
(0.0206383215842 0.43362353228 0)
(0.0217654000524 0.427246483695 0)
(0.0227975405268 0.42055679589 0)
(0.0237407415774 0.413581751097 0)
(0.0245997743396 0.406346631581 0)
(0.0253806609692 0.398875337546 0)
(0.0260879298525 0.391189991293 0)
(0.0267273756755 0.383311207047 0)
(0.0273030033845 0.375258021105 0)
(0.027820189126 0.367048105485 0)
(0.0282822608222 0.358697745297 0)
(0.0286939511583 0.350222122555 0)
(0.0290577848267 0.34163510164 0)
(0.0293777728454 0.332949814638 0)
(0.029655679739 0.324178443024 0)
(0.0298947568123 0.315332466192 0)
(0.0300959693931 0.306422774818 0)
(0.0302618672452 0.297459788109 0)
(0.0303927814211 0.288453551399 0)
(0.0304906731266 0.27941381474 0)
(0.0305554163788 0.270350148828 0)
(0.0305885677472 0.261271937531 0)
(0.0305897051263 0.252188518158 0)
(0.0305601947991 0.243109185932 0)
(0.0304996910774 0.234043064192 0)
(0.0304095444771 0.224999192048 0)
(0.0302895756687 0.215986591169 0)
(0.0301413461884 0.207014039602 0)
(0.0299650866894 0.198090148961 0)
(0.0297626271942 0.189223228842 0)
(0.0295347801161 0.18042123632 0)
(0.02928383589 0.17169177743 0)
(0.0290111897267 0.163041772635 0)
(0.0287195872942 0.154477550245 0)
(0.0284110131545 0.146004789784 0)
(0.0280885777991 0.137628309735 0)
(0.0277547946398 0.129352106163 0)
(0.0274129746162 0.121179159826 0)
(0.027065915148 0.113111499812 0)
(0.0267170522259 0.105150057108 0)
(0.0263690752499 0.0972945966386 0)
(0.0260250172568 0.0895440452098 0)
(0.0256869913546 0.0818955685482 0)
(0.0253569494697 0.0743455809093 0)
(0.025035352886 0.0668882789188 0)
(0.0247213407921 0.0595149031428 0)
(0.024412550792 0.0522136780061 0)
(0.0241039773738 0.0449620483689 0)
(0.0237963089919 0.0377305121564 0)
(0.0234968606303 0.0304568861193 0)
(0.0232540259436 0.0230270945034 0)
(0.0233417982292 0.0153937023634 0)
(0.0239976292679 0.00817363334409 0)
(0.0224886275085 0.00217350006126 0)
(-0.107000180766 0.0114562854471 0)
(-0.118616261627 0.0392785736073 0)
(-0.118301284679 0.0666925318113 0)
(-0.116810527953 0.0942603626057 0)
(-0.114785449968 0.121356573964 0)
(-0.11228852332 0.147893221324 0)
(-0.109353917822 0.173760623679 0)
(-0.106018494605 0.198857959089 0)
(-0.102322040067 0.223094467842 0)
(-0.0983067852306 0.246390250827 0)
(-0.0940158223342 0.268676484932 0)
(-0.0894927096213 0.289895480848 0)
(-0.0847800788046 0.310000506479 0)
(-0.0799194644922 0.328955364294 0)
(-0.0749501356159 0.346733824772 0)
(-0.0699092467838 0.363319008379 0)
(-0.0648309071319 0.378702546934 0)
(-0.0597465323802 0.392883788738 0)
(-0.054684218737 0.405868946109 0)
(-0.0496692781364 0.417670264475 0)
(-0.0447238379329 0.428305256397 0)
(-0.0398674900451 0.43779588555 0)
(-0.0351170509556 0.446168031033 0)
(-0.0304872335215 0.4534508871 0)
(-0.0259904446664 0.459676366283 0)
(-0.0216372968609 0.464878804655 0)
(-0.0174365678249 0.469094365985 0)
(-0.0133955840776 0.472361073916 0)
(-0.00952010934093 0.474718046588 0)
(-0.00581462093024 0.476205579672 0)
(-0.00228223750741 0.476864626577 0)
(0.00107508892399 0.476736691161 0)
(0.00425654812474 0.475863392631 0)
(0.00726245962746 0.474286372835 0)
(0.010094077644 0.4720468248 0)
(0.012753694702 0.469185604553 0)
(0.015244317595 0.465742764332 0)
(0.0175699484521 0.461757454476 0)
(0.0197350727826 0.457267806582 0)
(0.0217450255307 0.452310498799 0)
(0.0236054707117 0.446921152773 0)
(0.0253227460132 0.441133399162 0)
(0.0269033231387 0.434979778622 0)
(0.0283542366246 0.428490779116 0)
(0.0296822842231 0.421695412307 0)
(0.030894810617 0.414620855453 0)
(0.031998738641 0.407292513205 0)
(0.0330013299112 0.399734157311 0)
(0.0339092147103 0.391967610412 0)
(0.0347292557418 0.38401329559 0)
(0.0354674877548 0.375889953225 0)
(0.0361301366976 0.367614890204 0)
(0.0367223883435 0.359204026398 0)
(0.0372495832873 0.350672021232 0)
(0.0377159088637 0.342032513698 0)
(0.0381256314697 0.333297961843 0)
(0.0384819379315 0.324480195054 0)
(0.0387880975288 0.315590228383 0)
(0.0390462304687 0.306638548579 0)
(0.0392586543754 0.29763520159 0)
(0.0394266755148 0.288589902977 0)
(0.0395518224026 0.27951212447 0)
(0.0396347765588 0.270411218031 0)
(0.0396764898733 0.261296406837 0)
(0.0396772020497 0.252177006306 0)
(0.0396378780918 0.243062292229 0)
(0.0395587981619 0.233961194689 0)
(0.0394407555499 0.22488299196 0)
(0.0392841888566 0.21583679695 0)
(0.0390903642478 0.206831608086 0)
(0.0388602169057 0.197876277247 0)
(0.0385953869776 0.188979404714 0)
(0.0382975212504 0.18014930083 0)
(0.037969047754 0.171393768469 0)
(0.0376123196729 0.162720082724 0)
(0.0372303564019 0.154134836608 0)
(0.0368262390013 0.145644049142 0)
(0.0364036845968 0.137252793724 0)
(0.0359663821988 0.12896521279 0)
(0.0355184156048 0.120784458259 0)
(0.0350638722811 0.112712605587 0)
(0.0346070953913 0.104750560082 0)
(0.0341521883456 0.0968981953356 0)
(0.0337032544807 0.0891538094979 0)
(0.0332640106532 0.0815144638739 0)
(0.0328378511591 0.0739755172981 0)
(0.0324277236474 0.0665305344686 0)
(0.0320357950535 0.0591703701592 0)
(0.0316645101883 0.0518814845408 0)
(0.031319159419 0.0446475176337 0)
(0.0310084539952 0.0374401907142 0)
(0.0307603040881 0.0302341981091 0)
(0.0306305632684 0.0229990142172 0)
(0.0307490210863 0.015764283695 0)
(0.0310656039164 0.00884997425788 0)
(0.0284686767034 0.00250461089386 0)
(-0.132342682107 0.0116361491603 0)
(-0.146706241594 0.0401522261131 0)
(-0.146300607355 0.0681205992038 0)
(-0.14443001978 0.0962585449045 0)
(-0.141890185166 0.123896866901 0)
(-0.138760360911 0.150942084141 0)
(-0.135084750879 0.177279027891 0)
(-0.130910565576 0.202802579189 0)
(-0.126288828915 0.227418987413 0)
(-0.121273203664 0.251046509928 0)
(-0.115918538722 0.273615639979 0)
(-0.110279825705 0.295069004548 0)
(-0.104410950762 0.315361087169 0)
(-0.0983639343773 0.33445757456 0)
(-0.0921880887875 0.352334818378 0)
(-0.085929577304 0.368978888883 0)
(-0.0796308438349 0.384384690272 0)
(-0.0733305516941 0.398554995144 0)
(-0.0670633300089 0.411499498257 0)
(-0.0608599705603 0.423233780671 0)
(-0.054747472629 0.433778570306 0)
(-0.0487494186308 0.443158864083 0)
(-0.042886169235 0.451403248664 0)
(-0.0371752675722 0.45854343555 0)
(-0.0316316091544 0.464613521557 0)
(-0.0262678184492 0.469649773102 0)
(-0.0210944630914 0.473690379346 0)
(-0.0161202328686 0.476774828519 0)
(-0.0113520502311 0.478943958836 0)
(-0.00679520001892 0.480239478621 0)
(-0.00245340227578 0.480703731279 0)
(0.00167111785518 0.480379592147 0)
(0.00557752065611 0.479309799836 0)
(0.00926632087976 0.477537168503 0)
(0.0127392366236 0.475104082922 0)
(0.0159991645511 0.472052338045 0)
(0.0190500271003 0.468422993689 0)
(0.0218967971514 0.464255903812 0)
(0.0245452734649 0.459590094381 0)
(0.0270020810633 0.454462731965 0)
(0.0292744688943 0.448910024716 0)
(0.0313702919545 0.442966158074 0)
(0.0332977446616 0.436663907815 0)
(0.0350654971369 0.43003414099 0)
(0.0366823012154 0.423106034759 0)
(0.0381571457784 0.41590665475 0)
(0.0394988649324 0.408461455508 0)
(0.04071635802 0.40079396984 0)
(0.0418181567005 0.392925931115 0)
(0.0428126002374 0.384877441334 0)
(0.0437074557235 0.376666702325 0)
(0.0445101849036 0.368310638102 0)
(0.0452275154702 0.359824644286 0)
(0.045865790366 0.351222826955 0)
(0.0464304817186 0.342518257816 0)
(0.0469265753274 0.333722784082 0)
(0.0473581957945 0.324847668441 0)
(0.0477290410045 0.315903333133 0)
(0.0480419601653 0.306899823598 0)
(0.0482993851838 0.297846543105 0)
(0.0485031772331 0.288752947351 0)
(0.0486546476595 0.279628010867 0)
(0.0487547249834 0.270480773546 0)
(0.0488044763908 0.261320856443 0)
(0.0488042165479 0.25215655007 0)
(0.0487547149196 0.242997305726 0)
(0.0486563646079 0.233852194668 0)
(0.0485097645532 0.224730809405 0)
(0.0483155914311 0.215642238439 0)
(0.0480750753014 0.206595818889 0)
(0.0477894843958 0.197600755052 0)
(0.0474605736502 0.188666006906 0)
(0.0470904848499 0.179800076506 0)
(0.046681977564 0.171011289056 0)
(0.046238227064 0.162307517924 0)
(0.0457628135898 0.153695641143 0)
(0.0452596324264 0.145181941292 0)
(0.0447331632877 0.136771777621 0)
(0.0441883057876 0.128469814489 0)
(0.0436301310648 0.120279357269 0)
(0.0430638556776 0.11220248618 0)
(0.0424950657219 0.104240402282 0)
(0.041929141279 0.096392627609 0)
(0.0413715588631 0.0886574345688 0)
(0.040827663546 0.0810317210457 0)
(0.0403026345756 0.0735106331712 0)
(0.0398013163666 0.0660872624117 0)
(0.0393287333769 0.0587530800584 0)
(0.0388906449099 0.0514954016058 0)
(0.0384984347352 0.0443028285581 0)
(0.0381622534901 0.0371552162704 0)
(0.0379029003322 0.0300392678146 0)
(0.0377591349392 0.0229556383431 0)
(0.0377710317514 0.0159323962374 0)
(0.0377444828719 0.00915620541504 0)
(0.0341115398545 0.0026727831889 0)
(-0.158291663565 0.0118556136627 0)
(-0.175457913823 0.0412279545843 0)
(-0.174947031455 0.0698812162519 4.32253601765e-27)
(-0.172669988561 0.0987222366934 0)
(-0.169580826241 0.127027563221 0)
(-0.165776836476 0.154696882384 0)
(-0.161313505215 0.181608358597 0)
(-0.15624988511 0.207651765952 0)
(-0.150649545601 0.232729772989 0)
(-0.144578966845 0.256758595784 0)
(-0.138105901456 0.279668092029 0)
(-0.131297897974 0.301401551391 0)
(-0.124220899163 0.321915096146 0)
(-0.116938279828 0.341177123765 0)
(-0.109509867021 0.359167305688 0)
(-0.101991300797 0.375875593653 0)
(-0.0944335460179 0.391301113776 0)
(-0.0868826630791 0.40545105405 0)
(-0.0793796806558 0.418339430549 0)
(-0.0719608016683 0.429986145191 0)
(-0.0646575995928 0.440415903851 0)
(-0.0574974097156 0.449657371617 0)
(-0.0505037758299 0.457742502473 0)
(-0.0436967887357 0.464705919686 0)
(-0.0370935123134 0.470584328852 0)
(-0.030708463354 0.475416406881 0)
(-0.0245537517013 0.479242420464 0)
(-0.0186393270457 0.482103908874 0)
(-0.012973144473 0.484043517086 0)
(-0.00756122180604 0.485104681416 0)
(-0.00240774808391 0.485331465162 0)
(0.00248484736452 0.484768170773 0)
(0.00711575042 0.483459148569 0)
(0.0114857295207 0.481448580216 0)
(0.0155970430707 0.478780164677 0)
(0.0194533378028 0.475496978589 0)
(0.0230595185652 0.471641083616 0)
(0.026421674332 0.467253486505 0)
(0.0295469692876 0.462373912439 0)
(0.0324434819245 0.457040514195 0)
(0.035120020328 0.451290023517 0)
(0.0375861387362 0.445157332555 0)
(0.0398518900549 0.438675644098 0)
(0.0419277358227 0.431875983032 0)
(0.0438243648797 0.424787710004 0)
(0.0455526437181 0.417438071935 0)
(0.0471233852575 0.409852475478 0)
(0.0485472748505 0.402054096315 0)
(0.0498346966217 0.394064470789 0)
(0.0509956926126 0.385903203634 0)
(0.0520397431337 0.377588147497 0)
(0.0529757681274 0.369135658281 0)
(0.0538119346223 0.36056032426 0)
(0.0545557311193 0.351875643051 0)
(0.0552138262799 0.343093950879 0)
(0.0557920349554 0.334226329244 0)
(0.0562953260866 0.325283407431 0)
(0.0567279134159 0.316274706229 0)
(0.0570931807178 0.30720971588 0)
(0.0573936762693 0.298097258891 0)
(0.0576314208897 0.288946072162 0)
(0.0578081615486 0.279765656395 0)
(0.0579246773366 0.270563399114 0)
(0.0579819148037 0.261348730992 0)
(0.0579802789768 0.252130249432 0)
(0.0579200495416 0.24291708483 0)
(0.0578017670441 0.233718927064 0)
(0.0576258506701 0.224545028073 0)
(0.0573929568346 0.215404779849 0)
(0.0571043572727 0.206308047019 0)
(0.0567614614841 0.197264343938 0)
(0.0563662796709 0.188283119298 0)
(0.0559213874293 0.179373401719 0)
(0.0554298830512 0.170544061744 0)
(0.0548954153013 0.161803023432 0)
(0.0543224891326 0.153158303459 0)
(0.053715847587 0.14461642927 0)
(0.0530808950316 0.136183335281 0)
(0.0524233985376 0.127863617745 0)
(0.0517497152413 0.1196612858 0)
(0.051066316674 0.111578527457 0)
(0.0503800300488 0.103616612315 0)
(0.049697777203 0.0957752760418 0)
(0.0490263476939 0.0880525921898 0)
(0.0483726748262 0.080445401692 0)
(0.0477436049501 0.0729486789498 0)
(0.0471460152507 0.0655559277952 0)
(0.0465868473986 0.0582585945471 0)
(0.0460739644032 0.0510461273431 0)
(0.0456188936672 0.0439079710317 0)
(0.0452355001369 0.0368346126752 0)
(0.0449349700604 0.0298145619043 0)
(0.0447354082086 0.0228485004286 0)
(0.0446485702353 0.0159543226788 0)
(0.0444229929103 0.00925776880419 0)
(0.0399519008598 0.00273075381734 0)
(-0.184977222553 0.0121181859476 0)
(-0.205015538456 0.0425227585485 0)
(-0.204380983385 0.0719999754573 -4.32023273155e-27)
(-0.201663635368 0.101686072019 0)
(-0.197981377735 0.130791294398 0)
(-0.193451268095 0.159206904526 0)
(-0.188141774382 0.18680308232 0)
(-0.18212557868 0.213463573251 0)
(-0.175480526831 0.239086981886 0)
(-0.168287589671 0.263587354113 0)
(-0.16062888431 0.286894143475 0)
(-0.152585807656 0.308951701393 0)
(-0.144237497047 0.329718622163 0)
(-0.135659565616 0.349166800195 0)
(-0.126923006659 0.367280264162 0)
(-0.118093439049 0.384053934795 0)
(-0.109230579352 0.399492320613 0)
(-0.100387954159 0.413608055195 0)
(-0.0916129115332 0.426420688175 0)
(-0.0829468204301 0.437955329815 0)
(-0.074425440126 0.448241545817 0)
(-0.0660795033999 0.457312388256 0)
(-0.0579352392344 0.465203838531 0)
(-0.0500148877916 0.47195363118 0)
(-0.0423374295436 0.477601774439 0)
(-0.0349189320655 0.482189476269 0)
(-0.0277728611417 0.485759420529 0)
(-0.0209102947526 0.488355359542 0)
(-0.0143400607647 0.490022073046 0)
(-0.00806882141844 0.490804900045 0)
(-0.00210117192737 0.490749813711 0)
(0.00356032583047 0.489903078554 0)
(0.0089149444496 0.488310674705 0)
(0.0139638684936 0.486018533022 0)
(0.0187099693946 0.483071780026 0)
(0.0231577455194 0.47951499753 0)
(0.0273131929263 0.475391553791 0)
(0.0311836760323 0.47074367884 0)
(0.0347777910401 0.465612069516 0)
(0.0381051634945 0.46003596098 0)
(0.0411763644756 0.454052871746 0)
(0.0440027691263 0.447698216725 0)
(0.0465963872999 0.441005694978 0)
(0.0489696585605 0.434006824969 0)
(0.0511353178485 0.426731167685 0)
(0.0531062486138 0.41920588988 0)
(0.0548953320593 0.411456299111 0)
(0.0565152362151 0.403505502578 0)
(0.0579782670405 0.395374563556 0)
(0.0592963463941 0.387082705384 0)
(0.0604806508271 0.378646982398 0)
(0.061541745397 0.370083145085 0)
(0.0624892558722 0.361404939855 0)
(0.0633319354594 0.352625138888 0)
(0.064077536848 0.3437548703 0)
(0.0647328427709 0.334804700641 0)
(0.0653035470273 0.325783954727 0)
(0.065794442073 0.316701581087 0)
(0.0662090393237 0.307566117795 0)
(0.0665503452037 0.298386071255 0)
(0.0668206637773 0.289169349233 0)
(0.0670215107003 0.279923587617 0)
(0.0671538405588 0.270657220517 0)
(0.0672181263012 0.261378783439 0)
(0.0672145882817 0.252097064051 0)
(0.0671433304764 0.242821235203 0)
(0.0670044442623 0.23356020539 0)
(0.0667983973179 0.224324355334 0)
(0.066525652021 0.215122985055 0)
(0.0661873799825 0.205966427843 0)
(0.0657852126182 0.196864979727 0)
(0.0653211437115 0.187828050169 0)
(0.0647982261296 0.178865873533 0)
(0.0642199941962 0.169987710491 0)
(0.0635907061329 0.161202406963 0)
(0.0629154348798 0.152518146424 0)
(0.0621999642042 0.143942368929 0)
(0.0614505516969 0.135481230942 0)
(0.0606743184936 0.127140446256 0)
(0.0598787038984 0.118923882064 0)
(0.059071452531 0.110834143199 0)
(0.0582609086697 0.102872841222 0)
(0.0574553301738 0.0950396172844 0)
(0.0566632411343 0.0873329082038 0)
(0.0558930605356 0.0797493660845 0)
(0.0551532637966 0.0722839607002 0)
(0.0544524865752 0.0649303640188 0)
(0.0537989235698 0.0576799978351 0)
(0.053201944138 0.0505238268436 0)
(0.0526723214353 0.0434520755745 0)
(0.0522224679566 0.036457113243 0)
(0.0518634294799 0.0295321155636 0)
(0.0516001633688 0.0226711411467 0)
(0.0514248842397 0.0158753708671 0)
(0.0510671353093 0.0092494083425 0)
(0.0458424120751 0.0027439531494 0)
(-0.212541341636 0.012427547639 0)
(-0.235534658111 0.0440570832978 0)
(-0.234753428268 0.0745087885317 0)
(-0.231553614847 0.105193326742 0)
(-0.22722388974 0.135241141734 0)
(-0.221903389439 0.164533233547 0)
(-0.215675818699 0.192930324631 0)
(-0.208629744327 0.220309213607 0)
(-0.200859476535 0.246564026493 0)
(-0.192462498861 0.27160668337 0)
(-0.1835370818 0.295366610304 0)
(-0.17418005878 0.317789968018 0)
(-0.164485049827 0.33883871257 0)
(-0.1545409512 0.358489376437 0)
(-0.14443069124 0.376731547471 0)
(-0.134230410923 0.393566470952 0)
(-0.124008835275 0.409005339049 0)
(-0.113827024655 0.423067675889 0)
(-0.103738425705 0.435779727361 0)
(-0.0937891896407 0.447172956238 0)
(-0.0840187762775 0.457282716558 0)
(-0.0744607144459 0.466147354934 0)
(-0.0651432780624 0.473806992102 0)
(-0.0560904654311 0.480303566918 0)
(-0.0473226739088 0.485680098864 0)
(-0.0388572135205 0.489980816229 0)
(-0.0307086783273 0.493250931437 0)
(-0.0228891100185 0.495536678081 0)
(-0.0154080984758 0.496884980203 0)
(-0.00827290065539 0.497343566839 0)
(-0.00148846520508 0.49696052283 0)
(0.00494259790716 0.495784253397 0)
(0.0110198008071 0.493862741073 0)
(0.0167448140908 0.491243674296 0)
(0.0221212426184 0.487974209223 0)
(0.0271545631709 0.484100402782 0)
(0.0318520008192 0.47966723489 0)
(0.0362222926419 0.474718228213 0)
(0.0402755826609 0.469295450289 0)
(0.044023272791 0.463439245307 0)
(0.0474778312736 0.457187797957 0)
(0.0506526091394 0.450577542616 0)
(0.0535616721478 0.443642626883 0)
(0.0562196642554 0.436415111024 0)
(0.0586415193132 0.428924501766 0)
(0.0608423070404 0.421198300961 0)
(0.0628370680106 0.413261570744 0)
(0.0646406750666 0.405137250184 0)
(0.0662674729758 0.396845787255 0)
(0.0677313594476 0.388405781603 0)
(0.0690454423499 0.3798338497 0)