/*--------------------------------*- C++ -*----------------------------------*\
| =========                 |                                                 |
| \\      /  F ield         | OpenFOAM: The Open Source CFD Toolbox           |
|  \\    /   O peration     | Version:  v1906                                 |
|   \\  /    A nd           | Web:      www.OpenFOAM.com                      |
|    \\/     M anipulation  |                                                 |
\*---------------------------------------------------------------------------*/
FoamFile
{
    version     2.0;
    format      ascii;
    class       volScalarField;
    location    "143";
    object      p;
}
// * * * * * * * * * * * * * * * * * * * * * * * * * * * * * * * * * * * * * //

dimensions      [0 2 -2 0 0 0 0];


internalField   nonuniform List<scalar> 
9216
(
282.307092792
282.389530146
282.570008106
282.83841539
283.194955746
283.637900588
284.164856968
284.773080841
285.459343266
286.220239109
287.051981145
287.950735243
288.912369457
289.932814814
291.007773325
292.133099198
293.304468237
294.517775601
295.768770399
297.053468402
298.367755816
299.707816143
301.069706954
302.449802056
303.844343798
305.24990059
306.662898567
308.080094527
309.498089671
310.913817198
312.324041415
313.725859303
315.116187859
316.492278805
317.85119689
319.190345003
320.506940419
321.79854601
323.062548896
324.296694603
325.498572947
326.666150464
327.797269208
328.89017172
329.943017402
330.954393043
331.922850131
332.847394879
333.727047713
334.561305055
335.349721021
336.092334061
336.789268718
337.44112169
338.048581949
338.612773239
339.134891879
339.616506829
340.059217308
340.464915825
340.835469929
341.172956493
341.479371783
341.756845024
342.007378733
342.233047226
342.435766279
342.617479637
342.779954528
342.92495728
343.054071424
343.168862848
343.270716741
343.360992618
343.44087749
343.511530641
343.573951111
343.629112372
343.677842089
343.720947495
343.759108755
343.793022973
343.823171144
343.849158585
343.870669048
343.888410421
343.903033675
343.914760387
343.923686657
343.930209581
343.934756547
343.937839347
343.939903824
343.941164362
343.941803855
343.942029304
282.224658257
282.30758775
282.485271094
282.754210604
283.112335001
283.557479727
284.087105607
284.698340077
285.387925209
286.152358647
286.987846042
287.890459819
288.856074694
289.880531931
290.959554331
292.088911491
293.264313803
294.481577018
295.736497256
297.025015088
298.343074145
299.68678556
301.052272481
302.435837213
303.833794157
305.24264011
306.65887794
308.079191392
309.500261643
310.918946848
312.332092966
313.736719181
315.129824855
316.508580116
317.870131215
319.211796252
320.530871434
321.824831155
323.091137642
324.327444499
325.531411745
326.700911522
327.833850751
328.928376383
329.982707423
330.995336612
331.964871451
332.890228685
333.770483571
334.605051919
335.39354487
336.135933336
336.832404461
337.483503622
338.089989737
338.652952255
339.173664028
339.653674045
340.094660583
340.498504916
340.867150542
341.202665546
341.507113938
341.78261401
342.031225469
342.255007541
342.455922531
342.635895025
342.796729677
342.940170669
343.067831543
343.181254132
343.281847973
343.370947705
343.449760295
343.519420123
343.580942778
343.635277275
343.683264182
343.725682992
343.763210792
343.796458191
343.825903213
343.851468998
343.872794866
343.890225506
343.904449504
343.915761741
343.924512802
343.930945801
343.935326702
343.93828399
343.940304703
343.941484621
343.942049997
343.942282561
282.043123162
282.130844938
282.310546981
282.582350355
282.944281234
283.39412661
283.929258001
284.546678142
285.2430351
286.014703142
286.857804824
287.768298631
288.741993233
289.774631345
290.86189052
291.999459779
293.183025898
294.408341295
295.671197554
296.96748656
298.29316276
299.64429937
301.017042122
302.407662496
303.812505286
305.228040618
306.650806688
308.077462111
309.504725855
310.929430377
312.348459698
313.758804746
315.157500979
316.541686034
317.908538494
319.255338255
320.579407725
321.87817608
323.149124154
324.389852465
325.598031056
326.771471428
327.908082123
329.005943767
330.063270544
331.078486429
332.05019173
332.977237933
333.858696836
334.693929981
335.482556691
336.224513162
336.920013749
337.569594916
338.174066248
338.734535698
339.252348523
339.72909449
340.166537527
340.566610327
340.931342298
341.262850612
341.563274575
341.834770382
342.079456732
342.299416468
342.496654171
342.673104679
342.830600699
342.970886231
343.095592082
343.206252628
343.3042867
343.39101635
343.467652284
343.535313136
343.595014839
343.647689792
343.694177337
343.735240993
343.771557022
343.803724001
343.832209817
343.856795815
343.877236948
343.893926831
343.907199226
343.917751055
343.926178381
343.932327346
343.936383073
343.939195947
343.941048353
343.942102927
343.942666292
343.942953438
281.770555672
281.860761355
282.043714584
282.320152813
282.688102904
283.145274534
283.688913758
284.315866714
285.022626624
285.805402127
286.66016731
287.582729445
288.568771528
289.613911346
290.71373137
291.863826195
293.059818624
294.297395597
295.572312494
296.880419642
298.217657209
299.580074815
300.963819747
302.365152237
303.780428978
305.206116202
306.638770174
308.075049098
309.511692223
310.94553165
312.373471154
313.792498568
315.199665177
316.592100011
317.966990699
319.321600268
320.653250615
321.959343295
323.237346978
324.484822179
325.699413602
326.878880178
328.021093047
329.124069858
330.185978146
331.205173247
332.180206006
333.109862108
333.993171069
334.829443265
335.618275609
336.359580612
337.053582907
337.70083349
338.302191923
338.858822018
339.372156609
339.843874647
340.275851383
340.670123038
341.028832366
341.354193144
341.648442081
341.913811483
342.152492998
342.366620953
342.558247988
342.729338157
342.881751773
343.017245037
343.137461327
343.243935018
343.338086662
343.421229837
343.494569333
343.559209951
343.616157685
343.666329239
343.710554237
343.74958563
343.784104182
343.814749981
343.841715705
343.864673461
343.883738128
343.899164353
343.911326152
343.921079019
343.928663191
343.934223864
343.938074425
343.940646641
343.942283313
343.94325195
343.943793512
343.944064515
281.403554599
281.496237512
281.683587761
281.966425858
282.34268169
282.809924682
283.365219286
284.005202418
284.726150106
285.524049927
286.394666159
287.333606134
288.33637479
289.398428345
290.515213886
291.682207875
292.894940714
294.149021773
295.440151425
296.764135496
298.116888108
299.494438997
300.892929903
302.308617567
303.737866489
305.177149447
306.623037888
308.072201086
309.521396226
310.967467002
312.407333544
313.837991855
315.256504309
316.660000681
318.045670678
319.410766803
320.752600041
322.068546753
323.356048196
324.612622325
325.835869178
327.023487475
328.173285967
329.283206499
330.351341062
331.375960037
332.35553448
333.288766944
334.174616159
335.012327771
335.801455489
336.541884714
337.233842582
337.87790645
338.474996163
339.026360768
339.533548658
339.99837222
340.422857427
340.80919345
341.159675962
341.476658951
341.762507516
342.01956279
342.250109458
342.456354685
342.640409522
342.80427951
342.9498558
343.078912957
343.193105855
343.293971107
343.382926883
343.46127726
343.530214885
343.590827741
343.644104236
343.690940914
343.732148987
343.768463174
343.800548819
343.829029223
343.853985005
343.874917924
343.892120384
343.905896384
343.916718811
343.925381762
343.932205947
343.937145178
343.940470191
343.942690553
343.944149474
343.945007683
343.945488048
343.945733607
280.939656834
281.035229205
281.228176863
281.519266973
281.906253516
282.386492332
282.956795805
283.613523004
284.352662009
285.169913152
286.060766208
287.020572566
288.044607302
289.128123728
290.266396533
291.454757611
292.688621703
293.963506453
295.275044533
296.618992414
297.991232958
299.38777687
300.804759855
302.23844002
303.685191755
305.141501128
306.603958074
308.069250723
309.53415756
310.995541646
312.450342464
313.895570969
315.32830247
316.745672549
318.144871903
319.52314471
320.877786058
322.206145315
323.50562734
324.773700316
326.007904044
327.205863708
328.365304675
329.484074043
330.560162345
331.591731328
332.57714239
333.514989392
334.404131306
335.243726906
336.033264802
336.772591864
337.461931347
338.101893583
338.693472986
339.2380322
339.737271935
340.193185924
340.608002175
340.984117142
341.324028437
341.630275773
341.905389317
342.151849981
342.372058035
342.568311227
342.742789883
342.897548877
343.034513665
343.155479543
343.262112415
343.355950183
343.438405258
343.510768762
343.574215553
343.629811078
343.678518583
343.721207422
343.75866264
343.791594432
343.820653076
343.846452039
343.868705004
343.887059613
343.902075142
343.913993222
343.9235139
343.931111423
343.936874901
343.940820161
343.943643883
343.945486294
343.946643993
343.947447928
343.947877455
343.948099804
280.375882262
280.474954598
280.674838386
280.976203848
281.376559066
281.872968262
282.461909371
283.139380509
283.900999667
284.742102506
285.65783293
286.643223894
287.693266646
288.802967836
289.967394188
291.181706708
292.441184604
293.741241239
295.077433077
296.445463825
297.841183906
299.260587475
300.699807149
302.15510806
303.622879754
305.099628555
306.58196886
308.066615271
309.550373798
311.030134165
312.502861246
313.965587426
315.415405164
316.849460431
318.264947113
319.659102465
321.029204478
322.372572353
323.686567515
324.96859943
326.216134282
327.4267079
328.597942574
329.727567742
330.81344521
331.853599024
332.846249058
333.789847679
334.683120708
335.525108823
336.315209017
337.053210946
337.739324539
338.374196101
338.958910012
339.494973408
339.984283675
340.429074051
340.831838428
341.195246175
341.522056912
341.815047078
342.076951248
342.310421628
342.517995825
342.702078034
342.864926209
343.008649029
343.135206615
343.246415128
343.343949504
343.429346513
343.504008673
343.569209259
343.626098555
343.675712057
343.718979095
343.756733181
343.78972316
343.818624511
343.844062187
343.866566071
343.885543959
343.901040351
343.913655888
343.923661595
343.931657407
343.937818988
343.942302529
343.945443868
343.947710392
343.949172297
343.949984522
343.95061794
343.950961233
343.951133807
279.708599634
279.811912791
280.020249823
280.334150559
280.750802504
281.266888376
281.878453884
282.581036517
283.369787009
284.239586402
285.185151922
286.201129214
287.282168442
288.422984493
289.618401905
290.863386583
292.153065862
293.482739547
294.847883764
296.244149575
297.667357714
299.11349104
300.578685606
302.059220993
303.551509684
305.052086529
306.557598763
308.06479574
309.570519385
311.071694417
312.565318414
314.048452728
315.518213286
316.971762555
318.406301362
319.819062952
321.207308636
322.568325136
323.899424365
325.197948606
326.461277781
327.686842023
328.872138636
330.014754532
331.112393263
332.162908282
333.164339916
334.114959402
335.013317391
335.858297025
336.649167284
337.385633502
338.067876967
338.696578754
339.272928199
339.798610524
340.275773629
340.706962205
341.095021301
341.442977647
341.75392484
342.030932162
342.276981778
342.494927216
342.687465388
342.857118742
343.006227515
343.136952723
343.251286598
343.351062382
343.437960678
343.513513487
343.579108375
343.635994251
343.685289038
343.727989111
343.764980035
343.79704835
343.824894641
343.849145755
343.870394771
343.888971812
343.904275109
343.916734888
343.926709483
343.934594199
343.94077451
343.945436344
343.948735529
343.951114128
343.952606357
343.953632395
343.954190835
343.954479005
343.9547151
343.954814291
278.933400168
279.041822544
279.260351435
279.589356046
280.025610993
280.565308274
281.203941858
281.936467431
282.75745257
283.661218013
284.641962696
285.693868645
286.811184581
287.988288312
289.219730229
290.500260489
291.824843204
293.188660479
294.58710915
296.015792622
297.470509255
298.947239729
300.442133434
301.951494626
303.471768811
304.999529869
306.531467695
308.064376647
309.595144233
311.120739598
312.638202432
314.144631857
315.637175999
317.113020977
318.569381025
320.003490401
321.412595411
322.793949284
324.144811118
325.462447874
326.744140668
327.987196257
329.188965262
330.346864776
331.458407782
332.521238087
333.533173748
334.492256266
335.39680919
336.245504414
337.037434574
337.772181894
338.449875285
339.071222652
339.637531331
340.150698212
340.613186004
341.027950197
341.398301503
341.727732806
342.019760839
342.277812599
342.505159519
342.704885733
342.879865542
343.032748466
343.165954287
343.281688122
343.381964049
343.4686259
343.543355444
343.607675547
343.662952861
343.710404521
343.751106426
343.786005359
343.815931242
343.841610994
343.863682923
343.882710294
343.899228397
343.91337858
343.924847242
343.933981237
343.941104591
343.946699914
343.950911483
343.953958642
343.956060778
343.957483629
343.958349897
343.958775739
343.958998226
343.958953915
343.959054191
343.959066875
278.044972005
278.159519737
278.390260917
278.737334332
279.196984726
279.764774613
280.435496759
281.203375772
282.062255827
283.005773067
284.027503294
285.121081421
286.280291809
287.499131163
288.771847853
290.092961648
291.457268888
292.85983678
294.29599082
295.76129766
297.251546288
298.762728814
300.291021716
301.832767224
303.384456787
304.942715471
306.504288001
308.066025175
309.6248711
311.177850603
312.722056377
314.254636328
315.772781021
317.273710378
318.754661121
320.212875104
321.645587881
323.050021734
324.423380444
325.762848855
327.065597076
328.328791939
329.549613853
330.725280779
331.853078641
332.930400186
333.954790395
334.924002893
335.836067795
336.689376183
337.482776146
338.215672067
338.888106522
339.500796942
340.05517361
340.553375766
340.998258959
341.393322345
341.742504225
342.049916793
342.319614541
342.555447285
342.761011724
342.939645136
343.094416257
343.228104718
343.343198074
343.441923023
343.526296368
343.59816198
343.659199686
343.71091929
343.754660632
343.791599796
343.8227599
343.849025265
343.871156654
343.889807054
343.905537034
343.918829609
343.930117884
343.939477041
343.946851097
343.952466098
343.956734559
343.959925408
343.962047249
343.963332714
343.964061813
343.96442594
343.964643671
343.964594882
343.964320908
343.963988211
343.963876222
343.963807683
277.036947738
277.158824895
277.404158477
277.772775975
278.260236569
278.861294234
279.569850048
280.379210963
281.282327042
282.272002503
283.341070801
284.482529012
285.689633551
286.955959966
288.275433819
289.642338719
291.051308172
292.497306714
293.975604927
295.481751359
297.011545011
298.561008576
300.126363132
301.704005826
303.290489406
304.88250482
306.476865041
308.07049007
309.660393215
311.243667579
312.817471896
314.379015576
315.925544709
317.454325737
318.962629363
320.447714974
321.90681611
323.337128528
324.735800669
326.099930399
327.426566953
328.712719487
329.95537394
331.151517844
332.298172809
333.392432965
334.431514375
335.412813409
336.333984482
337.193042224
337.988495645
338.719491977
339.385947491
339.98855017
340.528858279
341.009257231
341.433074552
341.804547169
342.128489975
342.409860499
342.653392132
342.86341479
343.043861243
343.198333923
343.330113029
343.442111438
343.536856563
343.616550976
343.683177166
343.738568166
343.784404466
343.82218262
343.853209758
343.878610922
343.899342289
343.916210663
343.929891899
343.940949593
343.949851788
343.956985623
343.962668406
343.96699689
343.970042751
343.972012768
343.973264781
343.973833029
343.973788712
343.973384835
343.972791675
343.97208873
343.971400568
343.970773538
343.970126885
343.969473274
343.969079173
343.968928271
275.901713034
276.032364722
276.295139644
276.689435704
277.20992046
277.850302833
278.603346394
279.461205183
280.4157255
281.458705617
282.582101579
283.778176619
285.039597884
286.359487814
287.731439916
289.149508778
290.608183155
292.102349244
293.627249968
295.178443756
296.751766303
298.34329556
299.949320026
301.566311497
303.190902407
304.819865708
306.450097322
308.078600405
309.702471553
311.318886263
312.925083059
314.518348632
316.096000284
317.655366612
319.193767766
320.708495388
322.196792977
323.655837805
325.082727273
326.474470645
327.82798625
329.140108925
330.407605621
331.627201774
332.795613248
333.909587987
334.965952047
335.961666709
336.893906695
337.760181991
338.558520773
339.287699665
339.947473437
340.538435243
341.062281483
341.521561045
341.920131054
342.263272837
342.557085589
342.807718789
343.020765389
343.201041463
343.352766307
343.479799187
343.58566793
343.67343463
343.745611154
343.804283632
343.851332676
343.888574227
343.917713132
343.940241479
343.957426965
343.970330233
343.979822804
343.986614981
343.991279627
343.994274152
343.995959488
343.996614725
343.996450813
343.995647686
343.994194388
343.992365321
343.990397044
343.988222855
343.986053896
343.983971899
343.982041632
343.980222947
343.97862289
343.977227292
343.976128061
343.975204744
343.974499463
343.97422352
274.630156821
274.771347828
275.055025426
275.479994186
276.03974815
276.726636256
277.531963341
278.44643123
279.460524828
280.564830923
281.75027818
283.008297808
284.330914527
285.710779973
287.141163994
288.615917834
290.129421094
291.676521727
293.252475305
294.852888995
296.473670378
298.110983531
299.761211413
301.420924244
303.08685406
304.755873338
306.424976494
308.091264875
309.751932781
311.404252629
313.045559538
314.67323458
316.284685007
317.877321361
319.448533486
320.995664829
322.515985579
324.006668916
325.464770058
326.887210055
328.2707701
329.612094609
330.907706373
332.154034123
333.347448865
334.484303814
335.56097657
336.573911008
337.519679019
338.395103625
339.197517838
339.925136177
340.577600773
341.155253037
341.660043191
342.094327226
342.46246197
342.771302662
343.028942029
343.243296917
343.421034429
343.567320201
343.686457626
343.782530707
343.859425545
343.920418967
343.967906679
344.003661264
344.029330315
344.046732663
344.057684013
344.063692271
344.065971808
344.065500753
344.063039754
344.059179041
344.054366464
344.048934407
344.04312161
344.037088679
344.03094555
344.024792354
344.018789794
344.013147919
344.007882702
344.003103324
343.99878158
343.994922292
343.991500856
343.988498094
343.985963437
343.983851822
343.982167366
343.980916549
343.979914923
343.979506137
273.21134521
273.365263649
273.674120447
274.135886197
274.742495516
275.484510698
276.351354479
277.331893953
278.414935513
279.589614758
280.845670346
282.173608426
283.564774891
285.011356671
286.506334628
288.043408003
289.616906051
291.221698117
292.853109043
294.506845013
296.178929864
297.865651347
299.563518254
301.269225405
302.97962631
304.691710634
306.402587456
308.109470766
309.809666601
311.500560164
313.179600582
314.844283264
316.49212735
318.120649803
319.72733607
321.30960649
322.864782867
324.390055298
325.882450348
327.338808564
328.755769718
330.129771828
331.45706672
332.733751652
333.955811099
335.119163055
336.219689985
337.253249549
338.215675571
339.102853626
339.911052852
340.637542263
341.282252644
341.844784753
342.327982643
342.732818305
343.063847756
343.330527338
343.544257822
343.715729702
343.852931531
343.960844744
344.043302132
344.104569469
344.149224722
344.180994129
344.201944175
344.21310601
344.215615674
344.211406033
344.202660682
344.190926992
344.177317697
344.162703814
344.147693835
344.13272716
344.118101222
344.104000567
344.090524017
344.077697755
344.065572038
344.054104959
344.043509393
344.034061452
344.025603335
344.018166398
344.011684847
344.005940087
344.000972096
343.996736842
343.993205836
343.990333379
343.988077303
343.986417856
343.985170507
343.984608749
271.632085454
271.801495509
272.140900361
272.64709145
273.309901093
274.117521796
275.056931165
276.114670856
277.277480776
278.532770181
279.868920149
281.275435676
282.742978333
284.2633137
285.829206348
287.434289826
289.072931734
290.740106333
292.43128229
294.142328731
295.869438713
297.609067549
299.357884907
301.112738241
302.870624281
304.628668069
306.384107845
308.134282964
309.876624775
311.6086469
313.327930581
315.032107312
316.718834428
318.385765093
320.030512219
321.650607534
323.2434579
324.806298978
326.336153327
327.829793954
329.283718752
330.694144349
332.057021494
333.368073785
334.622858046
335.816824029
336.945346856
338.003680866
338.986818338
339.889359913
340.705857081
341.431637609
342.068597742
342.613728134
343.073713688
343.444228477
343.729123218
343.942697029
344.102158624
344.222855104
344.314362145
344.379857763
344.421383121
344.443382397
344.452133289
344.452485719
344.4457026
344.431074651
344.408612773
344.380728327
344.350707603
344.320097343
344.289726232
344.26034586
344.232342243
344.205966272
344.181337981
344.158466358
344.137288695
344.117681997
344.099642043
344.083133308
344.068148111
344.054825705
344.043219707
344.033089525
344.024341504
344.016731746
344.010222043
344.004749608
344.000188025
343.996511169
343.993633179
343.991530744
343.990084218
343.989355309
269.87633896
270.064793363
270.441609122
271.001878926
271.732564498
272.618680104
273.644004899
274.792126005
276.047246546
277.394743732
278.821483177
280.315929931
281.868107726
283.469460636
285.112663264
286.7914163
288.500251528
290.234359709
291.989447831
293.761625209
295.547315605
297.343189934
299.146116527
300.953123988
302.761373734
304.568141767
306.370807092
308.166844674
309.953822482
311.729395657
313.491296122
315.23731568
316.965280121
318.673014538
320.358300172
322.018824348
323.652122501
325.255519286
326.82606821
328.360497553
329.855169852
331.306064968
332.708792989
334.058649734
335.350706818
336.579924608
337.741213549
338.829340979
339.838512039
340.761658562
341.590435716
342.314953065
342.94547516
343.468950888
343.908143521
344.239829133
344.465372171
344.609426615
344.699800395
344.760292442
344.802434027
344.822984083
344.819128901
344.795858575
344.763954111
344.731294676
344.697087281
344.656497735
344.606999443
344.552460699
344.499457634
344.449073386
344.401213735
344.356647013
344.315398359
344.277489299
344.24284331
344.211258934
344.182485319
344.156226669
344.13246582
344.111035911
344.091992395
344.07501445
344.060233157
344.047536752
344.036530127
344.027063207
344.019022078
344.012267577
344.006669601
344.002173941
343.998658327
343.996106454
343.994421277
343.993543537
267.924415217
268.136575743
268.559732816
269.18650205
269.999859403
270.980511201
272.10802536
273.362230784
274.724235191
276.17706169
277.705940061
279.298326076
280.943735747
282.633474444
284.360326731
286.118253124
287.902120412
289.707478881
291.530388339
293.367287358
295.214897869
297.070157503
298.930170826
300.792174855
302.653514857
304.511629792
306.36404624
308.208380031
310.042341003
311.863736769
313.670467312
315.460510818
317.231896159
318.982663334
320.710812871
322.41424276
324.090677829
325.737589861
327.352115397
328.930976986
330.470417937
331.966165057
333.413436167
334.807009592
336.141376841
337.410959271
338.61032279
339.734142102
340.77638297
341.72822367
342.576610109
343.294802958
343.925266871
344.412921765
344.846713462
345.135357182
345.279508117
345.328115508
345.327240614
345.319067551
345.318087409
345.297566431
345.241636838
345.159789833
345.077583339
345.01157583
344.953957127
344.889814813
344.810284327
344.723381915
344.645676934
344.575451029
344.509520148
344.449638884
344.395142769
344.345778965
344.301309056
344.261255195
344.225156918
344.192537226
344.163358124
344.137375771
344.114329467
344.093948698
344.076216439
344.061030987
344.047888749
344.036569806
344.026990534
344.019016186
344.012390306
344.00706366
344.002945035
343.99993182
343.997972146
343.996970211
265.751846452
265.993958719
266.475314071
267.18483927
268.099890052
269.195267364
270.444966124
271.824041238
273.309862032
274.882793298
276.526393466
278.227260068
279.974660022
281.760061607
283.576657963
285.418936272
287.282320887
289.162896981
291.05720937
292.962122392
294.874725843
296.792273543
298.712141732
300.631800167
302.548792821
304.460727815
306.365278775
308.260197971
310.143336059
312.012657194
313.866244938
315.702291219
317.519067534
319.314880313
321.08800996
322.83663772
324.558755563
326.252063863
327.913858462
329.540918308
331.129401836
332.674773259
334.171784055
335.614550533
336.996778049
338.312191408
339.555119137
340.721013515
341.805400755
342.799275439
343.68437229
344.372210119
345.031940397
345.442447751
346.007791488
346.27770177
346.289138525
346.178997455
346.026087704
345.86351571
345.73616438
345.650040026
345.573299755
345.484088993
345.385702351
345.304812053
345.236312977
345.1512056
345.026824658
344.888662221
344.784577712
344.697081459
344.612044941
344.537133978
344.469769925
344.409209803
344.355378905
344.307320712
344.264391764
344.225908926
344.19161531
344.161405355
344.134679714
344.111136847
344.090674888
344.073141084
344.057940562
344.044879119
344.033861047
344.024676108
344.01709036
344.010972251
344.006257212
344.002820415
344.000579078
343.999460779
263.327784122
263.608422325
264.16405064
264.977995382
266.019545427
267.255327687
268.651938795
270.178400896
271.807647762
273.517164107
275.288966294
277.109141741
278.967159447
280.855117168
282.767042069
284.698303767
286.645161469
288.604439566
290.573310587
292.549161032
294.529512604
296.511978306
298.494235628
300.474006443
302.449043161
304.417121722
306.376050914
308.323702645
310.258052453
312.177217424
314.079475796
315.963261997
317.827135534
319.669727864
321.48967499
323.285529806
325.055653745
326.798085633
328.510392035
330.1895075
331.831573829
333.431804702
334.984399523
336.482580285
337.918860472
339.28572863
340.577014445
341.790221872
342.926440088
343.984595618
344.96169472
345.543808968
346.461396137
346.41076508
346.216167465
346.239832941
346.250541108
346.170790147
346.051863841
345.925070799
345.808761113
345.710331706
345.625839769
345.552208847
345.490587673
345.44881819
345.406797159
345.32801161
345.193354305
345.019890793
344.908114098
344.816015565
344.706072347
344.616819614
344.537576621
344.465970561
344.403656433
344.348256217
344.299159257
344.255356411
344.216584795
344.182502071
344.152502326
344.126153874
344.10326612
344.083567245
344.066470354
344.051756954
344.039422218
344.029097565
344.020582154
344.013738024
344.00845032
344.004598104
344.002090702
344.0008627
260.612648951
260.94390702
261.596118982
262.543895437
263.744753432
265.153912993
266.728156214
268.428968532
270.224173794
272.088356608
274.002412314
275.952577446
277.929253834
279.925857375
281.937831841
283.961883143
285.995434055
288.036269737
290.08233027
292.131606379
294.182099238
296.231809791
298.278736745
300.32086877
302.356171309
304.382578245
306.398006073
308.400407347
310.387848373
312.358579659
314.31108
316.244057415
318.15640962
320.047163328
321.91539718
323.760144348
325.580265675
327.374286418
329.140202006
330.87525693
332.575709627
334.236591157
335.851496633
337.412459531
338.910070336
340.33427207
341.676705953
342.937676018
344.133022702
345.311831961
346.70012596
346.525423433
346.475868574
346.493802821
346.374524682
346.286256041
346.226610839
346.132996005
346.018032622
345.899626851
345.788557344
345.69098424
345.606183004
345.530511398
345.462420345
345.402329352
345.34135273
345.269962194
345.197712997
345.137683919
345.069514299
344.945226091
344.782129319
344.68389871
344.597443579
344.513778289
344.44486009
344.382884515
344.328693775
344.280156372
344.237554542
344.200150625
344.16734798
344.138618329
344.11369237
344.091979766
344.073094397
344.057009388
344.043473889
344.032092093
344.02272291
344.01520113
344.00936802
344.005122155
344.002373686
344.001027668
257.554626795
257.954103243
258.734658781
259.856976188
261.26111795
262.886318838
264.676426411
266.583705564
268.570385468
270.608534887
272.678839931
274.768819602
276.870933133
278.980890358
281.096317667
283.21580801
285.338310517
287.462786597
289.588055665
291.712760386
293.835395088
295.954353664
298.067963739
300.174491822
302.272122555
304.358930481
306.432889083
308.491961076
310.534234478
312.558053033
314.562094868
316.545376794
318.507196255
320.447052678
322.364565674
324.259376896
326.131008487
327.978665895
329.800990683
331.595773549
333.359618459
335.087577298
336.772732295
338.405709962
339.974204307
341.462891342
342.854156649
344.14394221
345.352679196
346.571413198
346.72144083
346.726672971
346.572462831
346.49078042
346.379261899
346.278885971
346.190457484
346.088104207
345.97532914
345.862367474
345.756475933
345.66175054
345.577587449
345.501163002
345.430523611
345.363914435
345.296628303
345.224129321
345.150829953
345.082642226
345.013410017
344.94753767
344.89371271
344.81174931
344.662925355
344.54528601
344.477318417
344.409649298
344.35238664
344.299885352
344.25409287
344.213900954
344.178790924
344.148053647
344.121369637
344.098022174
344.077664246
344.060340993
344.045710294
344.03343297
344.023312992
344.015186034
344.008870726
344.004261048
344.001276468
343.999817533
254.084178584
254.578479844
255.533886823
256.888197762
258.555269706
260.451991821
262.505437682
264.657003058
266.863339009
269.095121266
271.334526787
273.572192335
275.804295908
278.030169196
280.250579448
282.466630779
284.679157341
286.888464966
289.094297247
291.295928939
293.492306639
295.682185094
297.8642146
300.036957746
302.198838112
304.348054772
306.482556251
308.600187343
310.698935103
312.777161737
314.833738195
316.868041693
318.879845495
320.869205071
322.836384251
324.781775906
326.705759609
328.608466164
330.489474604
332.347450411
334.179719484
335.981772365
337.746622637
339.463889471
341.118225572
342.686190706
344.129762776
345.444618939
346.709153418
346.785503536
346.758409001
346.704036892
346.582305115
346.473657695
346.355465002
346.242172715
346.134888892
346.024429303
345.911912362
345.80277717
345.70178871
345.610558501
345.527828107
345.45211505
345.38168599
345.314480509
345.247440078
345.177947488
345.107122386
345.037426472
344.96770994
344.901599294
344.839014969
344.776931774
344.720976305
344.647965797
344.531669677
344.426521031
344.369465853
344.313190976
344.2657484
344.223325899