/*--------------------------------*- C++ -*----------------------------------*\
| =========                 |                                                 |
| \\      /  F ield         | OpenFOAM: The Open Source CFD Toolbox           |
|  \\    /   O peration     | Version:  v1906                                 |
|   \\  /    A nd           | Web:      www.OpenFOAM.com                      |
|    \\/     M anipulation  |                                                 |
\*---------------------------------------------------------------------------*/
FoamFile
{
    version     2.0;
    format      ascii;
    class       surfaceScalarField;
    location    "676";
    object      phi;
}
// * * * * * * * * * * * * * * * * * * * * * * * * * * * * * * * * * * * * * //

dimensions      [0 3 -1 0 0 0 0];
oriented        oriented;


internalField   nonuniform List<scalar> 
18240
(
-0.000199375432518
0.000199411098688
-0.000408179597582
0.000208850283804
-0.000615600325497
0.000207455361378
-0.000819984419565
0.000204432760857
-0.00102030390496
0.000200351421267
-0.00121559764382
0.000195344797964
-0.00140507657108
0.000189508113832
-0.00158797956354
0.000182956342227
-0.0017637322427
0.000175779044127
-0.00193177123502
0.000168094503341
-0.00209173393857
0.000159986109049
-0.00224324339441
0.000151566989077
-0.00238612819774
0.000142905189739
-0.0025201696199
0.000134100810663
-0.00264535326435
0.000125200883332
-0.00276158112501
0.000116288907941
-0.0028689564816
0.000107389410452
-0.00296746338976
9.85693709525e-05
-0.00305728509497
8.98324617348e-05
-0.0031384530657
8.12315691432e-05
-0.00321119834317
7.27527436222e-05
-0.00327557201987
6.44380775745e-05
-0.0033318276986
5.62597985764e-05
-0.00338001545389
4.82525895827e-05
-0.00342039301718
4.03784376792e-05
-0.00345299569248
3.26675191875e-05
-0.00347807287744
2.50748757e-05
-0.00349563715236
1.7628673652e-05
-0.00350592236747
1.02799750354e-05
-0.00350891604641
3.05711990707e-06
-0.00350483402562
-4.08995892184e-06
-0.00349364097059
-1.11311271976e-05
-0.00347553680905
-1.81143704391e-05
-0.00345047196574
-2.50050766782e-05
-0.00341863818535
-3.18458600881e-05
-0.00337998533792
-3.85959829036e-05
-0.00333470935923
-4.52893731917e-05
-0.00328277882979
-5.18774566247e-05
-0.00322441058078
-5.83824431279e-05
-0.00315961510502
-6.47471949207e-05
-0.0030886491108
-7.09803520871e-05
-0.00301158941471
-7.70172401697e-05
-0.00292875030926
-8.28529876805e-05
-0.00284029576485
-8.84187279908e-05
-0.00274660962568
-9.36987370069e-05
-0.0026479550432
-9.86256664719e-05
-0.00254478759888
-0.000103177887478
-0.0024374689122
-0.000107296123283
-0.00232651841809
-0.00011095791408
-0.00221238522166
-0.000114115505028
-0.00209564297066
-0.000116745971266
-0.00197682004081
-0.000118807853118
-0.00185655032119
-0.000120269377669
-0.00173545380246
-0.000121081645855
-0.00161425533289
-0.00012119422921
-0.0014936928819
-0.000120545941628
-0.00137460502062
-0.000119080431355
-0.00125783475866
-0.000116751233361
-0.00114428666031
-0.000113538530575
-0.0010348130401
-0.000109452211672
-0.00093025562736
-0.000104546954062
-0.00083131551073
-9.89168814618e-05
-0.000738598123291
-9.27072048861e-05
-0.000652484572925
-8.60890880978e-05
-0.000573228171412
-7.92473328833e-05
-0.000500871344683
-7.23317662143e-05
-0.000435390804737
-6.54733069848e-05
-0.000376595542441
-5.87701652081e-05
-0.000324263791647
-5.2326785954e-05
-0.000278018958424
-4.62204790986e-05
-0.000237487189075
-4.05292385437e-05
-0.000202178275767
-3.52861567429e-05
-0.000171660067646
-3.05179885859e-05
-0.00014543163705
-2.62081598819e-05
-0.000123082292671
-2.23511335494e-05
-0.000104144245971
-1.89206990372e-05
-8.82318759026e-05
-1.59155774963e-05
-7.4908239636e-05
-1.33090224771e-05
-6.38299462248e-05
-1.10821593587e-05
-5.46307618631e-05
-9.18678270952e-06
-4.70453284339e-05
-7.58936878801e-06
-4.07952543688e-05
-6.23935517318e-06
-3.56992729907e-05
-5.09958010836e-06
-3.15887245888e-05
-4.10079012363e-06
-2.84836883865e-05
-3.10776325429e-06
-2.58844408532e-05
-2.59057191719e-06
-2.3519754456e-05
-2.36589334386e-06
-2.1488229078e-05
-2.02301322246e-06
-1.95118645894e-05
-1.97515616427e-06
-1.73704631903e-05
-2.13262918473e-06
-1.51755650237e-05
-2.19093206831e-06
-1.28961114026e-05
-2.2705069667e-06
-1.02794240413e-05
-2.60858052839e-06
-7.13182826965e-06
-3.13865057179e-06
-3.48013870521e-06
-3.6417794958e-06
-3.47445062686e-06
-0.000210934276033
0.000410385030805
-0.000434423520126
0.000432383808064
-0.000655698666248
0.000428771645177
-0.000873499214141
0.000422278098639
-0.00108683110925
0.000413723715197
-0.0012947321336
0.000403291035882
-0.00149634899575
0.000391164563391
-0.00169090193192
0.000377554848951
-0.00187775329098
0.000362669050063
-0.00205634121018
0.000346728231016
-0.00222625112894
0.000329933631648
-0.00238712906532
0.00031249084373
-0.00253876079042
0.000294573335755
-0.00268096823661
0.000276354139261
-0.00281369916283
0.000257966936034
-0.00293690956329
0.000239544992132
-0.00305066587454
0.00022117939357
-0.00315501556779
0.000202964359401
-0.00325010296044
0.00018495194229
-0.00333602944991
0.000167202758224
-0.00341298302471
0.00014973665095
-0.00348108904653
0.000132587973533
-0.00354055280659
0.000115752009409
-0.00359150156933
9.92441639945e-05
-0.00363413903556
8.30423236104e-05
-0.00366857943032
6.71494151554e-05
-0.00369501241081
5.15321594577e-05
-0.00371353030886
3.61865222822e-05
-0.00372430181969
2.10735888809e-05
-0.00372739384445
6.18730322038e-06
-0.00372295231314
-8.51160258838e-06
-0.00371102102167
-2.30262879241e-05
-0.00369172687019
-3.73908598271e-05
-0.0036650976471
-5.16004554924e-05
-0.00363124990912
-6.56781382499e-05
-0.00359020894146
-7.96056847485e-05
-0.0035420958662
-9.33891921983e-05
-0.00348695273546
-0.000106992263082
-0.00342492509414
-0.000120399053119
-0.00335609541493
-0.000133551909048
-0.0032806564821
-0.000146410510089
-0.00319875626204
-0.000158896271701
-0.00311065663972
-0.000170946054226
-0.00301659258043
-0.000182465609132
-0.00291691062508
-0.00019337608995
-0.00281194471277
-0.000203578223087
-0.00270212984336
-0.000212989513669
-0.00258789654597
-0.000221519172517
-0.0024697583604
-0.000229093293881
-0.00234822749953
-0.000235637930969
-0.00222388071274
-0.000241089180733
-0.00209730008823
-0.000245380190288
-0.00196912761475
-0.000248436287102
-0.0018400323921
-0.000250167079602
-0.00171075990614
-0.000250458358501
-0.00158211095688
-0.000249182500742
-0.00145497253035
-0.000246207565166
-0.00133027758931
-0.000241430912695
-0.00120900404349
-0.000234798334267
-0.00109211185007
-0.000226326870942
-0.000980522741573
-0.000216120816856
-0.000875040373468
-0.000204380495028
-0.000776321092048
-0.000191410745119
-0.000684791611577
-0.00017759930545
-0.000600679945382
-0.000163343644272
-0.000524022586858
-0.000148970110968
-0.000454754298763
-0.000134727436992
-0.00039268337733
-0.00012082292899
-0.000337539807703
-0.000107457792723
-0.000288930213599
-9.48133818342e-05
-0.000246408765384
-8.3040067777e-05
-0.000209455063093
-7.22251829902e-05
-0.000177564100279
-6.2400594208e-05
-0.00015021956119
-5.35404430002e-05
-0.000126960130351
-4.56045207457e-05
-0.000107316523029
-3.8554546602e-05
-9.0851372462e-05
-3.23766524023e-05
-7.71133515955e-05
-2.70392960587e-05
-6.57066524473e-05
-2.24860642454e-05
-5.62595306796e-05
-1.86276559064e-05
-4.84696044201e-05
-1.53772645245e-05
-4.20548641823e-05
-1.26489342136e-05
-3.67835783142e-05
-1.03691332872e-05
-3.24131282073e-05
-8.46654292746e-06
-2.86163360484e-05
-6.90254307864e-06
-2.54049582668e-05
-5.79781757483e-06
-2.28899430334e-05
-4.87825081753e-06
-2.08358805884e-05
-4.07211228423e-06
-1.89710733527e-05
-3.83574536171e-06
-1.70835240729e-05
-4.01426787737e-06
-1.49859126237e-05
-4.28231953843e-06
-1.2711443234e-05
-4.53745580008e-06
-1.022828741e-05
-5.08419847917e-06
-7.26674714255e-06
-6.0915308483e-06
-3.58575636118e-06
-7.31317280647e-06
-7.05595788041e-06
-0.000213795393176
0.000624220861739
-0.000439573735531
0.00065820530169
-0.000663317228677
0.000652557884168
-0.000883511949018
0.000642516318723
-0.00109907710134
0.00062933128784
-0.00130902175953
0.000613279172515
-0.00151246354248
0.000594648393831
-0.00170862322038
0.000573757891582
-0.00189684914633
0.000550936572502
-0.00207659677634
0.000526518995429
-0.00224744768091
0.000500825551625
-0.00240907759259
0.000474163534894
-0.00256127374922
0.000446809813538
-0.00270389515495
0.000419017828233
-0.00283689154785
0.000391002798057
-0.00296025893853
0.000362954015003
-0.00307406265791
0.000335021589099
-0.00317839024143
0.000307332744886
-0.00327337983278
0.000279978825724
-0.00335917149754
0.000253034205796
-0.00343594135751
0.000226542455726
-0.00350385169239
0.000200536864687
-0.00356309046238
0.000175025171649
-0.00361382023319
0.000150011062201
-0.00365622250751
0.000125477280001
-0.00369044545058
0.000101407850346
-0.00371665227508
7.77697735095e-05
-0.00373496793631
5.45358597677e-05
-0.00374553093815
3.16653735966e-05
-0.0037484394176
9.12747073773e-06
-0.00374380569653
-1.31186764831e-05
-0.00373170244662
-3.50999813308e-05
-0.00371221950346
-5.68493596648e-05
-0.00368541105071
-7.83816374803e-05
-0.00365135390644
-9.97131495362e-05
-0.00361009678244
-0.000120837985161
-0.00356171919948
-0.000141747050641
-0.00350628375437
-0.000162405558819
-0.00344389422731
-0.000182771445313
-0.0033746515813
-0.000202775349406
-0.00329870930894
-0.000222338425221
-0.00321623340829
-0.000241356193842
-0.00312745230688
-0.000259715731902
-0.00303262058646
-0.00027728470576
-0.00293206043552
-0.000293927633775
-0.00282612844647
-0.000309500746333
-0.00271524560754
-0.000323866084715
-0.00259986672331
-0.000336891112775
-0.00248049780143
-0.000348457381328
-0.00235766990617
-0.000358460278956
-0.0022319482885
-0.000366806125611
-0.00210391790558
-0.000373404742735
-0.00197419703147
-0.000378151172766
-0.00184344401239
-0.000380912367867
-0.00171238401928
-0.000381509735638
-0.0015818267153
-0.000379729259158
-0.0014526798917
-0.00037534260191
-0.00132593472675
-0.000368162538321
-0.00120263277206
-0.00035808580209
-0.00108382906246
-0.000345114878162
-0.000970534118753
-0.000329399910817
-0.000863660054663
-0.000311237775086
-0.000763932086773
-0.000291122624023
-0.00067179301565
-0.00026972122273
-0.000587403730782
-0.000247716946125
-0.000510738271155
-0.000225619119983
-0.000441684218145
-0.00020376647889
-0.000380043225195
-0.000182448465858
-0.000325517531518
-0.000161969910494
-0.00027768565032
-0.000142631174929
-0.000236037169596
-0.000124676817675
-0.00020000128259
-0.000108248851655
-0.000169014681044
-9.33775378232e-05
-0.000142547770173
-7.99974551713e-05
-0.00012013410312
-6.8010702374e-05
-0.000101325113661
-5.73560358568e-05
-8.56648402573e-05
-4.80313521731e-05
-7.26822344524e-05
-4.0016054001e-05
-6.19486977883e-05
-3.32153331714e-05
-5.3094045269e-05
-2.74776975309e-05
-4.58132507366e-05
-2.26547022474e-05
-3.98379014171e-05
-1.86205650557e-05
-3.49392521855e-05
-1.52649345861e-05
-3.09072919686e-05
-1.24948459812e-05
-2.7529219843e-05
-1.02777661172e-05
-2.46537371878e-05
-8.66979980064e-06
-2.20530199517e-05
-7.47562773905e-06
-1.96569487696e-05
-6.46404232275e-06
-1.77407433594e-05
-5.74745233989e-06
-1.61796105506e-05
-5.56986565717e-06
-1.41283980809e-05
-6.3276907118e-06
-1.16298227918e-05
-7.02903025735e-06
-8.97287047248e-06
-7.73319562001e-06
-6.00872356921e-06
-9.04880573416e-06
-3.0722800591e-06
-1.0242574313e-05
-1.0123925944e-05
-0.000217223097378
0.000841484601092
-0.000446363732811
0.000887389251641
-0.000673392261656
0.000879629453835
-0.00089669738971
0.000865864713136
-0.00111513110063
0.000847807887815
-0.00132765958088
0.000825850736284
-0.00153336888816
0.000800400357438
-0.00173146893274
0.000771900793285
-0.00192130261194
0.000740812566584
-0.00210233852486
0.000707597432546
-0.00227417158389
0.000672700473585
-0.00243650680576
0.000636540824314
-0.00258915523704
0.000599499514449
-0.00273201295228
0.00056191701361
-0.00286505620871
0.000524086593108
-0.00298831909113
0.000486257613075
-0.00310189062768
0.00044863275666
-0.00320589316683
0.000411375067066
-0.00330048281519
0.000374607025879
-0.00338582938363
0.000338419434111
-0.00346212039565
0.000302870735665
-0.00352954260232
0.000267996405472
-0.00358828920926
0.000233807576404
-0.00363854260997
0.000200300271591
-0.00368048424163
0.000167453037627
-0.00371427814984
0.000135235848721
-0.00374008293575
0.000103606851097
-0.00375803595099
7.25210781517e-05
-0.00376826694525
4.19266701397e-05
-0.00377088294062
1.17736378251e-05
-0.00376598337108
-1.7990040355e-05
-0.00375364594139
-4.74093866218e-05
-0.0037339432836
-7.65260095607e-05
-0.00370693029244
-0.000105368858691
-0.00367266225769
-0.000133957459934
-0.00363118421204
-0.000162292632888
-0.00358255044594
-0.000190359507786
-0.00352681620412
-0.000218118951556
-0.00346405809066
-0.000245510858089
-0.00339436804036
-0.000272447341498
-0.0033178735705
-0.000298817059969
-0.00323473331085
-0.00032448146708
-0.00314515531684
-0.000349280983633
-0.00304939273376
-0.000373035537457
-0.00294775766728
-0.000395553088452
-0.00284061473802
-0.000416635040216
-0.00272838744533
-0.000436086595511
-0.00261154709919
-0.000453725484867
-0.00249060933394
-0.000469390459466
-0.00236611868744
-0.000482946543264
-0.00223863913595
-0.00049428166228
-0.00210874479488
-0.000503294630149
-0.00197702296084
-0.000509867813074
-0.0018440939235
-0.000513834821957
-0.00171064729718
-0.000514948542951
-0.00157748610229
-0.000512880445077
-0.00144555511531
-0.000507262562237
-0.00131592892758
-0.000497775521814
-0.00118975425831
-0.000484246899083
-0.00106823037387
-0.00046662389348
-0.000952516367689
-0.000445098881492
-0.00084371381905
-0.000420025408764
-0.000742697693092
-0.000392123531061
-0.000649924849605
-0.000362478650901
-0.000565405711633
-0.00033222107689
-0.000488968144925
-0.000302041927931
-0.000420443378266
-0.000272277195099
-0.000359637306483
-0.00024324079198
-0.000306238574012
-0.000215355476681
-0.000259771964776
-0.00018908545612
-0.000219628101637
-0.000164808880471
-0.000185132103424
-0.000142734135462
-0.000155630011549
-0.000122869763193
-0.000130561370266
-0.000105057341817
-0.000109485024882
-8.90794788405e-05
-9.19998834532e-05
-7.4834443222e-05
-7.7634881542e-05
-6.23907360956e-05
-6.58574124426e-05
-5.178814137e-05
-5.61863939313e-05
-4.28818474603e-05
-4.82499979151e-05
-3.54099300863e-05
-4.17605883288e-05
-2.91405332954e-05
-3.64671837651e-05
-2.39106433747e-05
-3.2158415259e-05
-1.95705851917e-05
-2.86514422273e-05
-1.5998577676e-05
-2.58018831187e-05
-1.31240671339e-05
-2.30788397315e-05
-1.13896020533e-05
-2.06327281469e-05
-9.91835561065e-06
-1.85090679607e-05
-8.58376559598e-06
-1.6377459162e-05
-7.87494662211e-06
-1.41676258959e-05
-7.77506293792e-06
-1.24740110272e-05
-8.0156919901e-06
-1.0098467687e-05
-9.39798982074e-06
-7.26955172115e-06
-1.05562112942e-05
-4.81390637711e-06
-1.14981799643e-05
-2.49162909182e-06
-1.25580675056e-05
-1.26125883353e-05
-0.000221798808244
0.00106332410133
-0.000455619477369
0.00112125279839
-0.000687151988129
0.00111120520242
-0.000914691111122
0.00109344697481
-0.00113701313419
0.00107017294288
-0.00135302787484
0.00104190846332
-0.0015617832021
0.00100919848465
-0.00176247199252
0.00097263233363
-0.00195443566135
0.000932818729568
-0.00213715867664
0.000890362852067
-0.00231026155722
0.000845845421673
-0.00247348655158
0.000799807749747
-0.00262668502626
0.000752739501865
-0.00276979947498
0.000705072777219
-0.00290285003814
0.000657177956187
-0.00302591685398
0.000609364964433
-0.00313912878606
0.000561884610509
-0.00324264825622
0.000514934111848
-0.00333666342021
0.00046866103782
-0.00342137603493
0.000423170465944
-0.00349699706617
0.000378529347932
-0.00356373721759
0.0003347736122
-0.00362180532306
0.000291911785517
-0.00367140084614
0.000249931286244
-0.00371271431825
0.00020880094884
-0.00374592117358
0.000168476443546
-0.00377118362424
0.000128901894933
-0.00378864544534
9.00147259452e-05
-0.00379843497315
5.17468118239e-05
-0.00380066076389
1.40292156607e-05
-0.00379541565046
-2.32066330277e-05
-0.00378277352453
-6.00238572974e-05
-0.00376279472649
-9.64784495625e-05
-0.00373552436544
-0.000132613769516
-0.00370099936823
-0.000168458338879
-0.00365924886529
-0.000204019973395
-0.00361030319556
-0.000239283404661
-0.00355419663201
-0.000274204789751
-0.00349097826269
-0.000308710001189
-0.00342071683263
-0.000342690719357
-0.0033435128235
-0.0003760046756
-0.00325950437759
-0.000408474836875
-0.00316887903884
-0.000439893073595
-0.00307187875176
-0.000470023969495
-0.00296880866831
-0.000498613217021
-0.00286003795751
-0.00052539718997
-0.00274600145177
-0.000550116319629
-0.00262719166065
-0.00057252973354
-0.00250414793584
-0.000592429887366
-0.00237743693976
-0.00060965411412
-0.00224763018857
-0.000624085175404
-0.00211528564829
-0.000635635740115
-0.00198094199828
-0.000644207081715
-0.00184514549461
-0.000649625648641
-0.00170851098154
-0.000651575172809
-0.00157181054612
-0.000649571910542
-0.00143603648213
-0.000643025065719
-0.00130239620613
-0.00063140377093
-0.00117217141105
-0.00061445806481
-0.00104678319049
-0.000591998088066
-0.000927581614065
-0.000564286543276
-0.000816010873859
-0.000531582390467
-0.000713260169216
-0.00049486049948
-0.000619810089165
-0.000455914632515
-0.000535303330761
-0.000416713857506
-0.000459264307497
-0.000378067730182
-0.000391479457746
-0.000340049183418
-0.000331831091841
-0.000302876476346
-0.000280034507728
-0.000267140478782
-0.00023553276434
-0.000233575292275
-0.000197556562636
-0.000202774886637
-0.000165243837957
-0.000175036366831
-0.000137787080775
-0.00015031780774
-0.000114572813844
-0.000128263154969
-9.52510065714e-05
-0.000108394121738
-7.95570915069e-05
-9.05224437251e-05
-6.70027693854e-05
-7.49394580139e-05
-5.69037070822e-05
-6.18821525675e-05
-4.867168991e-05
-5.11092310366e-05
-4.194864567e-05
-4.21289795474e-05
-3.65026560059e-05
-3.45828750973e-05
-3.21040523586e-05
-2.8306086692e-05
-2.85652807209e-05
-2.31063528667e-05
-2.57238932316e-05
-1.88367408115e-05
-2.34672057784e-05
-1.53776082906e-05
-2.13447896728e-05
-1.35086945879e-05
-1.92203914433e-05
-1.20393109422e-05
-1.67670507523e-05
-1.10337182267e-05
-1.44630820545e-05
-1.01750965313e-05
-1.22776720877e-05
-9.9560820365e-06
-1.04092967823e-05
-9.87940448337e-06
-8.68332385377e-06
-1.11183897848e-05
-6.22502263852e-06
-1.30080048693e-05
-3.88984987108e-06
-1.38286323887e-05
-1.96953774774e-06
-1.44737152783e-05
-1.45790151324e-05
-0.000227666425606
0.00129103118781
-0.000467550547006
0.00136118016305
-0.000704896967408
0.00134859474205
-0.000937877991178
0.0013264711583
-0.00116517498756
0.00129751295686
-0.00138562633394
0.00126240276481
-0.00159823390174
0.00122184888313
-0.00180217065884
0.00117661180761
-0.00199678098015
0.00112747159549
-0.00218157290675
0.00107519715415
-0.00235620561067
0.00102052026679
-0.00252047206619
0.00096411611161
-0.00267428058215
0.000906589613675
-0.00281763464962
0.000848468134457
-0.00295061451802
0.000790198721048
-0.00307335898686
0.000732149938774
-0.00318605044248
0.000674616080657
-0.00328890071571
0.000617823918306
-0.00338214058276
0.00056193984569
-0.00346600981258
0.00050707805475
-0.00354075062552
0.000453307816899
-0.00360660105481
0.000400661016749
-0.00366379130311
0.000349138201141
-0.00371253933247
0.000298714702847
-0.00375304908239
0.000249345176205
-0.00378550740619
0.000200968379091
-0.0038100834218
0.000153510530743
-0.0038269262783
0.000106889263824
-0.00383616528112
6.10164414838e-05
-0.00383790837778
1.58019502624e-05
-0.00383224308183
-2.88433821706e-05
-0.00381923598734
-7.30034297579e-05
-0.00379893490912
-0.000116753115888
-0.0037713699537
-0.000160153361387
-0.00373655749096
-0.000203246562599
-0.00369450350678
-0.000246050806711
-0.00364520998266
-0.000288554949336
-0.00358868100688
-0.000330712956209
-0.00352493178172
-0.000372439689908
-0.00345399739642
-0.000413606879019
-0.00337594395324
-0.000454041328522
-0.00329087898262
-0.000493524509371
-0.00319896314936
-0.000531795222686
-0.00310042011563
-0.000568554949449
-0.00299554597186
-0.000603477072136
-0.00288471438056
-0.00063622009066
-0.00276837841703
-0.000666445401207
-0.00264706327344
-0.000693839423
-0.00252135074972
-0.000718138340597
-0.00239184993015
-0.000739151837774
-0.00225915763738
-0.000756774513133
-0.00212381751881
-0.000770973084306
-0.00198629382368
-0.000781726602033
-0.00184699889598
-0.000788914555947
-0.00170639543547
-0.000792171323783
-0.00156516473757
-0.000790792021431
-0.00142436255662
-0.000783816323607
-0.00128542324638
-0.000770329498729
-0.00114975870462
-0.000750109322265
-0.00101914633302
-0.000722596013718
-0.000895063656351
-0.000688355045485
-0.000779607268313
-0.000647025782166
-0.000674660300505
-0.000599793951628
-0.000580793062883
-0.000549768103607
-0.000496701071629
-0.000500792378951
-0.000421286049957
-0.000453470860939
-0.000354399459207
-0.000406923657049
-0.000296216139202
-0.000361049582072
-0.000246571750857
-0.000316773430719
-0.000204785286771
-0.000275353075833
-0.000169810629394
-0.000237739369405
-0.000140466961934
-0.000204372421881
-0.000115662762482
-0.000175113863816
-9.46872019329e-05
-0.000149232278358
-7.74268460279e-05
-0.000125649135332
-6.39996127539e-05
-0.00010394428267
-5.38965338296e-05
-8.50382383521e-05
-4.60449655769e-05
-6.97285104268e-05
-3.96267597003e-05
-5.75232142016e-05
-3.43665632458e-05
-4.73849996725e-05
-3.0190392213e-05
-3.87556956968e-05
-2.68740196414e-05
-3.16192778198e-05
-2.4252761486e-05
-2.57248348178e-05
-2.22039646114e-05
-2.08824565746e-05
-2.0280702661e-05
-1.72977493868e-05
-1.84522110392e-05
-1.53338686692e-05
-1.67857113613e-05
-1.3702685596e-05
-1.52025674746e-05
-1.26134455855e-05
-1.3215196135e-05
-1.21587886257e-05
-1.10040964144e-05
-1.21633576557e-05
-8.60173534777e-06
-1.22773508354e-05
-6.91597291504e-06
-1.27993401858e-05
-5.38263642241e-06
-1.45371727896e-05
-3.36979427234e-06
-1.5836877441e-05
-1.68924946505e-06
-1.61493804694e-05
-1.62662550472e-05
-0.000234971929748
0.00152604375845
-0.00048241795919
0.00160866895446
-0.000726997310863
0.00159321729601
-0.000966722014593
0.00156623891799
-0.00120015181438
0.00153098577598
-0.00142603631136
0.00148833018442
-0.00164332307063
0.00143917846261
-0.0018511648048
0.00138449624906
-0.00204891610982
0.00132526544867
-0.00223612098945
0.00126244441629
-0.00241249407756
0.00119693551117
-0.00257789746197
0.00112956142115
-0.00273231609164
0.00106104986827
-0.00287583296282
0.000992026320796
-0.00300860627974
0.000923012966276
-0.00313084869572
0.000854432884572
-0.00324280995588
0.000786617389339
-0.00334476214696
0.00071981565899
-0.00343698832107
0.000654204983309
-0.00351977320521
0.000589901298202
-0.00359339658599
0.000526968864891
-0.00365812791846
0.000465429303193
-0.00371422281201
0.000405269249963
-0.00376191996844
0.000346447198784
-0.00380143937843
0.000288899032407
-0.003832980439
0.000232542977375
-0.00385672094871
0.000177283605069
-0.00387281576527
0.000123015665484
-0.00388139620064
6.9627437609e-05
-0.0038825690953
1.70043766088e-05
-0.00387641668682
-3.49673123608e-05
-0.00386299651494
-8.63961769244e-05
-0.00384234236562
-0.000137380895923
-0.00381446571938
-0.000188004705379
-0.00377935868166
-0.000238329355172
-0.00373699800992
-0.000288388324372
-0.00368735096152
-0.000338179938616
-0.00363038269385
-0.000387660323765
-0.00356606560859
-0.000436737082046
-0.003494390252
-0.000485263823286
-0.00341537790393
-0.000533036665082
-0.00332909401815
-0.000579792835725
-0.00323566261151
-0.000625212698072
-0.00313528002222
-0.000668925177018
-0.00302822820455
-0.000710518336938
-0.00291488442716
-0.00074955491667
-0.00279572697641
-0.000785595775581
-0.00267133010897
-0.000818230375034
-0.00254234644471
-0.000847117844386
-0.0024094647324
-0.000872029889916
-0.00227334574632
-0.000892890590058
-0.00213453698588
-0.00090977840962
-0.00199340032729
-0.000922858665269
-0.00185011513063
-0.000932193175066
-0.00170483546301
-0.000937441282278
-0.00155802450872
-0.000937591885963
-0.00141081073499
-0.000931015817735
-0.00126512442233
-0.000916001735983
-0.00112232312811
-0.000892894971442
-0.00098491469865
-0.000859988291155
-0.000853962267359
-0.000819292674334
-0.000732910883882
-0.000768062922978
-0.000625273533193
-0.000707417957432
-0.000532025492877
-0.000643001661544
-0.000449286946681
-0.000583519485521
-0.000374708531274
-0.000528037244318
-0.000308654900729
-0.000472969373312
-0.0002521424536
-0.000417551203809
-0.000205318431958
-0.000363591699136
-0.000167249670031
-0.00031341213297
-0.000136415072512
-0.000268569547483
-0.0001110792722
-0.000229700778708
-8.96201609215e-05
-0.000196569222941
-7.10726340964e-05
-0.000167775236863
-5.58724599059e-05
-0.000140844621965
-4.51908066574e-05
-0.00011462328508
-3.84913939548e-05
-9.17326969605e-05
-3.36676188211e-05
-7.45486258061e-05
-2.93913637112e-05
-6.17946530461e-05
-2.57170319913e-05
-5.10555996118e-05
-2.30109072774e-05
-4.1458168054e-05
-2.09414571965e-05
-3.36859469082e-05
-1.93534332152e-05
-2.73101015601e-05
-1.81938880751e-05
-2.20393014884e-05
-1.69023613275e-05
-1.85861825738e-05
-1.57608288524e-05
-1.64724164836e-05
-1.44011196715e-05
-1.50592367242e-05
-1.29588703688e-05
-1.4052546507e-05
-1.12790210193e-05
-1.38354044278e-05
-9.65825177227e-06
-1.37806669793e-05
-7.64742615824e-06
-1.42847643609e-05
-5.63159660157e-06
-1.48113653373e-05
-4.48081380597e-06
-1.56832345939e-05
-2.93647024627e-06
-1.73777991921e-05
-1.46977098499e-06
-1.76126754383e-05
-1.77334512961e-05
-0.000243890031808
0.00176997433292
-0.00050056012619
0.00186538217698
-0.000753937865277
0.00184663804663
-0.00100182796956
0.00181417208301
-0.00124263684848
0.00177183760167
-0.00147500541506
0.0017207416359
-0.00169781920517
0.00166203504733
-0.00191021362113
0.00159693334504
-0.00211156541485
0.00152665978935
-0.00230147297628
0.00145239434947
-0.0024797290113
0.00137523372225
-0.00264628909375
0.00129616343284
-0.00280123920592
0.00121604163723
-0.00294476466408
0.00113559310751
-0.00307712213277
0.0010554114031
-0.00319861561915
0.000975966917021
-0.00330957683714
0.000897618692138
-0.00341034973161
0.000820628114096
-0.00350127882364
0.000745173066687
-0.00358270066703
0.000671361499727
-0.00365493790754
0.000599243780698
-0.00371829517135
0.000528823500745
-0.00377305641992
0.000460066639357
-0.00381948310987
0.000392909184825
-0.00385781303282
0.000327263356941
-0.00388825930577
0.000263022719334
-0.00391100960735
0.000200066399825
-0.00392622524177
0.000138262793749
-0.00393404031505
7.74729749679e-05
-0.00393456074407
1.75542314081e-05
-0.00392786350609
-4.16361792824e-05
-0.00391399614404
-0.0001002362208
-0.00389297688821
-0.000158373885237
-0.00386479562231
-0.000216160754544
-0.00382941615484
-0.00027368464977
-0.00378678009774
-0.000331001272877
-0.00373681264455
-0.000388125353327
-0.00367943064134
-0.00044502142192
-0.00361455286602
-0.000501595110874
-0.0035421128418
-0.000557685386523
-0.00346207358566
-0.000613058787649
-0.0033744444278
-0.000667406361451
-0.00327929884942
-0.000720344137996
-0.00317679341898
-0.00077141825218
-0.00306718601961
-0.000820114879275
-0.00295085351536
-0.000865878543707
-0.00282830396428
-0.000908137457401
-0.00270018164014
-0.000946347118489
-0.00256724913356
-0.000980044911291
-0.00243034023644
-0.00100893532498
-0.00229025561776
-0.00103297097172
-0.0021476100054
-0.00105242056737
-0.00200264771922
-0.00106781516354
-0.00185515882904
-0.00107967331539
-0.0017046849742
-0.00108790402983
-0.00155115978144
-0.00109110198715
-0.00139577704901
-0.00108638285505
-0.00124179503321
-0.00106996705506
-0.00108964863314
-0.00104502484502
-0.000943952852348
-0.00100566775027
-0.000802947024677
-0.000960282896047
-0.000673213583124
-0.000897784038348
-0.000562195695207
-0.000818422157836
-0.000472643498902
-0.000732543806817
-0.000393275803354
-0.000662878219638
-0.000319431769768
-0.000601873815724
-0.00025346150786
-0.000538933472992
-0.00019855788904
-0.000472449600998
-0.00015542058687
-0.000406722752077
-0.000122524462967
-0.000346304047909
-9.74805325046e-05
-0.000293608785922
-7.76757106005e-05
-0.000249500157882
-6.04396233631e-05
-0.000213802856365
-4.40525929681e-05
-0.000184153825905
-3.00810973593e-05
-0.000154813756425
-2.25940657798e-05
-0.000122103702279
-2.10804090681e-05
-9.3242721226e-05
-2.05306167076e-05
-7.50914716235e-05
-1.85100765576e-05
-6.38101665033e-05
-1.61872549857e-05
-5.33735517608e-05
-1.51778038499e-05
-4.24637004805e-05
-1.4512475435e-05
-3.4348384788e-05
-1.40137797441e-05
-2.78065394429e-05
-1.37750782471e-05
-2.22754304377e-05
-1.33041113485e-05
-1.90546317244e-05
-1.28813141547e-05
-1.68924180408e-05
-1.22058365684e-05
-1.57319451363e-05
-1.10785417637e-05
-1.51769991864e-05
-9.7792386112e-06
-1.51318563844e-05
-8.15405800775e-06
-1.54029606008e-05
-6.815666013e-06
-1.56198141583e-05
-5.16086343347e-06
-1.64625216766e-05
-3.7483898573e-06
-1.70928074846e-05
-2.65305675261e-06
-1.84693328927e-05
-1.29854678139e-06
-1.89629590056e-05
-1.90302784208e-05
-0.000254641385349
0.00202465620763
-0.000522414530819
0.00213319790743
-0.000786344810146
0.00211061137646
-0.00104397395092
0.00207184414153
-0.00129351631202
0.00202142286574
-0.00153348224163
0.00196075038883
-0.00176268917467
0.00189128472575
-0.0019802631517
0.00181454997229
-0.00218562215906
0.00173206131271
-0.00237844559863
0.00164526015556
-0.00255863515968
0.00155546544715
-0.00272627185255
0.00146384206885
-0.00288157349488
0.00137138494055
-0.00302485547904
0.00127891644641
-0.00315649691096
0.00118709381519
-0.00327691276427
0.0010964233464
-0.00338653231097
0.00100727833754
-0.00348578308703
0.000919918476286
-0.00357507977139
0.000834508748213
-0.00365481677948
0.000751136878453
-0.00372536384254
0.00066982851143
-0.00378706348499
0.00059056006933
-0.00384022992398
0.000513269190141
-0.00388514859349
0.000437863116666
-0.00392207610845
0.000364225220939
-0.00395124012146
0.000292220138318
-0.00397283909469
0.000221697786837
-0.00398704163491
0.000152496735156