/*--------------------------------*- C++ -*----------------------------------*\
| =========                 |                                                 |
| \\      /  F ield         | OpenFOAM: The Open Source CFD Toolbox           |
|  \\    /   O peration     | Version:  v1906                                 |
|   \\  /    A nd           | Web:      www.OpenFOAM.com                      |
|    \\/     M anipulation  |                                                 |
\*---------------------------------------------------------------------------*/
FoamFile
{
    version     2.0;
    format      ascii;
    class       surfaceScalarField;
    location    "10";
    object      phi;
}
// * * * * * * * * * * * * * * * * * * * * * * * * * * * * * * * * * * * * * //

dimensions      [0 3 -1 0 0 0 0];
oriented        oriented;


internalField   nonuniform List<scalar> 
36474
(
-0.00194464590493
-0.00268149024395
0.00462569878414
5.14732824129e-05
0.000517767281191
-0.000569166402291
-9.30273295837e-05
-0.000555938197006
0.000649287652517
0.00011841873653
0.000854715218513
-0.000973299512156
0.000658095042597
-4.51592539373e-05
-0.000613408239318
-0.00068946058445
0.000812836641654
-0.000123270625714
-0.000130461087892
-0.00101982012215
0.00115041672157
-0.00047066783248
-0.00698660428732
0.0074582710057
0.000930691528169
-0.0016207707178
0.000690659566945
0.00388705962058
0.00338882961163
-0.00727408283841
-0.000967257127592
-0.000166341010496
0.00113372497275
0.00048952958384
0.000948617701191
-0.00143869652841
-0.000633031416937
0.0011221644802
-0.000769294874984
0.000318644922323
0.000450576332324
-0.000869727205856
0.00102641272097
-0.000156968809531
-0.00751595518634
0.00236848673667
0.00514698665281
0.00135371787287
-0.000565844750493
-0.000787972621738
-0.000182836970741
0.000671525379739
-0.000488708208182
-0.00113548325469
0.0025534696029
-0.00141745566624
0.000325431390405
0.000450829627526
-0.000776257031592
-0.00192598742316
-0.000711052623901
0.00263647998674
-0.00956738398757
0.00308048934909
0.00648631476703
-0.0109719783398
0.00140534799899
0.000719625008872
-0.000735761732729
1.61640498173e-05
0.000115447583561
0.00060415727827
-0.00150755819411
0.00167471334681
-0.000166952026167
-0.000105734666913
-0.0014021597665
0.00156747810744
-0.00165573964997
8.63194827756e-05
0.000245020659117
0.00132236222181
-0.000729171828201
-0.000160940241049
0.000889869884646
-0.000763773908548
-0.00139030487434
0.00215507606981
-0.00125050627913
-0.000225327451832
0.00147579293827
-0.000801355168181
0.000112024930781
0.00274335175585
-0.00520850382653
0.00246394136284
0.00116767569143
-0.00315211756176
0.00198374233832
0.000693592671861
4.22699411638e-05
-0.000735666210141
-0.000161712289391
0.00023175859285
-7.00560032327e-05
-0.000468083447734
0.000643469554583
-0.000175517018455
-0.00131288273023
0.00196047419608
-0.000647622996669
-0.00218002122463
0.000978824646061
0.00120150906309
0.000166951208801
-0.00147995993449
-0.00192395461339
-0.000255830382737
-0.000696535998262
0.000672861411395
2.34627721362e-05
-0.000255704204447
-0.000441036034309
-0.00222890080872
0.00146543243225
-0.000240811876176
-0.000483851183639
0.00072468470272
0.000740743727981
-0.000992942862809
0.000252384262842
-0.000900616278439
0.00114475080589
-0.000244138611527
0.000568626650538
-0.00123345514929
0.000664601619982
0.000515814211066
-1.05827885816e-06
-0.000514968526546
0.00392869888756
0.00114662786757
-0.00507409587081
0.000881041054229
-0.000556424044698
0.000214066647878
-0.000611618592785
0.000397731379236
0.00066930256708
0.000168907661142
-0.000837360384558
-0.000469669057215
0.000864768760712
-0.00039535624811
-0.0014584676961
0.00119735775232
0.000261699066201
-0.000833282572197
-5.88536491094e-05
0.000892053262138
0.00170642363816
-0.00106482254323
-0.00064131187675
0.0062297604141
-0.00348765029698
0.000706834914587
-0.000145052628802
-0.000561719616394
0.000514523980027
0.000362040915424
-0.000876612450288
-0.000260620892297
0.000775156763526
-0.000715326547952
0.000666905546234
4.83268014851e-05
0.000647465592661
-0.000658711727987
1.11811291135e-05
0.000288477325162
-0.00108113487134
0.000792207911683
-0.000234674803567
-0.00073308056363
-0.00103718786295
0.000116521090274
0.000920459149848
-0.000805326246689
0.000518575406807
0.000286745367726
0.000618625954449
-0.000673924681122
5.53486851639e-05
0.000486763620323
-0.000753608784804
0.000266864400871
-0.000754726220228
0.00017800340362
0.000576268715008
0.00107867610485
0.000352975846602
-0.00143264741766
0.00237344153225
-0.00142762032593
-0.000945993122565
-0.000664558201669
0.000229179586897
0.000435608374423
0.000566791408855
-0.000145057381827
-0.000421840256334
-0.000784648866897
0.000917454081326
-0.000132495488516
-0.000527738856326
-0.000442607177115
0.000971297376954
7.79197299493e-05
0.000569613141654
0.0016709386396
-0.00154896212852
-0.000121606476761
-0.000467493048826
-0.000503205889226
0.000970439762169
-0.000868877078693
7.14493153939e-05
0.000797531239681
0.136509663369
-0.136508681843
0.000931164596097
-0.000931263838131
-0.000573486838095
0.000573548415842
0.000320676259777
0.000595736803761
0.00103765037334
-0.0019153682021
0.000876312028829
-0.001493662033
0.00726045148213
-0.00576682650426
0.000381347988362
-0.000684209631569
0.000302764180752
-0.000796337476874
0.00181928185726
-0.00102386596877
-0.000566283090498
-0.000329750213993
0.000896160219934
-0.000478446988188
-0.000290873243944
0.000126751461866
-0.000996454173855
-0.00622011821134
-0.00129673086108
0.000944678157245
0.000409613480246
0.00131687439082
-0.000872233428802
-0.000445350121628
0.000461692140281
0.000261222106325
-0.000722986544342
0.00406495118246
0.000695448656202
-0.00476064364178
-0.000219048507402
0.000605318254819
-0.000386116605277
-0.000585945086157
-0.000146943764615
0.000732645389493
-0.000811689331662
2.33058296052e-05
0.000788621824712
-0.00085029431742
0.00035441548136
0.000495650192107
0.000221943736983
0.000825400625906
-0.00104732698838
0.000899908860431
-0.000677963003515
0.000543351900159
-0.00107114317953
-0.00093136367145
-0.000256909973295
0.00118615875941
0.000723635940097
-0.00163383401517
0.000911660351413
0.00142617829436
-0.000702266387675
-0.000303077397747
0.000454471502738
-0.000151265076939
-0.000565916695623
0.000263023490967
0.000570145782782
0.00011514397217
-0.000685145698138
0.00077365802771
-0.000834324076944
6.08446377252e-05
0.000721070923622
-0.000303708134232
-0.000417856670922
-0.00141211556765
0.00445119012017
-0.00303707938747
-0.000623483287921
-8.54798225968e-05
0.000709287288638
-0.000301826041661
0.000763348086358
-0.0025905284034
0.00665447117267
-0.000647738194338
0.000428549391692
-0.00204987641441
-0.00262697849319
0.00467728025609
0.00207583173011
-0.00412619097083
0.000177577315273
0.000553835606966
-0.000731445166456
0.000747382610576
-0.00056964128805
-0.000201212572338
-0.000504798873632
0.000706005317605
0.000494237035813
-0.00069582736405
-0.000108999097596
0.000605382458109
-0.000496258279871
0.000481422155903
-0.000590334841776
-0.000566519898883
0.000493356416672
7.33383018272e-05
-0.00145137885219
0.0016337501553
-0.000181688845868
3.97050200181e-05
0.000701071476138
-0.000545838052084
0.000362809697817
0.000683520334049
0.000581036407802
-0.00126391452938
0.000920404690332
-0.00129296243775
0.00037192931417
0.000793490707382
-0.000299274810137
-0.000969423302101
0.000898002557797
7.10039389056e-05
-3.58701709611e-05
-0.00170679162703
0.00174291679288
-0.00196785962853
0.0019325746705
-0.00169857234874
0.00125891705232
0.000440759365987
-0.000815976421924
-0.00088275353869
0.00125386072702
-0.000685540126545
-0.000556823276835
0.000531372360001
2.54041394879e-05
0.000602318698154
-0.000631601497775
2.93084587694e-05
-0.00287551647445
0.00511935229108
-0.00224354704652
-0.000205338050249
-0.000411988170266
0.000617358064601
0.000666368146012
0.000566176492302
-0.00123293575151
0.00134120151466
0.000521679042839
-0.0018632990743
-0.000662490066256
-9.2090240326e-05
-0.000311764067004
-0.000393599951188
0.000705281144638
-0.000649966493586
-0.000319244840188
-0.0045020002135
0.000341105883825
0.00416043585744
0.000660664007224
0.000116116122147
-0.000776871196249
0.00025308787078
0.000469134988307
-0.000722154651225
-0.00016724499842
0.000860915843205
-0.00540285861849
0.0045926178427
0.000810094254564
-0.00362848624528
-0.00177338357564
0.000699074442325
0.000259772832115
-0.000958766737332
-0.000427256840283
0.000921176199032
-0.000494334373038
-0.000258766572285
0.00084375153812
-0.000585743522519
0.000583973776583
-0.00084299459022
0.000674483759499
-0.000807435327555
0.000133926152948
-0.000106043719863
0.000780557785893
-0.00181284985378
0.00223584064938
-0.000422230453763
4.65803928869e-05
-0.00186112353916
0.000720256950228
0.000138887386528
-0.000858738642981
-0.000382008241456
0.000187296570529
0.000606499819961
-0.00079386009352
0.000477684047033
0.000203781965209
-0.000681853583227
0.00102336127722
-0.000996408055513
-2.77937307701e-05
0.00120966888673
-0.000270709742435
-0.000938620808998
-0.000927660502287
0.000208602338134
0.000718878092662
-0.000169611865007
0.000868694657404
-0.000284615645563
0.000509562609716
-0.000224972992321
-0.000682727221616
-0.000441267119175
0.00112387895549
-0.00117511364223
0.000325188244505
0.000850501305747
-0.000289377527586
-0.000886154059549
-0.00108700835379
0.00216801216767
-0.00108107682671
0.00070597345565
-0.00179402832514
-0.00214612292465
0.00100196171546
0.00114499756894
-0.00140350347459
-0.000742708792667
-0.00065907356881
0.000623512941211
3.59743069471e-05
-0.000183973014467
-0.0004750099589
-0.000790262698354
0.000235573372066
0.000554793479135
-0.000690435620875
-9.98343582086e-05
-0.00413252061385
0.00103021339984
0.00310270758587
0.000665510436203
-0.000282947600753
-0.000382902127245
0.000882485838025
-0.00130465776364
0.000423633714314
0.000742439271424
-0.000854615112207
0.000112343617661
-0.000624214345477
-7.9209309145e-05
0.000703789746132
0.000542984193099
-3.52144537277e-05
-0.000507796940495
0.000576640780095
-3.36070286534e-05
0.000641950996853
0.000902480445958
-0.00154463400398
-0.000231578093645
0.00110772320507
-0.00087533798114
0.000886165533347
-0.00111734940047
-0.000691236758977
0.000134519966904
0.000710372114721
-0.000108006018141
-0.00136787042452
0.000869747994064
0.000498636150985
-0.000145174295629
-0.000508941681056
0.000654406525419
0.000113924729884
-0.000751400130599
0.000637878596632
0.000513836986662
0.000251540767887
-0.0007650406084
0.000727480565542
0.000189170533955
-0.00091601166157
-0.000844608214792
0.000318538421057
0.000526116421702
0.000698491762914
-0.000909852216838
0.000210981004399
0.000549221152386
-0.000763053108057
0.000213934198367
-0.000320350180939
-0.000565562374124
0.000886331904749
0.000937052552015
-0.000692070687068
-0.000244747198262
-0.0016577468364
-0.00931523952536
0.00128994066559
-0.00139510963535
-0.0017482175703
0.00148700688829
0.000260452131225
-0.00160389194474
-0.000144485297916
0.000370628940375
-0.00113495924709
0.000764799958263
0.00123152257669
-0.000860893740362
0.000338304455857
0.000360076256327
-0.000698299251176
0.000486946444903
0.000297604987629
-0.000784428054699
-0.000206635864291
-0.000721976445191
0.000928505076283
0.00327079782143
-0.00275842026408
-0.000515197611788
0.000953363573774
-0.00108383463539
-0.00170746090625
0.00183370205426
-0.000126898013021
0.00076572827048
7.94098700788e-06
0.0012174354313
0.000454094377191
-0.00114713358554
0.000651690229375
0.000495056043382
0.00533078977028
-0.00580179095989
0.00130785057151
-0.000377418685058
0.00466472192616
-0.000952578318242
-0.00371222245919
0.000859460879266
-7.87949233074e-05
-0.000780905136256
0.000442521951293
0.00109682086532
-0.00153998822264
-0.000570926671919
0.00096171609861
-0.000391229544484
0.000180084961607
0.000396770533474
-0.000414689401386
0.000594556272332
-0.000548385322345
0.0017223325475
-0.00117376979197
0.000613040997146
7.02116318686e-05
-0.000682748045734
0.000761916526352
0.00117555566329
-0.00193922469556
0.00218792355671
-0.00142696503631
-0.00167037390075
0.000927917605192
0.000744182913938
-0.00123109985851
-0.000438070105402
-0.00158017382692
0.000589545459895
0.000989668515012
-0.000633638314123
-0.00094748828675
0.000482855165696
-0.000377647275847
-0.00010515602066
-0.00175781461364
0.0013871918852
0.000370715152936
-0.00154248173403
0.00137841846758
0.000163568816415
0.000935215177446
-0.000617779620194
-0.000317393706176
-0.000907212242263
0.000632236429065
0.000274882668763
-0.000819909948279
0.000862135438956
-0.000622143234732
-0.00371326351604
0.00433548310126
0.000566670313706
-0.000817538589907
0.000251101200532
-0.000338354332003
-0.000166466641728
0.000504633466163
0.00098557256987
0.000673899015184
-0.0016570214028
8.02006538285e-05
0.000435311936535
-0.00037671048364
-0.000771983607626
0.00114819089248
-0.000406591370071
-0.000443618023072
-0.000396252691734
-0.000179222338482
0.000575359757361
0.000442693415231
-0.000862083663996
0.000419538964758
-0.000135329223746
0.00147765980278
-0.000233694897555
-0.00051993903648
0.000753883211395
0.00100972606147
-5.65924833543e-05
-0.000464323299198
-0.000136319325351
0.000601086046586
-0.000868697946738
0.000482436131658
0.000386456071306
-0.000759880172881
0.00044790810409
0.000250112237808
0.000173939493938
-0.000423745661669
-0.000206548273678
0.000456568004068
0.000778664424725
0.00021423903529
-0.000991908613791
0.000487615183756
-0.00027353607836
0.000965870779124
-0.000248993833774
-0.000717402818179
-0.00202966123989
0.00313215002901
-0.00110165529502
-0.00150852814447
0.00135885786982
0.000150288735108
-0.00299124515419
-0.000159523083807
0.00315083886759
0.000866080007753
-0.000196936966453
-0.000668953544007
-0.000711473064423
0.00140765605048
-0.000698344031105
0.00336057330081
-0.00184369667013
-0.0015177301761
0.000392779260462
-0.00113110994765
0.000737977623739
0.000649128929301
-0.000828825617642
0.000179747387888
0.000156569624206
0.000331116349154
0.000301394770666
-0.000475929601421
0.000174564391998
-0.000338604673962
0.000531380547537
-0.000193202701438
0.000373798491414
-0.000585671711302
0.000212275458957
0.00153378938112
-0.000455791176133
0.00138993796965
0.000982410772652
-0.000585599851114
-7.89346035811e-05
0.000549845579509
1.71484391386e-05
0.000397150438661
0.000439567917923
-0.00083647185064
-0.00114095354492
0.00234036866369
-0.001199313362
-0.00090631469281
0.00115287488947
-0.000246758427864
9.01784416855e-05
-0.000996400294848
0.00102370997777
-0.00330710059533
0.00228408587787
-0.0021651366896
0.00318857281914
0.00052024142317
0.000719353902351
-0.00123986407066
9.64111226132e-05
0.000229715199848
-0.000326191865039
-0.00103200643739
0.000308794674463
0.000723952227657
-0.00016990045074
-0.00021557691035
0.000385501195934
-0.000993576172708
8.00122749302e-05
0.000914334992773
-0.00132844034759
-0.00264129178287
0.00397221601237
0.000384015639216
-0.000187137377705
-0.000196817093222
0.000446274912211
0.000706626203858
-0.000641948945915
0.0010888068998
-0.00346361707251
0.000783336556151
0.00267858745578
-0.000771328746722
-0.00269407309218
0.000784414479994
0.0012567996241
-0.00204406765252
-0.000410552587926
0.000718513141399
-0.0003080016533
-0.000487285901318
-0.000445411287333
0.000932995939243
0.000882054264301
-0.000889461344974
7.39423883646e-06
0.00122546551428
-0.000792366931087
-0.000432898675139
0.000641619991001
0.000583875090536
0.000852481593116
-0.000495170273014
-0.000357483592382
-0.00021648424266
0.000568398510121
-0.000351869252625
0.000513213869017
-0.00137023493731
0.000857246511605
-0.00712712903775
0.00421751105323
0.0029079215324
-0.00414157127961
-0.00298698755034
-0.000987749603124
0.00061127506357
0.000364072153282
-0.00103235022095
0.000668632126087
-0.000582850424234
0.000947923084075
0.00138132417445
-0.000171745783118
0.000252816390533
-0.00081859658557
0.000566019055032
-0.000385557625243
-0.000769963482342
0.00115487082692
0.00132804633618
-0.00107556393986
-0.000252569754521
6.6866794473e-05
0.000605712423742
-0.00067258638942
0.00048843306019
0.000392556877081
-0.000880443153403
-0.00155343312166
0.000298584952542
0.00125427709163
-0.00126663041953
0.000413163553258
0.00085296263829
0.000787754901749
-0.00039463510371
-0.000393063849518
0.00152406221872
-0.000658155044248
-0.000866613019969
0.00165104254065
-0.00156582058596
-8.55366953217e-05
0.000974478355562
-0.00115602858673
0.000181720357344
-0.00032240670366
0.00100047908449
-0.000678909239862
-0.00044441030782
-0.00042922893952
0.00087321700515
0.00153020970686
-0.00440582101544
-0.000692461712448
0.000487126121288
0.00154424166037
-0.000877897587556
-0.000858418000785
0.000853452664634
4.61229146529e-06
-0.00041017561572
0.000524233890189
0.000710665992295
0.000226354406898
0.000151487712787
-0.00074967206909
0.00059866124083
-0.00068521026961
0.000836212284045
0.000960890193468
-3.99558838949e-05
-0.000921296759097
0.00101610224284
-5.6212408384e-05
0.000205357222124
-0.00092225733712
0.000716820048706
0.000693577940011
-0.000757637142324
6.39282681375e-05
0.000638021726323
-0.00058110948122
-0.00106269695015
0.00164347787845
0.0010209577851
-0.00160258082834
-0.00162901715857
0.00174383895247
-0.000114488279412
-0.001738182283
0.000110166863668
0.000202175609329
-0.000575045759067
0.00037320179927
0.000575853317493
-0.000373617769728
-0.000596171187353
0.000842126792448
-0.000244582826034
0.000969472777623
-0.000190164175602
0.0042742160084
-1.58268230425e-06
-0.00427206198123
0.000520533551331
-0.000871674465932
0.000351120192305
-0.000740153354968
0.000595312492425
-0.000350355902814
-0.000508437139272
0.000334570692851
-0.00068545206283
0.00063004227407
0.000182403720221
-0.000812236174706
0.000103147486975
-0.000499332153517
0.00081086897637
-0.000272395185417
-0.000538585218125
0.000710417728945
-9.18261176322e-05
0.00100011784638
-0.000260945582241
-0.000739651336209
-0.00105742518447
0.00250496769392
-0.00144528148356
0.000205592582627
0.000371407994169
-0.000576765115052
0.000596550252913
-0.00103557969492
0.000438355869547
0.00267603753153
0.00059501112223
-0.00061695733161
0.0009934656578
-0.00037672209574
0.00013514745441
0.00239869544365
-0.00253336664559
-0.00016831690478
0.000551403162474
-0.000383227079204
-0.000725513189546
0.000261355512119
-0.00185398662501
0.00119814794308
0.000657873685876
-0.00153420168063
-0.000320279149178
-0.000198066349112
0.000897226029477
-0.000699598232673
0.00148894179642
-0.000773786522394
-0.000716471688705
-0.000860798433033
0.000410738948534
0.000450100043136
0.00120559972297
0.000282896621802
-0.000698713787879
-0.00016209953697
0.00065924752224
-0.00084051923283
0.000181612637617
0.000750819393724
-0.000334623455083
-0.000416261515484
-0.000977814590853
0.000928475695529
4.9632472467e-05
-0.000454868390823
-0.000523215794371
0.000781478227195
-0.000900738652342
0.000119047955304
-0.000670836546852
0.00070641490495
-3.58002965524e-05
-0.000196517883749
-0.000440643591262
0.000637435364638
0.00021323165549
-0.000779214134567
0.000566282880341
0.000628447702594
-0.000664861853166
3.66062508705e-05
-0.000533822177627
0.000249231921432
0.000681477645097
0.000336945971692
-0.00101835921245
0.000997753946207
-0.000315928728216
-9.41499214289e-05
0.000720390559181
-0.000626429787791
0.000451537714231
-0.000545759373573
-0.000412765400783
0.00102333909189
-0.000610429104937
0.0015838052641
-0.000379166203927
-0.00120542367524
-0.00263543635398
0.00048727818456
0.00214766845056
0.000373644880064
-0.00127477179858
-0.00129610760422
-0.00234533943134
0.00364208653848
-0.00120274765619
0.00152652173516
-0.000325063881937
-4.98768915296e-05
0.000866064428137
-0.000817523635589
0.000722633728526
-0.000772629308794
0.0010559569336
-0.000816191532534
-0.000239663338075
-0.000884190058034
0.0010515822135
-0.000166974678027
0.000445732152648
0.00038609602282
-0.000831489109125
0.000933487124916
-0.000583933922722
-0.000349535911295
0.00132514369901
-0.000445493413871
-0.000879701159038
0.00102105411995
0.000304376623615
-0.00186142724382
0.00250359873776
-0.000641829528606
-0.000955430278191
0.00091609717006
3.96167323893e-05
-0.00205624919681
-0.00156092495659
0.00361682477857
-0.000720470236485
0.000259499734942
0.000460801193351
-0.000615438099732
0.000399180184916
0.00114039705708
-0.000627610589642
0.000825729656944
-0.000104587714572
0.000238065109939
0.000587207108293
-0.000121083332165
0.00404846579585
-0.000280485630959
-0.00142760745602
-0.000907674989854
-0.000970395009799
0.0018791869053
-0.000503401740324
0.000801351380598
-0.000298075274685
-0.000865995188168
0.000212827253675
0.000653212679851
9.35363386819e-05
-0.000959435915174
-0.000707994111675
0.00076098141487
-5.29257556227e-05
-0.000107019464102
-0.000601002412463
0.000158678399282
-0.00106898408477
0.000909937093449
0.00390598245373
-0.00486344544939
0.000957469390351
0.00024510990231
-0.00140790107612
0.00116323520439
-0.00121891230152
0.0014637928928
0.000308126670074
7.58130608981e-05
2.8702949111e-05
0.000853718511014
-0.000882813496732
-0.00033480328139
0.000656856362985
-0.000321928619625
-0.00051902182469
0.0014283184594
-0.000910490270775
0.00273219271756
-0.000517784271097
-0.0022135672204
0.000804046296917
-0.00111980647635
0.000316315470313
0.00100072069071
-0.000296289310461
-0.000703894728138
0.000355919250574
-0.001440486411
0.00108511745204
-0.00154407014165
-0.000316926760711
-0.000195961934898
0.00105831011676
-0.000864230255811
0.000827991469532
-0.00102372079579
-0.000230166582934
-0.00390242264156
0.000640522938533
0.00083960821263
-0.00147864405447
0.000913798882504
-0.000248211507945
0.00132447993319
-0.000894288097355
-0.000430886621535
-0.000529870047269
-0.000204636369728
0.00073484099869
0.00128349786073
-0.00135972747282
7.86884634359e-05
0.000938099760036
-0.00207781158478
-0.00259731902263
-0.000853761576453
0.00345079308927
-0.00284621809095
0.000249568804342
-0.000153186412741
-0.0006313523333
-0.0012698207189
-0.000293520880426
0.00156409175895
-0.00146873845749
0.000199222118752
0.00151474179139
6.93956189631e-05
-0.00286073043595
0.000225350342939
0.0016999118439
0.000277521938584
-0.00197747385759
-0.000294592738366
0.000690917223214
-0.000396308994879
-0.000548094452158
-0.000717618391587
-0.000724968395649
0.000813705024664
-8.86648193003e-05
6.93506998292e-05
-0.000794321512558
0.000968116086686
-0.00104167459152
7.35151939314e-05
-0.00167059818821
0.00210632072568
-0.000435800570031
0.000517193413913
0.000966934653673
-0.00148495766487
-0.000191633672676
0.000686266893008
-0.000494559358438
0.000746953200029
0.00077665669299
-6.91843851769e-05
0.00104289023609
-0.000244059972865
0.00070277523043
-0.000458656204525
0.00050220476891
0.000456455444601
-0.000958887708418
0.000849086364261
-0.000517550718793
-0.000331538321133
0.00031247858865
0.000536545768281
0.0151369747754
0.00786755663131
-0.0230052315514
0.0141640302942
0.000972140469429
0.00207646750185
-0.00121538120256
-0.000860084964186
0.000642763521292
0.00143398174583
0.0019486161416
-0.00075520770858
-0.00119371809156
0.00109923406343
0.000849707777588
-7.10322529247e-05
0.000558555777398
-0.000487841261808
0.00106649963897
-0.000597682638682
-0.000469341061024
0.000204538051014
-0.00104868719693
0.000844121268508
-0.00162400771647
0.000964752824264
0.00097112925395
0.00104493061529
-0.00201605765337
-0.00174038827398
0.000715726322263
0.00102490338907
-0.000566716146432
-0.000186910513572
-5.43863935581e-05
-0.000757396952312
0.00107108194966
-0.00140793287077
0.000336345928639
0.00147850562566
-0.000731780472496
0.00399677087773
-0.0035752077385
-0.000422242970203
0.00310770785265
0.000889440464851
-0.00046540699375
-0.00019632894917
0.000661508784516
-7.14628147161e-05
-0.000645695338789
0.000716981835928
-4.74990418425e-05
-0.000234849018583
0.000282329244903
4.37799983138e-05
0.00025245916143
-0.00029614623468
-0.000137090786408
-0.000990569086274
0.00112778522322
8.68284292127e-05
-0.00104815368625
0.000961164827576
-0.000194813022572
0.000708668306582
0.000877354293753
-0.000126843479103
-0.00074974834832
-0.00049050808868
-0.000467440815657
0.000957912281335
0.0011188776939
-0.000817665475202
-0.000301887094946
0.000693054666498
0.000425787789455
-0.000125785585255
-0.000547654344013
0.00067292928294
0.00265602177629
-0.000583412156801
-0.00207252986477
0.000898915330538
-0.000242646581717
-0.000656423264829
0.00076425095286
0.000134614544232
-0.000806698813423
0.00106051257864
-0.00109607318068
0.000379719205314
0.000370876156875
0.00140257250216
0.000587502296027
-0.00198925994903
6.09876901116e-05
0.000575818610557
-0.00063668871326
0.00080112776522
-8.17761641156e-07
-0.000800282331056
0.00122060580565
-0.000419655658122
0.000935476154078
-0.000506999793138
-0.000428896923409
0.000921409081002
1.41596721508e-05
0.00124317193826
-0.000559205688735
-0.000605014100941
-0.000239706774722
0.000453234810011
-0.00122557932658
-0.000653136340394
0.000184950744405
0.00126757619171
-0.00129918622267
3.11186875904e-05
-0.000581569547444
-0.000565865750225
-0.000574892442108
0.000954497338797
-0.000226139303694
-0.000658247543868
0.000831435723025
-0.000558360997565
-0.000273298062059
0.00240373393342
-0.00333765833254
0.000931131649574
-0.00081637604403
0.000173370937687
0.000643343316359
-0.000762659578052
0.000258023556577
0.000504712371795
-0.00268553361235
-0.00223262138146
0.00491711966399
-0.000346472263136
-0.000188783911731
0.000535638200238
-0.00114636581774
0.00132890428066
-0.000182614648082
-0.00183584590879
-0.00069655298304
0.0025323914405
-0.00156581061755
-0.000120661345846
0.00168643979294
0.000228911264803
-0.00206448803907
-9.42104033035e-05
-0.00147289046652
0.000521922259674
0.000114593707234
-0.000636606893182
-2.00683918094e-05
0.000542087845609
-0.00196023568115
0.0012218153829
0.000736473229408
-0.000971999517958
-0.000987543877444
-0.000756700185028
-0.00116644589869
0.00192514923456
-0.00218406326981
0.00142807134454
-0.000669585868861
0.000100031805914
0.000569507727752
-0.000810013230366
0.000140174443225
0.000858672266048
-0.000647288821374
-0.000211903933907
0.000688327350149
-0.000867312354037
0.000179072115032
0.000899671562362
-1.71361857667e-05
-0.000882718825172
0.000232827947254
-0.000702573419601
0.000208306611641
0.000716754356801
-0.000925542045982
0.00043862775663
-0.000702367399594
0.000263712084545
-0.000552186893529
0.0015980755261
-0.00104473384546
0.00111626228203
-0.00121171937926
9.44497896762e-05
3.6898870908e-05
0.00123116983424
0.000486657163883
-0.000730708221422
0.0016652884933
0.00169576136248
0.000240313465477
0.00024257572096
-0.000893586068734
-0.000864261987721
-0.000934729675757
-0.000607904987809
-0.000877956065048
0.000374474236599
0.000577425116242
-8.35872858622e-05
-0.000494032307752
0.000775999447558
-0.000870926533393
9.48328759448e-05
-0.000331864716271
0.00140344636149
0.000408259041781
0.000387053737928
-0.000795548404045
-0.000284225909561
-0.000419874270442
0.000703816738892
-0.000736183586532
0.000779936732614
-4.35731331132e-05
0.00159544894214
-0.000955376573418
0.00628930002456
-0.00293915869861
-0.0033496784615
0.000847901642496
-0.000248741020412
-0.000599562740081
-0.000884158962796
0.000302695569727
0.000581516008128
-0.000705178810876
0.000209051516144
0.000496233776639
0.00062740577005
-0.00172552018591
0.0010985903298
0.000542490092344
-0.00264771461468
0.00210530093105
0.000255904872042
-0.000589312137881
0.000333245966379
-0.000280518533062
0.000643020030855
-0.000362477685716
-0.000633935309723
0.000978698682271
-0.000345168118259
0.000424740232743
-0.00074476733027
0.00272154190426
-6.54035128835e-05
9.1342145421e-05
-0.00093411305627
0.000843349439031
-0.000790207320738
0.000551402025273
0.000238594022883
0.000534647082785
-0.000694471078062
0.00015983778062
-0.00109526228146
4.76853747465e-05
0.00104755596815
0.00100517736258
-0.000282370877418
0.000407249471431
0.000617579161261
-0.00102504752532
-0.000282255073427
-0.000546323890484
0.000828578102051
-0.000721351496496
0.0011285509502
0.000674999531989
-0.000957462561601
-0.00144648449898
-0.000532243989355
0.00197868536784
0.00178858335038
-0.00132957448276
-0.000460199632712
0.00398015961873
0.00230945140979
0.000658600008749
0.000189322370891
-0.000624954086821
-0.000258944847959
-0.000529148470115
-0.000176115189062
0.000414694097326
0.000210584374035
-0.000690510850876
0.000480209521787
0.00089579695683
0.000310629053618
-0.00120708478339
-0.000325401179092
0.00122115865563
-0.00172749911768
-4.0447007168e-05
0.00176908720575
-0.00019148211642
-0.000420037700731
-0.000587299655073
-3.19838750081e-05
0.000619782867607
-0.000638888460165
5.17943592446e-05
0.139515974511
-0.139517563137
0.000883161286831
-0.000883566578719
-0.000515297478173
0.000515258851783
0.000295093388661
0.000476488161732
-0.00474396539756
0.00129740444305
0.00344690319341
1.84411631291e-06
-0.000658444035738
0.000656250569917
0.000501542261895
-0.000688817806415
0.000187172046539
1.07894313135e-06
0.000704605302212
-0.00070557684948
0.000692523234082
-0.000486808276925
0.000389542011391
-0.00338192282561
-0.00132598817292
0.000614244834422
0.00157606350322
0.000240976587257
-0.00181793342008
-0.000359744667584
0.000848398692819
1.01729325901e-05
0.000567076534394
0.000832772054163
-0.000886491793622
5.39317750759e-05
-0.00084034438692
2.87776418643e-05
0.000811771147024
-0.000412777881111
-0.000437141031473
0.000850400226577
0.000412264085809
-0.000870586671683
0.00045857871487
0.0022937508116
0.00414828702583
-0.00644199381068
-0.00124971851393
-8.77005199857e-07
0.000664913842411
4.1226356544e-06
-0.000668947159689
-0.000841870232395
0.000670655872733
0.000171291323062
-0.000765638283765
-0.000169526188775
0.000935004425346
-0.00157975459395
0.000176314876818
0.00140232586811
-0.00117413160355
-0.000406478509504
-0.00100867350704
0.00165710328026
-0.000647826683088
-0.000663845638481
-0.000170566263606
0.00494352305516
-0.00364797401893
-0.00129552464501
-0.000874340549652