/*--------------------------------*- C++ -*----------------------------------*\
| =========                 |                                                 |
| \\      /  F ield         | OpenFOAM: The Open Source CFD Toolbox           |
|  \\    /   O peration     | Version:  v1906                                 |
|   \\  /    A nd           | Web:      www.OpenFOAM.com                      |
|    \\/     M anipulation  |                                                 |
\*---------------------------------------------------------------------------*/
FoamFile
{
    version     2.0;
    format      ascii;
    class       volScalarField;
    location    "745";
    object      pa;
}
// * * * * * * * * * * * * * * * * * * * * * * * * * * * * * * * * * * * * * //

dimensions      [0 2 -2 0 0 0 0];


internalField   nonuniform List<scalar> 
9216
(
915.247122678
914.941628391
914.309640659
913.345666489
912.055119576
910.44405806
908.520033004
906.291950722
903.769952265
900.965266973
897.890094429
894.557450294
890.981048271
887.175144836
883.154430027
878.93387965
874.528662139
869.95400428
865.225118427
860.357084791
855.364800453
850.262878652
845.065618762
839.786921212
834.44027622
829.03869206
823.594699849
818.120292735
812.626944165
807.125555831
801.626486873
796.139510728
790.673853765
785.238153964
779.840508769
774.48844132
769.188953334
763.948494122
758.773018707
753.66795961
748.638288758
743.688491253
738.822629921
734.044320436
729.356797487
724.762890695
720.265091412
715.865528964
711.566037171
707.368130473
703.27306933
699.281835874
695.395197447
691.613681505
687.937636652
684.367206677
680.902388609
677.543005884
674.288763115
671.139218555
668.09383546
665.151954145
662.31283996
659.575655361
656.939504654
654.403406556
651.966335925
649.627197325
647.384863991
645.238152861
643.185861014
641.226742574
639.359542796
637.58297716
635.895763197
634.296601978
632.784207718
631.357291741
630.014589807
628.754848556
627.576850447
626.479402584
625.461359094
624.521612188
623.659111737
622.872858319
622.161919618
621.525424915
620.962577334
620.472647725
620.054978082
619.708964156
619.434021224
619.229443899
619.092832971
619.034803114
915.551619741
915.244396821
914.610759714
913.642427687
912.345673631
910.726842065
908.793650771
906.555151571
904.021624653
901.204445655
898.115957571
894.769325163
891.178403024
887.3575903
883.32170635
879.08585528
874.665316874
870.075427018
865.33148825
860.448668933
855.441934743
850.32596676
845.115112913
839.823323293
834.464119198
829.050543112
823.595142575
818.109932211
812.606389878
807.095428578
801.587403041
796.092088445
790.618695744
785.175859326
779.7716578
774.413605457
769.108679695
763.863317053
758.683444798
753.574480119
748.541364968
743.588567574
738.720119579
733.93961912
729.250269356
724.654882443
720.15591863
715.755490486
711.455401809
707.257151536
703.161971738
699.170830732
695.284469537
691.503403773
687.82795809
684.258266585
680.79430484
677.435888741
674.182703953
671.034303187
667.990133092
665.049530179
662.211745274
659.475938415
656.841201125
654.306550691
651.870950566
649.53330447
647.292475262
645.14727926
643.096503897
641.138902609
639.273211506
637.498145099
635.81241214
634.214712336
632.703751424
631.278238936
629.936902483
628.678486525
627.501765782
626.405544903
625.388670829
624.450033216
623.588575546
622.803296077
622.093257468
621.457588014
620.895489582
620.406239219
619.989196658
619.643811819
619.369649576
619.166477496
619.034652888
618.976722315
916.185064799
915.873112533
915.233712565
914.256675587
912.948373045
911.315286926
909.365328677
907.10777123
904.553131697
901.713036221
898.600082451
895.227693308
891.609975486
887.761575141
883.697544521
879.433209536
874.984052457
870.365597473
865.593313745
860.682521567
855.648316835
850.505497567
845.268508399
839.951385309
834.56771739
829.130606798
823.652644764
818.145883924
812.621825939
807.091403919
801.564979665
796.052333985
790.562672279
785.104622113
779.686244634
774.315037685
768.997952672
763.741402132
758.551280622
753.432975622
748.391391446
743.430962587
738.555679737
733.769104771
729.07439806
724.474334357
719.97133064
715.567462216
711.264490379
707.063878099
702.966816827
698.974241204
695.086854431
691.305141526
687.629392799
684.059715313
680.596054169
677.23820199
673.985817879
670.838434942
667.795476959
664.856264113
662.02002758
659.285913769
656.652997143
654.120283361
651.686720715
649.351202588
647.1125779
644.969653286
642.921202888
640.965970595
639.102679459
637.330034238
635.646730608
634.051458153
632.542909453
631.119783552
629.780794907
628.524677285
627.350192478
626.256134506
625.241337942
624.304682265
623.44509961
622.661579091
621.953173824
621.319005148
620.758269052
620.270240908
619.85428308
619.509854288
619.236527395
619.034033509
618.902547727
618.840198263
917.158889056
916.841490336
916.193085751
915.202449561
913.876148265
912.220895804
910.244897893
907.957765495
905.370383872
902.494768004
899.343914023
895.931645902
892.272464486
888.381398356
884.273862956
879.965525911
875.472184374
870.809650866
865.993652936
861.039741788
855.963214815
850.779046149
845.501830015
840.145730288
834.724441242
829.251152524
823.738523786
818.1986619
812.643106701
807.082818102
801.528170987
795.988950519
790.474355117
784.992997821
779.552915465
774.161576508
768.825894876
763.55224211
758.346465122
753.213901667
748.159400983
743.187341679
738.30165439
733.505841274
728.802999894
724.195843591
719.686725854
715.277660865
710.970347664
706.766190187
702.666320569
698.671618071
694.78273093
691.000093664
687.323946997
683.754353168
680.291213639
676.934282198
673.683180331
670.537408127
667.496357385
664.559320496
661.72550153
658.994023417
656.36393738
653.834228831
651.40382558
649.071602891
646.836390892
644.696979224
642.65212403
640.700552537
638.84096993
637.072064107
635.392512628
633.800987777
632.296163659
630.876721602
629.541357371
628.288786846
627.117753251
626.027032969
625.015442629
624.081844889
623.225155199
622.444347381
621.738459952
621.106601466
620.547956522
620.061791326
619.647460392
619.304413844
619.032206569
618.830513177
618.699391833
618.636202287
918.47712762
918.152723524
917.492010561
916.482750323
915.131808502
913.446236648
911.434650292
909.107127575
906.475062587
903.551006495
900.348504923
896.88193296
893.166332753
889.217255804
885.050613842
880.682539018
876.129256291
871.406967492
866.531748995
861.519461381
856.385672258
851.145589769
845.814007498
840.405257855
834.933174628
829.411061747
823.851669309
818.267174115
812.669166216
807.068638908
801.475983986
795.900989798
790.352844543
784.840139394
779.370878156
773.952487523
768.59183071
763.295221955
758.068443922
752.916765415
747.844961546
742.857333774
737.957731988
733.1495761
728.435879296
723.819270444
719.302017808
714.886051558
710.572987239
706.364147703
702.260585645
698.26310431
694.372278486
690.588473428
686.911863809
683.342450459
679.880076954
676.524443952
673.275123309
670.131570011
667.093133927
664.159069537
661.328545601
658.600653052
655.974413008
653.44878329
651.022665258
648.694909447
646.464321714
644.329668455
642.289682469
640.343068133
638.488507311
636.724664734
635.050194143
633.463744016
631.963964013
630.549511058
629.219056052
627.971290222
626.804931982
625.718733397
624.711487007
623.78203222
622.929261911
622.152128553
621.44965045
620.820917518
620.265097131
619.781439691
619.369284293
619.02806372
618.757308709
618.556652681
618.426100882
618.362891638
920.146429892
919.813162875
919.136684757
918.103531269
916.72097827
914.996532168
912.939349673
910.560120846
907.870903655
904.884946338
901.616506984
898.080672726
894.293183114
890.270260757
886.028452355
881.584481782
876.95511709
872.157051793
867.206801156
862.120612719
856.914390781
851.603633202
846.203379642
840.728169181
835.192006439
829.608334287
823.990012743
818.349302644
812.697854216
807.046699532
801.406249285
795.786292994
790.196003775
784.643942683
779.138070193
773.68575815
768.293804408
762.968449038
757.715392544
752.539815125
747.446397498
742.439342355
737.522397007
732.698876303
727.971686378
723.343348337
718.816022413
714.391531703
710.071386023
705.856804982
701.748740821
697.74790013
693.85476501
690.069612826
686.392535153
682.823455113
679.362143753
676.008234746
672.76123808
669.62055213
666.585474802
663.655213213
660.828892629
658.10556418
655.48421208
652.963759912
650.543076684
648.220982245
645.996252714
643.867625549
641.833804812
639.893466287
638.045262936
636.287830333
634.619792508
633.039767826
631.546375274
630.138240792
628.814003937
627.57232455
626.411889659
625.331420293
624.329678418
623.405473688
622.557670178
621.785192864
621.087033962
620.462258954
619.910012394
619.429523335
619.020110343
618.681185455
618.412256571
618.212930552
618.083189247
618.020307632
922.175237994
921.831049435
921.135109367
920.07244673
918.650864844
916.878454822
914.765063183
912.322155401
909.562626811
906.500601106
903.151227593
899.530480381
895.654964255
891.541730786
887.208107595
882.67154273
877.949465604
873.059165062
868.017684728
862.84173492
857.547620104
852.151180133
846.66774349
841.112090368
835.498423829
829.840347275
824.150847209
818.442280341
812.726364794
807.014175042
801.31614079
795.642049292
790.00105182
784.401669767
778.851808334
773.358770205
767.929271758
762.569460982
757.284937009
752.080770872
746.96152745
741.931288261
736.993675106
732.151874228
727.408660997
722.766424786
718.227194008
713.792661004
709.464206718
705.242924838
701.129645345
697.124957158
693.229229834
689.442634035
685.765160772
682.196639197
678.736752997
675.385055256
672.140981886
669.003863581
665.972936457
663.047351395
660.226182302
657.508433343
654.893045398
652.378901812
649.964833688
647.649624805
645.432016369
643.310711669
641.284380819
639.351665598
637.511184547
635.761538293
634.101315195
632.529097273
631.043466457
629.643011079
628.326332646
627.092052755
625.938820192
624.865318066
623.870270984
622.952452142
622.110690323
621.343876678
620.650971301
620.031009458
619.483107475
619.006468167
618.600385645
618.264248876
617.997544172
617.79985922
617.671161517
617.608805091
924.573943517
924.216573967
923.4971692
922.398933728
920.930331007
919.100185357
916.9192041
914.399815293
911.555948533
908.402803382
904.956618989
901.234448729
897.253944983
893.033157831
888.590350557
883.943833873
879.111820169
874.112298238
868.962928308
863.680956398
858.283146373
852.785727417
847.204354321
841.554077793
835.849322317
830.103869483
824.330845477
818.542711966
812.75126026
806.967608708
801.202204338
795.464826529
789.764595903
784.109983082
778.508824167
772.968336714
767.4951379
762.095264291
756.774193044
751.536864236
746.38770423
741.330649853
736.369173323
731.506307699
726.744672786
722.086501256
717.533664887
713.087700645
708.749836514
704.52101675
700.401926472
696.393015253
692.494519658
688.706484409
685.028782172
681.461131714
678.0031145
674.654189553
671.413706736
668.280918372
665.254989414
662.335006191
659.519983977
656.808873459
654.200566392
651.693900531
649.287664129
646.980600087
644.771410011
642.65875825
640.641276096
638.717566206
636.886207362
635.145759573
633.494769602
631.931776863
630.455319728
629.063942165
627.756200699
626.530671605
625.385958292
624.320698782
623.333573236
622.423311409
621.5887
620.828589791
620.141902509
619.527637344
618.984877034
618.512793417
618.110652335
617.777817492
617.513753185
617.318029409
617.190600353
617.128913683
927.355067432
926.982023603
926.234769993
925.094336035
923.570001105
921.671497649
919.410594042
916.8008984
913.857600903
910.597204726
907.037261849
903.196118183
899.092673423
894.746159485
890.175940213
885.40133422
880.441461912
875.315117063
870.04066246
864.635948296
859.118251034
853.504229658
847.809895682
842.050593132
836.240985105
830.395044295
824.526045961
818.64656281
812.768462076
806.90290529
801.060352436
795.250567562
789.48262986
783.764945539
778.105265704
772.510704882
766.987761455
761.542339576
756.179772233
750.904845341
745.72182267
740.634471564
735.646089285
730.759529913
725.977231627
721.301244262
716.733256912
712.274625439
707.926399629
703.689349807
699.56399263
695.550615872
691.649301916
687.859949818
684.182295695
680.615931377
677.160321175
673.814816797
670.578670358
667.451045631
664.431027582
661.5176304
658.709804172
656.00644043
653.406376786
650.908400888
648.511253906
646.213633793
644.014198458
641.911569088
639.904333692
637.991051035
636.170255003
634.44045947
632.800163677
631.247858137
629.782031015
628.401174965
627.103794337
625.888412708
624.753580635
623.697883548
622.719949701
621.818458077
620.992146163
620.239817507
619.560348974
618.95269761
618.41590703
617.949113266
617.551549964
617.222552449
616.961561243
616.768127981
616.642190567
616.581299841
930.533469966
930.141973335
929.362014746
928.172059311
926.582390573
924.60385943
922.249533939
919.534458318
916.475346426
913.090266254
909.398334931
905.419428991
901.173915431
896.682407093
891.965544742
887.043807387
881.937351748
876.665881107
871.248542914
865.703853419
860.049646362
854.303041519
848.4804281
842.597457692
836.669042071
830.709352442
824.731818458
818.74912692
812.773221275
806.815303233
800.885839098
794.994567803
789.150513501
783.362001888
777.636680715
771.981541249
766.402941407
760.906630012
755.49777197
750.180974207
744.960312329
739.839357934
734.821206546
729.908506047
725.103485547
720.407984486
715.823481863
711.351125323
706.991759928
702.745956302
698.614037938
694.596107318
690.692070652
686.901660919
683.224459076
679.659913206
676.207355574
672.866017489
669.635042069
666.513494922
663.500372968
660.594611506
657.795089841
655.100635642
652.510028376
650.022002021
647.63524738
645.348414203
643.16011337
641.0689193
639.073372775
637.17198427
635.363237901
633.645596003
632.017504403
630.477398316
629.023708878
627.654870213
626.369326986
625.165542327
624.042006058
622.997243079
622.029821846
621.138362801
620.321546673
619.578122536
618.906915538
618.3068342
617.776877219
617.316139669
616.923818555
616.599217476
616.341750349
616.15094772
616.026728334
615.966755422
934.126605555
933.713525368
932.895421157
931.647759652
929.982059844
927.910548828
925.447882735
922.610846952
919.41798763
915.889239272
912.045571131
907.90865723
903.500574911
898.843534737
893.959643308
888.870700157
883.598029408
878.162346574
872.583659831
866.881203845
861.073402349
855.177853895
849.211333705
843.189804139
837.128427047
831.041573446
824.942828718
818.844994241
812.760087966
806.699346802
800.673234362
794.691451929
788.762951983
782.895960602
777.098000891
771.375917999
765.735905302
760.183531306
754.723767022
749.361013863
744.099132047
738.941469613
733.890891982
728.949812086
724.120220912
719.40371839
714.801544382
710.314609643
705.943526406
701.688638387
697.550049815
693.527653225
689.62115561
685.830102726
682.153901198
678.591838332
675.14309943
671.806782644
668.581911329
665.467444094
662.462282644
659.565277733
656.775233423
654.090910047
651.511026121
649.034259594
646.659248707
644.384592788
642.208853214
640.130554794
638.148187712
636.260210197
634.465051981
632.761118605
631.146796557
629.620459245
628.1804737
626.825207983
625.553039147
624.362361678
623.251596275
622.219198857
621.263669656
620.383562292
619.577492687
618.844147725
618.182293544
617.590783363
617.068564752
616.61468632
616.228303706
615.908684511
615.655212704
615.467395208
615.345127572
615.286195036
938.154837554
937.716604379
936.854189112
935.539571799
933.785796887
931.606788245
929.019143332
926.041755695
922.695368355
919.002132246
914.985195947
910.668330362
906.075591845
901.2310248
896.158404103
890.881017754
885.421490523
879.80164931
874.042430151
868.16382495
862.184863469
856.12362307
849.997256277
843.822025155
837.61333268
831.385744609
825.153000205
818.928014496
812.722877298
806.54885435
800.41639529
794.335147934
788.313972885
782.36097382
776.483524475
770.688297933
764.981296361
759.36788069
753.852800285
748.440222715
743.133763924
737.936518889
732.851092917
727.879633502
723.023862736
718.285110091
713.664345457
709.162212152
704.77905969
700.51497589
696.369818033
692.343242569
688.434733063
684.643625926
680.969133694
677.410365542
673.966344971
670.636024544
667.418297794
664.312008387
661.315956831
658.428904953
655.649578571
652.976668659
650.408831479
647.944688002
645.582823061
643.321784527
641.160082866
639.096191274
637.128546651
635.255551492
633.475576841
631.786966284
630.18804102
628.677105928
627.252456559
625.912386948
624.655198118
623.479207141
622.382756612
621.364224382
620.422033412
619.554661593
618.760651396
618.038619238
617.387264429
616.80537761
616.291848603
615.84567357
615.465961468
615.151939622
614.902958175
614.718496717
614.598424692
614.540658978
942.641828624
942.17432376
941.260527738
939.868383666
938.012830773
935.709894901
932.978552469
929.840250375
926.318361047
922.437658306
918.223842647
913.703116973
908.901812818
903.846065151
898.561533833
893.073171321
887.405037652
881.580164664
875.620470701
869.546724842
863.378555596
857.134494287
850.832038819
844.487721363
838.117164876
831.735118949
825.355473694
818.991257935
812.654631673
806.35688274
800.108433742
793.918858413
787.796901078
781.750515657
775.786897595
769.912518482
764.133159734
758.453945187
752.879372832
747.41334634
742.059206762
736.819764838
731.697333955
726.693763873
721.81047506
717.048493608
712.408486475
707.890796906
703.495479636
699.222335566
695.070945362
691.04070156
687.130838587
683.34046031
679.668564639
676.11406497
672.675808207
669.352589409
666.143163028
663.046251045
660.060548166
657.184724572
654.417426541
651.7572755
649.202865915
646.752762571
644.40549762
642.159567882
640.013432695
637.965512661
636.01418945
634.157806876
632.394673269
630.723065204
629.141232524
627.647404602
626.239797709
624.916623369
623.676097532
622.516450405
621.435936763
620.432846564
619.505515694
618.652336678
617.871769193
617.162350247
616.522703897
615.951550379
615.447714585
615.010133819
614.637864776
614.330089358
614.086119793
613.905405356
613.787785287
613.731317622
947.615028335
947.113438223
946.140055645
944.65816435
942.685078527
940.239445541
937.343169092
934.020792733
930.298832423
926.205155779
921.768437292
917.017684366
911.981828201
906.68937224
901.168093048
895.444792033
889.545100138
883.493339885
877.312449165
871.023968039
864.648083896
858.203722201
851.708662203
845.179652116
838.632499766
832.082123823
825.542565342
819.026972707
812.547578608
806.11568838
799.741680873
793.435028972
787.204331589
781.057359165
775.001094768
769.041775044
763.184928218
757.435409284
751.797433412
746.274608664
740.869969004
735.586008008
730.424713544
725.387603346
720.475761465
715.689875417
711.030273943
706.496965071
702.089674236
697.807881889
693.650860127
689.617707604
685.707382177
681.91873058
678.250514724
674.701434157
671.270144564
667.955272155
664.755424154
661.669195513
658.695172342
655.831932404
653.078043312
650.43205891
647.892514526
645.457921579
643.126762188
640.897484177
638.768496986
636.738168742
634.804824814
632.966747926
631.222179979
629.569325506
628.006356754
626.531420232
625.142644602
623.838149724
622.616056673
621.474498505
620.411631585
619.425647257
618.514783647
617.677337418
616.911675292
616.216245171
615.589586724
615.030341316
614.537261202
614.109217869
613.745209536
613.444367673
613.205962075
613.029407541
612.914510221
612.859478364
953.106287142
952.564909939
951.52229124
949.936354854
947.82742578
945.217449898
942.131951852
938.599237719
934.649576816
930.314472281
925.626045372
920.61651697
915.317769499
909.760973785
903.976270714
897.992505113
891.837016118
885.535493332
879.111908904
872.588532051
865.986023264
859.323592419
852.61919053
845.889694869
839.151047529
832.41832255
825.705723486
819.026537997
812.393084153
805.816681319
799.307644623
792.875313088
786.528100626
780.27355254
774.118399105
768.068604235
762.129407726
756.305362275
750.600367406
745.017702612
739.560061071
734.229584632
729.027900124
723.956156925
719.015065565
714.204937352
709.525724801
704.977062773
700.558309875
696.268589668
692.106830855
688.071805738
684.162165984
680.376475007
676.713236252
673.170916965
669.747967141
666.442833651
663.253969629
660.179839519
657.218920172
654.369698653
651.630667353
649.000317203
646.477129616
644.059567977
641.746069228
639.535036248
637.424831412
635.413771819
633.50012636
631.68211487
629.957909344
628.325637226
626.783386625
625.329213325
623.961149358
622.677212943
621.475419535
620.353793749
619.310381905
618.343264952
617.450571529
616.630490944
615.881285857
615.201304491
614.588992209
614.042902336
613.561706113
613.144201756
612.789322541
612.496143573
612.263887553
612.09193152
611.980044199
611.926592682
959.152638574
958.564619095
957.441256246
955.734330336
953.46803885
950.668521901
947.365810654
943.592790572
939.384202831
934.775800421
929.803670825
924.503688098
918.911060342
913.059944322
906.983110548
900.711655217
894.274767878
887.699572375
881.011061964
874.232144949
867.383804041
860.485350992
853.554732495
846.608822118
839.663629461
832.734381597
825.835483253
818.980409175
812.181593853
805.450370508
798.796964482
792.230534596
785.759255851
779.390395625
773.130383278
766.984867707
760.958763038
755.056285389
749.280985357
743.635780079
738.122987056
732.744360177
727.501127802
722.394032387
717.423371446
712.589039681
707.890572391
703.327189959
698.897843174
694.60125864
690.435983446
686.400427891
682.492905237
678.711667354
675.054935529
671.520925729
668.107868128
664.814020753
661.63767754
658.57717116
655.630871289
652.797178987
650.074518104
647.46132451
644.956034128
642.557070543
640.262833087
638.071686002
635.981949352
633.99189206
632.099727402
630.303611084
628.601641936
626.991865104
625.472277596
624.040835919
622.695465582
621.434072147
620.254553568
619.15481351
618.132775362
617.186396652
616.313683587
615.512705461
614.781608684
614.118630237
613.522110368
612.990504401
612.522393561
612.116494719
611.771669056
611.486929577
611.261446802
611.094555407
610.985983652
610.934265409
965.797309571
965.15427003
963.936221529
962.087943058
959.638698949
956.620028535
953.06760771
949.019900317
944.516953877
939.599450917
934.307997595
928.682578333
922.762115362
916.584087238
910.184180709
903.595972626
896.85065832
889.976858218
883.000541369
875.945100849
868.831597316
861.67915317
854.505433978
847.327110446
840.160177873
833.020046346
825.921416478
818.878050422
811.902560574
805.006299415
798.19935876
791.490647585
784.888027122
778.398418436
772.027892654
765.781737613
759.664504218
753.680038896
747.831510873
742.121441114
736.551735505
731.123722103
725.838191266
720.6954377
715.695303772
710.837224285
706.120272892
701.543210378
697.104534459
692.802530406
688.635321155
684.600915513
680.697252814
676.92224275
673.273799186
669.749867335
666.348443813
663.067589688
659.905436702
656.860187364
653.930109576
651.113526845
648.408805021
645.814336745
643.328524624
640.949764263
638.676428052
636.506850626
634.439316612
632.472051242
630.603214078
628.830896029
627.153119579
625.567842082
624.072961831
622.66632662
621.345744417
620.108995841
618.953848072
617.87806986
616.879447291
615.955799973
615.104997314
614.324974591
613.613748536
612.969432204
612.39024893
611.87454523
611.420802538
611.027647755
610.693862551
610.418391114
610.200346563
610.039017614
609.934087369
609.884263856
973.091048462
972.382558117
971.05263467
969.038150176
966.375137027
963.10218031
959.262069381
954.900055678
950.062437353
944.79554683
939.145064978
933.155536086
926.869983833
920.329558244
913.573178002
906.637166543
899.554911283
892.356599427
885.069098341
877.716047515
870.318206303
862.894049951
855.460527411
848.033805419
840.629773181
833.264127565
825.952069615
818.70784326
811.544349696
804.472963921
797.503562366
790.644695028
783.903800604
777.287364596
770.80103295
764.449684939
758.23747423
752.167848977
746.243567638
740.466721865
734.838769028
729.360571481
724.032439779
718.854177568
713.825127353
708.944217593
704.21001214
699.620762524
695.174463086
690.868907915
686.701747967
682.67054614
678.772828286
675.006128198
671.368025274
667.856173855
664.468323939
661.202333231
658.056171075
655.027914941
652.115740578
649.317906932
646.63273722
644.058597423
641.593873641
639.236949499
636.986184885
634.839896937
632.7963442
630.853714433
629.010116488
627.263576263
625.612036662
624.053361215
622.585341017
621.205704514
619.912129728
618.702258477
617.573712215
616.524109065
615.551081681
614.652295519
613.825467161
613.068382318
612.378913203
611.755035005
611.194841252
610.696557909
610.258556123
609.879363528
609.557674145
609.292356902
609.082461876
608.927226783
608.826286328
608.778529247
981.093905273
980.30670309
978.843279431
976.631721209
973.717323253
970.148000954
965.975547924
961.25343523
956.035230506
950.373622469
944.319871588
937.923481687
931.231940227
924.290428845
917.141457745
909.824428046
902.375170385
894.82554561
887.203219741
879.531734641
871.830972796
864.118043061
856.40848142
848.717482427
841.060739832
833.454497952
825.914872825
818.45695056
811.094101703
803.837701558
796.697256248
789.680770911
782.795101859
776.046184714
769.439165725
762.978472347
756.667837739
750.510293773
744.508164635
738.663080719
732.976012248
727.447313257
722.07676984
716.863648854
711.806745672
706.904432939
702.154712429
697.555271542
693.103544625
688.79677797
684.632095872
680.606564748
676.717252225
672.961278772
669.335860011
665.83833873
662.466206111
659.217112451
656.088867946
653.079434678
650.18691101
647.409510023
644.745533487
642.193343157
639.751330936
637.417889576
635.191385261
633.070133407
631.052378557
629.13627914
627.319897337
625.601194154
623.978029341
622.448165764
621.009277599
619.658961804
618.39475229
617.214136314
616.114572626
615.093510936
614.148412247
613.276769604
612.476128809
611.744108674
611.078420448
610.476886107
609.937455285
609.458220661
609.037431744
608.673507032
608.365044535
608.110830459
607.909846128
607.761274395
607.664696534
607.619187927
989.877673286
988.994498282
987.369734236
984.921993235
981.709620715
977.793069478
973.235539801
968.100345044
962.449325343
956.342113615
949.835911717
942.985466959
935.843034078
928.458195009
920.877482158
913.143819787
905.295858945
897.367334846
889.38662267
881.376699067
873.355709899
865.338259279
857.337327187
849.366372648
841.440834152
833.578089515
825.795982892
818.111089964
810.5375176
803.08654371
795.766992781
788.585996099
781.549598232
774.663047554
767.930916585
761.357152942
754.945070328
748.697286757
742.6156781
736.70138155
730.954837668
725.375844814
719.963616353
714.716834306
709.633697839
704.711971605
699.949038829
695.341961683
690.887550096
686.582437103
682.423156897
678.406220818
674.528187052
670.785720612
667.17564146
663.694959515
660.340896326
657.110893733
654.002610578
651.01390879
648.142830643
645.387568987
642.746432574
640.217808407
637.800123253
635.491806113
633.291253528
631.196799117
629.206688644
627.319061294
625.5319376
623.843213812
622.250662292
620.751937136
619.344584245
618.026054996
616.793722882
615.64490252
614.57687057
613.586888066
612.67222369
611.830177435
611.058104124
610.353436293
609.713705964
609.136564999
608.619803734
608.161367777
607.759372884
607.412117871
607.118095684
606.876002756
606.684745591
606.543446835
606.451630959
606.408565048
999.529318443
998.527122589
996.704215574
993.969586129
990.400627617
986.0748553
981.069820064
975.460355927
969.31737288
962.707736534
955.694664731
948.338221459
940.695628443
932.821248579
924.766184176
916.577523537
908.297344987
899.961659481
891.599549254
883.232837728
874.876671049
866.541329359
858.235299073
849.968978194
841.757574343
833.620862848
825.579983873
817.654134923
809.858530581
802.204032181
794.698135905
787.346530173
780.154137912
773.125380928
766.264202339
759.574075677
753.057944876
746.718053614
740.555827361
734.571872865
728.766049062
723.137542996
717.684942044
712.406294151
707.299152972
702.360621588
697.587404057
692.975868945
688.522127163
684.222121466
680.071720814
676.066812527
672.203385804
668.477602373
664.885851547
661.42478866
658.091356717
654.882792142
651.796615938
648.830612294
645.982796701
643.251376101
640.63470342
638.131229082
635.739451846
633.457871418
631.284944872
629.219048868
627.258449
625.401277361
623.645518526
621.98900377
620.429412581
618.964280395
617.591011268
616.306894473
615.109124149
613.994821445
612.961058671
612.004885012
611.123353253
610.313546893
609.572606983
608.897758046
608.286332576
607.735793681
607.243755617
606.808002044
606.426501977
606.097423505
605.819145351
605.590266174
605.409611683
605.276240388
605.189614744
605.14919797
1010.15591314
1009.00310611
1006.93192225
1003.84285964
999.842373164
995.031350137
989.504990482
983.351033197
976.649695905
969.474776882
961.895088695
953.975747264
945.778984054
937.364349215
928.788253253
920.10291014
911.354829337
902.58308737
893.817723902
885.078765499
876.376552882
867.714114155
859.092045823
850.515205978
841.998788126
833.567672247
825.249296487
817.067426181
809.038790222
801.172987344
793.474857421
785.947660362
778.59485219
771.419958163
764.426284916
757.616895252
750.994507179
744.5610947
738.317640313
732.26416139
726.399862921
720.723250371
715.232225518
709.92415477
704.795900713
699.84385229
695.063970487
690.451852919
686.002823374
681.712041405
677.574619974
673.585739744
669.740750899
666.03525702
662.465178399
659.026793918
655.716762045
652.532122168
649.470278467
646.528968723
643.706221063
641.000301444
638.409655027
635.932844306
633.568487064
631.315196872
629.171528905
627.135933272
625.206717842
623.382021645
621.659799299
620.037815786
618.513650259
617.084707001
615.748231805
614.501332278
613.341001151
612.26414202
611.267597226
610.348177482
609.502692679
608.727983099