/*--------------------------------*- C++ -*----------------------------------*\
| =========                 |                                                 |
| \\      /  F ield         | OpenFOAM: The Open Source CFD Toolbox           |
|  \\    /   O peration     | Version:  v1906                                 |
|   \\  /    A nd           | Web:      www.OpenFOAM.com                      |
|    \\/     M anipulation  |                                                 |
\*---------------------------------------------------------------------------*/
FoamFile
{
    version     2.0;
    format      ascii;
    class       volVectorField;
    location    "64";
    object      Ua;
}
// * * * * * * * * * * * * * * * * * * * * * * * * * * * * * * * * * * * * * //

dimensions      [0 1 -1 0 0 0 0];


internalField   nonuniform List<vector> 
9216
(
(-0.0107237402699 0.0109462309041 0)
(-0.0112894452462 0.0353943576005 3.90854400668e-27)
(-0.0113047679017 0.060251983378 -7.54561911561e-31)
(-0.011193365298 0.0851107601023 0)
(-0.0110626058534 0.109557108571 0)
(-0.0108530281844 0.133462370697 0)
(-0.0106518970224 0.156742506411 0)
(-0.0103911640468 0.179313732276 0)
(-0.0101525369259 0.201089724052 0)
(-0.00984983012017 0.22201127103 0)
(-0.00958462091738 0.242023227119 0)
(-0.00924712965956 0.261083823171 0)
(-0.0089318777823 0.279151759426 0)
(-0.00852955616898 0.296115180216 0)
(-0.0082070054403 0.312025956239 0)
(-0.00785080931105 0.326888636471 0)
(-0.00755702675039 0.340732138373 0)
(-0.00718022650068 0.353535673975 0)
(-0.00684220639081 0.365289567711 0)
(-0.00644824624839 0.37599054894 0)
(-0.00611425285311 0.385662652653 0)
(-0.00572984563189 0.394322385209 0)
(-0.00542014883901 0.402007976789 0)
(-0.0050481287067 0.408739510635 0)
(-0.0047292054942 0.414542234674 0)
(-0.00435277753172 0.419357460601 0)
(-0.00399239706492 0.423358040038 0)
(-0.00356106034871 0.426326035237 0)
(-0.00320840796036 0.428387764745 0)
(-0.0028084583182 0.429580839021 0)
(-0.00251385446495 0.429802728019 0)
(-0.00207616846888 0.429503050394 0)
(-0.00154770204619 0.427958613326 0)
(-0.0010262598945 0.425301495153 0)
(-0.000615311099869 0.421831951988 0)
(-0.000156373613507 0.417468126226 0)
(0.00028950052864 0.412154175995 0)
(0.000797397663617 0.40597858273 0)
(0.00128830018823 0.398827543791 0)
(0.00179980457757 0.390793354148 0)
(0.00222702042236 0.381856644275 0)
(0.00270159500134 0.372245376456 0)
(0.00315890546436 0.361714663328 0)
(0.0036113984023 0.350488020364 0)
(0.0040102304991 0.33857877342 0)
(0.00437904172234 0.326082869631 0)
(0.00466876342822 0.313104733195 0)
(0.00495942178329 0.299727098063 0)
(0.00516382325779 0.286050028366 0)
(0.00534737636071 0.272186633386 0)
(0.0054560302777 0.258231406089 0)
(0.00552846466928 0.244291254521 0)
(0.00551728634544 0.230493892281 0)
(0.00548349851579 0.216931628002 0)
(0.00537362622224 0.203701617622 0)
(0.00524563198489 0.190887315179 0)
(0.00506551142452 0.178583280858 0)
(0.00486909246135 0.166776845491 0)
(0.00460084269876 0.155620503617 0)
(0.00433091097614 0.145118773615 0)
(0.00403999528409 0.135307918825 0)
(0.00376259670877 0.126181658152 0)
(0.00346465782534 0.117744063914 0)
(0.00317939091197 0.109972396757 0)
(0.00291324511613 0.102843960731 0)
(0.00268750135149 0.0963139941503 0)
(0.00244312063828 0.0903176876381 0)
(0.00221845730597 0.0848497519689 0)
(0.00199110098604 0.0799280440335 0)
(0.00180277020149 0.0754567595715 0)
(0.00164105010858 0.0713935341297 0)
(0.00151123473058 0.0676502492426 0)
(0.00138935688003 0.0641981257268 0)
(0.00130083906515 0.0609779235582 0)
(0.00123465465545 0.0579365306758 0)
(0.00118418424793 0.0550207108271 0)
(0.00114112407396 0.0522163209853 0)
(0.00110375617049 0.0495042027034 0)
(0.00107213202524 0.0468763356235 0)
(0.00105712297549 0.0443079461378 0)
(0.00103798515782 0.0417756984204 0)
(0.00102442315686 0.0392805550985 0)
(0.00101736596339 0.0368094010799 0)
(0.000998545510168 0.0343680725997 0)
(0.000976554127792 0.0319648314047 0)
(0.000946009979576 0.0296915425121 0)
(0.000825899737602 0.0274666700358 0)
(0.000535198316216 0.0252026515644 0)
(0.000484963304825 0.023915783051 0)
(0.000727599363333 0.0224598350218 0)
(0.0010030381053 0.02090392109 0)
(0.00116919205275 0.0183331170314 0)
(0.0013885215882 0.0153348030108 0)
(0.00177484442058 0.0119106140436 0)
(0.00200413318683 0.00705159301035 0)
(0.00204416338164 0.00213503603079 0)
(-0.0348090651904 0.0116490510549 0)
(-0.0385141035178 0.0395795517736 0)
(-0.0384394243813 0.0674583265662 -4.10249116953e-27)
(-0.0378904936884 0.0953722357917 0)
(-0.0371709777986 0.122769691564 0)
(-0.0362249999544 0.149570022637 0)
(-0.0351864489082 0.175677037435 0)
(-0.0339544788775 0.200972721146 0)
(-0.0326718142704 0.225346818489 0)
(-0.0312215008356 0.248743092581 0)
(-0.0297705428082 0.271078391554 0)
(-0.0281742422894 0.292310569326 0)
(-0.0265815500705 0.312418617592 0)
(-0.0248699383633 0.331338165501 0)
(-0.0232449453307 0.349262584014 0)
(-0.0215180488298 0.365817973226 0)
(-0.0198814648359 0.381257102202 0)
(-0.0181746812131 0.395300770839 0)
(-0.0166116771316 0.408385027429 0)
(-0.0149695827065 0.420285480375 0)
(-0.0134417172167 0.431116902077 0)
(-0.0118411113707 0.440867061267 0)
(-0.0103523048777 0.449495637637 0)
(-0.00880201806075 0.456984761031 0)
(-0.0073702519553 0.463422324637 0)
(-0.00587187978459 0.468791462093 0)
(-0.00446603372152 0.473084313935 0)
(-0.00301289838684 0.476591456485 0)
(-0.00164967571273 0.479005759137 0)
(-0.000254156332945 0.480413753298 0)
(0.000999069824894 0.480913559823 0)
(0.00246591916371 0.480111775068 0)
(0.00404545066486 0.478538069559 0)
(0.00564718861145 0.475818183223 0)
(0.00703070585892 0.47206429475 0)
(0.00844038712123 0.467204936384 0)
(0.00982309638 0.461279716866 0)
(0.0112642438328 0.454302324906 0)
(0.012616289682 0.446289912307 0)
(0.0139837647898 0.437400164653 0)
(0.0152344419466 0.427505634866 0)
(0.0165161008317 0.416563706315 0)
(0.0176939994533 0.404747144604 0)
(0.0187833190851 0.392129658973 0)
(0.0196866652606 0.378751980509 0)
(0.0205021850414 0.364900171756 0)
(0.0211766399248 0.350323367925 0)
(0.0217404900403 0.335301088118 0)
(0.0220360515165 0.319921448268 0)
(0.022229620386 0.304333562481 0)
(0.0222428681621 0.288640582555 0)
(0.0220768751492 0.272960709683 0)
(0.0217049375394 0.257440643403 0)
(0.0212444837863 0.242192247656 0)
(0.0205943695743 0.227320091697 0)
(0.0198521069651 0.212940442075 0)
(0.0189782123915 0.199140788554 0)
(0.0180440957392 0.185999511028 0)
(0.0170051862896 0.173602493171 0)
(0.0159447736813 0.161845433264 0)
(0.0148340806858 0.150868305253 0)
(0.0137456233982 0.140656415151 0)
(0.0126464207517 0.131212125362 0)
(0.0116108155806 0.1225363741 0)
(0.0105931432262 0.114436090094 0)
(0.00967345229237 0.107217289334 0)
(0.00877009676726 0.10056471243 0)
(0.00793417838652 0.094561896404 0)
(0.00714992505771 0.0891418955141 0)
(0.00645586129326 0.0841735615382 0)
(0.00587235822689 0.0796948468922 0)
(0.00540184212386 0.0755698116675 0)
(0.00496643834119 0.0717588421769 0)
(0.00465309602669 0.0681995671151 0)
(0.00443174769448 0.0648302555201 0)
(0.0042461832626 0.0615845711514 0)
(0.00408643769808 0.0584450378539 0)
(0.00395784036105 0.0554196817411 0)
(0.00381534439618 0.052414282825 0)
(0.0037461511227 0.0495385339229 0)
(0.00372579247561 0.0467178231974 0)
(0.003677058938 0.0437857321288 0)
(0.00363896232097 0.040998371803 0)
(0.00355232078883 0.0381426015737 0)
(0.00344197803236 0.0354091174475 0)
(0.00334566426662 0.0327196354895 0)
(0.00303287192942 0.0300652052157 0)
(0.00230412965066 0.0275164077072 0)
(0.00187311367073 0.0246812511819 0)
(0.00236948804538 0.0232096967603 0)
(0.00317304158519 0.0215391957028 0)
(0.00376900325979 0.0191181474643 0)
(0.00456184780727 0.0159529834316 0)
(0.00613556592819 0.0126837758935 0)
(0.00790011629 0.00834683825904 0)
(0.00693070604256 0.002224751668 0)
(-0.059668091342 0.0118086214799 0)
(-0.0661290746863 0.0402373780513 0)
(-0.0659127260275 0.0684785335328 -4.10616305475e-27)
(-0.0649935348052 0.0968173617714 0)
(-0.0637540130616 0.124614792852 0)
(-0.0622077167112 0.151793529407 0)
(-0.0604309617718 0.17822127838 0)
(-0.0584104330456 0.203841137295 0)
(-0.0562113227538 0.228503422415 0)
(-0.0538256542149 0.252158474662 0)
(-0.0513413979035 0.274767651738 0)
(-0.0487051696792 0.296202031582 0)
(-0.0460205001945 0.316472001523 0)
(-0.0432731578979 0.335544555235 0)
(-0.0405253302293 0.353410683194 0)
(-0.0377038715529 0.370154513997 0)
(-0.0349069340191 0.385659335846 0)
(-0.0321444545063 0.400088351098 0)
(-0.0294902548726 0.413231523605 0)
(-0.0268232077869 0.425201631928 0)
(-0.024234281675 0.436008716083 0)
(-0.0216084351361 0.445675302383 0)
(-0.0190413887044 0.454241710651 0)
(-0.0164889187447 0.461727227463 0)
(-0.0140428800313 0.468191025959 0)
(-0.0116575392667 0.473589297525 0)
(-0.00935906816484 0.478256990838 0)
(-0.00699726568031 0.481854394566 0)
(-0.00463780002088 0.484313664142 0)
(-0.00223725532115 0.485933213628 0)
(0.000138172048644 0.486253473476 0)
(0.00259423887983 0.485677361138 0)
(0.00513694120366 0.483966750989 0)
(0.00772377978384 0.481224769559 0)
(0.0102331559229 0.477653567715 0)
(0.0127705254184 0.472765235654 0)
(0.0152950625277 0.466805242426 0)
(0.0177850289308 0.459734223364 0)
(0.0201386182737 0.451595469713 0)
(0.0224898864595 0.442435270364 0)
(0.0247912624857 0.432280093013 0)
(0.0270710581723 0.421163141997 0)
(0.0291393583971 0.409155340753 0)
(0.0309185124157 0.396288035051 0)
(0.0325470736578 0.382888952938 0)
(0.0339947578508 0.368632843987 0)
(0.0351937268375 0.353804756464 0)
(0.0361919186012 0.338724660421 0)
(0.0368824711075 0.323259053738 0)
(0.0372814841231 0.30737235578 0)
(0.0373889256118 0.29152512048 0)
(0.0372370598373 0.275727313191 0)
(0.0367749246701 0.259859933126 0)
(0.0360278226239 0.244268544967 0)
(0.0349652579383 0.229032586181 0)
(0.0336885911441 0.214322471346 0)
(0.0322133014421 0.200219244825 0)
(0.0305947272871 0.186778502094 0)
(0.0288631908468 0.174062500248 0)
(0.0270646414777 0.162125685298 0)
(0.0251990480685 0.150999520124 0)
(0.0233262539655 0.140685887375 0)
(0.0214668251907 0.131191859118 0)
(0.0196897005622 0.122483846875 0)
(0.0179541114337 0.114544356843 0)
(0.0163106994253 0.107385055641 0)
(0.0147614251477 0.100902538504 0)
(0.0133395871022 0.095034223028 0)
(0.012056863621 0.0897346067943 0)
(0.0109405799998 0.0849388275837 0)
(0.00996016195023 0.0803901774733 0)
(0.00913908766057 0.0763196471188 0)
(0.00846749139129 0.0725601696001 0)
(0.00792570414013 0.0688576949902 0)
(0.00750539188815 0.0655321857467 0)
(0.00718238025685 0.0623470409903 0)
(0.00693268759977 0.0592663677978 0)
(0.00675660261227 0.0562577857341 0)
(0.00662735388298 0.0533611466601 0)
(0.00647046205714 0.0501439016278 0)
(0.00638217641843 0.0473326507614 0)
(0.00626562718633 0.0443969521431 0)
(0.00617640619733 0.0416160416926 0)
(0.00604149472008 0.0388646556527 0)
(0.00592593429419 0.0361460365233 0)
(0.00579894050955 0.0332900317861 0)
(0.00536769984042 0.0306137911663 0)
(0.00478079137609 0.0279969954615 0)
(0.00410022604321 0.0245216911419 0)
(0.00395910154727 0.0214683177833 0)
(0.00504310776047 0.0206195044047 0)
(0.00667349972009 0.0187188061213 0)
(0.00778654688452 0.0144999176494 0)
(0.00962910370125 0.0106653215386 0)
(0.0118568625726 0.00687157270315 0)
(0.0113876908355 0.00206775098575 0)
(-0.0850963982452 0.0119404187873 0)
(-0.0944275023988 0.0408630923519 0)
(-0.0941006817277 0.069478359339 4.10479177367e-27)
(-0.0927616140637 0.0981972729367 0)
(-0.0909558983931 0.12636455368 0)
(-0.088735885655 0.153879377934 0)
(-0.0861707158986 0.180647160404 0)
(-0.0832535931847 0.206500044712 0)
(-0.08008622671 0.231426172454 0)
(-0.0766618744704 0.255273077322 0)
(-0.0730481027736 0.278002675253 0)
(-0.0692624170561 0.299558944797 0)
(-0.0653978954854 0.319913433422 0)
(-0.0614935548093 0.339100070648 0)
(-0.0575720904336 0.357098340177 0)
(-0.0535799341873 0.373799267291 0)
(-0.0496148526932 0.38929411095 0)
(-0.0456779023399 0.403577968988 0)
(-0.0418142906936 0.416666972106 0)
(-0.0379964429351 0.428583572355 0)
(-0.0342708193168 0.439362588093 0)
(-0.0305978898428 0.449002525568 0)
(-0.0269605863043 0.457680516623 0)
(-0.0233958497387 0.465134481911 0)
(-0.0199931215472 0.471738869009 0)
(-0.0167153242389 0.477345382352 0)
(-0.0134270763738 0.481892202445 0)
(-0.0100248909948 0.485463777175 0)
(-0.006649255601 0.487940235864 0)
(-0.00323017208579 0.489383737653 0)
(0.000228872248504 0.489970252858 0)
(0.00375814817528 0.489277571801 0)
(0.00736964766556 0.487583231043 0)
(0.0109424274378 0.484828003407 0)
(0.0145034604136 0.481005876699 0)
(0.0181465792527 0.476129275216 0)
(0.021739208648 0.470126518836 0)
(0.0253430831674 0.463258316812 0)
(0.028810856504 0.455069497097 0)
(0.0322079265225 0.445855766647 0)
(0.035443725906 0.435673210253 0)
(0.0384824910897 0.42443075372 0)
(0.0414102075191 0.412809426638 0)
(0.0440454654263 0.400016162437 0)
(0.0464474222609 0.386188516858 0)
(0.0486275145384 0.371944601958 0)
(0.0504147804888 0.35672235503 0)
(0.05178598215 0.340999963662 0)
(0.0527765933032 0.324870744563 0)
(0.0533599607861 0.308514401835 0)
(0.0534635927029 0.29204059308 0)
(0.0532074231313 0.275633190345 0)
(0.0525388568883 0.259388022891 0)
(0.0515321575616 0.243664736268 0)
(0.0500469374687 0.228103747182 0)
(0.0481691502155 0.213119175899 0)
(0.046041713538 0.198786320342 0)
(0.043709549362 0.185154436314 0)
(0.0412111359769 0.172281407174 0)
(0.0385739960442 0.160235153439 0)
(0.0358776408945 0.14904609709 0)
(0.0331528348381 0.138712403281 0)
(0.0304645857207 0.129245521786 0)
(0.0278912229933 0.120583709519 0)
(0.0253212574957 0.112698230723 0)
(0.0228630949943 0.10572790313 0)
(0.0206111083395 0.0994705018968 0)
(0.0186055304149 0.0938194278588 0)
(0.0167990806359 0.0887467198949 0)
(0.015285529054 0.0841561147981 0)
(0.0140072547596 0.0799107121478 0)
(0.0128866016998 0.0759777080951 0)
(0.0119409099192 0.0722264254446 0)
(0.0111802825603 0.0688519384893 0)
(0.0105587313572 0.0656152294575 0)
(0.0101022503955 0.0624897369671 0)
(0.00975628588062 0.0594702293763 0)
(0.00949967219241 0.0565571536068 0)
(0.00936356949258 0.0537439538132 0)
(0.00920893985501 0.0510024432831 0)
(0.00904392636857 0.0483039442025 0)
(0.00897830857159 0.0456253296065 0)
(0.00884832942188 0.0426878487431 0)
(0.00872396435177 0.0400395227067 0)
(0.0085004711014 0.0368717263228 0)
(0.00833546777827 0.034093536466 0)
(0.00808386070126 0.0315063460079 0)
(0.00745604783506 0.027647517859 0)
(0.00697736770992 0.0246424595197 0)
(0.00631648015344 0.021141429045 0)
(0.00702972912737 0.0188704954253 0)
(0.00913785402125 0.0162708002516 0)
(0.0118140004563 0.013656252948 0)
(0.0132287897907 0.00913592885298 0)
(0.0155425224266 0.00571250200313 0)
(0.0155835376891 0.00190010629643 0)
(-0.110958020013 0.0121132731711 0)
(-0.123141040258 0.0416787458645 0)
(-0.122692685192 0.0708004962214 0)
(-0.120919811147 0.100041824885 0)
(-0.118527158774 0.128697466259 0)
(-0.115598068131 0.156667376643 0)
(-0.112184359072 0.183808612643 0)
(-0.108370050615 0.210077956903 0)
(-0.104158080236 0.235262445817 0)
(-0.0996377484321 0.259358600014 0)
(-0.09487326592 0.282285170018 0)
(-0.0899196607591 0.303982894793 0)
(-0.0848877322205 0.32448800772 0)
(-0.0797958941064 0.343772798937 0)
(-0.0746049936652 0.361715792565 0)
(-0.0693862859062 0.378410001183 0)
(-0.0642106261842 0.393858708333 0)
(-0.0590923551618 0.408073286068 0)
(-0.0540797230029 0.421105200022 0)
(-0.0491686830093 0.432952562119 0)
(-0.044352700443 0.443786940156 0)
(-0.0396063625497 0.453384692943 0)
(-0.0349109299849 0.461862886191 0)
(-0.0303921095388 0.469422019591 0)
(-0.0261030838587 0.475967002952 0)
(-0.0218077385044 0.481694584141 0)
(-0.0174594391525 0.486093922165 0)
(-0.013073305014 0.489772901507 0)
(-0.00864106906152 0.492233569232 0)
(-0.00421089017778 0.493702580394 0)
(0.000315601425698 0.49409102869 0)
(0.00488905345539 0.493467279536 0)
(0.00946433974329 0.491791611881 0)
(0.0141094347119 0.489336986549 0)
(0.0188027397706 0.485536994991 0)
(0.0235470924944 0.480658150684 0)
(0.0281833177694 0.474655786542 0)
(0.0328244372874 0.467475670633 0)
(0.0373637563265 0.459561919054 0)
(0.0416977620103 0.450213201616 0)
(0.045966360315 0.440535141838 0)
(0.049902031207 0.429063057501 0)
(0.0537624678543 0.417022119848 0)
(0.0574463535563 0.403636385883 0)
(0.0606890011177 0.389433965727 0)
(0.0634945431523 0.374461573593 0)
(0.0659063871817 0.358796312742 0)
(0.067847956145 0.342912024839 0)
(0.0692423498432 0.326291469945 0)
(0.0700162375315 0.309437975969 0)
(0.0701539237557 0.292421647175 0)
(0.0697571333599 0.275466820942 0)
(0.0687525640635 0.25872844329 0)
(0.0672931659327 0.242298281286 0)
(0.065400569344 0.226557858192 0)
(0.0629193566088 0.211178452606 0)
(0.0601015483537 0.196566691756 0)
(0.0570149579288 0.182698683347 0)
(0.0536834181536 0.16963605048 0)
(0.0501383602468 0.157455594786 0)
(0.0465459205255 0.146213289948 0)
(0.0429466249374 0.135875806739 0)
(0.0394164733776 0.12650657548 0)
(0.0358589177949 0.11797333179 0)
(0.0322220520155 0.110410120719 0)
(0.028941676976 0.104006220728 0)
(0.0260950081844 0.0980859332987 0)
(0.023564997424 0.0927828610796 0)
(0.0212433826779 0.087979642192 0)
(0.0193438337459 0.083589854882 0)
(0.0177839516977 0.0795022714809 0)
(0.0163695627386 0.0756744696865 0)
(0.0151413374912 0.0721506974068 0)
(0.0142033591081 0.0688479990411 0)
(0.0135067953936 0.0656675263249 0)
(0.0129389261357 0.0624557410315 0)
(0.0124530748216 0.0593931551079 0)
(0.0121082789679 0.056460746297 0)
(0.0118957449632 0.0535852273633 0)
(0.0116759785137 0.0507598799373 0)
(0.0114889791126 0.0479483576848 0)
(0.0113765674328 0.0450827536896 0)
(0.0112652016059 0.0424945842834 0)
(0.0111542781219 0.0398752692643 0)
(0.0110354389447 0.0372719243019 0)
(0.0108514375934 0.0345592043353 0)
(0.0109290888674 0.0319263059735 0)
(0.0106987326121 0.0287757324013 0)
(0.010073390958 0.0250105979757 0)
(0.00997420575659 0.0222049142919 0)
(0.00985833097986 0.0173573135178 0)
(0.0115748731561 0.0142327616727 0)
(0.0142256134019 0.0115952918051 0)
(0.0172427231201 0.00861076486685 0)
(0.0180949020577 0.00470539149321 0)
(0.0186721648346 0.00163295344886 0)
(-0.137366365996 0.0123274387338 0)
(-0.152470762958 0.0427258104397 0)
(-0.151885040923 0.0725062195909 0)
(-0.149641909777 0.102419510537 0)
(-0.146617883743 0.131701144872 0)
(-0.142926862301 0.160243303935 0)
(-0.138657592145 0.187940720644 0)
(-0.133808497383 0.214587811596 0)
(-0.128530228349 0.240183758354 0)
(-0.122855874668 0.264579297721 0)
(-0.11688186795 0.287743444402 0)
(-0.110726779874 0.309613264072 0)
(-0.104491853322 0.330323538927 0)
(-0.0980831637192 0.349582854579 0)
(-0.0916175628013 0.367552339377 0)
(-0.0851595612185 0.384223105595 0)
(-0.0787576669657 0.39961800119 0)
(-0.072467551771 0.41375200908 0)
(-0.0663263527493 0.426801557854 0)
(-0.0602829783665 0.438552358534 0)
(-0.0543393113161 0.449169297847 0)
(-0.0484849972186 0.458669132625 0)
(-0.0428254913275 0.467014376052 0)
(-0.0374322547937 0.474656886107 0)
(-0.0321852751204 0.481272055362 0)
(-0.0268647375777 0.486656902632 0)
(-0.0215066933038 0.491319609328 0)
(-0.016093899791 0.494747687687 0)
(-0.0106373390799 0.497241024197 0)
(-0.00516080204715 0.49875034575 0)
(0.000337339087066 0.49919191338 0)
(0.00587563804962 0.498882995044 0)
(0.0114877752521 0.497268802968 0)
(0.017207317877 0.494626502283 0)
(0.0230517896068 0.490893662388 0)
(0.0288842306133 0.485999286826 0)
(0.034624249742 0.480292664946 0)
(0.0402237509858 0.473047582886 0)
(0.045786112822 0.465439722822 0)
(0.051169031572 0.455949848742 0)
(0.0565600428132 0.445826803453 0)
(0.0617677705017 0.434134149537 0)
(0.0666666501639 0.421459433339 0)
(0.0712338472438 0.407681755454 0)
(0.0754215081825 0.393382411898 0)
(0.0790465321957 0.377874516646 0)
(0.0820129398184 0.361677779249 0)
(0.084336892641 0.344886760252 0)
(0.0860764194462 0.32764095443 0)
(0.087173218035 0.310432963028 0)
(0.0874385418505 0.292753403921 0)
(0.0869069459153 0.27515452164 0)
(0.0855737592996 0.257767492254 0)
(0.0836189625626 0.240720754739 0)
(0.0811405556469 0.224463178077 0)
(0.0780322970439 0.208624317439 0)
(0.0744098585211 0.193659362034 0)
(0.0704292946432 0.17947397493 0)
(0.0662674297767 0.166400709062 0)
(0.061742132666 0.154065282291 0)
(0.057351522899 0.143053132855 0)
(0.0525524781479 0.132877942251 0)
(0.0475079165375 0.12351248536 0)
(0.043099250371 0.116321937467 0)
(0.0386044035602 0.109342484101 0)
(0.0346214205786 0.103286397845 0)
(0.0311684058388 0.0976273261157 0)
(0.0281306934671 0.0928543034095 0)
(0.0253659463182 0.0884089184889 0)
(0.0231565000015 0.0843515619752 0)
(0.0213831986584 0.0806155039675 0)
(0.019783685711 0.0771694498641 0)
(0.0183684934787 0.0736359620417 0)
(0.0171886749742 0.0701620833817 0)
(0.0164264384509 0.0670699618424 0)
(0.0159173581802 0.0639595327225 0)
(0.0154066886473 0.0607835630998 0)
(0.0148736190505 0.0574185416818 0)
(0.0145727289655 0.0543330489404 0)
(0.0143555152109 0.051384160118 0)
(0.0140826494803 0.0482436407813 0)
(0.0139369086943 0.0454035628001 0)
(0.0137206388754 0.0425057460808 0)
(0.0134753632955 0.0395009381373 0)
(0.0132911244229 0.0366384780556 0)
(0.0132728586487 0.0339404983639 0)
(0.013256012636 0.0309205630537 0)
(0.0132061909508 0.0281402876492 0)
(0.0132590096205 0.0252448202493 0)
(0.0141691211924 0.0226092352477 0)
(0.0145310315097 0.0181041298131 0)
(0.0147159280922 0.0133157101125 0)
(0.0165502156327 0.0100728218582 0)
(0.0204083279978 0.00808378096233 0)
(0.0211873463715 0.00451249135419 0)
(0.0213905255495 0.00142355951555 0)
(-0.164509499256 0.0125996786197 0)
(-0.182578522383 0.0440305546644 0)
(-0.181830909554 0.0746275181364 4.12841985653e-27)
(-0.179076411999 0.10537677877 0)
(-0.175373751981 0.135432685112 0)
(-0.170877985321 0.164710950364 0)
(-0.165616793007 0.193013433546 0)
(-0.159701497194 0.220208908143 0)
(-0.153274921864 0.246265585957 0)
(-0.146361240999 0.271025836815 0)
(-0.139126599701 0.294456093201 0)
(-0.131747696215 0.316662282475 0)
(-0.124126225072 0.337356805711 0)
(-0.116383751408 0.356684559424 0)
(-0.108619657811 0.374656628313 0)
(-0.1008787238 0.391286529689 0)
(-0.0932490533035 0.406588177142 0)
(-0.085800730904 0.4207322502 0)
(-0.0784426896504 0.433527682437 0)
(-0.0712228994721 0.445145791323 0)
(-0.0641717417176 0.45562232383 0)
(-0.0572825416358 0.464951162226 0)
(-0.0507928757212 0.473341458494 0)
(-0.0445333477582 0.481014077229 0)
(-0.0381663505289 0.487488597341 0)
(-0.0318238429396 0.492855138376 0)
(-0.0254590408497 0.497279952131 0)
(-0.0190354508969 0.500704147189 0)
(-0.012657492553 0.503225620187 0)
(-0.00628559302113 0.504754154771 0)
(0.000167013130845 0.505552915486 0)
(0.00677902699786 0.505057928648 0)
(0.0135427944959 0.503546641536 0)
(0.020325589642 0.500986650129 0)
(0.0271621174114 0.497302942438 0)
(0.0340128821266 0.492744577128 0)
(0.0408259416652 0.487019705387 0)
(0.0475143760852 0.480116565078 0)
(0.0542768220998 0.472134760764 0)
(0.061051711567 0.462563438117 0)
(0.0676023727126 0.451856276458 0)
(0.0738968183719 0.439873632091 0)
(0.0799583448362 0.427187683681 0)
(0.0855446505233 0.412964077698 0)
(0.0905628764126 0.397816905696 0)
(0.0949563626351 0.381685523583 0)
(0.0987605507322 0.365175223302 0)
(0.101710918289 0.347615989835 0)
(0.103790919977 0.329596206682 0)
(0.104984109484 0.311261718501 0)
(0.105276089799 0.292725883668 0)
(0.104687903664 0.274597800402 0)
(0.10304691732 0.256405157122 0)
(0.100492902465 0.238640813193 0)
(0.0973714800827 0.221761122884 0)
(0.0934536256782 0.205355859942 0)
(0.0890506267816 0.190181017643 0)
(0.0841393958675 0.17561587969 0)
(0.0791092263005 0.162318046629 0)
(0.0732152914214 0.149963806687 0)
(0.0668343565017 0.138584551571 0)
(0.0612619378501 0.130247244328 0)
(0.0551889436588 0.121776269522 0)
(0.0496984024033 0.114736187523 0)
(0.0446264606227 0.108221748093 0)
(0.0397480913493 0.102160042771 0)
(0.0357746211139 0.0972798509183 0)
(0.032298923098 0.0929729539765 0)
(0.0290742169179 0.0887748849037 0)
(0.0265596247246 0.0851278733262 0)
(0.02447929861 0.0817388724518 0)
(0.0227263592756 0.0786503143656 0)
(0.0214061190732 0.075542775451 0)
(0.0203220450062 0.0726040520405 0)
(0.0193308340608 0.0691071327406 0)
(0.0187546830735 0.0660697788989 0)
(0.0183080745936 0.0629142199625 0)
(0.017977871737 0.0598498581168 0)
(0.0176003342056 0.0563494281094 0)
(0.0173036160914 0.0532033815304 0)
(0.0169919577075 0.0498163899301 0)
(0.0167419494843 0.0465628587042 0)
(0.0166281401958 0.0434810390979 0)
(0.016403479476 0.0401362246126 0)
(0.016142122216 0.0368733232739 0)
(0.0159095943771 0.0334424750173 0)
(0.0157662676403 0.0302881842947 0)
(0.0155895036924 0.0269735233138 0)
(0.0160392770779 0.024015755841 0)
(0.0170249295286 0.0207826913254 0)
(0.0186659545663 0.0178893770647 0)
(0.019138951429 0.0136754201613 0)
(0.0189134106927 0.00898169740108 0)
(0.0223004953945 0.00702543026876 0)
(0.0243333871767 0.00451306056448 0)
(0.0241475025643 0.00136139536833 0)
(-0.192524583783 0.0129252514325 0)
(-0.21364049097 0.0456117624936 0)
(-0.21270095299 0.0772043151447 -4.126043067e-27)
(-0.209379167998 0.108959880476 0)
(-0.204930684483 0.13996014291 0)
(-0.199526212612 0.170092440789 0)
(-0.193206414351 0.199142397155 0)
(-0.186124904622 0.226989163859 0)
(-0.178453369416 0.253588975719 0)
(-0.170222461217 0.278762501685 0)
(-0.161677431379 0.302585482971 0)
(-0.152852003401 0.32492179182 0)
(-0.143802804594 0.345734710415 0)
(-0.134682089303 0.36511850148 0)
(-0.125578209088 0.383085386468 0)
(-0.116540973322 0.399634454061 0)
(-0.107677795278 0.414931249643 0)
(-0.0989351029945 0.428795618336 0)
(-0.0903638811825 0.441418665005 0)
(-0.0820021144381 0.452848071224 0)
(-0.0738443176941 0.463134991582 0)
(-0.0660767481082 0.472207849759 0)
(-0.0587739315199 0.480962677144 0)
(-0.0514270844768 0.488001963301 0)
(-0.0440501238076 0.494455616538 0)
(-0.0366779683978 0.499750076681 0)
(-0.0293536205809 0.504166478178 0)
(-0.0220810982846 0.507608764751 0)
(-0.0148316234138 0.510423718743 0)
(-0.00749984501787 0.512030238307 0)
(-1.09249230199e-05 0.512687409052 0)
(0.00767378961013 0.512320890198 0)
(0.0154101863575 0.51089676538 0)
(0.0232421751607 0.508728348538 0)
(0.0311126224559 0.505108833989 0)
(0.0389901441296 0.500635154585 0)
(0.0469157682324 0.494913560871 0)
(0.0549094591235 0.488073414709 0)
(0.0630505347883 0.479683930967 0)
(0.0710955737802 0.469991914414 0)
(0.0789356327064 0.459395665774 0)
(0.0864247848457 0.447100297558 0)
(0.0936119782702 0.433662643924 0)
(0.10030902128 0.418930346262 0)
(0.106426643098 0.403484944461 0)
(0.111707668559 0.386614492135 0)
(0.116221905049 0.368940904317 0)
(0.119813937046 0.350532328575 0)
(0.122264770817 0.331494849759 0)
(0.123833467143 0.312513086327 0)
(0.124051166169 0.292916521853 0)
(0.123288120131 0.27382666424 0)
(0.121283088285 0.254636666999 0)
(0.118293557019 0.236310057291 0)
(0.114261385545 0.218291970171 0)
(0.109566624208 0.201521043306 0)
(0.10406242546 0.185532225238 0)
(0.0981818234187 0.170655174149 0)
(0.0911969674522 0.156911786609 0)
(0.0837946654705 0.145172548492 0)
(0.0764225423387 0.135266313649 0)
(0.0690117122171 0.1260891652 0)
(0.0620446866887 0.118056912375 0)
(0.0556655491477 0.111100178518 0)
(0.0498715458245 0.105153836534 0)
(0.0446033271391 0.100374783717 0)
(0.0397499247097 0.0955103311573 0)
(0.0357947300225 0.0919609351612 0)
(0.0322095428477 0.0883315855799 0)
(0.0293178755513 0.0851215655038 0)
(0.0271584974381 0.0826778134279 0)
(0.0251881281809 0.0796293594777 0)
(0.0238462095885 0.0769761481512 0)
(0.0228995215398 0.0742842900506 0)
(0.0221387716056 0.0714718498633 0)
(0.0215693530783 0.0684679194853 0)
(0.0212578693377 0.0654224015119 0)
(0.0208649163534 0.0617284746284 0)
(0.0205909089523 0.0584564155005 0)
(0.0204214338944 0.0550841200064 0)
(0.0200738160123 0.0512924071846 0)
(0.0198617780839 0.0478232428969 0)
(0.0196115161482 0.0441832813094 0)
(0.0194637641027 0.0407526653228 0)
(0.0192745818898 0.0374300462052 0)
(0.0190933584413 0.0339493923439 0)
(0.0192554425585 0.0308504631784 0)
(0.0189005455586 0.0266691780288 0)
(0.0188921721974 0.0227192294245 0)
(0.0197799382213 0.0193633577442 0)
(0.0212580602548 0.0163609031019 0)
(0.0231780099347 0.0136695637995 0)
(0.0232799022897 0.00934906962814 0)
(0.0232862297763 0.00586153431218 0)
(0.0270865755594 0.00417648909179 0)
(0.0267103232952 0.00134315049549 0)
(-0.221599561548 0.0133161069989 0)
(-0.245857690779 0.047505019642 0)
(-0.244685730489 0.0802896098892 0)
(-0.240730234729 0.113249040452 0)
(-0.235479309164 0.14538589857 0)
(-0.229027778439 0.176502176609 0)
(-0.221538386389 0.206437332225 0)
(-0.213172204646 0.235033713184 0)
(-0.204133728596 0.262246953595 0)
(-0.194481141431 0.28789811229 0)
(-0.184452443277 0.312069361173 0)
(-0.174109556073 0.334627269277 0)
(-0.16358029555 0.355573494107 0)
(-0.153051886378 0.375097909507 0)
(-0.14250823549 0.393001016658 0)
(-0.132100228032 0.409438708827 0)
(-0.121866463669 0.424441062244 0)
(-0.111842584358 0.438087714544 0)
(-0.10207890858 0.450478043643 0)
(-0.092577254656 0.461685449596 0)
(-0.0834218684062 0.471643055036 0)
(-0.0748591756009 0.481035147122 0)
(-0.0664760999034 0.489030263047 0)
(-0.0581224190169 0.496233306959 0)
(-0.0497930553688 0.502339879379 0)
(-0.0415003295036 0.50759174043 0)
(-0.0333478302166 0.511937710227 0)
(-0.0252813098565 0.51567502055 0)
(-0.0170792135881 0.518273694502 0)
(-0.00872794636409 0.520007257859 0)
(-0.000240888407472 0.520788611775 0)
(0.00834519278975 0.520541457998 0)
(0.0170445768129 0.519586658851 0)
(0.0259222959269 0.517231756477 0)
(0.0348715194464 0.514070954544 0)
(0.04386952692 0.509676614025 0)
(0.0531188238207 0.50410242887 0)
(0.0624831209923 0.496950405312 0)
(0.0718746305374 0.488476976222 0)
(0.081260548587 0.479062191924 0)
(0.0904914689178 0.467785788307 0)
(0.0993714866935 0.455220647546 0)
(0.107726256581 0.441211497212 0)
(0.115669229831 0.426325924681 0)
(0.122928237234 0.40974640742 0)
(0.129283457063 0.392122695863 0)