/*--------------------------------*- C++ -*----------------------------------*\
| =========                 |                                                 |
| \\      /  F ield         | OpenFOAM: The Open Source CFD Toolbox           |
|  \\    /   O peration     | Version:  v1906                                 |
|   \\  /    A nd           | Web:      www.OpenFOAM.com                      |
|    \\/     M anipulation  |                                                 |
\*---------------------------------------------------------------------------*/
FoamFile
{
    version     2.0;
    format      ascii;
    class       volVectorField;
    location    "999";
    object      U;
}
// * * * * * * * * * * * * * * * * * * * * * * * * * * * * * * * * * * * * * //

dimensions      [0 1 -1 0 0 0 0];


internalField   nonuniform List<vector> 
9216
(
(0.00271003493918 -0.00271238747771 0)
(0.00285735041768 -0.00875332975033 1.17165998945e-27)
(0.00284919897748 -0.0148883448344 1.84099710723e-31)
(0.00281192188966 -0.0210237607328 0)
(0.00276017255893 -0.0270563815573 0)
(0.00269540807008 -0.0329619448971 0)
(0.00261931806481 -0.0387146117809 0)
(0.00253324145459 -0.0442914048065 0)
(0.0024384839832 -0.0496721336557 0)
(0.00233631208147 -0.0548393917095 0)
(0.00222799607791 -0.059778514487 0)
(0.00211473444167 -0.0644775221382 0)
(0.00199769034535 -0.0689269926306 0)
(0.00187791436095 -0.0731199090927 0)
(0.00175639542933 -0.077051461494 0)
(0.00163399034654 -0.0807188412589 0)
(0.00151148827229 -0.0841210184946 0)
(0.00138954642923 -0.0872585280535 0)
(0.00126876321319 -0.0901332602127 0)
(0.0011496179067 -0.0927482681477 0)
(0.00103254716298 -0.0951075933864 0)
(0.000917886803728 -0.0972161084716 0)
(0.000805947351276 -0.0990793840245 0)
(0.00069695701232 -0.100703568151 0)
(0.00059113325911 -0.102095291752 0)
(0.000488627092357 -0.103261578763 0)
(0.000389588893747 -0.104209781578 0)
(0.000294114902105 -0.104947513703 0)
(0.00020230674012 -0.105482606339 0)
(0.000114222547373 -0.10582305717 0)
(2.99323324944e-05 -0.105976987811 0)
(-5.05486784562e-05 -0.105952668763 0)
(-0.000127209638213 -0.105758340365 0)
(-0.000200053330244 -0.105402262825 0)
(-0.000269072996907 -0.104892726935 0)
(-0.00033429582121 -0.104237983055 0)
(-0.000395748160679 -0.103446228632 0)
(-0.000453481674364 -0.102525570014 0)
(-0.000507547776777 -0.101484007347 0)
(-0.000558018063434 -0.100329401337 0)
(-0.000604965352875 -0.0990694615392 0)
(-0.000648477699853 -0.097711717351 0)
(-0.000688645508726 -0.0962635097879 0)
(-0.000725569479719 -0.0947319673799 0)
(-0.000759353423235 -0.0931240016259 0)
(-0.000790106644209 -0.0914462882242 0)
(-0.000817941987353 -0.0897052662486 0)
(-0.00084297332381 -0.0879071248632 0)
(-0.000865318317355 -0.0860578059284 0)
(-0.000885091691693 -0.0841629959509 0)
(-0.000902412103423 -0.0822281315942 0)
(-0.000917391964668 -0.0802583963353 0)
(-0.00093014779753 -0.0782587280864 0)
(-0.000940787342285 -0.0762338197141 0)
(-0.000949422695474 -0.0741881278351 0)
(-0.000956155477125 -0.0721258761931 0)
(-0.000961092072369 -0.0700510645822 0)
(-0.000964327532985 -0.0679674739513 0)
(-0.000965962201148 -0.0658786744586 0)
(-0.000966085011802 -0.0637880312399 0)
(-0.000964790823525 -0.0616987107409 0)
(-0.000962163654838 -0.0596136862268 0)
(-0.000958294049891 -0.057535741833 0)
(-0.000953262745263 -0.0554674772053 0)
(-0.000947157487521 -0.0534113090574 0)
(-0.000940057494407 -0.0513694746477 0)
(-0.000932049201369 -0.0493440310262 0)
(-0.000923211845818 -0.0473368574286 0)
(-0.000913631751222 -0.0453496527112 0)
(-0.000903389252778 -0.0433839369923 0)
(-0.00089257122768 -0.0414410480207 0)
(-0.000881259551455 -0.0395221425932 0)
(-0.000869541723044 -0.0376281926796 0)
(-0.00085750094714 -0.0357599871658 0)
(-0.000845224800428 -0.0339181285504 0)
(-0.000832797000215 -0.0321030355303 0)
(-0.000820304166966 -0.0303149409384 0)
(-0.000807829251646 -0.0285538955405 0)
(-0.000795456514343 -0.0268197677299 0)
(-0.000783266537688 -0.0251122487829 0)
(-0.000771339599982 -0.0234308546344 0)
(-0.000759752114687 -0.0217749327088 0)
(-0.000748578581367 -0.0201436660241 0)
(-0.000737889196043 -0.0185360817716 0)
(-0.000727750462336 -0.0169510581688 0)
(-0.000718223365179 -0.0153873355877 0)
(-0.000709362017368 -0.0138435281118 0)
(-0.000701209986353 -0.0123181417605 0)
(-0.000693791614344 -0.0108096016451 0)
(-0.000687091170051 -0.00931630483162 0)
(-0.000680995610739 -0.0078367288912 0)
(-0.000675146261572 -0.00636972279704 0)
(-0.000668516872077 -0.00491532544233 0)
(-0.000656682250371 -0.00348119211331 0)
(-0.000635324958274 -0.00201114110225 0)
(-0.000776434787641 -0.000776284974936 0)
(0.0087734297443 -0.00288741481029 0)
(0.00970112726375 -0.00977126944023 0)
(0.00967874209442 -0.0166423114847 -1.23037894591e-27)
(0.00954930837452 -0.0235187523647 0)
(0.00937019213465 -0.0302706898828 0)
(0.00914874131882 -0.0368763699423 0)
(0.00888936196735 -0.0433083653474 0)
(0.00859625767016 -0.0495414306179 0)
(0.00827374268958 -0.0555531544382 0)
(0.00792612740324 -0.0613241886447 0)
(0.00755770915126 -0.0668382778264 0)
(0.00717259838302 -0.0720822004968 0)
(0.00677472750012 -0.0770456320124 0)
(0.00636769964347 -0.0817209559027 0)
(0.00595484407545 -0.0861030374298 0)
(0.00553909812564 -0.0901889770741 0)
(0.00512310363125 -0.0939778575608 0)
(0.00470911492948 -0.0974704934384 0)
(0.00429912162401 -0.100669195597 0)
(0.00389477154147 -0.103577550634 0)
(0.00349750464086 -0.106200226321 0)
(0.00310848144322 -0.108542795156 0)
(0.00272871606609 -0.110611587143 0)
(0.00235900440113 -0.112413557715 0)
(0.00200004863072 -0.113956182989 0)
(0.00165238316582 -0.115247364166 0)
(0.00131648682339 -0.116295355144 0)
(0.000992707548541 -0.117108692629 0)
(0.000681361485149 -0.117696144793 0)
(0.000382659685208 -0.118066655441 0)
(9.67968526249e-05 -0.118229311783 0)
(-0.000176137095775 -0.118193243232 0)
(-0.000436078545553 -0.117967723375 0)
(-0.000683025616501 -0.117562054339 0)
(-0.000916988755445 -0.116985505671 0)
(-0.00113805325411 -0.116247305467 0)
(-0.00134632310525 -0.115356612973 0)
(-0.0015419649027 -0.114322485828 0)
(-0.00172516318832 -0.113153857868 0)
(-0.00189615496205 -0.111859508447 0)
(-0.00205519421276 -0.110448043202 0)
(-0.00220257674034 -0.108927867781 0)
(-0.00233861333576 -0.107307172578 0)
(-0.00246364546799 -0.105593911716 0)
(-0.00257802668491 -0.103795792246 0)
(-0.00268213005672 -0.101920258821 0)
(-0.00277633731394 -0.0999744874976 0)
(-0.00286103909728 -0.0979653761467 0)
(-0.00293663121912 -0.0958995426365 0)
(-0.00300350887187 -0.0937833206632 0)
(-0.00306206930238 -0.0916227617466 0)
(-0.00311270116767 -0.0894236357982 0)
(-0.00315579280294 -0.0871914360984 0)
(-0.00319171790949 -0.0849313836432 0)
(-0.00322084852289 -0.082648434024 0)
(-0.00324353815751 -0.0803472843759 0)
(-0.00326013849489 -0.0780323809849 0)
(-0.00327098099812 -0.0757079275883 0)
(-0.0032763962825 -0.0733778925142 0)
(-0.00327669506056 -0.0710460171262 0)
(-0.00327218910488 -0.0687158214943 0)
(-0.00326317221107 -0.066390612003 0)
(-0.00324994166975 -0.064073484826 0)
(-0.00323277976942 -0.0617673320481 0)
(-0.00321197474658 -0.0594748426494 0)
(-0.00318780321469 -0.0571985069175 0)
(-0.00316054969861 -0.0549406150525 0)
(-0.0031304902805 -0.0527032600397 0)
(-0.0030979100073 -0.0504883343931 0)
(-0.00306308798786 -0.0482975319943 0)
(-0.00302631219949 -0.0461323437284 0)
(-0.00298786623283 -0.0439940589777 0)
(-0.00294804125165 -0.0418837610366 0)
(-0.00290712455007 -0.0398023289987 0)
(-0.00286540864269 -0.0377504337853 0)
(-0.00282318174663 -0.0357285410767 0)
(-0.00278073414265 -0.0337369086635 0)
(-0.00273835062656 -0.0317755909165 0)
(-0.00269631440947 -0.0298444379583 0)
(-0.00265490148413 -0.0279431019785 0)
(-0.00261438238531 -0.0260710385344 0)
(-0.00257501829299 -0.0242275148561 0)
(-0.00253706095286 -0.0224116134247 0)
(-0.00250075010247 -0.020622242322 0)
(-0.00246631157093 -0.0188581411837 0)
(-0.00243395490932 -0.0171178936703 0)
(-0.00240386831818 -0.0153999358669 0)
(-0.00237621221001 -0.0137025704666 0)
(-0.00235110229814 -0.0120239749392 0)
(-0.00232857744846 -0.0103622059932 0)
(-0.002308519164 -0.0087151656624 0)
(-0.0022904704936 -0.00708045783242 0)
(-0.00227312259949 -0.00545475810214 0)
(-0.00225245194323 -0.00383121202603 0)
(-0.00220364036495 -0.00219895206252 0)
(-0.0020096085157 -0.000633285809102 0)
(0.0150194119062 -0.00293329088405 0)
(0.0166304349671 -0.00993206645813 0)
(0.0165697670821 -0.0168933657148 -1.22833998194e-27)
(0.0163388044444 -0.0238704586433 0)
(0.016027120367 -0.0307193840304 0)
(0.0156444863032 -0.037416878081 0)
(0.015197405742 -0.0439344756207 0)
(0.0146928125769 -0.0502463792849 0)
(0.0141380303905 -0.05632985413 0)
(0.0135405132127 -0.0621654151714 0)
(0.012907653671 -0.0677368364551 0)
(0.012246577773 -0.0730310663854 0)
(0.0115640254351 -0.0780380646521 0)
(0.0108662203529 -0.082750582223 0)
(0.0101588290812 -0.0871639072789 0)
(0.00944690296469 -0.0912755917442 0)
(0.00873490128665 -0.0950851769029 0)
(0.00802668596093 -0.0985939254154 0)
(0.00732558413346 -0.101804573065 0)
(0.00663441209545 -0.104721100289 0)
(0.00595555330042 -0.107348532377 0)
(0.00529099181639 -0.109692762758 0)
(0.00464238788012 -0.111760405455 0)
(0.00401110831961 -0.113558667441 0)
(0.00339828927992 -0.115095245819 0)
(0.00280485801272 -0.116378238762 0)
(0.00223157886899 -0.117416075245 0)
(0.00167906612529 -0.118217452014 0)
(0.00114781369027 -0.118791283628 0)
(0.000638201267813 -0.119146654321 0)
(0.000150508603668 -0.119292781307 0)
(-0.000315071466959 -0.119238972919 0)
(-0.000758428892778 -0.118994595242 0)
(-0.00117954020512 -0.118569038556 0)
(-0.00157846400781 -0.117971683955 0)
(-0.00195532806437 -0.117211870254 0)
(-0.0023103364412 -0.116298864075 0)
(-0.0026437552556 -0.115241828723 0)
(-0.00295592222527 -0.114049798026 0)
(-0.00324722656652 -0.112731648278 0)
(-0.00351812193657 -0.111296075451 0)
(-0.00376910110958 -0.10975157145 0)
(-0.00400071221259 -0.108106405669 0)
(-0.00421352885884 -0.106368606401 0)
(-0.00440816963109 -0.104545947327 0)
(-0.0045852645302 -0.102645934507 0)
(-0.00474547766842 -0.100675797997 0)
(-0.00488947098128 -0.0986424844379 0)
(-0.00501793004801 -0.0965526536031 0)
(-0.00513152602193 -0.0944126762155 0)
(-0.00523094441883 -0.0922286348575 0)
(-0.00531684620003 -0.090006326295 0)
(-0.00538989928925 -0.0877512658831 0)
(-0.00545073966207 -0.0854686933873 0)
(-0.00550000524461 -0.0831635797564 0)
(-0.0055382977509 -0.0808406352117 0)
(-0.00556621849146 -0.078504317128 0)
(-0.00558433151434 -0.0761588390759 0)
(-0.00559320069361 -0.0738081785247 0)
(-0.00559335452665 -0.0714560855812 0)
(-0.00558532372723 -0.0691060894039 0)
(-0.00556960780583 -0.0667615056224 0)
(-0.00554671227829 -0.0644254406561 0)
(-0.00551711699279 -0.0621007971698 0)
(-0.00548131204126 -0.0597902759403 0)
(-0.0054397676924 -0.0574963791677 0)
(-0.0053929681623 -0.0552214099855 0)
(-0.00534138301769 -0.0529674738897 0)
(-0.00528549813496 -0.0507364764102 0)
(-0.00522578850191 -0.0485301232742 0)
(-0.00516274592266 -0.0463499170256 0)
(-0.00509685326459 -0.044197156732 0)
(-0.00502860871616 -0.042072934458 0)
(-0.00495850162597 -0.039978135362 0)
(-0.00488703333437 -0.0379134348728 0)
(-0.00481469482451 -0.0358792999119 0)
(-0.00474198430481 -0.0338759874686 0)
(-0.0046693868979 -0.0319035474915 0)
(-0.00459738923312 -0.0299618233348 0)
(-0.0045264613564 -0.0280504566414 0)
(-0.0044570686016 -0.026168889909 0)
(-0.00438965579538 -0.0243163734788 0)
(-0.00432465659748 -0.0224919702559 0)
(-0.00426247986694 -0.0206945647063 0)
(-0.00420351639494 -0.0189228694965 0)
(-0.00414812678993 -0.0171754359986 0)
(-0.00409664473597 -0.0154506618176 0)
(-0.00404936443947 -0.0137468004082 0)
(-0.00400653770341 -0.0120619639018 0)
(-0.003968357521 -0.0103941183599 0)
(-0.00393495007276 -0.00874105227857 0)
(-0.00390638073025 -0.00710028741896 0)
(-0.00388270571224 -0.00546882711095 0)
(-0.00386356676159 -0.00384148448404 0)
(-0.00383175708739 -0.002235103304 0)
(-0.00347190652572 -0.00065091736125 0)
(0.0214132103137 -0.00297862845083 0)
(0.0237282711981 -0.0100824797332 0)
(0.0236386141338 -0.0171393159063 1.22776957169e-27)
(0.023304070238 -0.0242126599644 0)
(0.0228534611942 -0.0311524884231 0)
(0.0223012400755 -0.0379340432774 0)
(0.0216568485512 -0.0445276822353 0)
(0.0209303756451 -0.0509069029944 0)
(0.0201324773611 -0.0570486181498 0)
(0.0192740074772 -0.0629332892754 0)
(0.0183656905212 -0.0685448886292 0)
(0.0174178452953 -0.0738707663149 0)
(0.0164401765101 -0.0789014374023 0)
(0.0154416225414 -0.083630313151 0)
(0.0144302673252 -0.0880534013284 0)
(0.0134132989561 -0.0921689937324 0)
(0.0123970156208 -0.095977359121 0)
(0.0113868612826 -0.099480451432 0)
(0.0103874876466 -0.10268164387 0)
(0.00940282950677 -0.105585491157 0)
(0.00843618761306 -0.108197524499 0)
(0.00749031363778 -0.110524076205 0)
(0.00656748898877 -0.112572134831 0)
(0.0056696006752 -0.114349224827 0)
(0.00479820251474 -0.115863310016 0)
(0.00395457372716 -0.117122713879 0)
(0.00313975837728 -0.118136055905 0)
(0.00235460633101 -0.118912197329 0)
(0.00159979297808 -0.119460196352 0)
(0.000875846512238 -0.119789267316 0)
(0.000183152421172 -0.119908743336 0)
(-0.000478023242339 -0.119828054759 0)
(-0.00110753677995 -0.119556662005 0)
(-0.00170535756445 -0.119104053057 0)
(-0.00227157244992 -0.118479703786 0)
(-0.00280636694204 -0.117693044344 0)
(-0.00331003594299 -0.116753428609 0)
(-0.00378296372945 -0.115670103464 0)
(-0.00422563479492 -0.114452180674 0)
(-0.00463861051314 -0.113108609354 0)
(-0.00502253998706 -0.111648151463 0)
(-0.00537813375229 -0.110079358601 0)
(-0.00570617481241 -0.108410552178 0)
(-0.00600749005356 -0.106649805458 0)
(-0.00628296184653 -0.104804929066 0)
(-0.00653349801012 -0.102883458733 0)
(-0.00676004441696 -0.100892646373 0)
(-0.00696355438113 -0.0988394535135 0)
(-0.00714500267445 -0.09673054774 0)
(-0.00730535517744 -0.0945723014248 0)
(-0.00744558463955 -0.0923707929268 0)
(-0.00756664136312 -0.0901318098597 0)
(-0.00766947094785 -0.0878608541347 0)
(-0.00775498666104 -0.0855631486931 0)
(-0.00782408926648 -0.0832436451931 0)
(-0.0078776415684 -0.0809070328975 0)
(-0.00791649023428 -0.0785577476378 0)
(-0.00794144275363 -0.0761999814437 0)
(-0.00795329091358 -0.0738376913767 0)
(-0.00795279013322 -0.0714746085409 0)
(-0.00794068399161 -0.0691142455537 0)
(-0.00791768561282 -0.0667599038402 0)
(-0.00788450242882 -0.0644146788444 0)
(-0.00784181909011 -0.0620814649273 0)
(-0.00779032154403 -0.0597629579211 0)
(-0.0077306808631 -0.0574616574768 0)
(-0.00766357575888 -0.0551798670759 0)
(-0.00758967679121 -0.0529196941708 0)
(-0.00750966662169 -0.0506830482398 0)
(-0.00742422424849 -0.0484716394587 0)
(-0.00733404257566 -0.0462869756753 0)
(-0.00723981256468 -0.0441303605512 0)
(-0.00714223799349 -0.0420028904511 0)
(-0.00704201964497 -0.0399054530122 0)
(-0.00693986737933 -0.0378387248593 0)
(-0.00683648464636 -0.0358031714115 0)
(-0.00673257815946 -0.0337990461445 0)
(-0.00662884308997 -0.0318263922145 0)
(-0.006525970696 -0.0298850437249 0)
(-0.00642463454215 -0.0279746294833 0)
(-0.00632549641543 -0.0260945764779 0)
(-0.00622919382511 -0.0242441158336 0)
(-0.00613634444208 -0.0224222884397 0)
(-0.00604753497758 -0.020627952894 0)
(-0.005963324211 -0.0188597928737 0)
(-0.00588423313155 -0.0171163263578 0)
(-0.00581074646084 -0.0153959135073 0)
(-0.00574330403612 -0.0136967649357 0)
(-0.00568230177962 -0.012016946029 0)
(-0.00562808823349 -0.0103543769484 0)
(-0.00558097744472 -0.00870682475686 0)
(-0.00554128210754 -0.00707187837864 0)
(-0.00550934272002 -0.0054469145642 0)
(-0.00548441634089 -0.00382762965567 0)
(-0.00543985248314 -0.00223641965994 0)
(-0.00488806781251 -0.000657041312637 0)
(0.0279138276571 -0.00303816507939 0)
(0.0309348094508 -0.0102802464621 0)
(0.0308135558828 -0.0174696132753 0)
(0.0303700955413 -0.0246723287558 0)
(0.0297732829738 -0.0317335128749 0)
(0.0290427004141 -0.0386266983538 0)
(0.0281912212137 -0.0453208102005 0)
(0.0272325206455 -0.0517884318638 0)
(0.0261809718591 -0.0580060330024 0)
(0.025051151512 -0.0639540518876 0)
(0.0238573894506 -0.0696167917674 0)
(0.0226134010486 -0.0749822163461 0)
(0.0213320074646 -0.0800416623531 0)
(0.0200249463318 -0.0847894991787 0)
(0.01870276225 -0.0892227638701 0)
(0.0173747707784 -0.0933407935197 0)
(0.0160490769628 -0.0971448736855 0)
(0.0147326407097 -0.100637914282 0)
(0.013431367867 -0.103824161559 0)
(0.0121502233411 -0.106708948654 0)
(0.0108933462638 -0.109298486085 0)
(0.00966416991555 -0.111599689037 0)
(0.0084655282585 -0.113620038842 0)
(0.00729975836956 -0.115367472915 0)
(0.00616878172742 -0.11685029914 0)
(0.00507417948058 -0.11807712857 0)
(0.00401724455161 -0.119056822738 0)
(0.0029990304823 -0.119798450352 0)
(0.00202037853074 -0.120311250958 0)
(0.00108194659237 -0.120604601951 0)
(0.000184219063614 -0.120687984391 0)
(-0.000672476829539 -0.120570974796 0)
(-0.00148796412087 -0.120263159574 0)
(-0.00226221381512 -0.11977415949 0)
(-0.00299534223395 -0.119113574438 0)
(-0.00368759975534 -0.118290954473 0)
(-0.00433937384806 -0.117315768194 0)
(-0.00495117489208 -0.116197371661 0)
(-0.00552363783374 -0.114944978922 0)
(-0.00605750520639 -0.113567633938 0)
(-0.00655362704235 -0.112074184847 0)
(-0.00701294138799 -0.110473260375 0)
(-0.00743647292754 -0.108773249125 0)
(-0.00782531178304 -0.106982281514 0)
(-0.00818061159971 -0.105108214843 0)
(-0.00850356758772 -0.103158621251 0)
(-0.00879541487638 -0.101140778789 0)
(-0.00905740675838 -0.099061665384 0)
(-0.00929081407299 -0.096927955681 0)
(-0.00949690453792 -0.0947460205689 0)
(-0.00967694382813 -0.0925219291608 0)
(-0.00983217678484 -0.0902614530648 0)
(-0.00996383074336 -0.0879700725161 0)
(-0.0100730992646 -0.0856529842458 0)
(-0.0101611480919 -0.0833151104683 0)
(-0.0102291018385 -0.0809611089283 0)
(-0.0102780526974 -0.0785953832378 0)
(-0.0103090502006 -0.0762220935358 0)
(-0.0103231124568 -0.0738451666073 0)
(-0.0103212187224 -0.0714683056393 0)
(-0.0103043225657 -0.0690949987254 0)
(-0.0102733466112 -0.066728526486 0)
(-0.0102291967059 -0.0643719679491 0)
(-0.0101727579334 -0.0620282052894 0)
(-0.0101049086911 -0.0596999266455 0)
(-0.0100265169796 -0.0573896278374 0)
(-0.00993845333146 -0.0550996122867 0)
(-0.00984158650633 -0.0528319901574 0)
(-0.00973679444435 -0.0505886760796 0)
(-0.00962495878361 -0.0483713866038 0)
(-0.00950697336677 -0.0461816367583 0)
(-0.00938373736948 -0.0440207369262 0)
(-0.00925616127752 -0.0418897893726 0)
(-0.00912515875812 -0.0397896856383 0)
(-0.00899165034237 -0.0377211040548 0)
(-0.00885655442085 -0.0356845085543 0)
(-0.00872078906332 -0.0336801479397 0)
(-0.00858526263213 -0.0317080567206 0)
(-0.00845087423352 -0.0297680565943 0)
(-0.00831850443879 -0.0278597596106 0)
(-0.00818901482262 -0.0259825720246 0)
(-0.00806323919454 -0.0241356998067 0)
(-0.00794198257867 -0.0223181547474 0)
(-0.00782601324349 -0.0205287620427 0)
(-0.00771606138806 -0.0187661682019 0)
(-0.00761281223489 -0.0170288500503 0)
(-0.00751690486677 -0.0153151235025 0)
(-0.00742892728906 -0.0136231526341 0)
(-0.00734941755441 -0.0119509576833 0)
(-0.00727886554382 -0.0102964225076 0)
(-0.00721772618551 -0.00865730440027 0)
(-0.00716644172443 -0.00703124290064 0)
(-0.00712539162967 -0.00541579095179 0)
(-0.0070931383899 -0.00380688723921 0)
(-0.0070339643437 -0.00222771848404 0)
(-0.00631001268719 -0.000655984632968 0)
(0.0345591637173 -0.00311360138791 0)
(0.0382970269577 -0.0105334105329 0)
(0.0381395685954 -0.0178948150556 0)
(0.0375791730345 -0.0252642488293 0)
(0.0368257876109 -0.0324811365944 0)
(0.0359046200205 -0.0395169154931 0)
(0.0348325381649 -0.0463387721599 0)
(0.0336273602799 -0.0529181885141 0)
(0.032307692281 -0.059231146053 0)
(0.0308922807082 -0.0652581476144 0)
(0.029399428415 -0.0709840263368 0)
(0.0278465252639 -0.0763976407707 0)
(0.0262497014878 -0.0814914835506 0)
(0.0246236035717 -0.0862612423845 0)
(0.0229812780971 -0.0907053470526 0)
(0.0213341499763 -0.0948245289004 0)
(0.0196920716565 -0.0986214123694 0)
(0.0180634274721 -0.102100150669 0)
(0.0164552700164 -0.105266112104 0)
(0.0148734773223 -0.108125618244 0)
(0.0133229122952 -0.110685732066 0)
(0.0118075800505 -0.11295409122 0)
(0.0103307696962 -0.114938780639 0)
(0.00889518260234 -0.116648237451 0)
(0.00750303761541 -0.118091181599 0)
(0.0061561602336 -0.119276565324 0)
(0.00485604856771 -0.120213535926 0)
(0.00360392652686 -0.120911406511 0)
(0.00240077785869 -0.121379631115 0)
(0.00124737334244 -0.121627780889 0)
(0.000144285263856 -0.121665515934 0)
(-0.000908106181859 -0.121502591347 0)
(-0.00190959512769 -0.121148747551 0)
(-0.00286015861887 -0.120613771497 0)
(-0.00375994780976 -0.119907418452 0)
(-0.00460928264185 -0.119039389885 0)
(-0.00540864955127 -0.118019299859 0)
(-0.00615869138263 -0.116856642911 0)
(-0.00686020232693 -0.11556076314 0)
(-0.00751411445661 -0.114140824918 0)
(-0.00812148971543 -0.11260578589 0)
(-0.00868350356936 -0.11096437247 0)
(-0.0092014348435 -0.109225058312 0)
(-0.00967664754028 -0.107396045792 0)
(-0.0101105796288 -0.10548525078 0)
(-0.0105047242247 -0.103500290634 0)
(-0.0108606184612 -0.101448475496 0)
(-0.0111798251755 -0.0993368027362 0)
(-0.0114639228956 -0.0971719544992 0)
(-0.0117144890632 -0.094960298114 0)
(-0.0119330920528 -0.0927078891864 0)
(-0.0121212768416 -0.0904204771001 0)
(-0.0122805598451 -0.0881035125985 0)
(-0.0124124177872 -0.0857621571296 0)
(-0.01251828594 -0.0834012935059 0)
(-0.0125995506925 -0.0810255375282 0)
(-0.012657551459 -0.0786392500388 0)
(-0.012693577047 -0.0762465490617 0)
(-0.0127088710457 -0.0738513214653 0)
(-0.0127046315961 -0.0714572338831 0)
(-0.0126820195575 -0.069067742374 0)
(-0.0126421607829 -0.0666861007033 0)
(-0.0125861559187 -0.0643153668389 0)
(-0.012515083931 -0.0619584077458 0)
(-0.0124300121534 -0.05961790223 0)
(-0.0123319996961 -0.0572963421234 0)
(-0.0122221063955 -0.0549960317151 0)
(-0.012101394916 -0.0527190859036 0)
(-0.0119709375613 -0.050467427086 0)
(-0.01183181628 -0.0482427813715 0)
(-0.0116851267779 -0.0460466741777 0)
(-0.0115319761495 -0.0438804258325 0)
(-0.0113734842416 -0.0417451472161 0)
(-0.0112107791002 -0.0396417360264 0)
(-0.0110449959495 -0.0375708736268 0)
(-0.0108772709719 -0.0355330229827 0)
(-0.0107087385042 -0.0335284275487 0)
(-0.0105405238114 -0.0315571115168 0)
(-0.0103737391671 -0.029618881198 0)
(-0.0102094762684 -0.0277133278604 0)
(-0.0100488018035 -0.025839831721 0)
(-0.00989275005368 -0.0239975673385 0)
(-0.00974231843442 -0.0221855100441 0)
(-0.00959846071843 -0.0204024435883 0)
(-0.00946208296823 -0.0186469685784 0)
(-0.00933403783951 -0.0169175118484 0)
(-0.00921512154051 -0.0152123363125 0)
(-0.00910607023914 -0.013529551522 0)
(-0.00900755983535 -0.0118671247266 0)
(-0.00892020752062 -0.0102228933184 0)
(-0.00884457866624 -0.0085945834938 0)
(-0.0087811915984 -0.00697982736579 0)
(-0.00873040329066 -0.00537619606781 0)
(-0.00869014835187 -0.00377960684825 0)
(-0.0086161864416 -0.00221301430975 0)
(-0.00772579769562 -0.000652170748642 0)
(0.0413862747754 -0.00320704448589 0)
(0.0458569075488 -0.0108476820658 0)
(0.0456568068549 -0.0184232340731 1.21819942284e-27)
(0.0449686207272 -0.0259995384515 0)
(0.0440448661486 -0.0334088728713 0)
(0.042917047382 -0.0406200456036 0)
(0.0416067430527 -0.0475981345558 0)
(0.0401366355014 -0.0543133471819 0)
(0.0385302337533 -0.0607411886478 0)
(0.0368110345841 -0.0668623982445 0)
(0.0350017818139 -0.0726626357831 0)
(0.0331238861255 -0.078132037579 0)
(0.0311970141285 -0.0832646837288 0)
(0.0292388400572 -0.0880580272644 0)
(0.0272649394796 -0.092512326793 0)
(0.0252888008158 -0.0966301135346 0)
(0.0233219247984 -0.100415713618 0)
(0.0213739862434 -0.103874836814 0)
(0.0194530315456 -0.107014235673 0)
(0.0175656933919 -0.109841433032 0)
(0.0157174041967 -0.112364512334 0)
(0.0139125987009 -0.114591962575 0)
(0.0121548950399 -0.116532568848 0)
(0.0104472521652 -0.118195338843 0)
(0.00879209867976 -0.119589456336 0)
(0.00719143625001 -0.12072425313 0)
(0.00564691631494 -0.121609192364 0)
(0.00415989649664 -0.122253857126 0)
(0.00273147709491 -0.12266794009 0)
(0.00136252517365 -0.122861229817 0)
(5.36921886572e-05 -0.12284359316 0)
(-0.00119459673974 -0.122624991561 0)
(-0.0023821127748 -0.122215348437 0)
(-0.0035088401173 -0.121624648272 0)
(-0.00457497037743 -0.12086283403 0)
(-0.00558089790651 -0.119939791064 0)
(-0.00652721570713 -0.118865310884 0)
(-0.00741470674015 -0.117649057314 0)
(-0.00824433524667 -0.116300533642 0)
(-0.00901723347169 -0.114829051589 0)
(-0.00973468885386 -0.113243702697 0)
(-0.010398127115 -0.111553332584 0)
(-0.0110090965715 -0.109766518397 0)
(-0.0115692490368 -0.107891549708 0)
(-0.0120803227562 -0.105936412938 0)
(-0.0125441226361 -0.1039087794 0)
(-0.0129625032453 -0.101815996876 0)
(-0.0133373497528 -0.0996650846928 0)
(-0.0136705622742 -0.0974627321106 0)
(-0.0139640387329 -0.0952152998706 0)
(-0.0142196616784 -0.0929288246296 0)
(-0.0144392841519 -0.0906090260422 0)
(-0.0146247199715 -0.0882613160983 0)
(-0.0147777335256 -0.0858908103904 0)
(-0.0149000343111 -0.0835023408048 0)
(-0.0149932712924 -0.081100469233 0)
(-0.0150590320956 -0.0786895017119 0)
(-0.0150988420795 -0.0762735025594 0)
(-0.0151141680106 -0.0738563078996 0)
(-0.0151064213489 -0.0714415381929 0)
(-0.0150769655508 -0.0690326092506 0)
(-0.0150271224103 -0.0666327414829 0)
(-0.0149581815442 -0.0642449670359 0)
(-0.0148714081479 -0.0618721347738 0)
(-0.0147680528889 -0.0595169129839 0)
(-0.0146493592895 -0.0571817899912 0)
(-0.0145165723042 -0.0548690727755 0)
(-0.0143709437798 -0.0525808839698 0)
(-0.0142137384049 -0.0503191574918 0)
(-0.0140462362434 -0.0480856332956 0)
(-0.0138697353816 -0.0458818515585 0)
(-0.0136855512128 -0.0437091468052 0)
(-0.0134950157806 -0.0415686422553 0)
(-0.0132994741079 -0.0394612448271 0)
(-0.0131002807631 -0.0373876409902 0)
(-0.0128987939393 -0.0353482937899 0)
(-0.0126963700581 -0.0333434411127 0)
(-0.0124943564667 -0.0313730954044 0)
(-0.012294084947 -0.0294370447952 0)
(-0.0120968638615 -0.0275348557485 0)
(-0.0119039713317 -0.0256658771038 0)
(-0.0117166475215 -0.0238292455573 0)
(-0.0115360880929 -0.0220238923901 0)
(-0.0113634371711 -0.020248551444 0)
(-0.011199781584 -0.0185017681099 0)
(-0.0110461450232 -0.0167819093572 0)
(-0.0109034836688 -0.0150871746109 0)
(-0.010772682324 -0.0134156076383 0)
(-0.0106545524769 -0.0117651097268 0)
(-0.0105498316432 -0.0101334546814 0)
(-0.0104591843512 -0.00851830925741 0)
(-0.0103831950138 -0.00691724990153 0)
(-0.0103222120171 -0.00532778558314 0)
(-0.0102736524595 -0.00374572919753 0)
(-0.0101850785586 -0.00219361181398 0)
(-0.00913110967159 -0.000646623838387 0)
(0.0484362766726 -0.00332060208252 0)
(0.0536596445553 -0.0112296932503 0)
(0.0534085461455 -0.0190653802605 -1.21755082189e-27)
(0.0525784921129 -0.0268922346785 0)
(0.0514665598723 -0.0345336335958 0)
(0.0501114935236 -0.0419551038961 0)
(0.0485405402532 -0.0491192005954 0)
(0.0467821920434 -0.0559947114746 0)
(0.0448657267621 -0.0625567603193 0)
(0.0428201276378 -0.0687866127586 0)
(0.0406731579243 -0.0746711879073 0)
(0.0384506612476 -0.0802024215239 0)
(0.0361760932233 -0.0853765426823 0)
(0.0338702673317 -0.0901933301167 0)
(0.0315512831323 -0.094655399402 0)
(0.029234598765 -0.0987675567021 0)
(0.0269332073836 -0.102536240047 0)
(0.0246578809769 -0.105969056973 0)
(0.0224174491776 -0.109074417906 0)
(0.0202190881212 -0.111861258395 0)
(0.0180685995357 -0.114338839361 0)
(0.0159706672954 -0.116516612737 0)
(0.0139290822299 -0.118404139248 0)
(0.0119469314341 -0.120011045561 0)
(0.0100267500981 -0.121347008908 0)
(0.00817063803151 -0.122421758702 0)
(0.00638034343327 -0.123245086292 0)
(0.00465731954452 -0.123826855927 0)
(0.00300275879745 -0.124177012213 0)
(0.00141761074584 -0.124305575379 0)
(-9.74050097059e-05 -0.124222655515 0)
(-0.00154181530906 -0.123938407047 0)
(-0.00291537416232 -0.123463001985 0)
(-0.00421807476302 -0.122806640263 0)
(-0.0054501527624 -0.121979487485 0)
(-0.00661208193432 -0.120991646521 0)
(-0.00770456970553 -0.119853120043 0)
(-0.0087285486645 -0.118573773826 0)
(-0.0096851654546 -0.117163301254 0)
(-0.01057576611 -0.115631189897 0)
(-0.0114018795067 -0.113986690876 0)
(-0.0121651981171 -0.112238791486 0)
(-0.0128675578642 -0.11039619147 0)
(-0.013510916256 -0.108467283136 0)
(-0.0140973306048 -0.106460135448 0)
(-0.0146289354366 -0.104382482088 0)
(-0.0151079208477 -0.10224171346 0)
(-0.015536510829 -0.100044872483 0)
(-0.0159169432658 -0.0977986540563 0)
(-0.0162514505799 -0.0955094079437 0)
(-0.0165422426942 -0.0931831448699 0)
(-0.0167914912621 -0.0908255454873 0)
(-0.0170013168069 -0.0884419718872 0)
(-0.0171737776787 -0.0860374811973 0)
(-0.0173108623865 -0.0836168408068 0)
(-0.0174144841204 -0.0811845446457 0)
(-0.0174864788539 -0.0787448299518 0)
(-0.0175286056781 -0.0763016938896 0)
(-0.0175425505235 -0.0738589094293 0)
(-0.0175299317242 -0.0714200398946 0)
(-0.017492308324 -0.0689884516795 0)
(-0.0174311894156 -0.0665673247095 0)
(-0.0173480452047 -0.0641596603548 0)
(-0.0172443180253 -0.0617682866314 0)
(-0.0171214338959 -0.059395860673 0)
(-0.016980812913 -0.0570448685986 0)
(-0.016823879098 -0.0547176230229 0)
(-0.0166520681949 -0.0524162585786 0)
(-0.0164668341552 -0.0501427258809 0)
(-0.0162696530954 -0.0478987844368 0)
(-0.0160620256186 -0.0456859949941 0)
(-0.0158454765846 -0.0435057118383 0)
(-0.0156215533479 -0.0413590754801 0)
(-0.0153918217917 -0.0392470061418 0)
(-0.0151578612296 -0.0371701983582 0)
(-0.0149212576632 -0.0351291169475 0)
(-0.0146835964294 -0.0331239945191 0)
(-0.0144464538104 -0.0311548306253 0)
(-0.0142113885333 -0.0292213925926 0)
(-0.0139799327702 -0.0273232180286 0)
(-0.0137535834317 -0.0254596189517 0)
(-0.0135337933871 -0.0236296874613 0)
(-0.0133219632705 -0.0218323028497 0)
(-0.0131194335439 -0.0200661400329 0)
(-0.0129274773634 -0.0183296791848 0)
(-0.0127472939834 -0.0166212164913 0)
(-0.0125800031667 -0.0149388759783 0)
(-0.0124266404072 -0.013280622507 0)
(-0.0122881533001 -0.0116442760716 0)
(-0.0121653987304 -0.0100275276694 0)
(-0.0120591399849 -0.00842796023574 0)