/*--------------------------------*- C++ -*----------------------------------*\
| =========                 |                                                 |
| \\      /  F ield         | OpenFOAM: The Open Source CFD Toolbox           |
|  \\    /   O peration     | Version:  v1906                                 |
|   \\  /    A nd           | Web:      www.OpenFOAM.com                      |
|    \\/     M anipulation  |                                                 |
\*---------------------------------------------------------------------------*/
FoamFile
{
    version     2.0;
    format      ascii;
    class       volVectorField;
    location    "555";
    object      Ua;
}
// * * * * * * * * * * * * * * * * * * * * * * * * * * * * * * * * * * * * * //

dimensions      [0 1 -1 0 0 0 0];


internalField   nonuniform List<vector> 
9216
(
(-0.00663386698639 0.00663612358597 0)
(-0.00681957817531 0.0206954460145 2.3836853951e-27)
(-0.00680518956118 0.0348336940699 -4.59068180927e-31)
(-0.0067567051493 0.0489622515404 0)
(-0.006688917929 0.0629444201835 0)
(-0.00660333601765 0.0767448267753 0)
(-0.00650140483454 0.0903239299212 0)
(-0.0063841166868 0.10364507043 0)
(-0.00625242980853 0.116673928565 0)
(-0.00610727516546 0.129378621472 0)
(-0.00594964967131 0.141729723966 0)
(-0.00578051297465 0.153700373335 0)
(-0.00560088089126 0.165266227104 0)
(-0.0054116775586 0.176405488324 0)
(-0.00521386300508 0.187098757045 0)
(-0.0050082460511 0.197328969485 0)
(-0.00479565785028 0.207081152863 0)
(-0.00457672395225 0.216342294727 0)
(-0.00435209162187 0.225101027835 0)
(-0.00412215951608 0.233347457761 0)
(-0.00388736451517 0.241072814148 0)
(-0.00364786726867 0.248269270079 0)
(-0.00340390050249 0.254929600975 0)
(-0.00315540950875 0.261047029357 0)
(-0.00290246051801 0.26661492948 0)
(-0.00264483597002 0.271626723661 0)
(-0.00238249766997 0.276075664297 0)
(-0.00211514001826 0.27995479931 0)
(-0.00184270083711 0.283256855518 0)
(-0.0015648808804 0.285974271856 0)
(-0.00128168187811 0.288099253103 0)
(-0.000992889072902 0.289623788443 0)
(-0.000698667562189 0.290539841198 0)
(-0.00039903079252 0.290839560645 0)
(-9.4402585506e-05 0.290515532775 0)
(0.000214897481422 0.289561046582 0)
(0.000528110175206 0.287970478569 0)
(0.000844530571677 0.28573958659 0)
(0.00116301877972 0.282865990292 0)
(0.00148244687716 0.279349446563 0)
(0.00180129408406 0.27519238604 0)
(0.00211801292576 0.270400120914 0)
(0.00243073643521 0.264981410083 0)
(0.00273751906698 0.258948574339 0)
(0.00303618248151 0.252318099824 0)
(0.00332437964223 0.245110684651 0)
(0.00359961037827 0.237351937795 0)
(0.00385906350569 0.229072419667 0)
(0.00409985475917 0.220308499435 0)
(0.00431862742132 0.21110242109 0)
(0.0045120969044 0.201503270616 0)
(0.00467643057726 0.19156692605 0)
(0.00480820587809 0.181356830556 0)
(0.00490360164037 0.170943414687 0)
(0.00495982524677 0.160404102827 0)
(0.00497408216519 0.149821674827 0)
(0.00494538803122 0.139283017931 0)
(0.00487318306488 0.128876268444 0)
(0.00475935505989 0.118688370139 0)
(0.00460642488135 0.108801411894 0)
(0.00441956799521 0.0992895926967 0)
(0.00420414562453 0.0902158547752 0)
(0.00396726398016 0.0816301237379 0)
(0.00371467221533 0.0735687169728 0)
(0.00345271103099 0.0660555777237 0)
(0.00318583019681 0.0591035243532 0)
(0.00291935108677 0.0527156464173 0)
(0.00265691182781 0.0468858121003 0)
(0.0024030710775 0.041599682118 0)
(0.00216037984646 0.0368355304708 0)
(0.00193214454689 0.0325657776511 0)
(0.00171947874776 0.0287582614404 0)
(0.00152427848803 0.0253778626539 0)
(0.00134623244557 0.0223878814473 0)
(0.00118590710792 0.019751469713 0)
(0.0010418444401 0.017432862812 0)
(0.000913741417475 0.0153981698078 0)
(0.000799627016588 0.0136160512935 0)
(0.000698883868055 0.0120577879942 0)
(0.000609433032608 0.0106976346537 0)
(0.000530480196395 0.00951264641824 0)
(0.000459630098827 0.00848321267125 0)
(0.000394681457855 0.00759461268789 0)
(0.000327590006441 0.00683006102788 0)
(0.000261933625651 0.00613011313947 0)
(0.000244562024675 0.0057007556774 0)
(0.000234995293284 0.00517828568666 0)
(0.000207604612962 0.00473749918236 0)
(0.000212163114925 0.00435829569921 0)
(0.000232221237447 0.00391505734821 0)
(0.000235292815572 0.00346578282211 0)
(0.000241407784588 0.00298251073013 0)
(0.000275987255262 0.00245322494363 0)
(0.000315734257089 0.00187119868248 0)
(0.000358991314327 0.00116261527765 0)
(0.000385650814235 0.00037520001697 0)
(-0.0207284006533 0.00685888527279 0)
(-0.0218835236124 0.0219824986991 0)
(-0.0218093319292 0.0370183517922 -2.45018930682e-27)
(-0.0216227846779 0.0520566994206 0)
(-0.0213688779654 0.0669273755291 0)
(-0.0210527352966 0.0816007320425 0)
(-0.0206779976483 0.0960363951867 0)
(-0.0202481582478 0.110195890645 0)
(-0.0197668982462 0.124042858748 0)
(-0.0192380176834 0.137543429837 0)
(-0.0186655085595 0.150666362681 0)
(-0.0180533530677 0.163383157808 0)
(-0.0174056036561 0.175668055426 0)
(-0.0167261207678 0.187498027466 0)
(-0.0160187077334 0.198852656776 0)
(-0.0152868001588 0.209714024989 0)
(-0.0145336777872 0.220066491204 0)
(-0.0137621081713 0.229896497525 0)
(-0.0129746512905 0.239192275882 0)
(-0.0121732583661 0.247943603524 0)
(-0.0113596796964 0.25614147667 0)
(-0.0105350172981 0.26377785539 0)
(-0.00970023842582 0.270845347126 0)
(-0.00885567840862 0.277336980198 0)
(-0.00800165431219 0.283245936592 0)
(-0.00713791373501 0.288565385743 0)
(-0.0062643366636 0.293288296644 0)
(-0.0053803303119 0.297407352556 0)
(-0.00448560462454 0.300914861648 0)
(-0.00357952120281 0.303802767284 0)
(-0.00266192558623 0.306062645685 0)
(-0.00173243362809 0.307685898201 0)
(-0.000791330018049 0.308663835673 0)
(0.000161145820268 0.30898789105 0)
(0.0011239479023 0.308649908959 0)
(0.00209592967434 0.30764244819 0)
(0.00307503223019 0.305959171299 0)
(0.00405897387035 0.303595210025 0)
(0.00504453601021 0.30054762894 0)
(0.00602820401651 0.29681580168 0)
(0.00700559493649 0.292401898644 0)
(0.0079719960617 0.287311219339 0)
(0.00892196384208 0.281552663953 0)
(0.00984967829804 0.275138994362 0)
(0.0107487288812 0.268087292672 0)
(0.0116121861473 0.260419181642 0)
(0.0124326000586 0.252161338163 0)
(0.0132017145189 0.243345762309 0)
(0.013910765181 0.234010440061 0)
(0.0145498504144 0.224199728189 0)
(0.0151087282217 0.21396515705 0)
(0.0155759868637 0.203365804784 0)
(0.0159406319765 0.192468929351 0)
(0.0161912362383 0.181349840851 0)
(0.0163184800206 0.17009168523 0)
(0.016314204128 0.158784102725 0)
(0.0161746091339 0.147521540665 0)
(0.0158987471444 0.136400436801 0)
(0.0154918385499 0.125516187232 0)
(0.0149629756765 0.11495925352 0)
(0.0143280265606 0.104811257491 0)
(0.0136056461883 0.0951409167438 0)
(0.0128180347263 0.0860015175423 0)
(0.0119847683644 0.077430697903 0)
(0.0111247324856 0.0694524209004 0)
(0.0102527447837 0.0620791620474 0)
(0.00938423782152 0.055313324885 0)
(0.00853176062629 0.0491476057864 0)
(0.00770847818199 0.0435656714321 0)
(0.00692360924737 0.0385431828299 0)
(0.00618623892101 0.034049398742 0)
(0.00550102418211 0.0300487408416 0)
(0.00487250957742 0.0265024775455 0)
(0.00430081665756 0.0233702994247 0)
(0.00378618002635 0.0206119334798 0)
(0.00332499131711 0.0181885497643 0)
(0.00291474033205 0.0160636815173 0)
(0.00255023949724 0.0142037789882 0)
(0.00222817384695 0.0125782856019 0)
(0.00194313809707 0.011159723668 0)
(0.00169168886726 0.00992341564353 0)
(0.00146827361188 0.00884719377536 0)
(0.0012683070732 0.00791014877233 0)
(0.00108149363241 0.00709231909941 0)
(0.00090916668192 0.00630669173119 0)
(0.000809147329027 0.00562626852595 0)
(0.000716067577225 0.00507926823024 0)
(0.000629504322648 0.00464673736263 0)
(0.000626374536695 0.00419788317234 0)
(0.000675442425286 0.00383403974316 0)
(0.000703776587478 0.00344588247322 0)
(0.000746845940391 0.00293799130752 0)
(0.000824937590776 0.0023949755052 0)
(0.00101982811686 0.00190206321616 0)
(0.00124882440306 0.00122037788782 0)
(0.00113095431856 0.000336769651831 0)
(-0.0350291892188 0.00691426367773 0)
(-0.0370027380158 0.0221653292806 0)
(-0.036850910636 0.0372934701477 -2.45354473325e-27)
(-0.0365299461901 0.052441415806 0)
(-0.0361018781897 0.0674195965586 0)
(-0.035571829525 0.0821969835266 0)
(-0.034944539162 0.0967322193299 0)
(-0.0342253950655 0.110986307795 0)
(-0.0334203486537 0.124922495263 0)
(-0.0325357164583 0.138506611067 0)
(-0.031578108906 0.151707222653 0)
(-0.0305542165474 0.164495740576 0)
(-0.0294707555703 0.176846434468 0)
(-0.0283342331981 0.188736404901 0)
(-0.0271509272999 0.200145474563 0)
(-0.0259266442409 0.21105604599 0)
(-0.0246667518732 0.221452887771 0)
(-0.023375942606 0.231322901938 0)
(-0.0220583365614 0.240654835202 0)
(-0.0207172601416 0.24943899128 0)
(-0.0193554302779 0.257666907958 0)
(-0.0179747524263 0.265331057984 0)
(-0.0165765867458 0.272424537988 0)
(-0.0151615608357 0.278940801864 0)
(-0.0137299080037 0.284873402495 0)
(-0.0122812841598 0.290215791952 0)
(-0.0108151627071 0.294961145206 0)
(-0.00933064646067 0.299102248508 0)
(-0.00782690475319 0.302631422568 0)
(-0.00630297632746 0.305540507129 0)
(-0.00475825463037 0.307820912516 0)
(-0.00319225552644 0.309463700145 0)
(-0.00160512040229 0.310459738026 0)
(2.58911939333e-06 0.310799927834 0)
(0.00162941863516 0.310475483765 0)
(0.00327324289572 0.309478259849 0)
(0.00493083920778 0.307801142265 0)
(0.00659813576926 0.30543845962 0)
(0.00826987234406 0.302386443805 0)
(0.00993987711156 0.298643665853 0)
(0.0116008380252 0.294211501718 0)
(0.0132445781225 0.289094526663 0)
(0.0148619253402 0.283300928314 0)
(0.0164429109664 0.276842819492 0)
(0.0179766878871 0.269736591937 0)
(0.019451548225 0.262003182946 0)
(0.0208548425066 0.253668454735 0)
(0.022172752364 0.244763543168 0)
(0.0233902603085 0.235325418034 0)
(0.0244907708578 0.225397460329 0)
(0.0254563943863 0.215030282252 0)
(0.026267758576 0.204282474518 0)
(0.0269050849365 0.193221399775 0)
(0.0273486401393 0.181923543945 0)
(0.0275809247291 0.170474418864 0)
(0.0275877071211 0.158967491083 0)
(0.0273607710785 0.147502286005 0)
(0.0268985442152 0.136181476424 0)
(0.0262084268045 0.125107490608 0)
(0.0253068232004 0.114378212181 0)
(0.024220594458 0.104082050487 0)
(0.0229847781216 0.0942922140652 0)
(0.0216385551075 0.0850626480709 0)
(0.0202176923222 0.0764285873409 0)
(0.0187528569911 0.0684106675018 0)
(0.0172694866076 0.0610190193134 0)
(0.0157921666144 0.0542546324388 0)
(0.0143437266942 0.0481087132758 0)
(0.0129456406047 0.0425626893807 0)
(0.0116151460317 0.0375893949056 0)
(0.0103663433158 0.0331549620876 0)
(0.00920848592418 0.0292206767525 0)
(0.0081478058606 0.0257446870776 0)
(0.00718575142815 0.0226836885676 0)
(0.0063208915741 0.0199948015871 0)
(0.00554795760285 0.0176372861786 0)
(0.00486079468977 0.0155735633836 0)
(0.00425165906728 0.0137695407725 0)
(0.00371347426618 0.0121944990754 0)
(0.00323842795831 0.0108209647313 0)
(0.00281983541467 0.00962441712946 0)
(0.00245077254283 0.00858286579622 0)
(0.00212582521933 0.00767576081912 0)
(0.00184044693437 0.00688810677818 0)
(0.00159972102084 0.00612608396893 0)
(0.00142088225652 0.00549152664557 0)
(0.00127043829456 0.00505530332994 0)
(0.00110860321125 0.0044430915937 0)
(0.00101484779858 0.00391328321403 0)
(0.00105627640442 0.0035889827435 0)
(0.0012095662622 0.00332333976944 0)
(0.00124545787727 0.00265841421228 0)
(0.00141996043745 0.00219243866297 0)
(0.00165871377011 0.00160023538818 0)
(0.00186609502678 0.000963313704986 0)
(0.00181742511015 0.000298803517746 0)
(-0.0495273336854 0.00697178882432 0)
(-0.0523412846362 0.0223693215923 0)
(-0.052124137829 0.0376215356015 2.45322032164e-27)
(-0.0516659449349 0.0528987876699 0)
(-0.0510555709246 0.068002638068 0)
(-0.0503006875719 0.0829008501573 0)
(-0.0494079665082 0.0975508995107 0)
(-0.0483850642277 0.111912976299 0)
(-0.0472404746374 0.125949726462 0)
(-0.0459832814193 0.139626560892 0)
(-0.0446229743127 0.152911808194 0)
(-0.0431692040588 0.1657768113 0)
(-0.0416316122873 0.178195946638 0)
(-0.0400195877747 0.190146581889 0)
(-0.0383421232694 0.201608962965 0)
(-0.0366075901246 0.212566048029 0)
(-0.0348236431998 0.223003281001 0)
(-0.0329970343489 0.232908326209 0)
(-0.0311335867219 0.242270759641 0)
(-0.0292380652177 0.25108174248 0)
(-0.0273142348643 0.259333675158 0)
(-0.0253647961091 0.267019859419 0)
(-0.0233915276491 0.274134166954 0)
(-0.0213952792112 0.280670739979 0)
(-0.0193761837455 0.286623719799 0)
(-0.017333688918 0.291987023269 0)
(-0.0152668167843 0.296754159926 0)
(-0.0131742161903 0.300918103981 0)
(-0.0110544536438 0.304471214363 0)
(-0.00890607826455 0.30740520322 0)
(-0.00672795137929 0.309711198206 0)
(-0.00451928551244 0.311379798382 0)
(-0.00228000198063 0.312401239791 0)
(-1.08055454621e-05 0.312765630008 0)
(0.00228650151271 0.312463235487 0)
(0.00460896672913 0.311484834088 0)
(0.00695222443822 0.3098221304 0)
(0.00931050586613 0.307468210564 0)
(0.0116764757455 0.30441803364 0)
(0.0140413318514 0.300668920867 0)
(0.0163947616559 0.296221040924 0)
(0.0187251135868 0.291077843179 0)
(0.0210194352238 0.285246451378 0)
(0.0232636272177 0.27873797555 0)
(0.0254424546097 0.271567788605 0)
(0.0275395384925 0.263755750128 0)
(0.0295372142829 0.25532647381 0)
(0.0314162588061 0.246309649554 0)
(0.033155598529 0.236740553662 0)
(0.0347319028722 0.226660750271 0)
(0.0361194866728 0.216119083686 0)
(0.037290326561 0.205172847565 0)
(0.0382149400731 0.193889055928 0)
(0.0388636734959 0.182345429203 0)
(0.0392092390036 0.1706307587 0)
(0.0392293519362 0.158844123397 0)
(0.0389099908973 0.147092793071 0)
(0.0382475232783 0.135488989474 0)
(0.0372507171413 0.124146250479 0)
(0.0359430240273 0.113174655767 0)
(0.0343639968998 0.102674602676 0)
(0.0325697623852 0.0927272513933 0)
(0.0306223644826 0.0833867145987 0)
(0.0285763809089 0.074682186287 0)
(0.0264736643515 0.066627342952 0)
(0.0243477787236 0.0592285988632 0)
(0.0222322583 0.0524857519054 0)
(0.0201608819868 0.0463883733662 0)
(0.0181648899733 0.0409145100588 0)
(0.0162697835525 0.0360324087716 0)
(0.0144950947292 0.0317032921906 0)
(0.0128542508871 0.0278836534556 0)
(0.011355500419 0.02452688989 0)
(0.010001041867 0.0215849601263 0)
(0.00878739103136 0.0190108046283 0)
(0.0077061214568 0.0167608020396 0)
(0.00674676899968 0.0147959464253 0)
(0.00589807173757 0.0130817073486 0)
(0.0051491958185 0.0115874058229 0)
(0.00448931366849 0.0102859076823 0)
(0.00390855482298 0.00915338053284 0)
(0.00339792706662 0.00816888795663 0)
(0.00295036811988 0.00731380177979 0)
(0.00256390813401 0.00657652232985 0)
(0.0022248447446 0.00582400449254 0)
(0.00200491352109 0.00531871153464 0)
(0.0018005089996 0.00478826953818 0)
(0.00160791579206 0.0041819492318 0)
(0.00152929751801 0.00376622348239 0)
(0.00147652698326 0.00322163651979 0)
(0.00157843530244 0.00276409315818 0)
(0.00185258301722 0.00244364676237 0)
(0.00194252823965 0.00177507661162 0)
(0.00218892631475 0.00123853120517 0)
(0.00243713940804 0.000752313259716 0)
(0.00242674758087 0.000247200525051 0)
(-0.0641725469918 0.00704608183878 0)
(-0.067823268986 0.0226388828134 0)
(-0.0675393689879 0.0380632461518 0)
(-0.0669406914021 0.0535150830707 0)
(-0.0661432010385 0.0687878920526 0)
(-0.0651573471051 0.0838482210382 0)
(-0.0639920436826 0.0986521587205 0)
(-0.0626574614072 0.113158806723 0)
(-0.0611648589403 0.127329979381 0)
(-0.0595262910069 0.141130506917 0)
(-0.0577543359472 0.154528386059 0)
(-0.0558617992058 0.167494871487 0)
(-0.053861448728 0.180004490838 0)
(-0.0517657290673 0.192034989686 0)
(-0.0495865238792 0.203567204636 0)
(-0.0473349033949 0.214584872931 0)
(-0.0450209403169 0.225074379997 0)
(-0.0426535188954 0.235024457287 0)
(-0.0402402332322 0.244425836682 0)
(-0.037787284637 0.253270878532 0)
(-0.0352994836276 0.261553183971 0)
(-0.0327802479875 0.26926721115 0)
(-0.0302317093202 0.276407906753 0)
(-0.0276548004756 0.282970369817 0)
(-0.0250494439581 0.288949554842 0)
(-0.0224146991784 0.294340024351 0)
(-0.0197490005637 0.299135751789 0)
(-0.0170503368895 0.303329978594 0)
(-0.014316518365 0.306915125126 0)
(-0.0115453775681 0.309882743531 0)
(-0.00873507703382 0.312223583456 0)
(-0.00588429055897 0.313927625689 0)
(-0.00299255257479 0.314984252568 0)
(-6.04848534791e-05 0.315382487508 0)
(0.00290990120367 0.315111296914 0)
(0.00591500148266 0.314159971359 0)
(0.00894937826216 0.312518580643 0)
(0.0120056501559 0.310178483852 0)
(0.0150743813448 0.307132879523 0)
(0.0181441174924 0.303377361731 0)
(0.0212014385858 0.298910457433 0)
(0.0242311340237 0.293734102659 0)
(0.0272163661606 0.28785403804 0)
(0.0301388689726 0.281280095083 0)
(0.0329790519729 0.274026387415 0)
(0.0357160021231 0.266111424693 0)
(0.0383272972235 0.257558227082 0)
(0.0407886116522 0.248394524183 0)
(0.0430731527318 0.238653181072 0)
(0.0451509789225 0.228372969944 0)
(0.0469884674342 0.217599812594 0)
(0.0485481438299 0.206388504544 0)
(0.0497893891076 0.19480477956 0)
(0.05067030617 0.182927319556 0)
(0.0511510850173 0.170849006877 0)
(0.0511984262707 0.158676576998 0)
(0.050790211714 0.146528211077 0)
(0.0499187018096 0.134529376128 0)
(0.0485919389914 0.122809589377 0)
(0.0468391706287 0.111497524569 0)
(0.0447134943674 0.100714271594 0)
(0.0423016520016 0.0905555388819 0)
(0.0397001261988 0.0810737320088 0)
(0.0369872106797 0.0722839006533 0)
(0.0342121533798 0.06418566677 0)
(0.0314103497224 0.056780838503 0)
(0.0286236131452 0.050070616021 0)
(0.0258990527775 0.0440439090117 0)
(0.0232802318365 0.038673866328 0)
(0.020801528061 0.0339216133018 0)
(0.0184878380224 0.0297412073578 0)
(0.0163562792193 0.0260826496743 0)
(0.0144174623515 0.0228928585728 0)
(0.0126741983108 0.0201167958042 0)
(0.0111199505494 0.0177009548611 0)
(0.00974084197589 0.015597613246 0)
(0.00852056941771 0.0137663537829 0)
(0.00744338223292 0.0121727120796 0)
(0.00649464654057 0.010786401557 0)
(0.00565993698847 0.00958091075547 0)
(0.00492591183912 0.00853355308746 0)
(0.00428056411492 0.00762513999777 0)
(0.00371356032109 0.00684200505755 0)
(0.00322215681996 0.00615920114743 0)
(0.00280822980246 0.00549062373543 0)
(0.0025928469173 0.0050782533991 0)
(0.00240842249166 0.00455761096721 0)
(0.00219472763328 0.00397000083269 0)
(0.00198024559096 0.00329679508193 0)
(0.00197239351831 0.00285504721506 0)
(0.0019980325166 0.00230315134183 0)
(0.002283235123 0.00196539848447 0)
(0.00260206240528 0.00154034032313 0)
(0.00267415731444 0.00097738623575 0)
(0.00281097630216 0.000567810245293 0)
(0.0027969051605 0.000188573107094 0)
(-0.0790148476353 0.00713872962569 0)
(-0.0835092502145 0.0229793973489 0)
(-0.0831553243617 0.0386239987581 0)
(-0.0824108107101 0.0542980662079 0)
(-0.0814190726033 0.0697854221146 0)
(-0.0801934902566 0.0850512345714 0)
(-0.0787454818132 0.100049930577 0)
(-0.0770880085864 0.114739254642 0)
(-0.0752353787403 0.129079964607 0)
(-0.0732028991639 0.143036149502 0)
(-0.0710065224356 0.156575384286 0)
(-0.0686624836059 0.16966881882 0)
(-0.0661869498651 0.182291186769 0)
(-0.063595671335 0.194420736487 0)
(-0.0609036600089 0.206039084878 0)
(-0.058124883426 0.217130998107 0)
(-0.0552720060165 0.227684103614 0)
(-0.0523561628986 0.237688542333 0)
(-0.0493868032751 0.247136571673 0)
(-0.0463715825389 0.256022135262 0)
(-0.0433163392137 0.264340416271 0)
(-0.0402251245181 0.272087394809 0)
(-0.0371003150189 0.279259427165 0)
(-0.0339427630309 0.285852864439 0)
(-0.0307520110647 0.291863721275 0)
(-0.0275265178091 0.297287402563 0)
(-0.0242639261802 0.302118488499 0)
(-0.0209613237193 0.306350577582 0)
(-0.0176155370203 0.309976185297 0)
(-0.0142234162078 0.312986679834 0)
(-0.0107821763107 0.315372346699 0)
(-0.00728966762732 0.317122392564 0)
(-0.00374477970847 0.318225116894 0)
(-0.000147774808584 0.318668153087 0)
(0.00349935197585 0.318438785715 0)
(0.00719255801096 0.317524366737 0)
(0.0109254645828 0.315912823891 0)
(0.0146891645144 0.313593245661 0)
(0.0184721066476 0.310556518574 0)
(0.0222601151259 0.306795980105 0)
(0.0260365099712 0.302308043078 0)
(0.0297823515352 0.297092739699 0)
(0.0334767410311 0.291154138814 0)
(0.0370971438326 0.284500598309 0)
(0.0406196279506 0.277144844943 0)
(0.04401893486 0.269103907725 0)
(0.0472682729765 0.260398989068 0)
(0.0503387632468 0.251055409842 0)
(0.0531985298205 0.241102831695 0)
(0.0558115028975 0.230575989472 0)
(0.0581362136689 0.219516194453 0)
(0.0601249558124 0.207973742701 0)
(0.0617240935753 0.19601122268 0)
(0.0628761587195 0.183707159759 0)
(0.0635245897837 0.171158938544 0)
(0.0636206473785 0.158483326419 0)
(0.0631308811895 0.145813151855 0)
(0.0620413712553 0.133290797401 0)
(0.0603547578455 0.121066787313 0)
(0.0581027720644 0.109296256071 0)
(0.0553474456572 0.0981370938613 0)
(0.0522262906745 0.0877138550157 0)
(0.0488945719594 0.0780722172576 0)
(0.0454635782474 0.0691941491606 0)
(0.0419772996116 0.0610504270094 0)
(0.0384571365611 0.0536400203745 0)
(0.0349531773457 0.0469744319862 0)
(0.0315328749579 0.041044979184 0)
(0.0282571039645 0.0358169777302 0)
(0.0251698115788 0.0312400091822 0)
(0.0222999373783 0.027258036914 0)
(0.0196672679496 0.0238132690543 0)
(0.0172856977021 0.020844797898 0)
(0.0151596725441 0.0182874368383 0)
(0.0132778990973 0.0160774391977 0)
(0.0116167708696 0.014161415971 0)
(0.0101512294571 0.0124984859193 0)
(0.0088602852055 0.0110557868237 0)
(0.0077259726215 0.0098039649469 0)
(0.00672971581138 0.00871717859737 0)
(0.00585433779515 0.0077740126139 0)
(0.00508430505185 0.00695649364905 0)
(0.00440495076047 0.00625377315939 0)
(0.00380981104062 0.0056178418619 0)
(0.00335330289664 0.00503130204893 0)
(0.00311359632681 0.00459983688919 0)
(0.00285620179693 0.00400392292778 0)
(0.00272096837026 0.00354969208323 0)
(0.00262806365739 0.00306317409221 0)
(0.00261258325649 0.00258379626426 0)
(0.00245951528815 0.0019239739717 0)
(0.00259662742887 0.0014777597057 0)
(0.00299504341103 0.00120354759883 0)
(0.00312379461548 0.000813732386731 0)
(0.00315300069478 0.00045511467647 0)
(0.00314268119582 0.000150965435259 0)
(-0.0941003963442 0.00725128952119 0)
(-0.0994494346638 0.0233950265819 0)
(-0.099020926777 0.0393092183653 2.47106872623e-27)
(-0.0981234244249 0.0552550310722 0)
(-0.09692816385 0.0710043517287 0)
(-0.0954516395061 0.086520655925 0)
(-0.0937080489987 0.101756353456 0)
(-0.0917134639123 0.116667531325 0)
(-0.0894855871126 0.131213653122 0)
(-0.0870433308926 0.145357901654 0)
(-0.0844063809464 0.159067341506 0)
(-0.0815947535116 0.172313008122 0)
(-0.0786283597377 0.185069909228 0)
(-0.0755265781561 0.197316940885 0)
(-0.0723078502999 0.20903671798 0)
(-0.0689893018555 0.220215321579 0)
(-0.0655864095645 0.230841966446 0)
(-0.0621127191199 0.240908596829 0)
(-0.0585796374576 0.25040942251 0)
(-0.0549963020876 0.25934041321 0)
(-0.0513695458337 0.267698773356 0)
(-0.0477039477993 0.275482422489 0)
(-0.0440019758357 0.282689505867 0)
(-0.0402641954688 0.289317956407 0)
(-0.0364895392845 0.295365122173 0)
(-0.0326756047089 0.30082746529 0)
(-0.0288189769402 0.305700330416 0)
(-0.0249155541866 0.309977775432 0)
(-0.0209608875296 0.313652458551 0)
(-0.0169505266441 0.316715553023 0)
(-0.0128804141599 0.319156806678 0)
(-0.00874722572061 0.320964502336 0)
(-0.00454885795466 0.322125625188 0)
(-0.000284861441158 0.322626095343 0)
(0.00404310174697 0.322451099371 0)
(0.0084308278115 0.321585544757 0)
(0.0128711913169 0.320014637301 0)
(0.0173538657475 0.317724564194 0)
(0.0218651703031 0.314703255816 0)
(0.0263880843336 0.310941177933 0)
(0.0309024353075 0.3064320942 0)
(0.0353852612106 0.301173722367 0)
(0.0398112983549 0.295168208697 0)
(0.0441535208258 0.288422352304 0)
(0.0483836041009 0.280947543994 0)
(0.0524721628163 0.272759435276 0)
(0.0563885896159 0.263877427578 0)
(0.0601003468686 0.25432416827 0)
(0.0635716141411 0.244125333641 0)
(0.0667613343644 0.233310104328 0)
(0.0696208699221 0.22191276576 0)
(0.072091897888 0.209975944735 0)
(0.0741054824997 0.197555608898 0)
(0.0755840177149 0.184727508039 0)
(0.0764475056496 0.171593246086 0)
(0.0766249512994 0.158282664153 0)
(0.0760676292921 0.144948762497 0)
(0.0747555224181 0.131753100786 0)
(0.0726763053304 0.118870845864 0)
(0.0698574836377 0.106490061075 0)
(0.0663434275398 0.0948376030483 0)
(0.0623681457217 0.084102429996 0)
(0.0581995512502 0.0743107508946 0)
(0.0540009451346 0.0653663627 0)
(0.0497732679908 0.0571789960205 0)
(0.0454845348123 0.0497565349272 0)
(0.0411993143493 0.0431462145187 0)
(0.0370245218637 0.0373477247433 0)
(0.0330479665564 0.0323107113147 0)
(0.0293225443094 0.0279643682032 0)
(0.025876366175 0.0242385933946 0)
(0.0227293494871 0.0210683431213 0)
(0.0199012482225 0.0183851972228 0)
(0.017402846893 0.01610893419 0)
(0.0152154883683 0.0141579980089 0)
(0.0132965418285 0.0124708996022 0)
(0.011606921803 0.0110098349822 0)
(0.0101206720004 0.00974743035642 0)
(0.00881907700831 0.00865581304938 0)
(0.00767842519566 0.00770926105238 0)
(0.00667733646706 0.00688812747104 0)
(0.00579721345148 0.00617562991564 0)
(0.00501889855299 0.00556373767495 0)
(0.00433332116874 0.00498339615948 0)
(0.00389544001027 0.00451538373079 0)
(0.00362956494475 0.00406054758734 0)
(0.00339043685407 0.00356163107654 0)
(0.00317645594852 0.00303876317859 0)
(0.0031246631615 0.00260519099944 0)
(0.00302953913433 0.00208034804605 0)
(0.00308802084511 0.00167869398119 0)
(0.0029928807788 0.00116272274027 0)
(0.00316532214913 0.000861264440637 0)
(0.00343289499665 0.000640211562754 0)
(0.00342598074534 0.000358259572536 0)
(0.00341590736162 0.00011886341858 0)
(-0.109478728717 0.00738499416735 0)
(-0.115696334813 0.0238902652085 0)
(-0.115187637282 0.0401256882833 -2.47068932661e-27)
(-0.114128191346 0.0563951728705 0)
(-0.112717815284 0.072456109066 0)
(-0.110976396143 0.088269890895 0)
(-0.108921252003 0.103786486282 0)
(-0.106571954623 0.118959985728 0)
(-0.103950021511 0.133748299725 0)
(-0.101078404775 0.148113530282 0)
(-0.0979809628042 0.162022142984 0)
(-0.0946819281796 0.175445056063 0)
(-0.0912053806587 0.188357634525 0)
(-0.0875747312953 0.20073959025 0)
(-0.0838122265838 0.2125747875 0)
(-0.0799384828774 0.223850952554 0)
(-0.0759720675086 0.234559289057 0)
(-0.0719291443611 0.244694004835 0)
(-0.0678232058781 0.254251763363 0)
(-0.0636649088765 0.263231080924 0)
(-0.0594620289513 0.27163169817 0)
(-0.0552195352737 0.279453959638 0)
(-0.0509397794648 0.28669823492 0)
(-0.0466227766367 0.293364410278 0)
(-0.0422665525775 0.299451468461 0)
(-0.0378675245315 0.304957161818 0)
(-0.0334208928875 0.309877769882 0)
(-0.0289210280277 0.314207925436 0)
(-0.0243618557792 0.317940493022 0)
(-0.0197372514768 0.321066460277 0)
(-0.0150414868848 0.323574984288 0)
(-0.0102696326815 0.325453290702 0)
(-0.00541814586994 0.326686822813 0)
(-0.000485413063402 0.32725945007 0)
(0.00452766226786 0.327153804434 0)
(0.00961708630582 0.326351775129 0)
(0.0147752609486 0.324835167823 0)
(0.0199905866663 0.322586516284 0)
(0.025247237078 0.319590013517 0)
(0.0305251596849 0.315832505846 0)
(0.0358003358927 0.311304465272 0)
(0.041045308288 0.306000833412 0)
(0.0462299324607 0.299921615882 0)
(0.0513222558338 0.293072110648 0)
(0.0562893551053 0.285462686334 0)
(0.0610979047869 0.277108090978 0)
(0.065714206726 0.268026377188 0)
(0.0701034011405 0.258237655725 0)
(0.0742276399074 0.247763071914 0)
(0.0780430830019 0.236624545993 0)
(0.0814958853838 0.22484612439 0)
(0.084517684972 0.212457803207 0)
(0.0870221410735 0.199502882 0)
(0.0889050695361 0.186048813991 0)
(0.0900523755592 0.172199582495 0)
(0.0903589604413 0.158103217538 0)
(0.0897564511361 0.143943528911 0)
(0.0882296291229 0.129899308366 0)
(0.0857307671506 0.116168600364 0)
(0.0822789189667 0.102963237037 0)
(0.077793363412 0.0906475503665 0)
(0.0727193252426 0.0795696735846 0)
(0.0675608883114 0.0697046316933 0)
(0.062577214707 0.0607674770128 0)
(0.0576166699581 0.0525336951245 0)
(0.0524978521138 0.0450658317469 0)
(0.0473342837495 0.0385142532825 0)
(0.0423211764628 0.0328935075575 0)
(0.0375904426185 0.0281149009551 0)
(0.0331966111562 0.0240683265117 0)
(0.0291536451334 0.0206647703129 0)
(0.0254744567212 0.0178380804551 0)
(0.0221919672561 0.0155182179979 0)
(0.0193383017492 0.013601595519 0)
(0.0168840943363 0.0119710599111 0)
(0.0147450766404 0.0105527912005 0)
(0.0128583338983 0.00932257439295 0)
(0.0111971594369 0.0082679117265 0)
(0.00975096631283 0.00736169469402 0)
(0.00848727142265 0.00657541946592 0)
(0.00737954109574 0.00589278017665 0)
(0.00640830629478 0.00529783558191 0)
(0.00554901080521 0.00478293908268 0)
(0.00478870545403 0.00426392630982 0)
(0.00439264902766 0.00389982155263 0)
(0.00408616930528 0.00344878950427 0)
(0.00390454659682 0.00305128316857 0)
(0.00371501082961 0.00258388029304 0)
(0.00358277981828 0.0021283266617 0)
(0.00343843550761 0.00165499707509 0)
(0.00340062520673 0.00127279668736 0)
(0.00346768148865 0.000961099178291 0)
(0.00339380560319 0.000632044936166 0)
(0.00367547905878 0.000463938176644 0)
(0.00363779849213 0.000275235946389 0)
(0.00361581816065 8.79132041374e-05 0)
(-0.125202576896 0.00754114401789 0)
(-0.132305325155 0.0244703860499 0)
(-0.131709642984 0.04108172195 0)
(-0.130477315093 0.0577298231834 0)
(-0.128837653925 0.0741547655941 0)
(-0.12681431643 0.0903154062613 0)
(-0.124428171698 0.106158787907 0)
(-0.121702770605 0.121636624461 0)
(-0.118663955627 0.136704990674 0)
(-0.115339243825 0.151324722613 0)
(-0.111757196298 0.165461597024 0)
(-0.107946787142 0.179086419776 0)
(-0.103936779284 0.192175011816 0)
(-0.0997551101406 0.20470809466 0)
(-0.0954282945514 0.216671070983 0)
(-0.0909808553047 0.228053695241 0)
(-0.086434801714 0.238849630101 0)
(-0.0818091808092 0.2490558913 0)
(-0.0771197329716 0.258672193311 0)
(-0.0723786795909 0.267700221169 0)
(-0.0675946661874 0.276142866058 0)
(-0.0627728669113 0.284003471056 0)
(-0.0579152414972 0.29128513534 0)
(-0.0530209130103 0.297990117696 0)
(-0.0480866243551 0.304119364182 0)
(-0.0431072233584 0.309672162492 0)
(-0.0380761387612 0.314645904344 0)
(-0.0329858254506 0.319035922411 0)
(-0.0278281863376 0.322835370577 0)
(-0.0225949950114 0.326035088953 0)
(-0.0172783830663 0.32862362634 0)
(-0.0118712956993 0.330587049303 0)
(-0.006368190401 0.331909050491 0)