/*--------------------------------*- C++ -*----------------------------------*\
| =========                 |                                                 |
| \\      /  F ield         | OpenFOAM: The Open Source CFD Toolbox           |
|  \\    /   O peration     | Version:  v1906                                 |
|   \\  /    A nd           | Web:      www.OpenFOAM.com                      |
|    \\/     M anipulation  |                                                 |
\*---------------------------------------------------------------------------*/
FoamFile
{
    version     2.0;
    format      ascii;
    class       volScalarField;
    location    "853";
    object      pa;
}
// * * * * * * * * * * * * * * * * * * * * * * * * * * * * * * * * * * * * * //

dimensions      [0 2 -2 0 0 0 0];


internalField   nonuniform List<scalar> 
9216
(
975.802055835
975.437667563
974.697281165
973.57770919
972.082602374
970.216234553
967.983955094
965.3921342
962.448058533
959.159913803
955.536668919
951.588063865
947.324482732
942.756949324
937.896994504
932.756664178
927.348386687
921.684997326
915.77961066
909.645664312
903.296799463
896.746924862
890.010106908
883.1006527
876.033009145
868.821862024
861.482041957
854.028634874
846.476891413
838.842343035
831.140710923
823.388021218
815.600507196
807.794716501
799.987403176
792.195618778
784.436587947
776.727777204
769.08675111
761.531214301
754.078847944
746.747324384
739.554127614
732.516543689
725.651471772
718.975395078
712.504188052
706.253069019
700.236401879
694.467622558
688.959022329
683.721631396
678.764965916
674.096859071
669.723174336
665.647615294
661.871463577
658.393460423
655.209670869
652.313526078
649.695847445
647.345046257
645.247287788
643.386857281
641.746469559
640.30777512
639.051941165
637.960376048
637.015202114
636.199644734
635.498087218
634.896172701
634.380753858
633.940021324
633.56344924
633.241827536
632.967096046
632.732288312
632.531356164
632.359123918
632.211145223
632.083641698
631.973360932
631.877512138
631.793334332
631.721082607
631.66212172
631.615929735
631.581222343
631.556140426
631.538794661
631.52718292
631.519591326
631.515074781
631.512838709
631.512069001
976.165977299
975.80044009
975.058800546
973.936178284
972.436779851
970.565022239
968.326346722
965.727185946
962.774900439
959.477736
955.844739761
951.88571292
947.61111943
943.032040824
938.160084122
933.007344399
927.586317604
921.909875616
915.991188549
909.843715597
903.481139756
896.917375863
890.166518645
883.242867247
876.16088549
868.935240244
861.580771078
854.112538353
846.545798231
838.896055322
831.179038074
823.410749456
815.607437454
807.785638018
799.962133449
792.15397982
784.378448265
776.653030656
768.995359002
761.423185552
753.954279121
746.606379701
739.39707493
732.34373366
725.463369405
718.772559488
712.287301857
706.022922901
699.993926562
694.213883167
688.695256315
683.449252218
678.485600821
673.812347115
669.435581457
665.359197393
661.584633708
658.110705636
654.933489158
652.046337997
649.439940577
647.10249267
645.019877008
643.176019677
641.553200756
640.132475817
638.8944142
637.819920803
636.890823797
636.09020656
635.402426849
634.813086133
634.309006284
633.878348807
633.510637593
633.196739547
632.928716589
632.699703101
632.503757285
632.335788791
632.191457311
632.067078729
631.959515279
631.866123591
631.784635464
631.714061743
631.656130045
631.611490819
631.577693396
631.553200602
631.536576508
631.525503905
631.518174219
631.513978994
631.51200558
631.511221242
976.907766934
976.539068702
975.793208498
974.664254865
973.15645206
971.274276198
969.02326618
966.409960231
963.44183973
960.127272067
956.475437472
952.496264872
948.200353204
943.598907183
938.703659991
933.52681518
928.080976635
922.379101848
916.43444385
910.26051956
903.871066614
897.28002849
890.501526962
883.549863409
876.439505414
869.185101635
861.8014793
854.303668528
846.706906285
839.026665065
831.278658219
823.478866837
815.643540019
807.789214089
799.932701079
792.091092167
784.2817277
776.522178363
768.830191073
761.223643573
753.720464193
746.338560107
739.095714296
732.009493332
725.097129988
718.37542009
711.860600115
705.568239587
699.513114917
693.709090365
688.16897105
682.904344711
677.925377714
673.240580416
668.856520654
664.777520754
661.005353012
657.539008648
654.374573764
651.505257567
648.921461078
646.610965899
644.559052139
642.748956075
641.162078226
639.778176112
638.576461147
637.536757784
636.640285841
635.869924944
635.21003551
634.646171089
634.165039261
633.754733877
633.404863939
633.106492069
632.851933622
632.634552312
632.448601787
632.28916794
632.15211352
632.033942395
631.931685924
631.842841808
631.765191983
631.697908734
631.643975786
631.6025394
631.570525575
631.547548766
631.532364178
631.522063988
631.5154805
631.511795548
631.509890393
631.508954359
978.034921765
977.662563347
976.910204743
975.771504701
974.250793716
972.352651267
970.082756262
967.447808397
964.455469653
961.114298417
957.433675994
953.423733465
949.095273468
944.459696495
939.528925046
934.315336036
928.831693623
923.091093452
917.106909213
910.892752868
904.462438104
897.829958453
891.009468312
884.015278308
876.861852081
869.563815985
862.135967936
854.593297088
846.950999999
839.224505094
831.429491033
823.581909774
815.698000066
807.794303273
799.887665115
791.995235178
784.134448919
776.323003368
768.578812327
760.919952796
753.364590301
745.930895967
738.636945646
731.500615203
724.539464777
717.770626223
711.210687201
704.875583147
698.780487427
692.939703445
687.366541462
682.073173208
677.070439086
672.367596193
667.971989622
663.888662906
660.119947449
656.665126709
653.520284744
650.678404955
648.129437738
645.860580953
643.85613697
642.098408371
640.567591849
639.241151691
638.095863801
637.109714983
636.263043048
635.538652571
634.921145952
634.396059059
633.949799649
633.570277042
633.24724205
632.972134009
632.737718799
632.537740927
632.366724355
632.219996222
632.093744052
631.984769079
631.890343937
631.808166905
631.736051408
631.674280603
631.625762429
631.588238947
631.559898885
631.539561654
631.525729523
631.516644606
631.510999497
631.507739288
631.505956551
631.505084211
979.55042225
979.173362659
978.412214084
977.260302718
975.722097538
973.802330473
971.50687236
968.84264471
965.817555722
962.440426772
958.720913826
954.669426681
950.297046034
945.615442287
940.636795731
935.373722098
929.839202698
924.046523067
918.009218709
911.741031542
905.255874801
898.567809469
891.691029032
884.639855035
877.428739447
870.07227591
862.585215422
854.982488436
847.279228746
839.490801095
831.632828227
823.721217737
815.772184798
807.80227251
799.828362969
791.867680703
783.937782602
776.056535255
768.242074632
760.512749869
752.887047882
745.383502579
738.020588275
730.816603814
723.789550105
716.957009448
710.336030225
703.943023478
697.793670393
691.902838375
686.284492676
680.951584048
675.915881991
671.187715918
666.775590578
662.685665195
658.921146735
655.481757152
652.363510484
649.559076477
647.057736342
644.846082926
642.906808437
641.221338519
639.768824661
638.522752657
637.455700874
636.542729372
635.763141391
635.100240379
634.539608281
634.066824159
633.667494085
633.329032227
633.041453135
632.796899946
632.588915094
632.411814818
632.260403557
632.130234427
632.018009323
631.920969614
631.836700438
631.763182712
631.698361342
631.643988273
631.602175452
631.569816866
631.545217316
631.527866365
631.516439418
631.509000129
631.504233735
631.501486498
631.499968681
631.499214865
981.458892994
981.075937547
980.303638081
979.1349393
977.574501029
975.627260677
973.299340139
970.597949418
967.5313155
964.108600579
960.339815682
956.235731442
951.807787529
947.068003328
942.028891197
936.703374887
931.104714205
925.246438306
919.14228823
912.806170561
906.252122023
899.49428606
892.546900207
885.424294426
878.140898367
870.711257176
863.150053461
855.472134996
847.692545809
839.826560291
831.889718626
823.897861092
815.867160169
807.814149601
799.755745228
791.709256683
783.692385619
775.723208448
767.820139859
760.001876084
752.287316055
744.695462139
737.245302288
729.955679577
722.845155569
715.931877473
709.233457926
702.76687692
696.548409686
690.593580127
684.917125975
679.53295137
674.454018677
669.69211646
665.257419577
661.157781123
657.397779325
653.97776416
650.893442507
648.13708493
645.696896801
643.559385928
641.703973014
640.11210311
638.763762766
637.624897786
636.660705612
635.841626591
635.146075338
634.559406894
634.070111497
633.663804543
633.323889438
633.036537344
632.792383786
632.584943135
632.409112853
632.260044946
632.132640467
632.022423955
631.927019432
631.84432967
631.772265046
631.709172505
631.65362477
631.608279065
631.573250499
631.54627055
631.526461216
631.513279564
631.504243024
631.4985875
631.495116232
631.492791376
631.491565623
631.490948029
983.76612727
983.375983718
982.590060873
981.400840236
979.8132248
977.832413446
975.464844803
972.718091276
969.600779249
966.122497443
962.293700614
958.125610104
953.630113399
948.819664972
943.707190469
938.305996463
932.629687744
926.692094163
920.507208612
914.089137559
907.452064826
900.610228938
893.577913514
886.369449783
878.999229704
871.481728083
863.831531872
856.063375183
848.192178554
840.233091304
832.201536575
824.113255213
815.984349181
807.831322214
799.671112974
791.521118356
783.399202717
775.323688959
767.313327571
759.387240408
751.564837368
743.865706037
736.309477351
728.91567346
721.703547928
714.691931411
707.899098422
701.342670117
695.039565436
689.006003826
683.257552853
677.809188783
672.675315061
667.869627255
663.404672591
659.290905225
655.535134256
652.1386382
649.096025729
646.399278184
644.034320952
641.990323435
640.23776572
638.761464916
637.549604224
636.551606403
635.719308088
635.015819553
634.41949457
633.921326665
633.517763987
633.193895994
632.927037934
632.70037036
632.506371501
632.341333211
632.202569765
632.086475168
631.987358497
631.899736152
631.823293115
631.756986432
631.698795974
631.647520935
631.602717516
631.56692422
631.539375155
631.518945288
631.504727312
631.495286444
631.488871872
631.48503031
631.483077911
631.48157973
631.480811303
631.480437347
986.479188711
986.080476493
985.278317914
984.064638866
982.444641117
980.42384671
978.009084266
975.208371432
972.030824241
968.48655358
964.586556685
960.342605396
955.767133545
950.873125945
945.67401123
940.18356106
934.415797955
928.384914206
922.105203826
915.591009356
908.856684422
901.916572473
894.785000935
887.476289559
880.004770807
872.384820195
864.630894251
856.757574444
848.779615603
840.711997994
832.569983168
824.369169442
816.12554877
807.855562227
799.576148673
791.304783866
783.059504424
774.858911367
766.722147455
758.668843565
750.719030257
742.893013649
735.211217864
727.694001662
720.361462012
713.233243771
706.328378203
699.665176482
693.261199443
687.133321868
681.297889818
675.77095612
670.568525696
665.706677382
661.201284092
657.066890504
653.314216585
649.946122614
646.953586909
644.329557864
642.053344752
640.127971451
638.494375782
637.151580761
636.121337256
635.310371654
634.646242813
634.080575241
633.593759398
633.189636396
632.886685595
632.666205874
632.488817372
632.330873348
632.191109433
632.071458292
631.973495106
631.895666569
631.829754233
631.76596284
631.709562305
631.661402281
631.618338388
631.579965183
631.547063218
631.521141529
631.501876582
631.488167077
631.479302354
631.47358241
631.470570107
631.468818905
631.468211383
631.468102396
631.467929374
631.467894393
989.606490639
989.197730623
988.376554607
987.134231171
985.476323888
983.408747331
980.938803224
978.075048203
974.827189968
971.205969305
967.223036946
962.89082709
958.222430296
953.231468202
947.931972688
942.338272084
936.464887319
930.326440768
923.937580602
917.312922765
910.467012134
903.414303138
896.169159122
888.745868348
881.158673932
873.42181445
865.549572415
857.556328371
849.45661953
841.265202331
832.997120333
824.66777279
816.292987639
807.889095067
799.472996076
791.062222258
782.674980068
774.33017212
766.047387837
757.84685563
749.749350497
741.776053158
733.948362024
726.287665276
718.815089637
711.551250685
704.516039551
697.728483843
691.206723732
684.96813391
679.029619252
673.408088245
668.121080291
663.187411259
658.627485218
654.462406187
650.710414643
647.378038647
644.444384484
641.909631234
639.729169479
637.966675296
636.456897165
635.2493288
634.478048501
633.922850662
633.471960491
633.056590019
632.664012743
632.325420193
632.139160261
632.069446967
632.016991551
631.937746551
631.854539544
631.780970915
631.726243692
631.693739691
631.668155198
631.625488944
631.588021557
631.560252773
631.533103432
631.50787119
631.487458836
631.471331857
631.460709474
631.454009962
631.450643231
631.44931672
631.449413003
631.450401106
631.451477436
631.452799471
631.453363353
631.453729466
993.157887383
992.737484943
991.894304782
990.618848501
988.917113249
986.795486185
984.261837351
981.325369645
977.996498653
974.286717383
970.20845568
965.774936482
961.000031601
955.898119692
950.483948967
944.772507699
938.778905764
932.518270884
926.005663084
919.256010544
912.284068887
905.10440462
897.731401494
890.179287018
882.462174874
874.594118709
866.589173126
858.461459287
850.225234112
841.894963634
833.485403298
825.011680981
816.489388521
807.93467736
799.364352024
790.795957117
782.247848997
773.739242732
765.290223271
756.921709746
748.655362101
740.513422403
732.518488063
724.693223488
717.060028225
709.640695327
702.456106909
695.526026145
688.869044511
682.502742572
676.444115408
670.710331089
665.319888713
660.294195538
655.659332018
651.446828675
647.690877025
644.409146177
641.541658506
639.126325646
637.018657984
635.52198688
634.025401547
632.720777706
632.408402945
632.269539454
632.145309336
632.011561664
631.871926816
631.796247434
631.776674641
631.751431631
631.673952214
631.57193676
631.49247036
631.439338599
631.424227814
631.460803463
631.507808204
631.481560567
631.458927585
631.457353098
631.445985085
631.431918642
631.424983135
631.41759365
631.416044599
631.416563061
631.419430326
631.42312378
631.426607358
631.43009403
631.433396562
631.436119869
631.437648369
631.438423138
997.144781781
996.711003237
995.842586756
994.529144941
992.77719287
990.593683321
987.987165208
984.967611364
981.546278633
977.735551851
973.548782865
969.000126725
964.104377826
958.876808343
953.333011604
947.488753495
941.359835927
934.96197688
928.310712045
921.421322413
914.308791214
906.987791182
899.47270082
891.77764531
883.91655595
875.903240951
867.751461677
859.475010598
851.087790737
842.60389864
834.037716566
825.404010255
816.718041595
807.995690469
799.253579594
790.509196611
781.781002945
773.088516934
764.452356823
755.89422714
747.436832002
739.103700222
730.918913281
722.90673723
715.091177701
707.495498501
700.14177049
693.050533354
686.240660389
679.729498659
673.533365514
667.668534532
662.152952062
657.009092935
652.268524528
647.978014029
644.207358553
641.017059764
638.204493948
635.945169049
633.473013764
632.797678534
632.123947404
632.050235445
632.104982348
632.11383016
632.081703587
632.024541973
631.953234805
631.889445454
631.839998438
631.788614715
631.722885418
631.652071387
631.590563367
631.54927957
631.54477938
631.574016898
631.537462729
631.334946252
631.28915837
631.347525831
631.36003272
631.351231457
631.362643193
631.360352216
631.36923279
631.376148153
631.385732637
631.394934458
631.402799361
631.409174933
631.414424937
631.418674685
631.42135737
631.422562999
1001.58025353
1001.13119881
1000.23401884
998.877302644
997.068181952
994.814285088
992.124969084
989.011120473
985.484991131
981.560017689
977.250636842
972.572098846
967.540281466
962.171506286
956.482359446
950.489520104
944.209601178
937.659008506
930.853825217
923.80972809
916.541940949
909.065227391
901.393920897
893.541986288
885.523102767
877.350757645
869.038341151
860.599237326
852.046911513
843.394999847
834.657410577
825.848435871
816.982887561
808.076250133
799.144844254
790.205994147
781.278185805
772.381200992
763.536207842
754.765785816
746.093859567
737.545516477
729.146686364
720.923674569
712.902561758
705.10851895
697.565127132
690.293824003
683.313607111
676.641066477
670.290810798
664.276433735
658.612418703
653.317967234
648.425696838
643.996899559
640.176275841
637.166269136
634.033843232
632.508601024
632.398630827
632.439793193
632.364850308
632.326860395
632.331985505
632.317603365
632.283648492
632.231503354
632.165141996
632.095611871
632.028447941
631.957859006
631.878618584
631.795076441
631.715508634
631.648682068
631.603335111
631.57077067
631.50854358
631.445402676
631.449040478
631.442584658
631.301593546
631.239948865
631.303399125
631.295811312
631.321625654
631.332415412
631.350474714
631.366090452
631.378557819
631.38836608
631.395749414
631.401360432
631.405240692
631.406971549
1006.47921298
1006.01278082
1005.08295786
1003.67715667
1001.80324402
999.469654353
996.686705539
993.466365884
989.822060407
985.768461042
981.321274957
976.497032907
971.312879088
965.78636294
959.935234037
953.777242859
947.329952951
940.610572393
933.635814557
926.421798228
918.983995582
911.337232109
903.495736708
895.473232799
887.283055607
878.938277662
870.451827185
861.836591322
853.105506814
844.27164891
835.348335994
826.349252395
817.288608896
808.181332067
799.043275578
789.891444806
780.744219992
771.62155982
762.545162162
753.538552109
744.627061277
735.837657223
727.19858244
718.738772519
710.487052028
702.471157367
694.716710372
687.246327997
680.079083266
673.230348762
666.711966568
660.532721676
654.699286652
649.218751287
644.103103967
639.353357642
634.988903361
632.882819361
632.743546857
632.694258285
632.703873329
632.737072652
632.707666667
632.669342258
632.637938757
632.605207793
632.564581621
632.509662073
632.440079439
632.362601317
632.281114729
632.193332517
632.098066355
631.99877304
631.901941867
631.814838647
631.74269204
631.678863996
631.603349219
631.528118701
631.478878173
631.426345885
631.382564223
631.381011984
631.33473726
631.19723959
631.27499831
631.281765169
631.315211515
631.338747131
631.355743209
631.368550552
631.378197856
631.385208201
631.390169597
631.392432061
1011.85858503
1011.37243216
1010.40566366
1008.94434311
1006.9972143
1004.57367512
1001.68518602
998.344994992
994.567907026
990.37003985
985.768581915
980.781554161
975.427574909
969.72562592
963.694818317
957.354160307
950.722332758
943.817483483
936.657054477
929.257657952
921.63501491
913.803964473
905.778542593
897.572117381
889.197557376
880.667403496
871.994018304
863.189699534
854.266763595
845.237620509
836.114870365
826.911431312
817.640725699
808.316912271
798.955155747
789.571922997
780.185289275
770.81523513
761.483906818
752.215803461
743.037841519
733.979235165
725.07112114
716.345860055
707.83597475
699.572760765
691.584735207
683.896224808
676.526541411
669.489664679
662.794138643
656.442825525
650.432565099
644.749875461
639.332432732
633.781989458
633.27062611
633.127144377
633.127133739
633.143766745
633.14500427
633.132627004
633.093357735
633.050320074
633.008342104
632.965197697
632.914791162
632.851193724
632.773136944
632.684862841
632.5885512
632.48374236
632.371635918
632.255662079
632.141092089
632.033523824
631.936196928
631.845119504
631.750981023
631.657969509
631.578923351
631.504452787
631.438528843
631.390291858
631.341909557
631.329237298
631.307109662
631.204928166
631.28157742
631.315765015
631.336128122
631.351139483
631.362575334
631.370948391
631.376816435
631.379636946
1017.73752988
1017.22901878
1016.22049503
1014.69647328
1012.66674832
1010.14187255
1007.13466781
1003.65989622
999.733983674
995.374734408
990.601055924
985.432694374
979.88997618
973.993549007
967.764116708
961.222167655
954.387703254
947.279980971
939.917293047
932.316805158
924.494478261
916.465088848
908.242349059
899.83910877
891.267602726
882.539693329
873.667063092
864.661333053
855.534119401
846.297069399
836.961929526
827.54066851
818.045690418
808.490118191
798.888134515
789.255365188
779.609288796
769.969654249
760.358878425
750.802381421
741.328797435
731.969974534
722.760648947
713.737660102
704.938588204
696.399784604
688.154004349
680.228119052
672.642047142
665.408544561
658.533243641
652.015034697
645.843221894
639.963428254
633.969423661
633.266528586
633.480959589
633.594544477
633.635617501
633.624311763
633.608941858
633.584577868
633.544944404
633.499116809
633.449947241
633.395982189
633.332847472
633.256417332
633.16654725
633.065346342
632.953347473
632.83147478
632.70177819
632.567546454
632.43307337
632.302610559
632.178484918
632.059039036
631.940892781
631.826726773
631.722576274
631.625881581
631.537423488
631.462372554
631.396632218
631.351742183
631.313949175
631.297306457
631.285024574
631.305929155
631.321742902
631.336848677
631.349528474
631.359157803
631.365850727
631.36925614
1024.13770803
1023.60384339
1022.54814218
1020.953339
1018.83049385
1016.19154926
1013.05095441
1009.425266
1005.33281208
1000.79335727
995.827792868
990.457849502
984.705821519
978.594287668
972.145814994
965.382641044
958.326340937
950.997498834
943.415414426
935.597882488
927.561083607
919.319615068
910.886669961
902.274341837
893.4939971
884.55663148
875.47312697
866.254364183
856.911214168
847.454490025
837.894952027
828.243410966
818.510972057
808.709383877
798.851466683
788.951599171
779.026251025
769.094550017
759.17886017
749.305328185
739.504327598
729.810690486
720.263557781
710.905612682
701.781421621
692.934667696
684.404464708
676.221341696
668.406132895
660.970460918
653.918233289
647.244341883
640.901856317
634.494393513
633.712842901
633.862957711
634.07469831
634.137618517
634.166493537
634.1581718
634.138441251
634.108116238
634.066233699
634.016474774
633.95989968
633.895085636
633.818815171
633.728462405
633.625356179
633.510008734
633.381784715
633.242312627
633.093760516
632.939156058
632.782110834
632.626102202
632.473320932
632.32391195
632.177573324
632.036667203
631.90455698
631.781555568
631.669148496
631.57021226
631.484008083
631.414064324
631.358944054
631.324017578
631.318704367
631.308589404
631.307169848
631.324154794
631.338972126
631.350146607
631.35794221
631.361973989
1031.08360039
1030.52094661
1029.41190396
1027.73715346
1025.50928929
1022.74193765
1019.45150352
1015.65667714
1011.37801839
1006.63756126
1001.45846945
995.864736229
989.880905571
983.531784429
976.842119889
969.836228205
962.53758137
954.968376915
947.14913571
939.098385837
930.83249556
922.365708311
913.710404283
904.877563465
895.877342369
886.719620983
877.414364448
867.971707269
858.401807667
848.714632148
838.919839796
829.026847163
819.045116726
808.984597582
798.856263329
788.672715337
778.448851889
768.202609617
757.955766974
747.73477438
737.571545255
727.504088994
717.57676673
707.839796226
698.347456436
689.154309236
680.309382914
671.848124314
663.792034425
656.151751938
648.927324141
642.074833905
635.186477103
634.378001459
634.539801015
634.699084875
634.770020377
634.786418981
634.790195767
634.772508365
634.744249756
634.706646429
634.659921302
634.604755326
634.540376677
634.464883139
634.375663109
634.27131559
634.154155253
634.02354322
633.878189016
633.7199265
633.550874837
633.373803433
633.191878694
633.008197949
632.825132487
632.644070535
632.46631426
632.294285918
632.130701265
631.977261008
631.836125893
631.709636083
631.598815246
631.505649844
631.430310689
631.374299203
631.341884375
631.320798023
631.305309397
631.311803677
631.331224819
631.344373743
631.353742738
631.358545348
1038.60289618
1038.00747345
1036.83801838
1035.07283487
1032.72639073
1029.81436737
1026.3555378
1022.37114248
1017.88436184
1012.91984339
1007.50332694
1001.66135259
995.421006767
988.809650305
981.854580679
974.582601989
967.0195053
959.189493325
951.114612877
942.814283103
934.305020941
925.600459658
916.711719921
907.648117435
898.418079291
889.030023863
879.492907239
869.816236258
860.009642291
850.082347113
840.042830624
829.898840962
819.657766938
809.327225439
798.915740529
788.433466394
777.892990465
767.310261501
756.705655211
746.105158556
735.541634857
725.056086119
714.698689344
704.52910218
694.61509766
685.02780895
675.832863015
667.071613573
658.765255326
650.919370916
643.490775669
636.051250392
635.215416101
635.434837992
635.590492911
635.591678521
635.566906835
635.537156797
635.506774392
635.469504669
635.428605394
635.382356359
635.328940198
635.266539565
635.192939153
635.105678031
635.002580595
634.883772112
634.751171854
634.603220082
634.439119882
634.260627123
634.069734029
633.86892639
633.661006857
633.448811174
633.234854215
633.021248083
632.810146599
632.604208794
632.406246694
632.218793076
632.044550587
631.886136801
631.74559022
631.624879987
631.52484207
631.446066682
631.388754954
631.347319004
631.318297855
631.307066061
631.32822686
631.342548594
631.35400308
631.359826084
1046.72696687
1046.09411499
1044.85605948
1042.98834012
1040.50773129
1037.4324444
1033.7841499
1029.58716275
1024.86774742
1019.6535408
1013.97315848
1007.85595185
1001.33183117
994.431054705
987.183900713
979.620175097
971.768552058
963.655791015
955.305918102
946.739500866
937.973176395
929.019600769
919.887951799
910.585008996
901.116642231
891.489295145
881.71088611
871.790664964
861.738216059
851.562323669
841.270268134
830.867783797
820.359619769
809.750389723
799.045440154
788.25166738
777.378417266
766.438587972
755.449976041
744.436858174
733.431831982
722.477955996
711.631097949
700.962010614
690.556879938
680.512639253
670.926059309
661.844304424
653.280356847
645.189608904
637.118440138
636.236228655
636.520647517
636.700974576
636.652046947
636.540476082
636.444708277
636.366589991
636.302221777
636.244295561
636.189541075
636.132817656
636.06979243
635.996765138
635.91054198
635.808317145
635.688535303
635.553359434
635.402767498
635.234677521
635.050086136
634.850376974
634.637301467
634.41295736
634.179713564
633.940058432
633.696432887
633.451214971
633.20693263
632.966449227
632.73282945
632.509180713
632.298738033
632.104668387
631.92980188
631.776593459
631.646601109
631.540575033
631.457980667
631.395430097
631.349811728
631.321356585
631.315031998
631.342522674
631.359355724
631.366909327
1055.49144709
1054.81565364
1053.49941444
1051.51506032
1048.88221682
1045.62223622
1041.76038596
1037.32473845
1032.34520554
1026.85281123
1020.87930499
1014.45704566
1007.61899506
1000.39864724
992.829755456
984.945779825
976.779044852
968.359661558
959.714331128
950.865211053
941.82908616
932.617130472
923.235532031
913.687121066
903.973827694
894.099294875
884.070515101
873.897360497
863.590402359
853.158647269
842.608220962
831.942339197
821.16230657
810.268878266
799.263386188
788.148548086
776.929356392
765.614311419
754.217044202
742.758277105
731.268227435
719.789765882
708.382646923
697.12880442
686.138043215
675.547269039
665.521788431
656.102513119
647.235717677
638.434450515
637.464020191
637.79754126
638.003657581
637.917448672
637.722401121
637.530578763
637.376508415
637.257414797
637.164617259
637.087291948
637.017169702
636.946402358
636.86879478
636.779536831
636.675000894
636.552537443
636.411495915
636.255182032
636.082834859
635.892697985
635.686526852
635.465618617
635.231408266
634.985467182
634.729564133
634.465643532
634.195788739
633.922247257
633.647542731
633.374560304
633.106502352
632.846819745
632.59918501
632.367333418
632.154839572
631.964899929
631.799946327
631.661447
631.549531891
631.462566034
631.398452533
631.354954137
631.330515247
631.335738389
631.371538384
631.38177887
1064.93694955
1064.2116408
1062.80585894
1060.68829262
1057.88206681
1054.41245382
1050.30928
1045.60530978
1040.3348086
1034.53258482
1028.23366753
1021.47346341
1014.28808495
1006.71455211
998.790650033
990.554326769
982.042613846
973.290136385
964.327359337
955.178806505
945.861600484
936.384786899
926.74997335
916.95370812
906.991566902
896.86293401
886.574281614
876.138022913
865.567793525
854.874069664
844.061887719
833.131063376
822.078193421
810.899065625
799.5901283
788.148984679
776.575027448
764.870737926
753.043598678
741.108319542
729.089529549
717.025712801
704.975452829
693.0273338
681.316337633
670.03643291
659.52066304
649.715836548
640.059599872
638.926316988
639.265714365
639.484490169
639.360383185
639.087354808
638.795554079
638.543355522
638.346417138
638.196480734
638.079782935
637.982364925
637.892964791
637.802195194
637.702949457
637.590035103
637.459846855
637.310356
637.142289053
636.959492901
636.761281919
636.546979495
636.318685004
636.077576324
635.824586872
635.56055232
635.286413386
635.003326315
634.712729353
634.416403545
634.116546171
633.81581749
633.517329549
633.22461242
632.941569199
632.67235325
632.421175091
632.192046878
631.988432178
631.812940467
631.66701651
631.550828115
631.463872485
631.404807842
631.370605065
631.362608541
631.404461639
631.40992015
1075.10993513
1074.32727776
1072.81823977
1070.54781237
1067.54322159
1063.83461922
1059.45779089
1054.45155967
1048.85547042
1042.70846412
1036.04874953
1028.914512
1021.3448586
1013.38050414
1005.06387501
996.438476461
987.54750998
978.431823687
969.127360929
959.662385448
950.054937723
940.311225864
930.425917911
920.385388038
910.174466763
899.785450609
889.225301798
878.513080435
867.669531695
856.708792276
845.634704055
834.441922577
823.120147296
811.658742497
800.048610518
788.281509292
776.349930057
764.248458156
751.976164369
739.538910969
726.951600464
714.241828075
701.456802685
688.676774141
676.047696874
663.80755747
652.721437257
642.048973907
640.639977461
640.908354878
641.119270451
640.954850805
640.607610005
640.219465365
639.86321586
639.571340112
639.345247357
639.170335085
639.029477692
638.907301577
638.791564799
638.672623936
638.543345202
638.398647093
638.235153959
638.051764886
637.851583522
637.637125159
637.408429938
637.167907307
636.917434896
636.657865074
636.389376256
636.111813618
635.825034049
635.529154335
635.224709175
634.912744723
634.594873756
634.273296526
633.950791043
633.630691924
633.31685817