/*--------------------------------*- C++ -*----------------------------------*\
| =========                 |                                                 |
| \\      /  F ield         | OpenFOAM: The Open Source CFD Toolbox           |
|  \\    /   O peration     | Version:  v1906                                 |
|   \\  /    A nd           | Web:      www.OpenFOAM.com                      |
|    \\/     M anipulation  |                                                 |
\*---------------------------------------------------------------------------*/
FoamFile
{
    version     2.0;
    format      ascii;
    class       surfaceScalarField;
    location    "203";
    object      phia;
}
// * * * * * * * * * * * * * * * * * * * * * * * * * * * * * * * * * * * * * //

dimensions      [0 3 -1 0 0 0 0];
oriented        oriented;


internalField   nonuniform List<scalar> 
18240
(
0.00137920452402
-0.00137730367677
0.00288971316697
-0.00150816808893
0.00439937995036
-0.00150776121012
0.00589117876659
-0.00148937956281
0.00735622617007
-0.00146325942121
0.00878896411777
-0.00143025946492
0.0101821563193
-0.00139152654526
0.0115317900019
-0.00134711138738
0.0128314734637
-0.00129814509712
0.014078595241
-0.0012445715258
0.0152676499652
-0.00118764951902
0.0163974458333
-0.00112723223279
0.0174633909867
-0.00106467456597
0.0184656664165
-0.000999711555501
0.0194005514225
-0.000933751113537
0.0202694896446
-0.000866385554374
0.0210695329417
-0.000799044032694
0.0218032296382
-0.000731165273581
0.0224682730896
-0.00066417841058
0.0230681422932
-0.000597367542202
0.0236010306829
-0.00053215346979
0.0240711708647
-0.000467675841998
0.024477121876
-0.000405344701913
0.0248237110081
-0.00034416879788
0.0251097445167
-0.000285550994328
0.0253405009036
-0.000228386566396
0.0255149344314
-0.000174073209123
0.0256386546912
-0.000121407249119
0.025710681881
-7.17842282179e-05
0.025736848669
-2.39171673182e-05
0.0257161763891
2.07994153552e-05
0.0256546307621
6.37253229734e-05
0.0255511679751
0.000103479165726
0.0254117890773
0.00014148178684
0.0252353503559
0.000176346384802
0.0250278322935
0.000209537705531
0.0247879588165
0.000239678414748
0.0245216215609
0.000268267509885
0.0242273902109
0.00029393683525
0.023911018706
0.000318207139374
0.0235709121443
0.000339719913743
0.023212644383
0.00036000425777
0.0228344557108
0.000377714567747
0.0224417119129
0.000394377811832
0.0220324961598
0.000408662691878
0.0216119427913
0.000422082374544
0.0211779929007
0.000433323641588
0.0207355383756
0.000443877113996
0.0202823986143
0.000452449488439
0.0198232149339
0.000460499090581
0.019355710411
0.000466756546864
0.0188842777282
0.000472641010243
0.018406572009
0.000476909283934
0.0179267399894
0.000480933743746
0.0174423996659
0.000483501821434
0.0169574614964
0.000485934368372
0.016469537324
0.000487052503489
0.0159823089035
0.000488120367401
0.0154934122245
0.000487998015997
0.0150063112375
0.000487890398748
0.0145186933304
0.000486700554859
0.0140338106515
0.000485571383379
0.0135494256054
0.0004834547695
0.0130685848602
0.000481430927903
0.012589144085
0.000478505067485
0.0121139445009
0.000475693495054
0.0116409481953
0.000472060311781
0.0111727901623
0.000468558206667
0.0107075463492
0.000464313993484
0.0102476392271
0.000460216148315
0.00979126163955
0.000455458350677
0.00934061731479
0.000450865115913
0.00889401502531
0.000445699167379
0.00845343044607
0.000440720304908
0.00801728522758
0.000435262359842
0.00758731962815
0.000430020056807
0.00716206391136
0.000424398588851
0.00674301522499
0.000419026313302
0.00632880899961
0.000413379802883
0.00592069525703
0.000408019791035
0.00551741301331
0.000402492773765
0.00511996354013
0.000397289481973
0.00472719229718
0.000392024088546
0.00433985755181
0.000387113397469
0.00395692286914
0.000382233198639
0.00357892612362
0.000377716009699
0.00320499020815
0.000373279261373
0.00283551961795
0.000369131705296
0.00246996178012
0.000364942636165
0.00210898175627
0.000360595703174
0.00175321450922
0.000355210090551
0.00140568949952
0.000347121234713
0.00107435418002
0.000330884739096
0.000781013494862
0.000292907345604
0.00044909293482
0.000331272174726
0.000448709478969
0.00152465084503
-0.00289985522824
0.00322711848461
-0.00320829880417
0.00492079432301
-0.00319923211372
0.0065912927756
-0.00315753831752
0.00823092934831
-0.00310073932577
0.00983333123241
-0.0030303326222
0.0113914824833
-0.00294758024024
0.0128999552674
-0.00285327775847
0.014352709875
-0.00274887257544
0.0157456465198
-0.00263523658926
0.0170739057638
-0.00251396082023
0.0183348033397
-0.00238590403507
0.0195246930211
-0.0022527032116
0.0206422704556
-0.0021151183064
0.0216850378723
-0.00197474918641
0.0226529538337
-0.00183219332555
0.0235445385482
-0.0016889553253
0.0243608462854
-0.00154543330349
0.0251012494078
-0.00140300584799
0.0257677095095
-0.00126186095978
0.0263602757592
-0.0011232436924
0.0268816308265
-0.00098714098268
0.0273323358829
-0.00085467357877
0.0277156258801
-0.000725648637854
0.0280324295024
-0.000601079313043
0.0282863879721
-0.000480617597596
0.0284786758995
-0.000365186597052
0.0286132166535
-0.000254306099058
0.0286913281829
-0.000148823057481
0.0287171081847
-4.81439083102e-05
0.0286919279433
4.6950469867e-05
0.0286199639926
0.000137150894176
0.0285025789519
0.000221732024041
0.0283439625598
0.000301464960167
0.0281453988982
0.000375675149548
0.0279110054828
0.000445200467544
0.0276419396018
0.00050940647113
0.0273421956835
0.000569181142764
0.0270127703443
0.000623922896693
0.0266574919812
0.000674554299552
0.0262771731412
0.000720499324953
0.0258754441449
0.000762700574953
0.0254529212859
0.000800600905811
0.0250130159636
0.000835149479487
0.024556145296
0.000865802699895
0.0240854898842
0.000893504388701
0.0236012733398
0.000917719874321
0.0231064425137
0.000939376936812
0.0226010398939
0.000957946372996
0.0220877822586
0.000974330756066
0.0215665494569
0.000988003573267
0.0210398384542
0.000999834318477
0.0205073891708
0.00100929767986
0.019971493003
0.00101722396025
0.019431775938
0.00102308861327
0.0188903415645
0.00102767834123
0.0183467289424
0.00103047063453
0.0178028720903
0.00103220622366
0.0172582498198
0.0010323672885
0.0167146445965
0.0010316480741
0.0161714990311
0.00102953976542
0.0156304589432
0.00102669137718
0.0150909510587
0.0010226084357
0.014554496189
0.00101789725631
0.0140205202461
0.0010120838786
0.0134904254962
0.00100573525404
0.0129636467626
0.00099840408847
0.0124414700398
0.000990621487292
0.0119233432393
0.000981972583519
0.0114104335782
0.000972955788166
0.010902201761
0.000963193298651
0.0103996909954
0.000953153194986
0.00990237089496
0.000942498057619
0.00941115299687
0.000931666873601
0.00892551008295
0.000920364294166
0.00844621434523
0.000909000263104
0.00797273543542
0.000897321637397
0.00750569893862
0.000885708101329
0.00704456621311
0.000873947309506
0.00658981157525
0.000862386284989
0.00614088527961
0.00085085060102
0.0056981086546
0.000839650581491
0.00526092209084
0.000828644729967
0.00482949780827
0.0008180997996
0.00440327383935
0.000807897266706
0.00398228647115
0.000798244793329
0.00356599122729
0.000789020151306
0.00315431881387
0.000780324984035
0.00274676875074
0.00077194112341
0.00234317490958
0.000763691057464
0.00194295001585
0.00075491436942
0.00154514330432
0.000744451227866
0.00114569909808
0.000729827818457
0.000731707221902
0.000706434472987
0.000330419146229
0.000732053586455
0.000778849451518
0.00155102776461
-0.00444874600412
0.00327459366116
-0.00492957117816
0.00499203009917
-0.00491439162165
0.00668609793573
-0.00484931131354
0.00834863712574
-0.00476103560529
0.00997264886126
-0.00465207640519
0.0115512905597
-0.0045240234823
0.0130786329566
-0.00437839190886
0.0145489664582
-0.00421706254625
0.0159576762211
-0.00404176967458
0.0173003597459
-0.0038545663701
0.0185738028076
-0.00365723190916
0.0197749318388
-0.00345182767433
0.0209018927419
-0.00324003359823
0.0219528587312
-0.00302379098206
0.0229272110607
-0.00280457572682
0.0238242196879
-0.00258412435145
0.0246443246522
-0.00236364873026
0.0253877083463
-0.0021446384673
0.0260556749795
-0.0019280216987
0.0266491289282
-0.00171503678918
0.0271700484718
-0.00150634085739
0.0276198845646
-0.00130294130291
0.028001122143
-0.00110525467501
0.0283156078988
-0.000914089901494
0.0285661907402
-0.000729659042888
0.0287549878349
-0.000552603736366
0.0288850938723
-0.000382962764967
0.0289587910457
-0.000221236324743
0.028979317336
-6.73151690098e-05
0.0289490299851
7.84233866026e-05
0.0288712229174
0.000216216532801
0.0287482509123
0.000345790252787
0.0285833872248
0.000467488382769
0.0283789186805
0.000581128564652
0.0281380335306
0.000687144982215
0.0278628965086
0.000785426891105
0.0275565585191
0.00087647690445
0.0272210224294
0.000960240133945
0.0268591640582
0.00103726869416
0.0264727964203
0.00110754724362
0.0260645927866
0.00117165893312
0.0256361599478
0.0012296141113
0.0251899534207
0.00128201106587
0.024727366795
0.00132887287904
0.0242506304328
0.0013707983395
0.0237609267065
0.00140781293641
0.0232602630975
0.00144050385111
0.0227496196046
0.00146888942599
0.0222307886185
0.0014935342427
0.0217045632446
0.0015144424395
0.0211725358428
0.00153214756729
0.0206353325724
0.00154663353526
0.0200943638742
0.00155839600592
0.0195501127365
0.00156739566717
0.0190038298975
0.00157408659478
0.0184558801211
0.00157840503251
0.0179073762214
0.00158076200521
0.0173585897189
0.00158107151873
0.0168105174017
0.00157970341457
0.0162633598247
0.00157655349827
0.0157180155186
0.00157195428899
0.0151746327696
0.00156579015249
0.0146340263808
0.00155836245557
0.0140963055976
0.0015495515523
0.0135622097881
0.00153963441364
0.0130318171239
0.00152849578097
0.0125057954909
0.00151639542506
0.0119841942262
0.00150322976441
0.0114676079883
0.00148924739399
0.0109560552458
0.00147436282489
0.0104500528157
0.00145881827458
0.00994958266826
0.00144255037786
0.00945507609889
0.00142579753517
0.00896647147295
0.00140852068954
0.00848410681706
0.0013909551005
0.00800786929545
0.00137308560847
0.00753799603305
0.00135514271911
0.00707431685783
0.00133713296662
0.00661696284201
0.00131927871256
0.00616570248388
0.00130160370865
0.00572055799369
0.00128431663468
0.00528123567715
0.00126745182335
0.00484764951672
0.00125119579399
0.00441944486986
0.00123558232079
0.00399642850892
0.00122076076361
0.00357818163427
0.00120674278913
0.00316438473255
0.0011936092897
0.00275449051434
0.00118130538313
0.00234787410671
0.0011697882001
0.00194336836759
0.0011588910712
0.00153877766107
0.00114853969773
0.00112903853732
0.0011390954002
0.000702490549447
0.00113247330384
0.000290675453628
0.00114337415975
0.00106929843301
0.00157398088673
-0.00602057546183
0.00332008606241
-0.0066733590727
0.00506025615345
-0.00665226414688
0.00677639978011
-0.00656315595175
0.00845997807629
-0.00644234282155
0.0101035772701
-0.00629341114291
0.0117002528049
-0.00611846821133
0.0132437940406
-0.00591971351487
0.0147285314008
-0.00569962186639
0.0161496408215
-0.00546071560137
0.0175028697934
-0.00520568045391
0.018784849576
-0.00493711405047
0.0199927471451
-0.00465768237337
0.0211245917467
-0.00436985419718
0.0221788651834
-0.00407609983155
0.0231548490581
-0.00377861504893
0.0240521664874
-0.0034795605693
0.0248711560755
-0.00318077747723
0.0256123767363
-0.00288406431148
0.0262770129671
-0.00259088367577
0.0268663531321
-0.00230267111917
0.0273822288017
-0.0020205309721
0.0278264732929
-0.00174557028737
0.0282013943908
-0.00147858050941
0.0285092169266
-0.00122038905417
0.0287525856677
-0.000971524456657
0.0289339926938
-0.000732580757743
0.0290563054541
-0.000503865848032
0.0291221795757
-0.000285775936711
0.0291346078293
-7.84294844168e-05
0.0290963198612
0.000117948675761
0.0290103479653
0.000303404570361
0.0288794163386
0.000477859587555
0.0287065215199
0.00064149934863
0.0284943147745
0.000794372030894
0.0282456946829
0.000936779770738
0.0279631846862
0.0010688712202
0.0276495352349
0.00119103863529
0.0273071004871
0.00130350675611
0.0269384461723
0.001406732825
0.0265457283947
0.00150099466261
0.0261313039278
0.00158679151554
0.025697113725
0.00166443344707
0.0252452919801
0.00173444103447
0.024777557095
0.00179713846707
0.0242958164529
0.00185304987593
0.023801567224
0.0019024978228
0.0232964936761
0.00194599435679
0.0227818802542
0.00198384697255
0.022259198839
0.00201654252616
0.0217295361941
0.00204436211572
0.0211941683846
0.00206775648254
0.0206540044955
0.00208697164261
0.020110145913
0.00210241439587
0.0195633478843
0.00211428996398
0.0190145610809
0.0021229565796
0.0184644123402
0.00212857663075
0.0179137263812
0.00213145914996
0.0173630269111
0.00213172535654
0.0168130361481
0.0021296380825
0.0162641973445
0.00212528275184
0.015717150339
0.00211888252976
0.0151722765588
0.00211049529714
0.0146301487625
0.00210031345027
0.0140910995628
0.0020883775201
0.013555644154
0.00207485946235
0.0130240734941
0.00205979323083
0.0124968489054
0.00204334051985
0.0119742209995
0.00202553876007
0.0114565955986
0.00200654841208
0.010944179572
0.00198641858355
0.010437317629
0.00196531518438
0.00993616601623
0.00194330456144
0.00944100013962
0.0019205620213
0.00895191708298
0.00189717367003
0.0084691140373
0.00187332506583
0.00799262022935
0.00184912157132
0.00752254633866
0.00182475703886
0.00705884642857
0.00180035283986
0.00660153839599
0.00177610659004
0.00615049601414
0.00175214998886
0.0057056404782
0.00172867761609
0.00526676248241
0.00170582353373
0.00483368438427
0.00168377005982
0.00440611093743
0.00166264293979
0.00398376012323
0.00164259999756
0.00356623799459
0.00162374492152
0.00315312878126
0.00160619775503
0.00274387344658
0.00159003135475
0.00233778576409
0.00157534429276
0.00193389665218
0.00156226707478
0.00153081907002
0.00155111363099
0.00112667508016
0.0015427142856
0.000720034627396
0.00153862149205
0.000325733715133
0.00153718783175
0.00139477357607
0.00160335169189
-0.0076217540685
0.003380643795
-0.00844834018618
0.00515147874457
-0.00842077360781
0.00689711452194
-0.00830648229993
0.00860862538146
-0.00815155955104
0.0102782025967
-0.00796071244682
0.0118986637783
-0.00773667740483
0.0134635504877
-0.00748237110018
0.0149671052965
-0.00720097794842
0.0164043809377
-0.00689582068484
0.0177711659925
-0.00657033083811
0.0190640698404
-0.00622791569968
0.0202804030347
-0.00587195343144
0.0214182458736
-0.00550567076931
0.0224762951121
-0.00513216622754
0.0234539260987
-0.00475430125072
0.0243510166719
-0.00437475208448
0.0251680125161
-0.0039959138322
0.0259057388527
-0.00361997874249
0.0265654774445
-0.00324885058
0.0271487740554
-0.00288424482412
0.0276575329253
-0.00252760764445
0.0280938253471
-0.00218023051285
0.0284600031841
-0.00184316701559
0.0287585088646
-0.00151735436144
0.0289920054922
-0.0012035220829
0.0291631865572
-0.000902315040287
0.0292749182068
-0.000614192575014
0.0293300459257
-0.000339552072512
0.0293315454595
-7.86203310991e-05
0.0292823267188
0.000168421412538
0.0291853907093
0.000401550738838
0.0290436326446
0.000620771995441
0.0288600042317
0.000826237072252
0.0286373167283
0.00101811210728
0.0283784098924
0.00119669349116
0.0280859558355
0.00136227506203
0.0277626328037
0.00151526518685
0.027410932164
0.00165605364129
0.0270333357314
0.00178512937163
0.0266321258736
0.00190294788314
0.0262095652469
0.00201004976613
0.0257677107987
0.00210692955311
0.0253085946034
0.00219415429368
0.0248340415454
0.00227223407453
0.0243458503406
0.00234174037627
0.0238456157257
0.002403178847
0.0233349086277
0.00245710653523
0.0228151028337
0.0025040070944
0.0222875535671
0.00254440671569
0.0217534295094
0.00257875250396
0.0212138887189
0.00260752647704
0.0206699159366
0.00263112752341
0.0201224949326
0.00264998347334
0.0195724517387
0.00266443752545
0.0190206221397
0.00267485782214
0.0184677005399
0.00268152877765
0.0179144014981
0.00268475807842
0.0173613146266
0.00268477349898
0.0168090588956
0.00268182663875
0.0162581431651
0.00267609532132
0.0157091123759
0.00266778370854
0.0151624141068
0.00265703045996
0.0146185357453
0.00264400438589
0.0140778768839
0.00262881804213
0.0135408770757
0.00261161853848
0.0130078946654
0.00259250642179
0.0124793248984
0.0025716206965
0.0119554852676
0.00254906277938
0.0114367240888
0.00252497544644
0.010923313224
0.00249947162505
0.0104155472938
0.00247270671219
0.00991364408236
0.00244481213616
0.00941783481481
0.00241596099429
0.00892827307909
0.00238630639623
0.00844511644441
0.00235604024964
0.00796844416436
0.00232533651857
0.00749833051418
0.00229440335022
0.00703477183383
0.00226343143556
0.00657775169835
0.00223263946689
0.00612717726525
0.00220222781914
0.00568293632048
0.00217241760906
0.00524484277641
0.00214340986895
0.00481268504776
0.00211541830928
0.00438617947045
0.00208863437122
0.0039650085125
0.00206325442037
0.00354877980573
0.00203945209873
0.00313704807314
0.00201740285702
0.00272927779093
0.00199727241749
0.00232484447468
0.00197925062111
0.00192299883165
0.00196357759083
0.00152294639218
0.00195065642501
0.00112406625904
0.00194112151536
0.000726747032771
0.00193541220311
0.000338152942083
0.0019252482083
0.0017326887829
0.00164042832216
-0.00925999367017
0.00345804662666
-0.0102636022442
0.00526830286472
-0.0102286896312
0.00705173094049
-0.010087576082
0.00879890572843
-0.00989642086433
0.010501587502
-0.00966109825122
0.0121522611669
-0.00938507954303
0.0137442038483
-0.00907206668649
0.0152715052186
-0.00872606272193
0.0167291210712
-0.0083512499006
0.0181128469104
-0.00795190595398
0.0194193346656
-0.00753228713569
0.0206460265655
-0.00709656928808
0.0217911465483
-0.0066487523481
0.0228536068214
-0.00619263139475
0.0238329855503
-0.005731724888
0.0247294186351
-0.00526927546408
0.0255435746134
-0.00480820160558
0.0262765430586
-0.00435112548353
0.0269298164666
-0.00390034482313
0.0275051850446
-0.00345788145831
0.028004732583
-0.00302546641824
0.028430742724
-0.00260459947955
0.0287857105233
-0.00219653751181
0.0290722596139
-0.00180235431448
0.0292931659772
-0.00142292386376
0.0294512809587
-0.00105897427755
0.0295495616869
-0.000711063088798
0.029590995308
-0.000379625425595
0.0295786326005
-6.49439808004e-05
0.0295155117696
0.000232804750036
0.0294046937323
0.000513583447815
0.0292491884423
0.000777439293679
0.0290519927608
0.00102454594305
0.0288160170392
0.00125514736003
0.0285441297883
0.00146959071823
0.0282390862092
0.00166827415421
0.0279035775603
0.0018516795084
0.0275401628516
0.00202031937396
0.0271513221187
0.00217477134564
0.0267393913451
0.00231562550273
0.0263066186916
0.00244352012672
0.0258551023468
0.00255909017689
0.0253868486994
0.00266300411207
0.0249037130816
0.00275591381252
0.0244074592036
0.00283849180744
0.0238997027781
0.00291138270609
0.0233819716043
0.00297524036438
0.0228556522374
0.00303068112646
0.0223220503981
0.00307832054967
0.0217823406754
0.00311872865685
0.0212376268117
0.0031524662671
0.0206888943711
0.00318004272896
0.0201370704202
0.00320195199212
0.0195829787979
0.00321863306592
0.0190273984875
0.00323050610169
0.018471021062
0.00323793591828
0.0179145070207
0.00324126818656
0.017358444798
0.003240795986
0.0168034042372
0.00323679603474
0.0162498967006
0.00322949824167
0.0156984250016
0.00321912160961
0.0151494442704
0.00320584635092
0.0146034076775
0.00318984912598
0.0140607279201
0.00317127723516
0.0135218186803
0.00315028237035
0.0129870567392
0.00312699660839
0.0124568189755
0.00310156394182
0.011931445539
0.00307411763563
0.0114112726827
0.00304480902203
0.0108965974958
0.00301378578277
0.0103877069102
0.00298121759904
0.00988484457724
0.00294727534179
0.00938823658766
0.00291215332097
0.00889806104944
0.0028760493364
0.00841447092322
0.00283918356328
0.00793756684356
0.00280177957978
0.00746741751709
0.00276408008723
0.00700403603469
0.00272632919288
0.00654739804528
0.00268878512687
0.00609742168907
0.00265170399421
0.00565398361019
0.00261534993565
0.00521690218397
0.00257998065482
0.00478595113597
0.00254585537747
0.00436084528114
0.0025132228209
0.00394125102799
0.00248232795597
0.00352677409807
0.00245340395819
0.00311696695743
0.00242668108842
0.00271131898659
0.00240238573341
0.00230926844586
0.00238076310342
0.00191023571962
0.00236209713579
0.0015136683977
0.0023467183942
0.00111922495429
0.00233503030757
0.000727285212162
0.0023268519857
0.00034156062619
0.00231046995284
0.00207398089647
0.00168603313819
-0.0109438085825
0.00355349782455
-0.0121287111824
0.00541245866496
-0.0120852764407
0.00724246780755
-0.0119152309595
0.00903349202915
-0.0116851049409
0.010776764141
-0.0114020523243
0.0124643622061
-0.0110703825802
0.0140892559061
-0.0106946928743
0.0156453493688
-0.0102799180873
0.0171275045633
-0.00983120051272
0.0185315306692
-0.00935376201781
0.019854161608
-0.00885278649943
0.021093006721
-0.00833332115052
0.0222464970149
-0.00780019154504
0.0233138120924
-0.00725793641041
0.0242948091459
-0.00671075640141
0.0251899389475
-0.0061624824622
0.0260001708062
-0.00561655652569
0.0267269097919
-0.00507603136481
0.0273719303587
-0.00454357865706
0.0279373052392
-0.00402151408004
0.0284253572049
-0.00351182265585
0.0288386051506
-0.00301619680783
0.0291797361936
-0.00253606451111
0.0294515662316
-0.00207262609434
0.0296570265934
-0.00162687289038
0.0297991311084
-0.00119961425596
0.0298809687527
-0.000791483763688
0.0299056702333
-0.000402957911472
0.029876401604
-3.43551579791e-05
0.0297963295595
0.000314147669178
0.0296686140766
0.000642519566587
0.0294963772885
0.000950846086968
0.029282696918
0.00123934457477
0.029030576704
0.00150833429889
0.0287429459059
0.00175823539698
0.0284226336201
0.00198954830123
0.028072371792
0.00220284961912
0.0276947746307
0.00239877266906
0.0272923446766
0.00257800379825
0.0268674563301
0.0027412646494
0.0264223644094
0.00288930975288
0.0259591908495
0.00302291063435
0.0254799353261
0.00314285469234
0.0249864641822
0.00324993064174
0.0244805229337
0.00334492862758
0.0239637270356
0.00342862654848
0.0234375763243
0.00350179110581
0.0229034472931
0.00356516465557
0.0223626094888
0.00361946731422
0.0218162193033
0.00366538446975
0.0212653381492
0.00370357004956
0.020710927484
0.00373463503601
0.0201538683252
0.00375915225973
0.0195949572863
0.00377764653696
0.0190349266156
0.00379060112908
0.0184744406877
0.00379844988101
0.0179141156389
0.00380158551837
0.0173545158404
0.00380035403164
0.0167961721544
0.00379506453504
0.0162395777016
0.00378598578802
0.0156852038986
0.00377335731281
0.0151334951261
0.00375738755706
0.0145848822084
0.00373826556385
0.0140397755167
0.00371616025135
0.0134985755816
0.00369123195042
0.0129616647635
0.00366363207457
0.0124294151478
0.00363351379574
0.0119021789953
0.00360103122016
0.0113802944057
0.00356634886013
0.0108640749474
0.00352963982277
0.0103538137556
0.00349109347506
0.00984977285535
0.00345091246464
0.00935218634751
0.0034093185092
0.00886125014457
0.00336654808802
0.00837712476298
0.00332285654021
0.00789992586283
0.00327851255091
0.00742972718629
0.00323380074646
0.00696655236818
0.00318901539769
0.00651037819762
0.00314446179372
0.0060611277512
0.00310044951037
0.00561867407158
0.00305729301802
0.00518283456219
0.00301530498833
0.00475337490593
0.00297479658499
0.0043300043948
0.00293607159049
0.00391238013958
0.00289942733461
0.0035001042696
0.00286515094778
0.00309272836268
0.00283352231323
0.00268976127613
0.00280481726643
0.00229068183031
0.00277931112197
0.00189495373622
0.00275728280742
0.00150211459657
0.00273904369101
0.00111183646621
0.00272483989353
0.000724089380156
0.00271406054489
0.000341236032661
0.00269277521369
0.00241497772388
0.00174092519669
-0.0126824955275
0.00366848109442
-0.0140538552536
0.00558606455118
-0.0140004664421
0.00747204983672
-0.0137988293441
0.0093156198914
-0.0135263102343
0.011107381622
-0.0131914688249
0.0128389191073
-0.0127996007388
0.0145028529393
-0.0123563344528
0.0160928753485
-0.0118676805091
0.0176037663318
-0.0113398645382
0.0190313674745
-0.0107791741639
0.0203725464667
-0.0101918141269
0.0216251282792
-0.00958379389525
0.0227878281648
-0.00896082324495
0.0238601579283
-0.00832824310428
0.024842342545
-0.007690960951
0.0257352163645
-0.00705342288999
0.0265401369529
-0.00641958788525
0.0272588859834
-0.00579293836004
0.0278935945403
-0.00517648991374
0.0284466629519
-0.00457283236614
0.0289207090379
-0.00398416362711
0.0293185144493
-0.00341234406581
0.0296429976602
-0.00285893492629
0.029897182428
-0.00232524509563
0.0300841859222
-0.00181235655393
0.0302071960997
-0.00132115212067
0.0302694622739
-0.000852324518895
0.0302742706653
-0.000406389489404
0.0302249315342
1.63125763503e-05
0.0301247519895
0.000415605689368
0.0299770199076
0.000791480458992
0.0297849779161
0.00114406489025
0.0295518106402
0.00147363774846
0.0292806196289
0.00178059777962
0.0289744173873
0.00206545828144
0.0286361062668
0.00232882555835
0.0282684780251
0.00257139169398
0.0278741970321
0.00279391256566
0.0274558043002
0.00299720315392
0.0270157042288
0.0031821166736
0.026556171764
0.00334954254746
0.0260793418431
0.00350038723999
0.0255872185456
0.00363557425511
0.0250816667517
0.0037560266813
0.0245644227268
0.00386266819587
0.0240370879118
0.0039564070396
0.0235011407568
0.00403813728898
0.0229579327702
0.00410872423189
0.0224087016931
0.00416900564453
0.0218545698292
0.00421977874677
0.0212965585506
0.00426180178711
0.0207355886814
0.0042957830834
0.0201724960647
0.00432238351682
0.0196080334119
0.00434220805547
0.0190428863278
0.00435580988201
0.0184776758074
0.00436368466408
0.0179129739309
0.00436627676713
0.0173493060424
0.00436397620053
0.0167871651574
0.00435712704629
0.0162270129053
0.0043460268207
0.0156692919945
0.00433093657799
0.0151144253509
0.00431208197638
0.0145628258042
0.00428966465792
0.0140148931073
0.0042638641806
0.0134710207178
0.00423484954352
0.0129315907585
0.00420278122377
0.0123969780263
0.00416782185944
0.0118675432078
0.00413013765441
0.0113436345655
0.00408990742737
0.010825580118
0.00404732281292
0.0103136876371
0.0040025949879
0.00980823658516
0.00395595355632
0.00930947709175
0.00390765082106
0.0088176223908
0.00385795916911
0.00833284749276
0.00380717308862
0.00785528267857
0.00375560537934
0.00738501238496
0.00370358712962
0.00692207013854
0.00365146322277
0.00646643794611
0.00359959076403
0.0060180428305
0.00354833422027
0.00557675692428
0.0034980628895
0.0051423954314
0.00344914623186
0.00471471751346
0.00340195094236
0.00429342562746
0.00335683711595
0.00387816760873
0.00331415573452
0.00346853847403
0.0032742465429
0.00306408656577
0.0032374373228
0.00266431943787
0.00320404183863
0.00226871929716
0.00317436529974
0.00187678113469
0.00314870523659
0.00148800385334
0.00312731161653
0.00110193232597
0.0031103653689
0.000718356156108
0.00309713459042
0.000339008998212
0.00307161672734
0.0027537129774
0.00180602503088
-0.014486245651
0.00380478553757
-0.0160502014831
0.00579177721528
-0.0159850241434
0.00774386980552
-0.0157485096681
0.00964931294947
-0.0154293564637
0.0114979510287
-0.0150377340694
0.0132807955397
-0.0145800974792
0.0149900699825
-0.014063291155
0.0166192463458
-0.0134945710857
0.0181630378692
-0.0128814068579
0.0196173630811
-0.0122312874575
0.0209792797277
-0.0115515607996
0.0222469065418
-0.0108492918048
0.0234193228463
-0.0101311563411
0.0244964683953
-0.00940334892234
0.0254790254036
-0.00867152605587
0.0263683104816
-0.00794076078056
0.0271661546038
-0.00721553340632
0.0278748026435
-0.0064997329742
0.0284968101532
-0.00579669235599
0.0290349678723
-0.00510923023261
0.0294922322023
-0.00443971578024
0.0298716845435
-0.00379012952744
0.0301764984666
-0.00316212899467
0.0304099260312
-0.00255709846943
0.0305752862192
-0.00197618940138
0.0306759576576
-0.0014203427836
0.0307153680971
-0.000890301493691
0.0306969783343
-0.000386614154408
0.0306242640284
9.03637383187e-05
0.0305006929287
0.000540464150631
0.0303297038753
0.00096370615078
0.0301146772863
0.00136027700315
0.0298589215619
0.00173052619674
0.0295656518697
0.00207494796442
0.0292379745925
0.00239416151288
0.0288788770926
0.00268889609495
0.0284912159784
0.00295997014974
0.0280777140295
0.00320827872679
0.0276409515886
0.00343477382631
0.0271833685421
0.00364045524202
0.026707257963
0.00382635326827
0.0262147710554
0.00399352260916
0.0257079124823
0.0041430273689
0.0251885468991
0.00427593672881
0.0246583960949
0.00439331165288
0.024119046538
0.00449620117218
0.0235719488289
0.0045856303501
0.0230184261932
0.00466259644024
0.0224596768038
0.00472805816852
0.0218967833285
0.00478293198373
0.0213307182184
0.00482808302899
0.0207623543059
0.00486432219558
0.0201924725551
0.00489239948895
0.0196217734155
0.00491300285568
0.019050886015
0.00492675443942
0.0184803796219
0.00493421196614
0.0179107729849
0.00493586809883
0.0173425450294
0.00493215484203
0.0167761429681
0.0049234457778
0.0162119916102
0.00491006306046
0.015650499075
0.0048922821354
0.0150920636896
0.004870340796
0.0145370768376
0.00484444528131
0.0139859270624
0.00481478035535
0.013438999836
0.00478151574717
0.0128966787637
0.0047448161074
0.0123593425759
0.00470484674435
0.0118273638356
0.00466178213956
0.0113011039227
0.0046158103193
0.0107809097579
0.00456713922133
0.0102671077177
0.00451599893031
0.00975999933277
0.00446264539731
0.00925985504299
0.00440736076293
0.00876690959736
0.00435045426066
0.00828135653984
0.00429226074312
0.00780334397404
0.00423313924529
0.00733297031707
0.00417347008128
0.00687028091847
0.00411365165124
0.00641526541412
0.00405409663164
0.00596785537327
0.00399522760159
0.00552792334239
0.00393747293842
0.0050952816234
0.00388126184288
0.00466968307555
0.00382702052037
0.00425082105789
0.00377516731012
0.00383833252231
0.0037261097392
0.00343180057812
0.0036802403555
0.00303075971537
0.00363793443563
0.00263470878622
0.0035995492779
0.00224311985733
0.00356541645346
0.00185543875087
0.00353583414061
0.00147114205122
0.00351108741654
0.00108971166131
0.00349132836241
0.000710671985325
0.00347562712336
0.000335543571756
0.00344618803531
0.00308901747595
0.00188240513183
-0.0163663529504
0.00396466812464
-0.0181299868094
0.00603287582053
-0.0180507744365
0.00806212830997
-0.0177753121514
0.0100395168698
-0.0174043189649
0.0119539947966
-0.0169498074595
0.0137959086521