/*--------------------------------*- C++ -*----------------------------------*\
| =========                 |                                                 |
| \\      /  F ield         | OpenFOAM: The Open Source CFD Toolbox           |
|  \\    /   O peration     | Version:  v1906                                 |
|   \\  /    A nd           | Web:      www.OpenFOAM.com                      |
|    \\/     M anipulation  |                                                 |
\*---------------------------------------------------------------------------*/
FoamFile
{
    version     2.0;
    format      ascii;
    class       surfaceScalarField;
    location    "700";
    object      phi;
}
// * * * * * * * * * * * * * * * * * * * * * * * * * * * * * * * * * * * * * //

dimensions      [0 3 -1 0 0 0 0];
oriented        oriented;


internalField   nonuniform List<scalar> 
18240
(
-0.000352157322586
0.000352108874729
-0.000737766597404
0.000385550829799
-0.00112301903133
0.000385203311711
-0.0015033201652
0.000380240619207
-0.00187656826706
0.000373201390649
-0.0022410553332
0.000364424766918
-0.00259522630794
0.000354126727655
-0.00293776566407
0.000342475406192
-0.00326746243489
0.000329655087305
-0.00358335483788
0.000315826974979
-0.00388456770426
0.000301173920395
-0.00417048075583
0.00028584633569
-0.0044405314655
0.0002700146129
-0.00469440636198
0.000253807107979
-0.00493181195791
0.000237372516743
-0.00515269145551
0.000220810873511
-0.00535696717771
0.000204245750189
-0.0055447845193
0.000187748147225
-0.0057162289612
0.00017141772777
-0.00587159788389
0.000155299437655
-0.00601109426344
0.000139472975029
-0.00613512575244
0.000123962009786
-0.00624397676205
0.000108831026791
-0.00633813327636
9.40873366669e-05
-0.00641793447961
7.97846387722e-05
-0.00648392118409
6.59181279519e-05
-0.00653646836433
5.25340935656e-05
-0.00657615478106
3.96187267063e-05
-0.00660337772124
2.72132669806e-05
-0.00661874145879
1.52972133947e-05
-0.0066226565059
3.90879267288e-06
-0.00661574232284
-6.97928197259e-06
-0.00659841040461
-1.73348737092e-05
-0.00657128473098
-2.71890925045e-05
-0.00653477445044
-3.65099795303e-05
-0.00648950290907
-4.53330518355e-05
-0.00643586976257
-5.36297570837e-05
-0.00637448949869
-6.14396512038e-05
-0.00630574626298
-6.87368448204e-05
-0.00623023910389
-7.55642370336e-05
-0.00614833164621
-8.18982724512e-05
-0.00606060173173
-8.77845109806e-05
-0.00596738843885
-9.32014342598e-05
-0.00586924381761
-9.81965925608e-05
-0.00576647942975
-0.000102750090065
-0.0056596179417
-0.000106910704249
-0.00554894156503
-0.000110659785587
-0.00543494128378
-0.000114046639937
-0.00531786921019
-0.000117053440534
-0.00519818331065
-0.000119729311373
-0.00507610586224
-0.000122056936715
-0.00495206157742
-0.000124084686665
-0.00482624397583
-0.000125795471172
-0.00469904492227
-0.000127236394265
-0.00457063087486
-0.000128390472549
-0.00444136191031
-0.000129303217172
-0.00431137944951
-0.000129957702144
-0.00418101298505
-0.0001303976123
-0.0040503810156
-0.000130606205434
-0.00391978377592
-0.000130625287066
-0.0037893187764
-0.000130438482751
-0.00365925800265
-0.000130085732187
-0.00352967957262
-0.000129551334382
-0.00340082798037
-0.000128873489482
-0.00327276307555
-0.000128037464082
-0.0031457021078
-0.000127079834643
-0.00301968732429
-0.000125987156922
-0.00289490868575
-0.000124794517337
-0.0027713910884
-0.000123489990516
-0.00264929679969
-0.000122107223208
-0.0025286333625
-0.000120635990735
-0.00240953490322
-0.000119108505985
-0.00229199149942
-0.000117516299967
-0.00217610867046
-0.000115890054488
-0.00206185900293
-0.000114223046465
-0.00194931921821
-0.000112544280988
-0.00183844460086
-0.000110848667316
-0.00172928316897
-0.000109163316111
-0.00162177344574
-0.000107484617669
-0.00151593531841
-0.000105837549825
-0.0014116915004
-0.000104219774032
-0.00130903476496
-0.000102653860855
-0.00120787345825
-0.000101138511808
-0.00110817484207
-9.96935824503e-05
-0.00100983493891
-9.83184847991e-05
-0.000912797901075
-9.70298743314e-05
-0.000816950683949
-9.58271498254e-05
-0.000722218953901
-9.47223669623e-05
-0.000628488205304
-9.37119569331e-05
-0.000535680508628
-9.27963719185e-05
-0.000443712233317
-9.19511321152e-05
-0.000352580503224
-9.1119073762e-05
-0.000262437983964
-9.01281720338e-05
-0.000174041067738
-8.838324366e-05
-9.04606918793e-05
-8.35638466862e-05
-9.04521011297e-05
-0.000389263841971
0.000741319550899
-0.000823868607515
0.000820096682578
-0.00125599879749
0.000817277427508
-0.00168183035237
0.000806012972337
-0.00209942750247
0.000790743239496
-0.00250702045598
0.000771958359296
-0.00290293917489
0.000749991045384
-0.00328570479474
0.000725181594365
-0.00365399745202
0.000697894413825
-0.00400672054748
0.000668490732079
-0.00434293684537
0.000637338114737
-0.0046619306265
0.000604781053406
-0.00496312335874
0.000571156658291
-0.00524614002113
0.000536765180601
-0.00551070934515
0.000501892735487
-0.00575673828778
0.000466781909384
-0.00598420075268
0.000431660891624
-0.00619322299002
0.000396713385706
-0.00638396357182
0.000362112935734
-0.00655671109914
0.00032799110047
-0.00671175704364
0.000294475689342
-0.00684950591811
0.000261656383726
-0.00697034171146
0.000229625881421
-0.00707474977867
0.00019844248487
-0.00716317707349
0.000168173450368
-0.00723616453457
0.000138854460667
-0.00729420115616
0.000110534796162
-0.00733786544122
8.32338611019e-05
-0.00736767336394
5.69879539589e-05
-0.00738422735137
3.18042008134e-05
-0.00738805771319
7.70866467645e-06
-0.0073797802802
-1.53014164922e-05
-0.00735993473194
-3.72080910967e-05
-0.00732914318497
-5.80229065253e-05
-0.00728794222459
-7.77357703651e-05
-0.00723694900166
-9.6366001103e-05
-0.00717669033127
-0.000113910392566
-0.00710777169634
-0.00013039538288
-0.00703070353154
-0.000145824136696
-0.00694607281795
-0.000160229355551
-0.00685436762736
-0.000173619768446
-0.00675615049821
-0.000186033306813
-0.00665188221282
-0.000197483268463
-0.00654209609252
-0.000208011619145
-0.00642722190338
-0.000217635124111
-0.00630776022594
-0.000226398519162
-0.00618410737466
-0.000234320873698
-0.00605672897797
-0.000241448418642
-0.00592598670977
-0.000247801420271
-0.00579231024379
-0.00025342642902
-0.00565602657965
-0.000258343907245
-0.00551752952892
-0.000262599702936
-0.00537711232655
-0.000266213681873
-0.00523513384679
-0.00026923020739
-0.00509185517805
-0.00027166798999
-0.00494760177669
-0.000273569389916
-0.00480260459641
-0.000274951696932
-0.0046571574464
-0.000275855049134
-0.00451146326494
-0.000276295317216
-0.00436578598078
-0.000276310463263
-0.00422030244842
-0.000275915197561
-0.00407524819078
-0.000275145580417
-0.00393077552688
-0.000274015585477
-0.00378709262778
-0.000272559778088
-0.00364432830687
-0.000270791914115
-0.00350266391131
-0.000268745517852
-0.00336220526145
-0.00026643462257
-0.00322310695866
-0.000263892107077
-0.00308545189615
-0.000261132684515
-0.00294936764556
-0.000258188858281
-0.00281491396265
-0.000255076253534
-0.00268219096113
-0.000251827091492
-0.00255123495697
-0.00024845795865
-0.00242211819817
-0.000245000705294
-0.00229485337442
-0.000241472738485
-0.00216948469993
-0.000237905282307
-0.00204600132811
-0.000234316274625
-0.00192441962559
-0.000230735930596
-0.00180470571109
-0.00022718231326
-0.00168684877544
-0.000223684161206
-0.00157079288821
-0.000220259188731
-0.00145650124634
-0.000216934134914
-0.00134389738795
-0.000213725835888
-0.00123292026921
-0.000210658447786
-0.00112347498073
-0.000207747293578
-0.00101547859193
-0.000205013158924
-0.000908820463235
-0.000202468810938
-0.000803398734422
-0.000200130079145
-0.000699089670708
-0.000198004500023
-0.000595772848928
-0.000196098313241
-0.000493302493376
-0.000194405758975
-0.000391496545524
-0.000192910447589
-0.000290033930082
-0.000191575273188
-0.000188078672748
-0.000190323519891
-8.33206266639e-05
-0.000188306963912
-0.000173764966817
-0.00039622274372
0.00113748827778
-0.000836469872811
0.0012602859544
-0.00127485776163
0.00125560762168
-0.00170687284455
0.00123796984711
-0.00213038293028
0.00121419608862
-0.00254352240801
0.00118503980756
-0.0029445843694
0.00115099630217
-0.00333205396805
0.00111259348801
-0.00370460731667
0.00107039170602
-0.00406113353358
0.00102495973627
-0.00440071392641
0.000976863277433
-0.00472263414729
0.000926644733715
-0.00502635032558
0.000874818601718
-0.00531149735111
0.0008218565326
-0.00557784744363
0.000768189794273
-0.00582531924659
0.000714199108696
-0.00605393295556
0.000660222954512
-0.00626382342507
0.000606550536995
-0.00645519450285
0.000553433975255
-0.00662833777183
0.000501082549103
-0.00678358726485
0.000449676936698
-0.00692134418359
0.000399363193041
-0.00704203220446
0.000350267657879
-0.00714612766012
0.000302489737602
-0.00723411501226
0.000256116717227
-0.00730652158945
0.000211214927335
-0.00736387268345
0.000167844139003
-0.00740672984075
0.000126047158935
-0.00743564503553
8.58638468942e-05
-0.00745120166064
4.7319363105e-05
-0.00745396762261
1.04379067805e-05
-0.00744453837726
-2.47696113874e-05
-0.00742348874042
-5.82917930497e-05
-0.00739141747743
-9.01305001406e-05
-0.00734889792166
-0.000120286648173
-0.0072965238485
-0.000148773715975
-0.00723485923803
-0.00017560355877
-0.00716448525066
-0.00020080026681
-0.00708594942784
-0.000224385707071
-0.00699981349331
-0.000246393415581
-0.00690660227385
-0.000266853946619
-0.00680685215112
-0.000285808769342
-0.00670106005473
-0.000303295532985
-0.00658973234431
-0.000319361896968
-0.00647333411306
-0.000334050788742
-0.00635233828889
-0.000347414160141
-0.00622717553804
-0.000359498356107
-0.00609828332754
-0.000370357742425
-0.00596605660319
-0.0003800402605
-0.00583089656987
-0.000388600925065
-0.00569316236788
-0.000396087671661
-0.00555321928826
-0.000402554670125
-0.005411391562
-0.000408048527642
-0.00526800974988
-0.000412621410789
-0.00512336481227
-0.000416317690395
-0.00497775438419
-0.000419186811217
-0.00483143819783
-0.000421270418228
-0.00468468299067
-0.000422614950478
-0.00453771941627
-0.000423259302779
-0.0043907853245
-0.000423247064568
-0.00424408422482
-0.000422614724248
-0.0040978267354
-0.000421403506167
-0.00395219074026
-0.000419648137049
-0.00380736081566
-0.000417388187137
-0.00366349017269
-0.000414657383319
-0.00352073793794
-0.000411494399041
-0.0033792330496
-0.000407932719941
-0.0032391092847
-0.000404010798831
-0.00310047122975
-0.000399762463497
-0.00296342700436
-0.000395226400402
-0.00282805648234
-0.000390437123159
-0.00269444166162
-0.000385433734447
-0.00256263725308
-0.000380251467788
-0.00243269868114
-0.00037492972166
-0.00230465518506
-0.00036950421087
-0.0021785354177
-0.000364014253632
-0.00205434313954
-0.000358495561005
-0.00193208040138
-0.000352986788168
-0.0018117259235
-0.000347523000375
-0.00169325582521
-0.000342141481248
-0.00157662472573
-0.000336875900799
-0.00146178399477
-0.000331761387102
-0.00134866561762
-0.000326829417162
-0.00123719791806
-0.000322112131388
-0.00112729217599
-0.00031763794298
-0.00101885575426
-0.000313435058749
-0.000911781376479
-0.000309527760483
-0.000805957291529
-0.000305939039131
-0.000701258478168
-0.000302687540641
-0.000597551959014
-0.000299789378224
-0.000494685338047
-0.000297256532386
-0.00039247904186
-0.000295101791193
-0.000290696319074
-0.000293343698372
-0.000189029393996
-0.000291974516909
-8.76342387767e-05
-0.000289686041275
-0.000261391958353
-0.000402426526092
0.00153986052058
-0.000848790556758
0.00170659152725
-0.00129328010493
0.00170003910993
-0.00173115319126
0.00167578466456
-0.00216014367479
0.00164312874458
-0.00257829303813
0.00160313125335
-0.00298383967047
0.00155648549033
-0.00337523336005
0.00150392967893
-0.00375114108269
0.00144624252594
-0.00411045346292
0.00138421518847
-0.00445227470909
0.00131862832853
-0.00477591679199
0.00125023063703
-0.00508087855609
0.00117972507369
-0.00536683378769
0.00110775652785
-0.00563360551044
0.00103490731944
-0.00588115330225
0.000961692812934
-0.00610954731184
0.000888564079848
-0.0063189583324
0.000815908834638
-0.00650963410823
0.00074405838525
-0.00668189376892
0.00067329106624
-0.00683610732724
0.000603840867953
-0.00697269465576
0.000535901168485
-0.00709210794137
0.000469633246491
-0.00719483453548
0.000405168964868
-0.00728138158772
0.000342618197331
-0.00735228177792
0.000282069917857
-0.00740807920908
0.00022359827826
-0.00744933703914
0.000167262113161
-0.00747662387903
0.000113109827222
-0.00749052259067
6.11776619575e-05
-0.00749161676672
1.14937683833e-05
-0.00748049994987
-3.59242645009e-05
-0.00745776190995
-8.1065490546e-05
-0.0074239985431
-0.000123929029354
-0.00737979789235
-0.000164520234101
-0.0073257502951
-0.000202853737015
-0.00726243417344
-0.000238949833527
-0.00719042657726
-0.000272837502749
-0.00711028898308
-0.000304550653636
-0.00702257818384
-0.000334131050027
-0.00692783223287
-0.00036162443274
-0.00682658169325
-0.000387083335859
-0.00671933584853
-0.000410563116772
-0.00660659429074
-0.000432124691919
-0.00648883349938
-0.000451830544597
-0.00636651873489
-0.000469747404698
-0.0062400910496
-0.0004859422865
-0.00610997941428
-0.000500485152759
-0.00597658820201
-0.000513445052403
-0.00584030946753
-0.000524892792894
-0.00570151091426
-0.000534897222374
-0.0055605482132
-0.000543527942643
-0.00541775344487
-0.00055085179197
-0.00527344734228
-0.000556935611419
-0.00512792817779
-0.000561842955021
-0.00498148379146
-0.000565636923974
-0.00483438088265
-0.000568377133082
-0.0046868766969
-0.000570122598643
-0.00453920867826
-0.000570928954845
-0.00439160568533
-0.000570851373007
-0.00424427797125
-0.000569942014846
-0.00409742783337
-0.00056825293162
-0.00395123990918
-0.000565833709727
-0.00380589118473
-0.000562734294615
-0.00366154162202
-0.000559002786543
-0.00351834349821
-0.000554688121705
-0.00337643241121
-0.000549837965732
-0.00323593594481
-0.00054450119992
-0.00309696512015
-0.000538725881076
-0.00295962241654
-0.000532561489711
-0.00282399375236
-0.000526056934212
-0.0026901558956
-0.000519262544904
-0.00255816905411
-0.000512228127378
-0.00242808371914
-0.000505004700144
-0.00229993393922
-0.000497642611919
-0.00217374362483
-0.000490193039829
-0.00204952055817
-0.000482706199909
-0.00192726218099
-0.000475232625917
-0.00180695037944
-0.000467821501177
-0.00168855675663
-0.000460521741739
-0.00157203820551
-0.000453380476388
-0.00145734165791
-0.000446443950514
-0.00134440044378
-0.000439756172308
-0.00123313848551
-0.000433359646674
-0.00112346739993
-0.00042729419589
-0.00101529006249
-0.000421597525135
-0.000908498325952
-0.000416304237288
-0.000802975711387
-0.000411446290745
-0.00069859520195
-0.00040705232362
-0.000595220185795
-0.000403148580553
-0.000492701708827
-0.000399759780953
-0.000390876567064
-0.000396911983065
-0.000289569206209
-0.000394635230921
-0.000188649911524
-0.000392878617862
-8.86072637966e-05
-0.000389713333391
-0.00034999113705
-0.000410425177632
0.00195023100361
-0.000865277823837
0.00216138610048
-0.00131803168243
0.00215273434367
-0.00176375159089
0.00212144617565
-0.00220003741156
0.00207935628752
-0.00262482445099
0.00202786016173
-0.00303627889203
0.00196788204764
-0.003432807722
0.00190040078441
-0.0038130647157
0.00182644213783
-0.00417594980384
0.00174704311937
-0.00452059834302
0.00166322015801
-0.004846366741
0.00157594262853
-0.00515281120079
0.0014861136804
-0.00543966692831
0.00139455679883
-0.00570682350352
0.00130200910849
-0.00595430391833
0.00120911893459
-0.00618224164869
0.00111644830243
-0.00639086328024
0.00102447755748
-0.00658046982012
0.00093361292306
-0.00675142431231
0.000844194256055
-0.0069041378964
0.000756504167738
-0.00703906220345
0.000670775993681
-0.00715667948205
0.000587202172303
-0.00725749873693
0.000505940758736
-0.00734204872263
0.000427121945926
-0.00741087655455
0.000350852491013
-0.0074645423717
0.000277220150746
-0.00750361929526
0.000206296138539
-0.00752868880886
0.000138137828442
-0.00754034129005
7.27897436491e-05
-0.00753917159266
1.02851246362e-05
-0.00752577947415
-4.9354168017e-05
-0.0075007652871
-0.000106115958897
-0.0074647305134
-0.000159998878755
-0.00741827319486
-0.000211011084092
-0.00736198860911
-0.000259170625701
-0.00729646459505
-0.000304504585044
-0.0072222823817
-0.000347049204956
-0.00714001205476
-0.000386848887355
-0.00705021361539
-0.000423956145202
-0.006953432685
-0.000458430438169
-0.00685020187104
-0.000490337973076
-0.00674103680798
-0.000519750427255
-0.00662643787012
-0.000546744640964
-0.00650688658811
-0.000571401283158
-0.00638284772218
-0.000593804506764
-0.00625476608503
-0.000614040628764
-0.00612306895225
-0.000632197800822
-0.00598816326949
-0.000648364757374
-0.00585043835896
-0.000662630565415
-0.00571026348847
-0.00067508350106
-0.00556799080285
-0.000685810918803
-0.00542395318685
-0.000694898296326
-0.00527846733915
-0.000702429270338
-0.00513183186484
-0.000708484890291
-0.00498433038666
-0.000713143837574
-0.00483622976923
-0.00071648189776
-0.00468778316403
-0.000718572374052
-0.00453922828791
-0.00071948577426
-0.00439079029792
-0.000719290386487
-0.00424268003908
-0.000718052139014
-0.00409509667487
-0.000715835294022
-0.0039482258667
-0.000712702424102
-0.00380224211168
-0.00070871514716
-0.00365730683284
-0.000703934141294
-0.00351357042276
-0.000698419851206
-0.00337117027907
-0.000692232473245
-0.00323023258064
-0.000685432561042
-0.0030908703154
-0.000678080921391
-0.00295318484839
-0.00067023907994
-0.00281726402232
-0.000661969060781
-0.00268318357975
-0.000653333689938
-0.00255100540345
-0.000644396253235
-0.00242077885863
-0.000635220650564
-0.00229253924353
-0.000625870954122
-0.00216630909689
-0.000616411435595
-0.00204209689868
-0.000606906055983
-0.00191989837587
-0.000597418403961
-0.0017996954851
-0.000588011155674
-0.00168145772368
-0.000578745954957
-0.00156514139544
-0.000569682875748
-0.0014506909217
-0.000560880274948
-0.00133803837906
-0.00055239428542
-0.00122710477926
-0.000544278660513
-0.00111779983095
-0.000536584321504
-0.00101002313607
-0.000529359225236
-0.000903664102362
-0.000522648012985
-0.000798602891121
-0.000516491982417
-0.000694710448053
-0.000510929092128
-0.000591849081455
-0.000505994291993
-0.000489872508566
-0.000501720413532
-0.000388628926476
-0.000498140452822
-0.000287968069936
-0.000495281966797
-0.000187788790485
-0.000493041617355
-8.85587523811e-05
-0.000488926810792
-0.00043854259398
-0.000420595284631
0.00237077139704
-0.000886474324152
0.00262720605294
-0.00134990677958
0.00261610802294
-0.00180571723354
0.00257719777416
-0.00225134217686
0.00252492261665
-0.0026845890313
0.00246104851437
-0.00310353534995
0.00238677006797
-0.00350653865156
0.00230334598532
-0.00389224036418
0.00221208601575
-0.00425955960036
0.00211430480145
-0.00460767739893
0.00201128075801
-0.00493601487524
0.00190422328009
-0.00524420666086
0.00179424910323
-0.00553207308565
0.00168236733288
-0.00579959170993
0.00156947241639
-0.00604687102749
0.00145634351532
-0.00627412584195
0.00134364907654
-0.00648165646756
0.00123195482952
-0.00666983030153
0.00112173421947
-0.00683906752087
0.00101337973387
-0.0069898288034
0.000907214644988
-0.00712260670979
0.000803503991757
-0.00723791824766
0.000702464847005
-0.00733630035198
0.000604274993186
-0.0074183056093
0.000509080481665
-0.0074845001658
0.000417001401921
-0.007535461065
0.000328136639319
-0.00757177522462
0.0002425670379
-0.00759403728029
0.000160357937086
-0.0076028487686
8.15604982622e-05
-0.007598815997
6.2129958143e-06
-0.00758254870611
-6.56595481437e-05
-0.00755465788594
-0.000134043433882
-0.00751575445946
-0.000198937653609
-0.0074664465735
-0.000260352849005
-0.00740733829299
-0.00031831145072
-0.00733902683129
-0.000372847094947
-0.0072621013223
-0.00042400441378
-0.00717714018279
-0.000471838219436
-0.00708471010455
-0.000516413060594
-0.0069853636866
-0.000557802181872
-0.00687963875305
-0.000596086882689
-0.0067680563423
-0.000631355313027
-0.00665112040816
-0.000663701712028
-0.00652931621546
-0.000693225127681
-0.00640311044489
-0.000720028613832
-0.00627295000113
-0.000744217952568
-0.0061392625054
-0.000765900888601
-0.00600245549816
-0.000785185933044
-0.00586291728054
-0.000802181700215
-0.0057210164633
-0.000816995855389
-0.00557710309158
-0.000829734616368
-0.0054315084736
-0.000840501906465
-0.005284546504
-0.000849399068469
-0.00513651368025
-0.000856524263996
-0.00498769051826
-0.000861972435601
-0.00483834165216
-0.000865834978016
-0.00468871723055
-0.000868199951369
-0.00453905298986
-0.000869152012051
-0.00438957152169
-0.000868772849441
-0.00424048222828
-0.000867141331933
-0.00409198237891
-0.000864334100048
-0.00394425688553
-0.000860425846052
-0.00379747910271
-0.000855489973874
-0.00365181040706
-0.000849598917962
-0.00350740074419
-0.000842824769204
-0.00336438803905
-0.000835239536963
-0.00322289853255
-0.000826915656172
-0.00308304608696
-0.000817926122464
-0.00294493238586
-0.000808344822328
-0.00280864621708
-0.000798246502324
-0.00267426361746
-0.000787706903558
-0.00254184721666
-0.000776802565342
-0.00241144640313
-0.000765610777082
-0.00228309679787
-0.000754209243153
-0.00215682049728
-0.000742675890422
-0.00203262572257
-0.000731088439356
-0.00191050717407
-0.000719524113386
-0.00179044587919
-0.000708059163493
-0.00167240966798
-0.000696768526028
-0.00155635321934
-0.00068572534327
-0.00144221864951
-0.000675000608661
-0.00132993573666
-0.000664662717336
-0.0012194225975
-0.000654777132118
-0.00111058605122
-0.000645405996007
-0.00100332235072
-0.000636607855354
-0.000897517651324
-0.00062843739012
-0.00079304881216
-0.000620945287816
-0.000689783944209
-0.000614178147517
-0.00058758341529
-0.000608178842052
-0.000486301696397
-0.000602986942437
-0.000385789047785
-0.000598638081026
-0.000285898003156
-0.000595156856632
-0.00018652285601
-0.000592401532678
-8.80853095786e-05
-0.000587348921786
-0.000526619646471
-0.000433201128905
0.0028039171072
-0.000912810955944
0.00310675714283
-0.00138951579938
0.00309275345218
-0.0018578240973
0.00304544693525
-0.00231496539828
0.00298200481976
-0.00275858958728
0.00290461378336
-0.00318666859203
0.00281479031164
-0.00359750571319
0.00271412453805
-0.00398973588714
0.00260425786505
-0.00436231257283
0.00248682342976
-0.00471448386242
0.00236339432863
-0.00504576156721
0.0022354436296
-0.00535588622991
0.00210431685127
-0.0056447913427
0.00197121600598
-0.0059125686369
0.00183719382362
-0.00615943646465
0.0017031560502
-0.00638571185647
0.00156986984281
-0.00659178710485
0.00143797617108
-0.00677811054215
0.00130800453419
-0.00694517161559
0.00118038852526
-0.00709348948643
0.00105548112854
-0.00722360491348
0.00093356898963
-0.00733607455309
0.000814885057453
-0.00743146734028
0.000699619415806
-0.00751036217512
0.000587928044725
-0.00757334662435
0.00047993974059
-0.00762101605237
0.000375761132881
-0.00765397300329
0.000275480296277
-0.00767282646868
0.000179168955563
-0.00767819097984
8.68838778923e-05
-0.0076706857191
-1.33208875927e-06
-0.00765093264842
-8.54510671405e-05
-0.0076195548426
-0.000165458330616
-0.00757717498894
-0.000241353176701
-0.00752441306823
-0.000313149047425
-0.00746188425936
-0.000380873086988
-0.00739019681147
-0.000444565958428
-0.00730994994337
-0.000504281227986
-0.00722173185276
-0.000560084832632
-0.00712611783654
-0.000612054124114
-0.00702366860242
-0.000660277040855
-0.00691492874241
-0.000704850894945
-0.00680042544822
-0.000745881345455
-0.00668066740845
-0.000783481032172
-0.00655614396755
-0.000817768454719
-0.00642732446891
-0.000848866562508
-0.00629465786172
-0.000876901641234
-0.00615857247574
-0.000902001952099
-0.00601947604336
-0.000924296709543
-0.00587775586616
-0.000943914855005
-0.00573377920145
-0.000960984203792
-0.00558789375558
-0.000975630425304
-0.0054404283534
-0.000987976424958
-0.005291693669
-0.000998141598086
-0.0051419830776
-0.00100624150397
-0.00499157350919
-0.00101238743768
-0.00484072635634
-0.00101668642389
-0.00468968832344
-0.00101924112066
-0.00453869226445
-0.00102015012437
-0.00438795790364
-0.00101950816992
-0.00423769248788
-0.00101740668566
-0.00408809128413
-0.00101393421132
-0.00393933797469
-0.00100917710228
-0.00379160488266
-0.00100322004772
-0.00364505308672
-0.000996146797191
-0.0034998323834
-0.000988040654406
-0.00335608115844
-0.000978985105156
-0.00321392614399
-0.000969064176291
-0.00307348212181
-0.000958362871215
-0.0029348515686
-0.000946967326243
-0.00279812429253
-0.000934965008243
-0.00266337706774
-0.00092244464616
-0.0025306732997
-0.000909496191831
-0.00240006273943
-0.000896210551096
-0.00227158125725
-0.000882679347227
-0.00214525069983
-0.000868994502241
-0.00202107881972
-0.000855247861091
-0.00189905931019
-0.00084153068591
-0.00177917191299
-0.000827933203173
-0.0016613826375
-0.000814544067738
-0.00154564404245
-0.000801449886613
-0.00143189562678
-0.00078873470081
-0.00132006426488
-0.000776479529546
-0.00121006474362
-0.00076476190638
-0.00110180031743
-0.00075365548119
-0.000995163378139
-0.000743229650851
-0.000890036134491
-0.000733549259982
-0.000786291388749
-0.000724674364665
-0.000683793583982
-0.000716660177571
-0.00058239984052
-0.000709556858806
-0.000481961135059
-0.000703409506176
-0.000382325574929
-0.0006982584049
-0.000283341753358
-0.000694126704242
-0.00018488843202
-0.000690838339715
-8.73552953107e-05
-0.000684865229039
-0.000613967677499
-0.000448520590381
0.00325238205745
-0.000944824469843
0.00360300107692
-0.00143763090071
0.00358550027954
-0.00192104577235
0.00352880208617
-0.00239203688213
0.00345293642023
-0.00284806194983
0.00336057943196
-0.003286969829
0.00325363892583
-0.00370700843303
0.00313410405363
-0.00410681863637
0.0030040091889
-0.00448541131539
0.00286535749367
-0.00484213187381
0.00272005657251
-0.00517661708502
0.00256987089136
-0.00548874874812
0.00241639097676
-0.00577860779569
0.00226101799169
-0.00604643157616
0.00210496107635
-0.00629257608674
0.00194924462789
-0.00651748401221
0.0017947224996
-0.00672165888558
0.00164209649119
-0.00690564498849
0.0014919368775
-0.00707001258076
0.00134470319241
-0.0072153475106
0.00120076405298
-0.00734224462777
0.00106041504705
-0.00745130390065
0.000923894306203
-0.00754312878112
0.000791395320351
-0.00761832576037
0.00066307718948
-0.00767750489885
0.00053907218227
-0.00772128040984
0.000419491179258
-0.0077502713844
0.000304427021602
-0.00776510192006
0.000193956552616
-0.00776640103885
8.81413413958e-05
-0.0077548015908
-1.29718131499e-05
-0.00773093970517
-0.000109351887665
-0.00769545260531
-0.000200982929339
-0.00764897686132
-0.000287865037815
-0.00759214613982
-0.000370014413806
-0.00752558907965
-0.000447463383042
-0.00744992681252
-0.000520259964329
-0.00736577087193
-0.000588467483437
-0.0072737208577
-0.00065216365292
-0.00717436260764
-0.000711439750992
-0.00706826620197
-0.000766399312722
-0.0069559845459
-0.000817156993956
-0.00683805182312
-0.000863837010779
-0.00671498255999
-0.000906571829059
-0.0065872705732
-0.00094550049366
-0.00645538853065
-0.000980767272637
-0.00631978738908
-0.00101251999783
-0.00618089642886
-0.00104090877381
-0.00603912314982
-0.00106608443332
-0.00589485373298
-0.0010881974019
-0.00574845333744
-0.00110739635654
-0.00560026691822
-0.00112382733094
-0.00545061984312
-0.00113763266243
-0.00529981896761
-0.00114895041501
-0.00514815345733
-0.0011579136866
-0.00499589598984
-0.0011646504099
-0.00484330364296
-0.00116928306473
-0.00469061907246
-0.0011719288751
-0.00453807131422
-0.00117269991842
-0.00438587678941
-0.00117170368001
-0.00423423988674
-0.0011690434897
-0.0040833536795
-0.00116481933107
-0.00393340019941
-0.00115912847733
-0.0037845508075
-0.00115206640725
-0.00363696613857
-0.00114372748203
-0.00349079613846
-0.00113420580444
-0.00334617972601
-0.00112359578159
-0.00320324457172
-0.00111199278819
-0.00306210657768
-0.00109949350119
-0.00292286951294
-0.00108619627956
-0.00278562443579
-0.00107220121709
-0.00265044930934
-0.00105761021662
-0.00251740848524
-0.0010425267702
-0.00238655240541
-0.00102705576206
-0.00225791723668
-0.0010113030316
-0.0021315247301
-0.000995374974677
-0.00200738205871
-0.000979377967788
-0.00188548186888
-0.000963417847507
-0.00176580233858
-0.000947599273215
-0.00164830742416
-0.000932025157578
-0.0015329471296
-0.000916796032329
-0.00141965793209
-0.000902009487278
-0.00130836323461
-0.000887759587391
-0.00119897394585
-0.000874136364308
-0.00109138908569
-0.00086122532111
-0.000985496506725
-0.000849107008427
-0.000881173652229
-0.000837856651403
-0.000778288498534
-0.000827543853532
-0.0006767004533
-0.000818232269752
-0.000576261569428
-0.000809979602805
-0.000476818509334
-0.000802837371507
-0.000378212903935
-0.000796848907545
-0.000280284520237
-0.000792038588566
-0.000182902214575
-0.000788205422871
-8.64305110217e-05
-0.000781321518627
-0.000700389797416
-0.000466892966071
0.00371921874435
-0.000983196659129
0.00411924518855
-0.0014952412622
0.00409748454147
-0.00199662511607
0.00403012586982
-0.00248399054174
0.00394024176827
-0.00295456324451
0.00383109220104
-0.00340605292561
0.00370506878634
-0.00383665687859
0.00356464833553
-0.00424504379805
0.00341233663512
-0.00463031642628
0.00325057087354
-0.00499195959629
0.0030816407905
-0.00532978061764
0.00290763329073
-0.00564384778252
0.00273039992777
-0.00593443180539
0.00255154425417
-0.00620195318812
0.00237242522923
-0.00644693747048
0.00219417226758
-0.00666997889743
0.002017707941
-0.00687171242474
0.00184377475782
-0.00705279327199
0.00167296324748
-0.00721388300728
0.00150573930955
-0.0073556410296
0.0013424693602
-0.00747872022074
0.00118344250887
-0.00758376578472
0.00102888915482
-0.0076714161219
0.000878996042884
-0.00774230506243
0.000733917627726
-0.00779706447568
0.000593784296006
-0.00783632695261
0.000458707555278
-0.00786072781891
0.000328783075474
-0.0078709065786
0.00020409177079
-0.00786750729095
8.4699877744e-05
-0.00785117806784
-2.9341875281e-05
-0.00782257066062
-0.000137998702685
-0.0077823382414
-0.00024125336872
-0.00773113337012
-0.000339106452007
-0.00766960579082
-0.000431577114896
-0.00759839977463
-0.000518703013416
-0.00751815171219
-0.000600540199172
-0.00742948747151