/*--------------------------------*- C++ -*----------------------------------*\
| =========                 |                                                 |
| \\      /  F ield         | OpenFOAM: The Open Source CFD Toolbox           |
|  \\    /   O peration     | Version:  v1906                                 |
|   \\  /    A nd           | Web:      www.OpenFOAM.com                      |
|    \\/     M anipulation  |                                                 |
\*---------------------------------------------------------------------------*/
FoamFile
{
    version     2.0;
    format      ascii;
    class       surfaceScalarField;
    location    "400";
    object      phi;
}
// * * * * * * * * * * * * * * * * * * * * * * * * * * * * * * * * * * * * * //

dimensions      [0 3 -1 0 0 0 0];
oriented        oriented;


internalField   nonuniform List<scalar> 
295
(
-1.2506544503
1.02556158371
0.225135359531
-0.00330937095654
0.00211505641337
0.00119611768465
0.00284380171702
-0.00207700867445
-0.000766551040265
0.00103657871241
-0.00633514866052
0.00529795622906
-0.461390485377
-0.78923938173
-0.000512001585028
0.00118876765068
-0.000679373200099
0.000462843658865
-0.00182593035259
0.00136207489448
0.00405643664867
-0.00390802338066
-0.000150875735316
-0.000532977226087
-0.00277438686913
0.00247297550906
0.00099777970111
-0.00347056021485
-0.00078006413044
-0.000663344629347
0.00144127699105
0.00117971325978
-0.000144141923425
0.00175008042847
0.00109378734436
0.93947177395
-0.991830551347
0.0523871873372
0.788066678438
0.151436173647
-0.00031652282854
0.00437160209067
-0.00207660817528
-0.00634429136361
0.00201254014377
-0.000224352641738
-0.0017868771003
0.00145492904967
0.000217310466457
-0.00167196907259
-0.000512484142185
0.000462690599382
-0.00299857232136
0.00268088660453
-0.00181997196993
0.00320500428381
0.00354441969347
-0.00107059400682
0.00163651799563
-0.00241907900447
0.00147987828381
-0.000828223700427
0.000524694314495
0.00940540971278
-0.0126719484916
0.00307540675416
-0.858132772404
2.21976991209
-1.36162807093
0.00147807318652
0.00046234443305
-0.00193802974071
0.0325831398753
-0.0325877229168
0.0325810105232
-0.000265559206429
-0.000379329083502
0.00257516651143
0.00354705286282
-0.00611671999386
0.00819239329124
0.000286550019679
-0.00847583123672
1.06078310288
-2.09173038098
1.03095022316
0.0027230460002
0.000551470672035
-0.00328794141377
0.75567657043
-0.755682980205
0.000683667471966
-0.000684390310678
-0.00258499189602
0.00406393667993
0.00385171461062
-0.000307291122435
0.00155264118237
0.00229908839774
0.00940479042402
-0.858130553786
0.755672497971
0.000683619591713
-0.0132325708387
0.000558972883892
1.79735568099
0.42242265146
0.00560808945727
-0.000144738934378
0.00109378546639
1.0607821011
0.00271431038137
-0.089633483215
0.0808322248438
0.00881998048439
-0.00577570530007
-0.310924738909
0.316702498199
0.0010626628942
0.00151309988351
0.679402029689
0.346174183357
-0.135288230084
0.045677966918
-1.56935119597
-0.52237375944
0.00100128145834
-0.000449973549098
1.33220607476
-1.33220217392
-0.000655054251097
0.000488251256673
-0.0047166931673
-0.00105861152895
0.00187396764366
-0.00165625352994
0.00120948726427
-0.000746854649327
0.0857893793784
-0.00495552674962
0.00240156614796
-1.04242898088
0.882284885165
0.160149040016
0.00385978447381
-0.000309399083853
0.000107813911942
-0.000108200273377
0.00010769042373
0.00967316908554
-0.00699312682575
-0.0840587841687
0.093713030781
-0.583146005357
-0.45930026621
-0.00227136866177
-0.0294169506002
1.36162807093
-0.000295800128934
-0.000359794981335
-0.301248707475
-1.03095022316
3.23888086984e-05
0.000455675248815
0.11933193029
0.197359097985
0.80553046245
0.000652756487375
-0.548780176044
-0.00233145552034
0.551145345362
0.00229197256157
0.677126366601
0.00188698093397
-1.30027383022e-05
-0.000459706778496
-0.000859984002277
0.000112937095092
-0.687069512296
0.000777095880755
-0.335455721607
0.306048698169
9.7843769726e-06
-0.000304742230351
-0.780861939734
0.319486791448
0.0136654803388
-0.314904590128
-0.000592546834106
0.000625936475779
-0.50793825006
-0.040808836108
0.297596886988
0.00052406801788
-0.000828226259962
0.541573870282
-0.541576323098
-0.0243558629522
0.0243512715938
-0.0155639103384
-1.0473962935
1.04739411828
-0.00107163269587
0.00107136817728
-0.728471349629
0.00273675997
0.00112664516177
0.0149510725282
0.536190552546
0.316556683504
-0.0189577693285
-3.62880924591e-05
-0.00160881794738
-0.00017596292668
0.000992327279417
-0.000992014891553
0.313595560402
-0.313605798047
-0.000481228536001
-0.0159574529003
0.00107377537011
0.000145139789505
-0.000145845724829
-0.000253835513549
0.000253473278184
0.00105457733753
0.904818093117
0.00169517059668
-0.906526848164
-0.00109434387057
0.00143167578343
-0.000336052759398
-0.539223806326
-0.147854119493
0.0010794473865
-0.000301959744117
-0.00221775128859
-0.000202835251699
0.000198564577984
-0.00241642366461
-0.123703532381
0.0396240466894
0.00176702002382
-0.000254230653541
-0.00126729049769
0.000407193481904
-0.000734185434178
-0.000149211907964
0.000882208451798
-0.00081638692715
-0.000450710341848
0.00195984951125
-0.044520759944
0.141404950078
-0.0968433577528
0.837278349568
0.743561414812
-0.0137954415621
-0.50899521385
-0.00823768451036
0.0133817111933
0.00164271667235
-0.110627337539
0.365587235429
-1.45988194613e-05
-0.134476976446
0.0013408533195
0.000665562568653
-0.599288379868
-0.307251269038
-0.00141964482384
0.00108428089586
0.00851211932918
0.29170775667
0.000387063271818
0.527952983178
-0.000851708668341
0.000117335266875
-0.00100586662128
0.543521958667
0.000202678643383
-0.157230780224
-0.442066699924
-0.00172791659132
0.000308395299841
-0.000208855085832
0.000411347864548
0.000367344352679
-0.000517706355316
-0.00146527946435
0.00238874008256
-0.00215841408923
0.000556157848631
-0.000145273004808
3.81553010987e-05
)
;

boundaryField
{
    frontAndback
    {
        type            empty;
        value           nonuniform 0();
    }
    upperWall
    {
        type            calculated;
        value           uniform 0;
    }
    outlet
    {
        type            calculated;
        value           nonuniform List<scalar> 3(0.000165926710481 0.00271561177282 -0.00283226616496);
    }
    lowerWall
    {
        type            calculated;
        value           uniform 0;
    }
    inlet
    {
        type            calculated;
        value           uniform 0;
    }
}


// ************************************************************************* //
