/*--------------------------------*- C++ -*----------------------------------*\
| =========                 |                                                 |
| \\      /  F ield         | OpenFOAM: The Open Source CFD Toolbox           |
|  \\    /   O peration     | Version:  v1906                                 |
|   \\  /    A nd           | Web:      www.OpenFOAM.com                      |
|    \\/     M anipulation  |                                                 |
\*---------------------------------------------------------------------------*/
FoamFile
{
    version     2.0;
    format      ascii;
    class       surfaceScalarField;
    location    "548";
    object      phi;
}
// * * * * * * * * * * * * * * * * * * * * * * * * * * * * * * * * * * * * * //

dimensions      [0 3 -1 0 0 0 0];
oriented        oriented;


internalField   nonuniform List<scalar> 
18240
(
-0.00019881465198
0.000198802187419
-0.000407042534064
0.000208211547278
-0.000613869101076
0.000206814723514
-0.000817671289544
0.000203785061086
-0.00101738342138
0.000199701542234
-0.00121208550557
0.0001946843788
-0.00140093880117
0.000188843999053
-0.00158323506
0.000182278182328
-0.00175833872083
0.000175095718012
-0.00192575076819
0.000167393832015
-0.00208503628422
0.000159278993866
-0.00223589389705
0.000150839498691
-0.00237806920558
0.000142170222852
-0.00251142981638
0.000133342850818
-0.00263586825531
0.000124434797898
-0.00275138313997
0.000115497740055
-0.00285797535583
0.000106589973408
-0.00295573515764
9.77435447014e-05
-0.00304473505904
8.89990000875e-05
-0.0031251216321
8.03714745282e-05
-0.00319700805057
7.18867426185e-05
-0.00326056848659
6.35467643984e-05
-0.00331593303128
5.53659601305e-05
-0.00336328196483
4.73369398688e-05
-0.00340274564225
3.94659940829e-05
-0.0034344956085
3.17398808381e-05
-0.00345865215259
2.41595503921e-05
-0.00347536913733
1.67090025888e-05
-0.00348475199745
9.38630119743e-06
-0.00348693331512
2.17559240392e-06
-0.00348200385867
-4.92585575089e-06
-0.00347007573863
-1.19314902367e-05
-0.00345122991069
-1.88423666994e-05
-0.00342556462578
-2.56662670358e-05
-0.00339316099263
-3.24006280217e-05
-0.00335411408295
-3.90455473225e-05
-0.00330851874715
-4.5593102731e-05
-0.00325648118579
-5.20339828384e-05
-0.00319812598007
-5.8354070377e-05
-0.00313358614245
-6.45342585325e-05
-0.00306303152934
-7.05548709402e-05
-0.00298663594022
-7.63883193187e-05
-0.00290462639458
-8.20114951671e-05
-0.0028172269231
-8.73909103219e-05
-0.00272472815059
-9.25026595748e-05
-0.00262740922384
-9.73095617017e-05
-0.00252562758925
-0.000101787708409
-0.00241972267329
-0.000105895299536
-0.00231012633556
-0.000109604777658
-0.00219725316189
-0.000112863869455
-0.0020816308585
-0.000115633229937
-0.00196378017931
-0.000117842155014
-0.00184435993577
-0.000119433596821
-0.00172403356761
-0.000120318972788
-0.00160361622967
-0.000120433005421
-0.00148391940977
-0.000119690786235
-0.00136588653971
-0.000118050620665
-0.00125041216419
-0.00011546976599
-0.00113846427063
-0.000111967459138
-0.00103088521066
-0.000107575546099
-0.000928506658299
-0.000102399517507
-0.000831943094097
-9.656085479e-05
-0.000741718236022
-9.02469060059e-05
-0.000658086709196
-8.3630037053e-05
-0.000581207300588
-7.69026425327e-05
-0.000511011231289
-7.01967816829e-05
-0.000447397631852
-6.3638256869e-05
-0.000390108571479
-5.72926147017e-05
-0.000338901451611
-5.12328915177e-05
-0.000293417304843
-4.54906154544e-05
-0.0002533282652
-4.01153370437e-05
-0.0002182114946
-3.51255090873e-05
-0.000187678577392
-3.0559032171e-05
-0.000161265013723
-2.64233965343e-05
-0.000138554759058
-2.27354691535e-05
-0.000119090104394
-1.94747075041e-05
-0.000102488811057
-1.66253813114e-05
-8.83564137438e-05
-1.41425962905e-05
-7.63830330309e-05
-1.19966731981e-05
-6.62533985146e-05
-1.01402885618e-05
-5.77316302127e-05
-8.54458145695e-06
-5.0579732005e-05
-7.16330748821e-06
-4.46440097539e-05
-5.95810399444e-06
-3.98245377418e-05
-4.8314049414e-06
-3.60591099473e-05
-3.78740731704e-06
-3.27562817627e-05
-3.31726060309e-06
-2.97433902302e-05
-3.03689131395e-06
-2.71444933334e-05
-2.6186180883e-06
-2.45994389446e-05
-2.57429530362e-06
-2.18412129462e-05
-2.78686669084e-06
-1.90194576187e-05
-2.86022787517e-06
-1.61146970445e-05
-2.94555098426e-06
-1.28093747501e-05
-3.35356733958e-06
-8.86426325263e-06
-4.0004993891e-06
-4.32569052258e-06
-4.60325117029e-06
-4.3585355483e-06
-0.00021035047344
0.00040913873786
-0.000433228551696
0.000431073936717
-0.000653884029302
0.000427455926662
-0.000871067224532
0.000420952643399
-0.00108376807558
0.000412388617986
-0.00129103948046
0.000401940329907
-0.00149200789277
0.000389799262872
-0.00168591314027
0.000376168274508
-0.00187209303354
0.000361263235585
-0.0020500097308
0.000345295845899
-0.00221921999384
0.000328477781519
-0.00237939819558
0.000311003660763
-0.00253029748564
0.000293059057628
-0.0026717723567
0.000274804495119
-0.00280373427668
0.000256387380769
-0.00292617584811
0.000237927060611
-0.00303912389752
0.000219529892106
-0.00314266637534
0.000201274904699
-0.00323690514091
0.000183230905393
-0.0033219857636
0.000165442255233
-0.0033980515183
0.000147946950636
-0.00346527545774
0.000130762263306
-0.00352381667596
0.000113902958303
-0.00357385352214
9.73668464004e-05
-0.00361554297219
8.11525313442e-05
-0.00364905364658
6.52451868885e-05
-0.00367452914357
4.96333903913e-05
-0.00369211950603
3.42956021445e-05
-0.00370194942976
1.92157318502e-05
-0.00370414684343
4.37084299824e-06
-0.00369881733175
-1.02548192937e-05
-0.00368606906274
-2.46803739576e-05
-0.0036659936569
-3.89163526517e-05
-0.00363868608111
-5.29730118798e-05
-0.00360423376481
-6.6850851349e-05
-0.0035627306501
-8.05465427829e-05
-0.00351427466843
-9.40465661609e-05
-0.00345897477856
-0.000107330680898
-0.00339695686568
-0.000120369310819
-0.00332836251608
-0.000133124616558
-0.00325336276791
-0.000145552109899
-0.00317214739707
-0.000157599232194
-0.003084945682
-0.000169211198255
-0.00299200556335
-0.000180326490329
-0.0028936209861
-0.000190886092608
-0.00279010172936
-0.000200824632844
-0.00268180815296
-0.000210081378585
-0.00256911460003
-0.000218585484072
-0.00245245383708
-0.00022626724349
-0.00233227835758
-0.000233037231984
-0.00220911649511
-0.000238798668462
-0.00208353397757
-0.000243424109881
-0.00195619871582
-0.000246774454888
-0.00182783723054
-0.000248681612862
-0.00169929557077
-0.000248982289104
-0.00157147657542
-0.000247512757139
-0.00144538107944
-0.000244155706018
-0.00132201852395
-0.000238837048007
-0.00120242994123
-0.000231567296456
-0.00108758040253
-0.000222431245209
-0.00097836916822
-0.000211623273004
-0.000875509960878
-0.000199427117868
-0.000779545224363
-0.000186225156452
-0.00069076272713
-0.000172420736755
-0.000609275135931
-0.000158405212645
-0.000535001316564
-0.00014448083452
-0.0004677774319
-0.000130879049509
-0.000407333338411
-0.00011774935689
-0.00035337267329
-0.000105212348906
-0.000305528750006
-9.33493441735e-05
-0.000263425351856
-8.22388822621e-05
-0.000226629565377
-7.1937632556e-05
-0.000194701716455
-6.25075045349e-05
-0.000167155644446
-5.39861433069e-05
-0.000143516394295
-4.63948374185e-05
-0.000123300896468
-3.97063936104e-05
-0.000106077660942
-3.3867960621e-05
-9.14402251867e-05
-2.87959081644e-05
-7.90448769341e-05
-2.44110560395e-05
-6.85723187733e-05
-2.06289049645e-05
-5.97564752806e-05
-1.73795300076e-05
-5.23457291638e-05
-1.45906254807e-05
-4.61195140712e-05
-1.22034914255e-05
-4.08123046964e-05
-1.01554329726e-05
-3.61547656921e-05
-8.46379980829e-06
-3.21422700341e-05
-7.34784696749e-06
-2.8940190958e-05
-6.26040160179e-06
-2.63018253608e-05
-5.2792280638e-06
-2.38937215962e-05
-5.00858584515e-06
-2.14564557225e-05
-5.25458136713e-06
-1.87575791311e-05
-5.59577978829e-06
-1.58623867267e-05
-5.88098054285e-06
-1.27327098896e-05
-6.53006637312e-06
-9.03565140573e-06
-7.75277512642e-06
-4.46755183402e-06
-9.23098282742e-06
-8.85476932764e-06
-0.000213213750758
0.000622338168845
-0.000438381697841
0.000656226708616
-0.000661509851388
0.000650569030888
-0.000881086711292
0.000640514320079
-0.00109602560239
0.00062731284539
-0.00130533922402
0.000611239061859
-0.00150813791298
0.000592583777363
-0.00170364752114
0.000571663447856
-0.00189120784926
0.000548810012823
-0.00207028084503
0.000524355025162
-0.00224043835327
0.000498622512619
-0.00240136401015
0.000471916274634
-0.00255283424488
0.000444517423331
-0.00269471734605
0.000416675477024
-0.00282695128753
0.00038861049523
-0.00294954276038
0.000360507477822
-0.00306254453946
0.000332522000369
-0.0031660562305
0.000304776735786
-0.00326020286857
0.000277369136384
-0.00334513805367
0.000250368889173
-0.00342102455844
0.000223826391113
-0.00348803974655
0.000197770303836
-0.0035463584329
0.000172215983831
-0.00359616003936
0.000147162773313
-0.00363761370455
0.000122601963251
-0.00367088651258
9.85138193216e-05
-0.0036961308744
7.48749417443e-05
-0.00371349321357
5.16552666265e-05
-0.00372310375234
2.8824837231e-05
-0.0037250852179
6.35109434698e-06
-0.00371954531011
-1.57948672777e-05
-0.00370658508334
-3.76404412658e-05
-0.00368629452696
-5.92058843881e-05
-0.00365876040949
-8.05057299111e-05
-0.00362406522551
-0.000101544022075
-0.00358229418436
-0.000122315131049
-0.00353353760292
-0.000142800367479
-0.00347789643881
-0.000162968579682
-0.00341548768691
-0.000182774793963
-0.0033464474459
-0.000202161078812
-0.00327093834863
-0.000221057773555
-0.00318914884825
-0.000239384798818
-0.00310130144255
-0.000257055387177
-0.00300764711858
-0.000273977134182
-0.00290847370872
-0.000290056911266
-0.00280409577757
-0.000305199586712
-0.00269486422524
-0.00031931141401
-0.00258115442756
-0.000332293470589
-0.00246338084288
-0.000344040802876
-0.00234198866113
-0.000354429173107
-0.00221747824208
-0.00036331087563
-0.00209040427047
-0.000370499666533
-0.00196140972943
-0.000375772728972
-0.00183122663094
-0.000378868244841
-0.00170070477654
-0.0003795099004
-0.00157079257477
-0.000377430397024
-0.00144253720512
-0.000372418828272
-0.00131703144104
-0.000364350119419
-0.00119539384457
-0.000353214442979
-0.00107869662862
-0.000339137343404
-0.000967928882586
-0.000322401727399
-0.000863895547534
-0.000303470134638
-0.000767162224877
-0.000282969921364
-0.000678003522831
-0.000261590231798
-0.000596453102477
-0.000239968499989
-0.000522360380592
-0.000218586368368
-0.000455485452066
-0.000197769089589
-0.00039552402126
-0.000177725770617
-0.000342142668983
-0.000158610816637
-0.000294966250277
-0.000140542709475
-0.000253598684996
-0.000123625109876
-0.00021760614556
-0.000107948482722
-0.000186526640148
-9.36063350764e-05
-0.000159854317156
-8.06766800222e-05
-0.000137070848239
-6.91969957698e-05
-0.000117665174949
-5.91294211453e-05
-0.000101177799412
-5.03732184057e-05
-8.72014262599e-05
-4.27893420717e-05
-7.53886142453e-05
-3.62416982425e-05
-6.54305669969e-05
-3.06042797527e-05
-5.70615330996e-05
-2.57667630418e-05
-5.00407520396e-05
-2.16292128737e-05
-4.41528755431e-05
-1.81099129304e-05
-3.91799424419e-05
-1.51461661857e-05
-3.49439880704e-05
-1.2718282057e-05
-3.1288083991e-05
-1.10232258965e-05
-2.79229076874e-05
-9.6473504164e-06
-2.47979019057e-05
-8.42726085293e-06
-2.22883704591e-05
-7.54432748053e-06
-2.02511659928e-05
-7.32266875692e-06
-1.76150094552e-05
-8.26792867726e-06
-1.44341975837e-05
-9.10221340759e-06
-1.11014645178e-05
-9.90848977928e-06
-7.42698990118e-06
-1.14760777863e-05
-3.81214684753e-06
-1.28963792644e-05
-1.26930204976e-05
-0.000216645517783
0.000838969157142
-0.000445179900283
0.000884745488717
-0.000671597965537
0.000876971822535
-0.000894288731151
0.000863189780713
-0.00111210122829
0.000845110344691
-0.00132400168685
0.000823124595524
-0.00152907299182
0.00079764051389
-0.00172652546962
0.000769101495671
-0.00191569856636
0.000737969129889
-0.00209606175097
0.000704704426737
-0.00226720623878
0.000669753761968
-0.00242883839231
0.000633535444019
-0.00258076535806
0.000596432041553
-0.00272288506328
0.000558783144192
-0.0028551697307
0.000520883844315
-0.00297765583795
0.000482982632314
-0.00309042833817
0.000445284344378
-0.00319361258602
0.000407951245946
-0.00328736072059
0.000371108393125
-0.00337184628008
0.000334846039079
-0.0034472531368
0.00029922574791
-0.00351377267752
0.000264282855615
-0.00357159508975
0.000230032347128
-0.00362090859369
0.000196470773414
-0.00366189268802
0.000163581503513
-0.00369471887098
0.000131336017073
-0.00371954552626
9.96985477816e-05
-0.00373651970474
6.86269750496e-05
-0.00374577351917
3.80770773213e-05
-0.00374742678097
8.00335789838e-06
-0.00374158497075
-2.16368466427e-05
-0.00372834270811
-5.08823191124e-05
-0.00370778359314
-7.97638837499e-05
-0.00367998459747
-0.000108303095969
-0.00364501797573
-0.000136508410628
-0.00360295656545
-0.000164373859942
-0.00355387777293
-0.000191876038982
-0.00349786940115
-0.000218973473502
-0.00343503515717
-0.000245605317302
-0.0033654999946
-0.000271692289532
-0.00328941586365
-0.000297137946757
-0.00320696490832
-0.000321831719516
-0.00311836368775
-0.000345652830688
-0.00302386248757
-0.000368474662943
-0.00292374670828
-0.000390169566563
-0.00281833189964
-0.000410611579182
-0.00270796331778
-0.000429678018147
-0.00259300971312
-0.000447245612785
-0.0024738662383
-0.000463183914459
-0.00235095452007
-0.000477341184274
-0.00222473768858
-0.000489529260128
-0.00209573507305
-0.000499504515938
-0.00196455362954
-0.000506957779011
-0.00183191264792
-0.000511513425154
-0.00169867321993
-0.000512754869195
-0.00156583901849
-0.000510270900174
-0.00143454156305
-0.000503723731503
-0.0013059885928
-0.000492911482066
-0.00118143285334
-0.000477779506401
-0.00106210403956
-0.000458476173573
-0.000949163561366
-0.000435352858386
-0.000843568514422
-0.000409075557395
-0.000745942379462
-0.000380607352244
-0.000656510701549
-0.000351033018786
-0.000575166137798
-0.000321325747142
-0.00050161134391
-0.000292154557623
-0.000435494347587
-0.000263901061621
-0.000376451458108
-0.000236784254934
-0.000324111863483
-0.000210967454969
-0.000278082465116
-0.000186589587541
-0.000237953788117
-0.000163772409309
-0.000203289983033
-0.000142631303016
-0.000173612219787
-0.000123303256624
-0.000148374831473
-0.00010593273706
-0.000126991020661
-9.05989887901e-05
-0.000108889599212
-7.7248318847e-05
-9.35739752671e-05
-6.57062250335e-05
-8.0635074363e-05
-5.57455262214e-05
-6.97345500956e-05
-4.71598876522e-05
-6.05780704737e-05
-3.9778542874e-05
-5.29116761736e-05
-3.34513179652e-05
-4.65119293294e-05
-2.80472420956e-05
-4.11806824275e-05
-2.34595867161e-05
-3.67106593517e-05
-1.96344964689e-05
-3.29561411732e-05
-1.64914342624e-05
-2.94221358354e-05
-1.45777882295e-05
-2.61778294936e-05
-1.29142091206e-05
-2.333770159e-05
-1.12916083924e-05
-2.0503300581e-05
-1.04054421059e-05
-1.75984471015e-05
-1.02573996142e-05
-1.54177531352e-05
-1.04829677108e-05
-1.24131017697e-05
-1.21463909931e-05
-8.8832659463e-06
-1.34799892509e-05
-5.87323727038e-06
-1.4529150665e-05
-3.05542991654e-06
-1.57591520211e-05
-1.57711274517e-05
-0.000221226886871
0.001060181241
-0.000454446775706
0.00111794993237
-0.000685375038177
0.00110788442657
-0.000912305269686
0.00109010456342
-0.00113401201757
0.00106680178335
-0.00134940392483
0.00103850138751
-0.00155752692711
0.00100574864857
-0.00175757292786
0.000969132872526
-0.00194888134792
0.000929263258791
-0.00213093587214
0.000886744976553
-0.00230335502486
0.000842159354054
-0.00246588048224
0.00079604773167
-0.00261836165246
0.00074890053133
-0.00276074068625
0.00070114996377
-0.00289303584565
0.000653167351712
-0.0030153272002
0.000605262872878
-0.00312774188053
0.000557688539204
-0.00323044257465
0.000510642062255
-0.00332361595492
0.000464272583476
-0.00340746449659
0.00041868605944
-0.00348219809127
0.000373951556666
-0.00354802878596
0.000330106485675
-0.00360516500273
0.000287162268851
-0.00365380846784
0.000245108702857
-0.00369415034805
0.000203918634947
-0.00372636969955
0.000163551403095
-0.00375063100499
0.000123956673282
-0.00376708370633
8.50772842655e-05
-0.00377586090317
4.68526452592e-05
-0.00377707984013
9.22143836741e-06
-0.00377084181663
-2.78750091034e-05
-0.00375723379288
-6.44897493094e-05
-0.00373632983131
-0.000100666605367
-0.00370819411471
-0.000136436907044
-0.00367288428013
-0.000171815795063
-0.00363045610154
-0.000206799022213
-0.00358096882267
-0.000241359892728
-0.00352449131283
-0.000275447130781
-0.00346110884163
-0.000308983704302
-0.00339092964157
-0.000341867158126
-0.00331409153202
-0.000373971707892
-0.00323076673814
-0.000405152138881
-0.00314116578614
-0.000435249639458
-0.00304553783863
-0.000464098695053
-0.00294416940134
-0.000491534590347
-0.00283737868909
-0.000517399387834
-0.00272550942078
-0.000541545163487
-0.00260892229577
-0.000563831400304
-0.00248799050338
-0.000584115343238
-0.00236309919839
-0.000602233100535
-0.00223465717158
-0.000617972914525
-0.00210312066119
-0.000631043678936
-0.00196903426806
-0.000641047745902
-0.00183308068135
-0.000647471500903
-0.00169612947446
-0.000649711762621
-0.0015592567713
-0.000647149713091
-0.00142372310139
-0.000639265384735
-0.00129088805386
-0.000625754758594
-0.00116220135425
-0.000606476036337
-0.00103910770261
-0.000581580337579
-0.000923064811683
-0.000551406363787
-0.000815301770947
-0.00051684958614
-0.000716551986714
-0.000479367777391
-0.000626936458325
-0.000440660052129
-0.000546073902027
-0.000402200466069
-0.000473401884579
-0.000364840524314
-0.000408406678689
-0.000328911159508
-0.000350658778689
-0.000294548317016
-0.000299757062844
-0.000261886126712
-0.000255290076472
-0.000231074509061
-0.000216841332601
-0.000202240023795
-0.000183988714703
-0.000175503421612
-0.000156253417598
-0.000151058142593
-0.000133028418064
-0.000129176397812
-0.000113607187541
-0.000110038400493
-9.73061842702e-05
-9.35665294189e-05
-8.35755348839e-05
-7.94541527886e-05
-7.20177036587e-05
-6.73208929231e-05
-6.23254483676e-05
-5.68700405273e-05
-5.42268108749e-05
-4.78953941913e-05
-4.74882229094e-05
-4.02084056122e-05
-4.19119142216e-05
-3.36420643672e-05
-3.73345273192e-05
-2.80557010499e-05
-3.36353010257e-05
-2.33522422341e-05
-3.04544886616e-05
-1.96916690621e-05
-2.74483132539e-05
-1.76055676692e-05
-2.44783643455e-05
-1.590756663e-05
-2.11107775446e-05
-1.46841339058e-05
-1.79872984814e-05
-1.35558503141e-05
-1.50724440812e-05
-1.3202461181e-05
-1.2653646891e-05
-1.29342895506e-05
-1.05028370157e-05
-1.43339874401e-05
-7.47162894309e-06
-1.65509125538e-05
-4.64056941818e-06
-1.7398426986e-05
-2.36014637887e-06
-1.80778175237e-05
-1.81509140139e-05
-0.000227101363605
0.00128726759266
-0.00046639234449
0.00135722478867
-0.000703141746367
0.00134461801175
-0.000935521121922
0.00132246814543
-0.00116221000329
0.0012934750949
-0.00138204539274
0.00125832137025
-0.00159402747847
0.00121771556934
-0.00179732786319
0.00117241834153
-0.00199128929602
0.00112321009016
-0.00217541854942
0.00107085995552
-0.0023493732353
0.00101610016075
-0.00251294518279
0.000959606202609
-0.00266604122121
0.00090198357106
-0.00280866384353
0.000843760063063
-0.00294089192417
0.000785383467852
-0.00306286343827
0.000727222969441
-0.00317475954133
0.000669573861801
-0.00327679146719
0.000612663820842
-0.00336918897549
0.000556660633488
-0.00345219154991
0.000501679847954
-0.0035260407258
0.000447792718784
-0.00359097471413
0.000395033180883
-0.00364722356469
0.000343404648379
-0.00369500612905
0.000292885551696
-0.00373452705766
0.000243434704418
-0.0037659752245
0.00019499548498
-0.00378952186895
0.000147500104533
-0.00380531996982
0.000100872945823
-0.00381350323834
5.50343393065e-05
-0.00381418633586
9.90371424257e-06
-0.00380746482123
-3.45965117716e-05
-0.00379341652107
-7.85373311285e-05
-0.00377210289949
-0.000121978736757
-0.00374357208637
-0.00016496559889
-0.00370786230913
-0.00020752277619
-0.00366500713472
-0.000249650882891
-0.00361504133516
-0.000291321846206
-0.0035580083946
-0.000332475864362
-0.00349396839297
-0.000373019158102
-0.00342300667529
-0.00041282417022
-0.0033452418685
-0.000451731709398
-0.00326083290989
-0.000489556376195
-0.00316998358653
-0.000526094425068
-0.00307294368954
-0.000561134415308
-0.00297000582772
-0.000594468781033
-0.00286149726508
-0.000625904941197
-0.00274776767755
-0.000655272576168
-0.00262917396315
-0.000682423827651
-0.00250606669009
-0.00070722239596
-0.00237878249443
-0.000729517995407
-0.00224765174636
-0.00074910543848
-0.0021130276708
-0.000765670334872
-0.00197534541844
-0.000778733408211
-0.00183520667975
-0.000787614769213
-0.00169347159256
-0.000791451512657
-0.00155131457176
-0.000789313700178
-0.00141018901636
-0.000780397551114
-0.00127163848542
-0.000764314189772
-0.00113738016736
-0.000740743741131
-0.00100910202074
-0.000709869097777
-0.000888772729863
-0.000671746802627
-0.000778129186175
-0.00062750337313
-0.000678119735244
-0.000579388256062
-0.000588650830485
-0.000530139507731
-0.000508789989445
-0.000482073727814
-0.000437500258477
-0.000436144039475
-0.000374062293272
-0.000392364651706
-0.00031801749998
-0.000350609128197
-0.000268968388202
-0.000310952717591
-0.000226484661402
-0.000273576431309
-0.000190147963702
-0.000238595938603
-0.000159593241965
-0.000206078613201
-0.000134397350677
-0.000176273599896
-0.000113869922054
-0.00014972307621
-9.70772561384e-05
-0.000126848846338
-8.31258621015e-05
-0.000107535273927
-7.13885127308e-05
-9.12087845654e-05
-6.15276090994e-05
-7.71997377783e-05
-5.33158541114e-05
-6.51001655473e-05
-4.65087722706e-05
-5.47213420744e-05
-4.08947781764e-05
-4.58412447149e-05
-3.63000588158e-05
-3.8255680368e-05
-3.25701058316e-05
-3.18045705311e-05
-2.95706481497e-05
-2.63706226575e-05
-2.66689452085e-05
-2.26133647006e-05
-2.38899052293e-05
-2.0406464364e-05
-2.13786354055e-05
-1.84424218092e-05
-1.90406646915e-05
-1.70479177672e-05
-1.62423481768e-05
-1.63829017065e-05
-1.32871602785e-05
-1.61881254136e-05
-1.01897692117e-05
-1.60630251727e-05
-8.10537908924e-06
-1.64516810544e-05
-6.28943018734e-06
-1.8402002127e-05
-3.90202632811e-06
-1.98204542793e-05
-1.96263742851e-06
-2.00513826538e-05
-2.01308078747e-05
-0.000234415477733
0.00152166769464
-0.000481277010792
0.0016040703288
-0.0007252684673
0.00158859318439
-0.000964400241602
0.00156158387749
-0.00119723061653
0.00152628952808
-0.0014225075597
0.00148358258317
-0.0016391770643
0.00143436955283
-0.00184639032309
0.00137961634053
-0.00204350037878
0.00132030517775
-0.00223004980281
0.00125739475043
-0.00240575174287
0.00119178784318
-0.00257046694572
0.00112430756974
-0.00272417895555
0.00105568219497
-0.00286696952104
0.000986537749468
-0.002998995533
0.000917397128433
-0.00312046850198
0.000848684178075
-0.00323163696981
0.000780731171953
-0.00333277200751
0.000713788373632
-0.00342415561123
0.00064803442499
-0.00350607167158
0.000583586843554
-0.00357879914031
0.000520511856364
-0.00364260691408
0.000458833435876
-0.00369775013059
0.000398541128588
-0.00374446740528
0.000339596953127
-0.00378297888577
0.000281941127409
-0.00381348470863
0.000225497147144
-0.00383616394173
0.00017017600758
-0.00385117365149
0.0001158802352
-0.00385864838884
6.25074803287e-05
-0.00385869978762
9.95441516979e-06
-0.00385141676433
-4.18794402741e-05
-0.00383686612527
-9.3087017752e-05
-0.00381509415287
-0.000143749027148
-0.00378612901459
-0.000193928275519
-0.00374998473563
-0.00024366396772
-0.00370666639185
-0.000292965484694
-0.00365617725036
-0.000341806773102
-0.00359852721705
-0.000390121208055
-0.00353374302033
-0.0004377983994
-0.00346187892912
-0.000484683063888
-0.00338302785668
-0.000530577573349
-0.00329733085791
-0.000575248206677
-0.00320498420155
-0.000618436202914
-0.003106241408
-0.00065987269981
-0.00300140932814
-0.000699296983587
-0.00289083612877
-0.000736474988664
-0.00277489183009
-0.000771214622186
-0.00265394223384
-0.000803372152628
-0.00252832106137
-0.000832843220948
-0.00239830790606
-0.000859531767385
-0.00226412393227
-0.000883290809312
-0.00212596166269
-0.000903834532229
-0.00198406600518
-0.000920632208919
-0.00183887212127
-0.000932811412898
-0.00169118763429
-0.000939141475855
-0.00154231807238
-0.00093818732805
-0.00139405395086
-0.000928669339383
-0.00124809504482
-0.000910280380599
-0.00110654830963
-0.00088229995253
-0.000971191247157
-0.000845236790372
-0.000844929482844
-0.000798018867248
-0.000730504400955
-0.000741938866975
-0.000629298409445
-0.000680603995081
-0.000540798897923
-0.000618649724288
-0.000462893168965
-0.000559991130062
-0.000393698073656
-0.00050535443895
-0.000332302100986
-0.000453775748812
-0.000278377670138
-0.000404551089046
-0.000231611673133
-0.000357736151515
-0.000191532463643
-0.000313674458059
-0.000157696188955
-0.000272452443162
-0.000129887108727
-0.000233908044645
-0.000107906375235
-0.000198275098958
-9.09611076362e-05
-0.000166686881895
-7.76571112552e-05
-0.000140171148809
-6.66835307749e-05
-0.000118525665304
-5.73072020481e-05
-0.00010060286406
-4.93890287713e-05
-8.51363281352e-05
-4.28965743466e-05
-7.16118912483e-05
-3.75911713453e-05
-6.00461729141e-05
-3.32777253238e-05
-5.01742431587e-05
-2.98183822437e-05
-4.17341530669e-05
-2.70641732217e-05
-3.45779627245e-05
-2.49008561855e-05
-2.85533653663e-05
-2.2600453957e-05
-2.49343827932e-05
-2.0533881315e-05
-2.24956839526e-05
-1.82517985231e-05
-2.07489552649e-05
-1.59738485766e-05
-1.93524413987e-05
-1.35285133395e-05
-1.88569288435e-05
-1.13209269239e-05
-1.84255128322e-05
-8.74569208011e-06
-1.8669162534e-05
-6.28290692452e-06
-1.89452669717e-05
-5.00043118218e-06
-1.97157137513e-05
-3.25417285912e-06
-2.15982473538e-05
-1.63299412743e-06
-2.17031797267e-05
-2.17796303577e-05
-0.000243343432882
0.0017649954919
-0.000499439933725
0.00186014998958
-0.00075224008445
0.00184137683729
-0.000999547687518
0.00180887498149
-0.00123976729707
0.00176649285407
-0.00147153827092
0.00171533742522
-0.00169374449542
0.00165655986753
-0.00190551980005
0.00159137597563
-0.00210623936704
0.00152100936779
-0.00229550007259
0.0014466404005
-0.00247309312111
0.00136936621344
-0.00263897264385
0.00129017281683
-0.00279322318155
0.00120991892351
-0.0029360286751
0.00112932991832
-0.00306764439708
0.00104900008332
-0.00318837303756
0.000969400617999
-0.00329854495939
0.000890891542041
-0.00339850284558
0.000813735353945
-0.00348858990643
0.000738111316048
-0.0035691414972
0.000664128983675
-0.00364047901393
0.000591840738194
-0.00370290599042
0.000521252559736
-0.00375670527053
0.000452333439459
-0.00380213743825
0.000385022983264
-0.00383943947578
0.000319237962518
-0.00386882411003
0.000254877442716
-0.00389047890397
0.000191827430042
-0.00390456580389
0.000129964638678
-0.00391122027942
6.91604342443e-05
-0.0039105510079
9.28448375822e-06
-0.00390263932311
-4.97908315564e-05
-0.00388753969163
-0.00010818553969
-0.00386528041831
-0.00016600629872
-0.00383586605401
-0.000223339909431
-0.00379928084377
-0.000280245666291
-0.00375549460622
-0.000336747621906
-0.00370447033147
-0.000392826336703
-0.00364617463612
-0.000448411800217
-0.00358058997164
-0.000503377580323
-0.00350772903389
-0.000557538375284
-0.00342764945838
-0.000610651429843
-0.00334046803701
-0.000662424064687
-0.00324637145281
-0.000712527477781
-0.00314562143056
-0.000760617922252
-0.00303855075658
-0.000806363498467
-0.00292554785714
-0.000849474524607
-0.00280702816664
-0.000889731862962
-0.00268339268168
-0.000927006023207
-0.00255497829143
-0.000961256845977
-0.00242200861036
-0.000992501394576
-0.00228456310594
-0.00102073652224
-0.00214259272481
-0.00104580636821
-0.00199601562513
-0.00106720981714
-0.00184494073735
-0.00108388957068
-0.00169000617946
-0.00109407721401
-0.00153271472645
-0.00109548456655
-0.00137555679585
-0.00108583178141
-0.0012201648835
-0.00106567941416
-0.001069383879
-0.00103308875249
-0.000924211993902
-0.000990418625413
-0.000789474253313
-0.000932766045297
-0.000669983259426
-0.000861439437421
-0.00056805120645
-0.000782546625695
-0.000482368486274
-0.000704342314712
-0.000408144266341
-0.000634231034639
-0.000341978931536
-0.000571534153061
-0.000283040320508
-0.000512734451824
-0.000231585669189
-0.000456022295016
-0.000187560607866
-0.000401781213153
-0.00015031663454
-0.000350937135092
-0.000119244547939
-0.000303544280893
-9.44610483848e-05
-0.00025871285537
-7.64598468376e-05
-0.000216294969365
-6.43804542897e-05
-0.000178785565222
-5.58023623727e-05
-0.000148765793618
-4.85509278406e-05
-0.000125794786386
-4.17533275355e-05
-0.000107418192145
-3.58526746985e-05
-9.10566735342e-05
-3.12854271393e-05
-7.61991397146e-05
-2.76729505432e-05
-6.36794062619e-05
-2.48045925188e-05
-5.3062661016e-05
-2.26225699884e-05
-4.39358800684e-05
-2.09442702737e-05
-3.62759256495e-05
-1.96260778814e-05
-2.98914672145e-05
-1.815820278e-05
-2.64238435421e-05
-1.67930385243e-05
-2.38842902601e-05
-1.52273370892e-05
-2.23401976486e-05
-1.32350653217e-05
-2.13720879669e-05
-1.1249838269e-05
-2.08706873563e-05
-9.03079919349e-06
-2.06739418286e-05
-7.36673038395e-06
-2.03628841243e-05
-5.42893414361e-06
-2.09127141628e-05
-3.87800477593e-06
-2.12955193742e-05
-2.77041805515e-06
-2.27348834758e-05
-1.35682039032e-06
-2.31453810279e-05
-2.31509454763e-05
-0.000254106533988
0.00201908591828
-0.000521317982366
0.00212734471328
-0.000784683054758
0.0021047248303
-0.00104174163265
0.00206591672803
-0.00129070655176
0.00201544101667
-0.00153008639965
0.00195470071537
-0.00175869698511
0.00188515408276
-0.0019756627091
0.00180832557354
-0.00218039995427
0.00172573075862
-0.00237258655734
0.00163881147334
-0.00255212265924
0.00154888714085
-0.00271908776043
0.00145712315794
-0.00287369817568
0.00136451502088
-0.00301626781699
0.00127188575189
-0.00314717430796
0.00117989329785
-0.0032668311399
0.00108904478222
-0.00337566608988
0.000999714444978
-0.00347410517127
0.000912163095098
-0.00356256151604
0.000826557027633
-0.00364142793727
0.000742985571632
-0.00371107253052
0.000661476284058
-0.00377183610895
0.000582007974616
-0.00382403115364
0.000504521173385
-0.00386794129473
0.000428926767314
-0.00390382137329
0.000355112587531
-0.00393189727714
0.000282948898278
-0.00395236589751
0.000212292535995
-0.00396539451275