/*--------------------------------*- C++ -*----------------------------------*\
| =========                 |                                                 |
| \\      /  F ield         | OpenFOAM: The Open Source CFD Toolbox           |
|  \\    /   O peration     | Version:  v1906                                 |
|   \\  /    A nd           | Web:      www.OpenFOAM.com                      |
|    \\/     M anipulation  |                                                 |
\*---------------------------------------------------------------------------*/
FoamFile
{
    version     2.0;
    format      ascii;
    class       volVectorField;
    location    "677";
    object      Ua;
}
// * * * * * * * * * * * * * * * * * * * * * * * * * * * * * * * * * * * * * //

dimensions      [0 1 -1 0 0 0 0];


internalField   nonuniform List<vector> 
9216
(
(-0.00665134423759 0.00665381381012 0)
(-0.00683766814433 0.0207502572318 2.38098209013e-27)
(-0.0068233391958 0.0349260813043 -4.60312310617e-31)
(-0.00677502804326 0.0490925197632 0)
(-0.00670730367278 0.0631128247485 0)
(-0.00662198379802 0.0769515294511 0)
(-0.00652015970602 0.0905692972581 0)
(-0.0064032288198 0.103929373829 0)
(-0.00627169721726 0.11699764771 0)
(-0.00612699431714 0.129742144263 0)
(-0.00596956925476 0.142133644719 0)
(-0.00580097287389 0.154145191047 0)
(-0.00562157732477 0.165752636207 0)
(-0.00543298774978 0.176934079004 0)
(-0.00523542646547 0.187670294162 0)
(-0.0050304708567 0.19794409357 0)
(-0.0048181214472 0.207740641458 0)
(-0.00459985435499 0.217046770493 0)
(-0.0043753977354 0.225851194283 0)
(-0.00414607704222 0.234143815285 0)
(-0.00391132607146 0.241915860342 0)
(-0.00367229809666 0.249159234105 0)
(-0.0034281482055 0.255866594995 0)
(-0.00317986818751 0.262030806277 0)
(-0.00292638345576 0.267644970366 0)
(-0.00266855915898 0.2727020359 0)
(-0.00240517221957 0.277194786361 0)
(-0.00213701576714 0.281115653297 0)
(-0.00186282353332 0.284456652355 0)
(-0.0015833855564 0.287209449622 0)
(-0.00129751852178 0.289365259063 0)
(-0.00100606292344 0.290915153205 0)
(-0.000708062804035 0.291849833561 0)
(-0.000404523712296 0.292160417428 0)
(-9.48843987452e-05 0.291838029158 0)
(0.000219630976392 0.290874951015 0)
(0.000539035257684 0.28926405851 0)
(0.000861827902183 0.287000370147 0)
(0.00118734161985 0.284080263815 0)
(0.0015137890278 0.280503381902 0)
(0.00183975102537 0.276271589154 0)
(0.00216320522327 0.271391121146 0)
(0.0024819976025 0.265871266962 0)
(0.00279399242787 0.259726592477 0)
(0.00309641194455 0.252975381691 0)
(0.00338716931477 0.245641729751 0)
(0.00366303886815 0.237753871661 0)
(0.00392211743907 0.229345977256 0)
(0.00416088326628 0.220456606066 0)
(0.0043776168604 0.211130131967 0)
(0.00456853851327 0.201415656577 0)
(0.00473194432503 0.191368087794 0)
(0.00486376433988 0.181047715002 0)
(0.00496219112714 0.170520830184 0)
(0.00502311862251 0.159859669134 0)
(0.00504506998562 0.149142049819 0)
(0.00502486773559 0.138450768279 0)
(0.00496254365454 0.127871607147 0)
(0.00485723533779 0.117491509195 0)
(0.00471168794869 0.107395140679 0)
(0.0045283126413 0.0976621302925 0)
(0.00431303417899 0.0883630604657 0)
(0.00407124703438 0.0795569371945 0)
(0.00381053533457 0.0712887327013 0)
(0.00353638024475 0.0635901032531 0)
(0.00325515281694 0.0564802214692 0)
(0.00297160819492 0.0499674391584 0)
(0.00269187518211 0.0440486262343 0)
(0.00242046872128 0.0387100546388 0)
(0.00216216464184 0.0339280054713 0)
(0.00191954177189 0.0296715652842 0)
(0.00169498945499 0.0259044910847 0)
(0.00148910497707 0.0225879017952 0)
(0.00130260659895 0.0196814334274 0)
(0.00113500067902 0.017144832235 0)
(0.000986002087994 0.0149384987218 0)
(0.000854280413496 0.0130248089352 0)
(0.000738694487509 0.0113686189648 0)
(0.000637443228388 0.00993813436554 0)
(0.000549127262143 0.00870477494347 0)
(0.000471938237069 0.00764346358338 0)
(0.000404311035178 0.0067324435987 0)
(0.00034397129475 0.00595362209941 0)
(0.000286364835084 0.00530052288051 0)
(0.00022199563065 0.00468570935476 0)
(0.000199186929126 0.00432369646599 0)
(0.000191269167685 0.0039047171913 0)
(0.00016812370577 0.00354393001356 0)
(0.00016800500597 0.00323472747837 0)
(0.00017928430169 0.00288521339317 0)
(0.000178290497465 0.00253678286058 0)
(0.000179468302694 0.00216953443903 0)
(0.000201083764773 0.0017753786625 0)
(0.000226648903938 0.00134804497115 0)
(0.000255621390537 0.000834243010715 0)
(0.000274729539198 0.000268064043142 0)
(-0.0207828206196 0.0068770647662 0)
(-0.021941142361 0.0220403679927 0)
(-0.0218671301943 0.0371159040162 -2.447407085e-27)
(-0.0216808996295 0.0521943325589 0)
(-0.0214271657458 0.0671052837672 0)
(-0.0211115117048 0.0818191297228 0)
(-0.0207370628285 0.0962956172 0)
(-0.0203079029212 0.110496272652 0)
(-0.0198270571547 0.124384860344 0)
(-0.0192990492155 0.137927512645 0)
(-0.0187270749245 0.151093110969 0)
(-0.0181159707786 0.163853154418 0)
(-0.0174688515926 0.176181997282 0)
(-0.0167905579249 0.18805659879 0)
(-0.0160838147262 0.199456636322 0)
(-0.0153531582001 0.210364156323 0)
(-0.0146006498751 0.220763578327 0)
(-0.0138302694369 0.230641272319 0)
(-0.0130432229278 0.239985477294 0)
(-0.0122427743192 0.248785842512 0)
(-0.0114291896633 0.25703329348 0)
(-0.010604967792 0.264719583344 0)
(-0.00976947229881 0.271837140392 0)
(-0.00892449929477 0.278378677893 0)
(-0.00806865826638 0.284337053005 0)
(-0.00720319497891 0.289704979113 0)
(-0.00632620447858 0.294474912627 0)
(-0.00543860041526 0.298638903702 0)
(-0.00453826985161 0.302188517711 0)
(-0.00362605773141 0.305114859207 0)
(-0.00270001036919 0.307408505191 0)
(-0.00176118165182 0.309059790962 0)
(-0.000808169547516 0.310058768532 0)
(0.000157412401521 0.310395639082 0)
(0.0011359580384 0.310060788579 0)
(0.0021250024372 0.309045489931 0)
(0.00312351857521 0.307341927176 0)
(0.00412793915158 0.304944140512 0)
(0.00513548866664 0.301848018823 0)
(0.00614138735377 0.298052433517 0)
(0.00714096945766 0.293559146258 0)
(0.00812834267185 0.28837403767 0)
(0.00909707023209 0.28250686584 0)
(0.0100404864254 0.275972456092 0)
(0.0109507728892 0.268790265115 0)
(0.0118209977158 0.260985394291 0)
(0.0126425031526 0.252587976948 0)
(0.0134085458903 0.24363393605 0)
(0.0141100322152 0.234164331054 0)
(0.0147404602614 0.224225919552 0)
(0.0152902395449 0.2138707415 0)
(0.0157525976582 0.203156668959 0)
(0.0161170569751 0.192147468398 0)
(0.0163761740308 0.180913342461 0)
(0.0165191013503 0.169531185885 0)
(0.0165391595755 0.158084444685 0)
(0.0164281502476 0.146662463335 0)
(0.0161841645386 0.135358602545 0)
(0.0158062427317 0.124267881541 0)
(0.0153012814278 0.113483491849 0)
(0.0146787638622 0.103093188176 0)
(0.0139562142531 0.0931749141402 0)
(0.0131530367003 0.0837929377507 0)
(0.01229251172 0.074994983855 0)
(0.0113934337093 0.0668132967132 0)
(0.0104741361686 0.0592673994191 0)
(0.00955053961242 0.052365874916 0)
(0.00864106961289 0.0461051528939 0)
(0.00776133465506 0.0404692721121 0)
(0.00692561652772 0.0354310565986 0)
(0.00614278675363 0.0309552282029 0)
(0.00541927609068 0.0270012774299 0)
(0.00475730931744 0.0235262275723 0)
(0.00415819590411 0.0204861350427 0)
(0.00362078026849 0.0178372658467 0)
(0.00314347529909 0.0155367511908 0)
(0.00272235019524 0.0135438013436 0)
(0.00235306659529 0.0118206613179 0)
(0.00203009316394 0.0103333558236 0)
(0.0017485295251 0.00905157919395 0)
(0.00150303288781 0.00794857279431 0)
(0.00128879820846 0.00700070355207 0)
(0.00110033486968 0.00618669407924 0)
(0.00093142055237 0.0054887782267 0)
(0.000769129791809 0.00484889404823 0)
(0.000661512914922 0.00425715168228 0)
(0.000583486002952 0.00382529999796 0)
(0.000510066586683 0.0034677960497 0)
(0.000497098086267 0.00310843223037 0)
(0.000523069383918 0.00281666328439 0)
(0.000534161465731 0.00251201416417 0)
(0.000555754295911 0.00212817692002 0)
(0.000602729612814 0.00172500676887 0)
(0.000734179162135 0.00136107033234 0)
(0.000891947270685 0.000868420806886 0)
(0.000806865461279 0.000238413066007 0)
(-0.035120789661 0.00693239740166 0)
(-0.0370996876129 0.0222231901711 0)
(-0.0369482138135 0.0373909276199 -2.45077216833e-27)
(-0.0366276577301 0.052578920044 0)
(-0.0362000378144 0.0675973237266 0)
(-0.0356706710226 0.0824151651244 0)
(-0.035044086277 0.0969911680357 0)
(-0.03432591714 0.111286378622 0)
(-0.0335218465437 0.125264128293 0)
(-0.0326384870894 0.138890292295 0)
(-0.0316821189188 0.152133523575 0)
(-0.0306597747891 0.16496527618 0)
(-0.0295777754132 0.177359898517 0)
(-0.0284430115115 0.189294524482 0)
(-0.0272612973101 0.200749038953 0)
(-0.0260388582949 0.211705855564 0)
(-0.0247805275728 0.222149774301 0)
(-0.0234914450834 0.232067671672 0)
(-0.0221751226021 0.241448277402 0)
(-0.0208353532877 0.250281812971 0)
(-0.0194741696662 0.258559727402 0)
(-0.0180939513039 0.266274330779 0)
(-0.0166952968668 0.27341853043 0)
(-0.0152793014279 0.279985505424 0)
(-0.0138453611697 0.28596848234 0)
(-0.0123935777501 0.291360490004 0)
(-0.0109225202959 0.29615419792 0)
(-0.00943170368516 0.300341777684 0)
(-0.00791934671722 0.303914819822 0)
(-0.00638486424001 0.306864319882 0)
(-0.00482669446212 0.30918069361 0)
(-0.00324471361013 0.310853902185 0)
(-0.0016381878212 0.311873546384 0)
(-8.07264578926e-06 0.312229186586 0)
(0.00164484152828 0.31191054581 0)
(0.00331789721816 0.310907998833 0)
(0.00500813781069 0.309212876694 0)
(0.00671067539873 0.306818129518 0)
(0.00841989855911 0.303718697464 0)
(0.0101283926604 0.299912296898 0)
(0.0118277155891 0.295399794748 0)
(0.0135080070092 0.290186026714 0)
(0.0151582599071 0.284280083322 0)
(0.016766704429 0.277696035407 0)
(0.0183204973784 0.270453032754 0)
(0.0198068657765 0.262575808179 0)
(0.0212121165512 0.254094532802 0)
(0.0225233799469 0.245045042173 0)
(0.0237268255472 0.235468522161 0)
(0.0248097259121 0.225411584537 0)
(0.0257578647004 0.214926096009 0)
(0.0265577536688 0.204069467925 0)
(0.0271936464258 0.192905049552 0)
(0.027650307121 0.181502870487 0)
(0.0279107236819 0.169940415734 0)
(0.0279602679428 0.158302998095 0)
(0.0277858815807 0.146683349372 0)
(0.0273811385581 0.135179858678 0)
(0.0267454965533 0.1238937187 0)
(0.0258881236742 0.11292535223 0)
(0.0248270300788 0.102370010079 0)
(0.0235911467517 0.0923126247394 0)
(0.0222180202449 0.0828216438023 0)
(0.0207486272362 0.0739442200339 0)
(0.0192167919919 0.0657089991108 0)
(0.0176502348734 0.0581334467937 0)
(0.0160764690429 0.0512265101119 0)
(0.0145268625293 0.0449845497749 0)
(0.0130307059087 0.039388828887 0)
(0.0116121419393 0.0344074039165 0)
(0.0102869909119 0.0299995671433 0)
(0.00906453194919 0.0261201598176 0)
(0.0079483586859 0.0227227460454 0)
(0.00693939279683 0.0197610622412 0)
(0.00603618044783 0.0171894431763 0)
(0.0052355256838 0.0149630427073 0)
(0.0045310232752 0.0130391362084 0)
(0.00391423901048 0.0113787911779 0)
(0.0033757712057 0.00994767369206 0)
(0.00290684192572 0.00871561887218 0)
(0.00249893998668 0.00765608609241 0)
(0.00214421165746 0.00674581119957 0)
(0.00183551109412 0.00596412926121 0)
(0.00156726227436 0.00529574173837 0)
(0.00134055721788 0.00468171797166 0)
(0.00116351320189 0.00413172417496 0)
(0.00103230846263 0.00378201904979 0)
(0.000892570195497 0.00329583727805 0)
(0.000805251663734 0.00287989262245 0)
(0.000820945424514 0.00261790770714 0)
(0.000915983756304 0.00240152392227 0)
(0.00092494252535 0.00190971217571 0)
(0.001035707422 0.00156270592189 0)
(0.00119285896358 0.00113221075565 0)
(0.00133099446624 0.000677387955805 0)
(0.00129247461334 0.000209009993991 0)
(-0.0496562421543 0.00698982552062 0)
(-0.0524777396459 0.0224269945291 0)
(-0.0522611198909 0.0377186322739 2.45044730081e-27)
(-0.0518034518929 0.0530357834754 0)
(-0.0511937507102 0.0681796944795 0)
(-0.0504397637212 0.0831182023143 0)
(-0.0495480971512 0.0978088474623 0)
(-0.0485264946689 0.112211879353 0)
(-0.0473833627915 0.126290017428 0)
(-0.0461278839968 0.140008736616 0)
(-0.0447694332661 0.153336442039 0)
(-0.0433177661408 0.166244540619 0)
(-0.0417823764798 0.178707481542 0)
(-0.040172757846 0.190702688183 0)
(-0.038497716982 0.202210465282 0)
(-0.03676572368 0.213213807113 0)
(-0.0349842025438 0.223698189476 0)
(-0.0331599897914 0.233651278322 0)
(-0.0312986277404 0.24306263725 0)
(-0.0294049422899 0.251923375547 0)
(-0.0274823590403 0.260225815236 0)
(-0.0255336043797 0.267963128116 0)
(-0.0235600508218 0.275129012855 0)
(-0.0215625259978 0.281717371942 0)
(-0.0195406820596 0.287722042856 0)
(-0.0174938841436 0.293136552989 0)
(-0.0154205968777 0.297953931977 0)
(-0.0133193202879 0.302166566295 0)
(-0.0111879971917 0.305766106657 0)
(-0.00902497203115 0.308743428833 0)
(-0.00682845127677 0.311088668697 0)
(-0.0045974328465 0.31279129436 0)
(-0.00233123920259 0.313840237666 0)
(-3.04439129324e-05 0.314224161918 0)
(0.00230353802985 0.313931734815 0)
(0.00466762226365 0.312952048016 0)
(0.00705738014385 0.311275041911 0)
(0.00946639030717 0.30889209181 0)
(0.0118864997776 0.305796553053 0)
(0.0143074529284 0.301984464722 0)
(0.016717110144 0.297455145986 0)
(0.0191014419864 0.292211923058 0)
(0.0214447148676 0.286262661335 0)
(0.0237298941245 0.279620375918 0)
(0.0259387627009 0.27230355382 0)
(0.0280526817645 0.26433649044 0)
(0.0300525165412 0.25574927438 0)
(0.0319195401102 0.246577754411 0)
(0.0336349081572 0.236863203879 0)
(0.0351803329047 0.226652077282 0)
(0.0365368353464 0.215995745216 0)
(0.0376849791854 0.204950652486 0)
(0.038603211123 0.193578929903 0)
(0.0392684614274 0.181949638077 0)
(0.039655742383 0.170140413037 0)
(0.0397410548111 0.158238799809 0)
(0.0395038184712 0.146342499332 0)
(0.0389316739861 0.134557550673 0)
(0.0380227349137 0.122994731774 0)
(0.036787622514 0.111765948702 0)
(0.035252533017 0.100978871333 0)
(0.0334593189472 0.0907311160096 0)
(0.0314698496826 0.081099111443 0)
(0.0293504610361 0.0721269490971 0)
(0.0271503360765 0.0638336763543 0)
(0.0249012086243 0.0562325375627 0)
(0.0226401069629 0.0493357745046 0)
(0.020415184777 0.0431415869831 0)
(0.0182731409362 0.0376267628371 0)
(0.016250081565 0.0327506123034 0)
(0.0143681457806 0.0284629355154 0)
(0.0126379625226 0.0247109277963 0)
(0.0110624329415 0.0214431808676 0)
(0.00964113251711 0.0186106271818 0)
(0.00837214418114 0.0161653391215 0)
(0.00725127198727 0.0140594223423 0)
(0.00626902811842 0.0122467781999 0)
(0.00541154995774 0.0106865890432 0)
(0.00466441442172 0.00934447570247 0)
(0.00401477781905 0.0081909692303 0)
(0.00345079014461 0.00720018807099 0)
(0.00296115071521 0.0063498223486 0)
(0.00253611306454 0.00562079852848 0)
(0.0021685171002 0.0050022837491 0)
(0.00185872960624 0.00440862076814 0)
(0.00164283373228 0.00396529308541 0)
(0.00145790253315 0.00354635139651 0)
(0.00128699113411 0.00306912024707 0)
(0.00120592443129 0.00273777060932 0)
(0.00114435613859 0.00232159784457 0)
(0.00119504326873 0.00197379863418 0)
(0.00136985986622 0.0017271196504 0)
(0.00141322217421 0.00124442219406 0)
(0.00157047486316 0.000860122718086 0)
(0.00173163005106 0.000518529237786 0)
(0.00171670856997 0.000169486422529 0)
(-0.0643385987038 0.00706398194557 0)
(-0.067999039769 0.0226962938964 0)
(-0.0677158259652 0.0381598690618 0)
(-0.0671178021282 0.0536513963072 0)
(-0.0663211840336 0.0689640515256 0)
(-0.0653364581663 0.0840644542484 0)
(-0.064172527629 0.098908756832 0)
(-0.0628395974334 0.113456125126 0)
(-0.0613489048423 0.127668446848 0)
(-0.0597125363132 0.141510625589 0)
(-0.0579430313827 0.154950737501 0)
(-0.0560532171322 0.167960113856 0)
(-0.0540557981165 0.180513360994 0)
(-0.0519632231773 0.192588296138 0)
(-0.0497872807694 0.204165824335 0)
(-0.0475390203112 0.215229738263 0)
(-0.0452283796872 0.22576646872 0)
(-0.0428641884366 0.235764772298 0)
(-0.0404538569757 0.245215387149 0)
(-0.0380034869591 0.254110650057 0)
(-0.0355176448915 0.262444108353 0)
(-0.0329995903884 0.270210124339 0)
(-0.0304511371325 0.277403503332 0)
(-0.0278729855113 0.284019144201 0)
(-0.0252646519481 0.290051735478 0)
(-0.022624874064 0.29549549309 0)
(-0.0199515819041 0.30034395121 0)
(-0.0172423452303 0.304589802876 0)
(-0.0144943746281 0.308224794003 0)
(-0.0117049985709 0.311239662599 0)
(-0.00887171571921 0.313624173323 0)
(-0.00599266720704 0.315367154859 0)
(-0.00306675368644 0.316456634612 0)
(-9.41571488417e-05 0.316880084547 0)
(0.00292352867325 0.316624716888 0)
(0.00598280465758 0.315677892666 0)
(0.00907812499742 0.314027605942 0)
(0.0122015081296 0.311663082598 0)
(0.0153424528664 0.308575428742 0)
(0.0184877505679 0.304758374409 0)
(0.021621532618 0.300209013144 0)
(0.0247253757326 0.294928587246 0)
(0.0277785376028 0.288923182714 0)
(0.0307584055349 0.28220438785 0)
(0.0336409174293 0.274789749371 0)
(0.0364012957117 0.266703083886 0)
(0.03901450651 0.2579744762 0)
(0.0414560067243 0.248640054727 0)
(0.0437018283025 0.238741447234 0)
(0.0457287554262 0.228325134257 0)
(0.0475134045799 0.21744183755 0)
(0.0490313185161 0.206146397966 0)
(0.0502550998793 0.194498534384 0)
(0.0511535387833 0.182564844357 0)
(0.0516913894282 0.170421884541 0)
(0.0518324459919 0.15815937612 0)
(0.0515445718847 0.145881692045 0)
(0.0508068351925 0.133705918621 0)
(0.049613981329 0.121756233651 0)
(0.0479753139476 0.110161147425 0)
(0.0459246652264 0.0990471477059 0)
(0.0435151645924 0.0885348447572 0)
(0.0408470974989 0.0787171791769 0)
(0.038029410109 0.0696286291652 0)
(0.0351266240312 0.0612632435757 0)
(0.0321569465841 0.0536263275578 0)
(0.0291624805116 0.0467432406171 0)
(0.0262176134325 0.0406200113158 0)
(0.0233947873915 0.0352258562055 0)
(0.0207452660816 0.0305042735001 0)
(0.0182957560032 0.0263890778547 0)
(0.0160546269793 0.0228158701416 0)
(0.0140202720228 0.0197271575118 0)
(0.0121890095906 0.0170718548306 0)
(0.010559111181 0.0148005232457 0)
(0.0091274692148 0.012860744924 0)
(0.00788097278313 0.0112001276049 0)
(0.00679705677227 0.00977480139997 0)
(0.00585433088501 0.00855144859229 0)
(0.00503600912047 0.00750247517551 0)
(0.00432722187315 0.0066028820163 0)
(0.00371238342638 0.00583150434596 0)
(0.00317839338807 0.00517171864382 0)
(0.00271651801726 0.00461520611679 0)
(0.00231070234069 0.0040454801674 0)
(0.00211518709941 0.00372885208775 0)
(0.00193654845468 0.00331653318811 0)
(0.0017404286973 0.00286335063659 0)
(0.00154910371138 0.00235652709192 0)
(0.00151792308093 0.00201629495312 0)
(0.00150821408747 0.0016073782559 0)
(0.00168313275605 0.00135513272703 0)
(0.00188075181254 0.00104926712906 0)
(0.00190860633209 0.000658549291197 0)
(0.00198760780477 0.000379340402689 0)
(0.00196803127117 0.000125410678369 0)
(-0.0792178430915 0.00715646866563 0)
(-0.0837241223324 0.0230364818749 0)
(-0.0833710279408 0.0387200302918 0)
(-0.0826272952575 0.0544335373181 0)
(-0.0816366111812 0.0699604706586 0)
(-0.0804123872383 0.0852660773188 0)
(-0.0789660518515 0.100304844506 0)
(-0.0773105886738 0.115034586218 0)
(-0.0754603090312 0.129416136419 0)
(-0.073430533735 0.143413665615 0)
(-0.0712372025283 0.156994835352 0)
(-0.0688965469895 0.170130884096 0)
(-0.0664246965427 0.182796635588 0)
(-0.0638373716662 0.194970425709 0)
(-0.0611495130268 0.206633955257 0)
(-0.0583750234536 0.217772066145 0)
(-0.0555264530897 0.228372451555 0)
(-0.0526148269719 0.238425302927 0)
(-0.049649425848 0.247922910187 0)
(-0.0466377367517 0.256859225408 0)
(-0.0435853610271 0.265229411828 0)
(-0.0404961065762 0.273029393525 0)
(-0.037372025977 0.280255428024 0)
(-0.0342136331403 0.286903714856 0)
(-0.0310200390034 0.292970054132 0)
(-0.0277892476425 0.298449559568 0)
(-0.0245183443188 0.303336428651 0)
(-0.0212038307386 0.307623767367 0)
(-0.0178418433426 0.311303468017 0)
(-0.0144285207533 0.314366125487 0)
(-0.0109602784653 0.316801062366 0)
(-0.00743418538248 0.318596327639 0)
(-0.00384831845794 0.319738819636 0)
(-0.000202224316382 0.320214512981 0)
(0.00350271527114 0.320008758841 0)
(0.00726281299872 0.319106697308 0)
(0.0110717169732 0.3174937869 0)
(0.014920023483 0.315156448115 0)
(0.0187950271913 0.312082809798 0)
(0.0226805356528 0.308263544139 0)
(0.0265568451952 0.303692756148 0)
(0.0304008767915 0.29836889875 0)
(0.0341864822074 0.29229564824 0)
(0.0378849826096 0.285482700174 0)
(0.0414658435566 0.277946376869 0)
(0.0448975886189 0.269710002208 0)
(0.048148706242 0.260803899635 0)
(0.0511886217398 0.251264984451 0)
(0.0539882705087 0.241135858337 0)
(0.0565202254927 0.230463561883 0)
(0.0587577626496 0.219298225966 0)
(0.0606729036312 0.207692283031 0)
(0.0622333668747 0.195701111475 0)
(0.0633995187594 0.183385921638 0)
(0.064123160394 0.170819349159 0)
(0.0643507425388 0.158092042266 0)
(0.0640323160177 0.14531697034 0)
(0.0631340663992 0.132627052744 0)
(0.0616466074064 0.120163303351 0)
(0.0595709894067 0.108076713989 0)
(0.0569485826326 0.0965187825302 0)
(0.053828057493 0.0856535726223 0)
(0.0503809318293 0.0756133413591 0)
(0.0468012665657 0.0664064378894 0)
(0.0431680030345 0.0579611818391 0)
(0.0394326192414 0.0502683816245 0)
(0.0356350021112 0.0433964417829 0)
(0.0319012417561 0.0373738962598 0)
(0.0283473715877 0.0321544137123 0)
(0.0250438503637 0.0276515755336 0)
(0.022016989415 0.0237722910847 0)
(0.019265188246 0.0204354415622 0)
(0.0167751258191 0.0175775645489 0)
(0.0145362496174 0.0151494681277 0)
(0.0125496910084 0.0131037980224 0)
(0.0108199572738 0.0113812801615 0)
(0.00933021274711 0.00991636158505 0)
(0.00804069422262 0.00865994530086 0)
(0.00691953790557 0.00758342908423 0)
(0.00594771800879 0.00666386319567 0)
(0.0051093051479 0.00587656611215 0)
(0.00438225692787 0.00520098797964 0)
(0.00374965872779 0.00462462416338 0)
(0.00320185482453 0.00412558103093 0)
(0.00274815840797 0.00363442226191 0)
(0.00252098340094 0.00330574525058 0)
(0.00228205881115 0.00285003995498 0)
(0.0021407310188 0.00249891475188 0)
(0.00203715367441 0.00212797006064 0)
(0.00199085557847 0.00176697908209 0)
(0.00184193279005 0.00129581919451 0)
(0.00190554461717 0.000978021693595 0)
(0.00215190921179 0.00078514051459 0)
(0.00221242229956 0.000524899463352 0)
(0.00221362225187 0.000290400834947 0)
(0.00219514859224 9.58390994456e-05 0)
(-0.0943400947396 0.00726882779245 0)
(-0.0997031455108 0.0234517296973 0)
(-0.0992756039474 0.0394045649214 2.46834568062e-27)
(-0.0983789982478 0.0553895111861 0)
(-0.0971849561948 0.0711780899269 0)
(-0.095710007835 0.0867338477985 0)
(-0.0939683737676 0.102009257948 0)
(-0.0919761503916 0.116960478468 0)
(-0.0897510567214 0.13154705474 0)
(-0.0873120187825 0.145732258952 0)
(-0.0846787208222 0.1594832525 0)
(-0.0818711707717 0.172771172358 0)
(-0.0789092502944 0.185571131111 0)
(-0.075812297505 0.197862130034 0)
(-0.0725986865195 0.2096268875 0)
(-0.0692854604837 0.220851582973 0)
(-0.0658879803598 0.231525521941 0)
(-0.0624196557792 0.241640727951 0)
(-0.0588917166788 0.251191475318 0)
(-0.0553130961245 0.260173778913 0)
(-0.0516903715789 0.268584864299 0)
(-0.0480278294119 0.276422641965 0)
(-0.0443275810128 0.283685210868 0)
(-0.0405897852401 0.290370411327 0)
(-0.0368128892818 0.296475441623 0)
(-0.0329939406298 0.30199654334 0)
(-0.0291288811586 0.306928753064 0)
(-0.0252128893356 0.311265712745 0)
(-0.0212406949763 0.314999531761 0)
(-0.017206949713 0.318120677266 0)
(-0.0131066043122 0.320617982394 0)
(-0.00893530120871 0.322478594744 0)
(-0.00468986126582 0.323688074228 0)
(-0.000368800494882 0.324230591975 0)
(0.00402715391468 0.324089220223 0)
(0.00849450109992 0.32324635053 0)
(0.0130264499061 0.321684261257 0)
(0.0176124285914 0.319385825568 0)
(0.0222377036842 0.316335361566 0)
(0.0268831155526 0.312519601624 0)
(0.0315249929103 0.307928753305 0)
(0.0361352799985 0.302557614826 0)
(0.0406819015579 0.296406672724 0)
(0.0451294190611 0.28948312932 0)
(0.0494399538645 0.281801733868 0)
(0.0535744176349 0.27338532602 0)
(0.0574939274417 0.264264892652 0)
(0.0611613262593 0.254479009878 0)
(0.0645424181072 0.24407245449 0)
(0.067606495847 0.233094049831 0)
(0.0703254120123 0.221593969262 0)
(0.0726705300526 0.209621498999 0)
(0.074607318638 0.197224703951 0)
(0.0760886325358 0.184454262147 0)
(0.0770498704933 0.171372807587 0)
(0.0774116700344 0.1580683004 0)
(0.0770951551529 0.144664838308 0)
(0.0760470736099 0.131320069727 0)
(0.0742602013579 0.118193040991 0)
(0.0717094646764 0.105463014583 0)
(0.0684529942248 0.0933041076135 0)
(0.064463339494 0.0819670444763 0)
(0.0600647026388 0.0716901775512 0)
(0.0556466164879 0.062415460564 0)
(0.0513013168839 0.053894397021 0)
(0.0467545333227 0.0460931909369 0)
(0.0420412041495 0.0392117730864 0)
(0.0374100676204 0.033332307768 0)
(0.0330556918047 0.0283683925348 0)
(0.0290696667287 0.0241738196112 0)
(0.0254642559428 0.020610351365 0)
(0.022212672161 0.0175739555845 0)
(0.0192764480976 0.0149981821115 0)
(0.0166308404253 0.0128463912619 0)
(0.014286894811 0.0110842006083 0)
(0.012275430423 0.00964123109284 0)
(0.0105780743024 0.00842082956454 0)
(0.00911400822833 0.00736409858547 0)
(0.00783492730096 0.00645845254042 0)
(0.00672666932567 0.00569222804755 0)
(0.00577930002524 0.00503740831413 0)
(0.004957046189 0.00447179352195 0)
(0.00423952034984 0.00398947460224 0)
(0.0036154305105 0.00355385425582 0)
(0.00316853111804 0.0031687182964 0)
(0.00291564625805 0.00283031720866 0)
(0.00268815406733 0.00245157943285 0)
(0.00248455563138 0.00206085920886 0)
(0.00240426865859 0.00173393206736 0)
(0.00228835645629 0.0013582269977 0)
(0.00228616835885 0.00107118754917 0)
(0.00217682896869 0.000720685516855 0)
(0.00225924970873 0.000521986819214 0)
(0.00241075896399 0.000384077842942 0)
(0.00238397745636 0.000212028912864 0)
(0.00236430742147 6.986138354e-05 0)
(-0.109754852414 0.00740231359819 0)
(-0.115988584771 0.0239465397758 0)
(-0.11548097206 0.0402202538318 -2.46796594643e-27)
(-0.114422520641 0.0565285313261 0)
(-0.113013504543 0.0726283531152 0)
(-0.111273856942 0.0884811901472 0)
(-0.109220930481 0.104037070378 0)
(-0.106874330848 0.119250160329 0)
(-0.104255603331 0.134078457696 0)
(-0.101387720715 0.148484163562 0)
(-0.0982945491347 0.162433852137 0)
(-0.0950003157687 0.175898558294 0)
(-0.0915290759993 0.188853769215 0)
(-0.0879041981122 0.20127932223 0)
(-0.0841478613536 0.213159207606 0)
(-0.0802805913045 0.224481275719 0)
(-0.0763208340897 0.235236849466 0)
(-0.072284602661 0.245420248387 0)
(-0.0681852004419 0.25502823684 0)
(-0.0640330568387 0.264059417907 0)
(-0.05983567116 0.272513600577 0)
(-0.0555976855062 0.280391174446 0)
(-0.0513210606707 0.287692524254 0)
(-0.0470053533898 0.294417513614 0)
(-0.0426480482219 0.300565053985 0)
(-0.038244933292 0.306132764443 0)
(-0.0337904756149 0.311116711591 0)
(-0.0292782036893 0.315511213613 0)
(-0.0247010789121 0.319308690101 0)
(-0.0200518914793 0.322499524436 0)
(-0.0153236993024 0.325072046453 0)
(-0.0105102613185 0.327012412482 0)
(-0.00560663135531 0.328304660769 0)
(-0.000609767667682 0.328930862999 0)
(0.00448080493001 0.328871386261 0)
(0.00966229166191 0.328105307452 0)
(0.0149279376771 0.326611015046 0)
(0.020266383075 0.324366988098 0)
(0.0256611185753 0.321352768434 0)
(0.0310900970488 0.317550091245 0)
(0.036525547458 0.312944166129 0)
(0.0419340611754 0.3075250426 0)
(0.0472769838955 0.301289014564 0)
(0.0525111867166 0.294239974382 0)
(0.0575902365832 0.286390594603 0)
(0.0624660436464 0.277763194822 0)
(0.067090899504 0.268390029965 0)
(0.071419937196 0.258312703009 0)
(0.0754133988306 0.247580267292 0)
(0.0790383812233 0.236245815209 0)
(0.0822682913628 0.224361553179 0)
(0.0850790028149 0.211973535543 0)
(0.0874398455504 0.199118636134 0)
(0.0893000558796 0.185827993827 0)
(0.0905752776014 0.172142016043 0)
(0.0911460018301 0.158137056414 0)
(0.0908818832495 0.143952173594 0)
(0.0896985167058 0.129791943561 0)
(0.0876253683352 0.115825575296 0)
(0.0845585750584 0.102269398288 0)
(0.0806399208903 0.0892725883812 0)
(0.0754918233335 0.0772651384522 0)
(0.0698104096784 0.0667963321538 0)
(0.0644752409448 0.0576426908332 0)
(0.0596087877879 0.049068913552 0)
(0.0542146258153 0.0410083157803 0)
(0.0483771516023 0.0340521726934 0)
(0.0426672587452 0.0283886333911 0)
(0.0374182913212 0.023814258804 0)
(0.0327305985075 0.0200603699815 0)
(0.0285671071204 0.0169155096702 0)
(0.0248487327068 0.0142478295652 0)
(0.0214873365305 0.0119959071773 0)
(0.0184267347074 0.0101600478714 0)
(0.0157027088604 0.00874844717149 0)
(0.0134250402759 0.00767244340745 0)
(0.0115877610748 0.00675490072482 0)
(0.00999668769615 0.00591676530636 0)
(0.00857867377325 0.00519606862673 0)
(0.00734779153968 0.00460821957834 0)
(0.00632231301059 0.004106925558 0)
(0.00542654664542 0.00366106818329 0)
(0.00464162757353 0.00327870623093 0)
(0.00395775186929 0.00291240096354 0)
(0.0035451299902 0.00262223847558 0)
(0.00325906654052 0.00229604219051 0)
(0.00307144313636 0.00199632211764 0)
(0.00288023993549 0.00165405454744 0)
(0.00273063755538 0.00132685417966 0)
(0.0025730659233 0.000999083955763 0)
(0.00249410080521 0.000739967095391 0)
(0.00249182617821 0.000536207364961 0)
(0.00239792796077 0.000335278894936 0)
(0.0025544493311 0.000239807922975 0)
(0.0025035332114 0.000142118941233 0)
(0.00247492827003 4.44938451189e-05 0)
(-0.1255148209 0.0075582090341 0)
(-0.132635779337 0.0245261986988 0)
(-0.132041282202 0.0411754465107 0)
(-0.130810019983 0.0578619518828 0)
(-0.129171828998 0.0743253610764 0)
(-0.12715042577 0.0905245965929 0)
(-0.124766728334 0.106406764084 0)
(-0.12204433502 0.121923654988 0)
(-0.119009129872 0.137031439091 0)
(-0.115688662208 0.151691061878 0)
(-0.11211151148 0.16586842298 0)
(-0.108306653764 0.179534461904 0)
(-0.104302833574 0.192665141815 0)
(-0.100127947815 0.205241332297 0)
(-0.0958084449018 0.217248587505 0)
(-0.0913687538137 0.228676814233 0)
(-0.0868307583666 0.239519826023 0)
(-0.0822133463167 0.249774785708 0)
(-0.0775320592762 0.259441548759 0)
(-0.0727988767133 0.268521932619 0)
(-0.0680221509943 0.277018949249 0)
(-0.0632067057191 0.284936047208 0)
(-0.0583540814209 0.292276410659 0)
(-0.0534629040833 0.299042356171 0)
(-0.0485293269263 0.305234850741 0)
(-0.043547503307 0.310853153644 0)
(-0.0385100450745 0.31589456126 0)
(-0.0334084541275 0.320354221358 0)
(-0.0282335261687 0.324224982169 0)
(-0.0229757626933 0.327497225286 0)
(-0.0176258425745 0.330158812095 0)
(-0.0121750941833 0.332194868499 0)
(-0.00661618794606 0.333587772377 0)