/*--------------------------------*- C++ -*----------------------------------*\
| =========                 |                                                 |
| \\      /  F ield         | OpenFOAM: The Open Source CFD Toolbox           |
|  \\    /   O peration     | Version:  v1906                                 |
|   \\  /    A nd           | Web:      www.OpenFOAM.com                      |
|    \\/     M anipulation  |                                                 |
\*---------------------------------------------------------------------------*/
FoamFile
{
    version     2.0;
    format      ascii;
    class       volScalarField;
    location    "117";
    object      p;
}
// * * * * * * * * * * * * * * * * * * * * * * * * * * * * * * * * * * * * * //

dimensions      [0 2 -2 0 0 0 0];


internalField   nonuniform List<scalar> 
9216
(
280.041584419
280.12147749
280.286789647
280.538937908
280.876494867
281.297885057
281.801131493
282.383938849
283.043683117
283.777507851
284.582297536
285.454788002
286.391523625
287.388981069
288.443503829
289.551437438
290.709042138
291.912640224
293.158501156
294.443004872
295.762500828
297.113488942
298.492449688
299.896047189
301.320928517
302.763951865
304.221952667
305.692002753
307.171148648
308.656693246
310.145895235
311.636286752
313.125346528
314.610861529
316.090534787
317.562383645
319.024329706
320.474631695
321.911426587
323.333206673
324.738316003
326.125468943
327.493207267
328.84046081
330.16595617
331.468819986
332.747951417
334.002661681
335.232006674
336.435464249
337.612232821
338.761939109
339.883908855
340.977901691
342.043356727
343.080150354
344.087823405
345.066356145
346.015381938
346.934971631
347.824845357
348.685158251
349.515711874
350.3167382
351.088117495
351.830149721
352.542791769
353.226416693
353.881060093
354.507153986
355.104807616
355.67450649
356.216426933
356.731100735
357.218766035
357.679987737
358.115055955
358.52455794
358.908825646
359.268455508
359.603808031
359.915473083
360.203830067
360.469452835
360.712734559
360.934234918
361.134379807
361.313763784
361.472933146
361.612427361
361.732775228
361.834759604
361.913464877
361.963118565
361.987932459
361.996691307
279.961688548
280.041943385
280.207598933
280.460746454
280.799739062
281.222920571
281.728275942
282.313464689
282.975835863
283.71248777
284.520281054
285.39590608
286.335889204
287.336662758
288.39455793
289.505878408
290.666882691
291.873854393
293.123069091
294.410867946
295.733614771
297.087771531
298.469840077
299.87644637
301.304265968
302.750115831
304.210867611
305.683548224
307.165244125
308.653211001
310.14475309
311.637354607
313.128550315
314.616063597
316.097658718
317.571291959
319.034953442
320.486833075
321.925143226
323.348300408
324.754730118
326.143068116
327.511945824
328.860204798
330.186668581
331.490370159
332.770311551
334.025706716
335.255718975
336.45972324
337.637031031
338.787160581
339.90955488
341.003861589
342.069639603
343.106649852
344.114555543
345.093218125
346.04239267
346.962031357
347.851977807
348.712266506
349.54282068
350.343752343
351.115063836
351.856937029
352.569444503
353.252845582
353.907289786
354.533100777
355.130497851
355.699861694
356.241472946
356.755766645
357.243079715
357.703886199
358.138568034
358.547629978
358.931488417
359.290666317
359.625597993
359.936808614
360.224741949
360.489912013
360.732762447
360.953795098
361.153457045
361.332252522
361.490668446
361.629151411
361.747903391
361.847101696
361.924077602
361.97288311
361.996710307
362.005470734
279.795518464
279.876920992
280.044107964
280.299557218
280.641592148
281.068509391
281.578235778
282.168359842
282.83616269
283.578666103
284.392663193
285.274769529
286.221451443
287.229073331
288.293918549
289.412233309
290.580239446
291.794172229
293.05028328
294.344877177
295.67430418
297.034995115
298.423447531
299.836259683
301.270109808
302.721791077
304.188182522
305.666287864
307.153208964
308.646176718
310.142514448
311.639683705
313.135241176
314.626886446
316.112407235
317.58973566
319.056893722
320.512044162
321.953433102
323.379450071
324.788559497
326.179367209
327.550545747
328.90090535
330.229314344
331.534773894
332.816336543
334.07317857
335.304513397
336.509681434
337.68804758
338.83908858
339.962303343
341.057298966
342.123688262
343.161188716
344.169518309
345.148492654
346.097921926
347.017710789
347.907755327
348.768042124
349.598546878
350.399334001
351.17045493
351.912043807
352.62422423
353.307208961
353.96119732
354.586468375
355.183291307
355.752006196
356.292937282
356.80648671
357.293035445
357.753021628
358.186870413
358.595058143
358.978038541
359.336313607
359.670353184
359.980655137
360.267693656
360.531958548
360.773911341
360.994026402
361.192736302
361.370474234
361.527654913
361.664645872
361.781318669
361.877223913
361.950505935
361.996970022
362.020831255
362.030618909
279.540043604
279.62273173
279.79231349
280.051362936
280.398143169
280.830874465
281.347390863
281.945175161
282.621398791
283.372968233
284.1965664
285.088698531
286.045730347
287.063929238
288.139494597
289.268594012
290.447384469
291.672039405
292.938763256
294.243814188
295.583510368
296.954249068
298.35250668
299.774856027
301.217963133
302.678600415
304.153643549
305.64008267
307.135017008
308.63566666
310.139356923
311.64353957
313.14577976
314.64376651
316.135298929
317.618303122
319.090813284
320.550985807
321.997082647
323.42749077
324.840693188
326.235292906
327.609981109
328.963562536
330.294934912
331.60309492
332.887117913
334.146180051
335.379522251
336.586479581
337.766443822
338.918890091
340.043343882
341.139403204
342.206707369
343.244967561
344.25392652
345.233389497
346.183189553
347.103218952
347.993395071
348.85369057
349.684101203
350.484676735
351.255486746
351.996650793
352.708311317
353.390668651
354.043940858
354.668396448
355.264322052
355.832046759
356.37191991
356.884333091
357.369685848
357.828415436
358.260967902
358.66781715
359.049439521
359.406331332
359.738981068
360.047888828
360.3335449
360.59643252
360.837024395
361.055775857
361.253094371
361.429388586
361.585003197
361.720148821
361.834481036
361.927493748
361.997819577
362.044080792
362.069892941
362.080323643
279.194184761
279.278519751
279.451387075
279.71538448
280.068682217
280.509389723
281.035209967
281.643478799
282.331213104
283.095161964
283.931853186
284.837642211
285.808754594
286.841327803
287.931446232
289.075173218
290.268575375
291.507747048
292.788826957
294.10801616
295.461586258
296.845893702
298.25738569
299.692604882
301.148195951
302.620912814
304.107619729
305.605293724
307.111025205
308.622025387
310.135618394
311.649250344
313.16048682
314.667013254
316.166633777
317.657276505
319.136981978
320.603911888
322.056337456
323.492650865
324.911347626
326.311036783
327.690430259
329.048342043
330.383685775
331.695468884
332.982788312
334.244827177
335.4808491
336.690201642
337.872296962
339.026621376
340.152719805
341.250201584
342.318722212
343.357997218
344.367788851
345.347905259
346.298192561
347.218543335
348.108886894
348.96919348
349.799469343
350.599762006
351.370143916
352.110731711
352.821682089
353.503194256
354.155492116
354.77884677
355.373554648
355.939944431
356.478376636
356.989248271
357.472976084
357.930004126
358.360793405
358.765826299
359.1455981
359.500612977
359.83137787
360.138407275
360.422198451
360.683241375
360.922017071
361.138974338
361.334524829
361.509053214
361.662884772
361.796086503
361.908433131
361.99970281
362.069396826
362.117633841
362.146156762
362.15772612
278.756161274
278.842585222
279.019683032
279.290059596
279.651756567
280.102732771
280.640515117
281.262245922
281.964737978
282.744533598
283.597958716
284.52117504
285.510227723
286.561089397
287.669697649
288.831984753
290.043904548
291.301454273
292.600690448
293.937744678
295.308833288
296.710264703
298.13844706
299.589889395
301.061209615
302.549144156
304.050539285
305.562356682
307.081678045
308.605703781
310.131753999
311.657268832
313.179812678
314.697073586
316.206858879
317.70709885
319.195839599
320.671251136
322.131614652
323.575331738
325.000915452
326.406986357
327.792273824
329.155608433
330.495917851
331.812228116
333.103658462
334.369411767
335.608775576
336.821111814
338.005856078
339.162515517
340.290654716
341.389900805
342.459926436
343.50046083
344.511281679
345.492207568
346.443093525
347.363838715
348.254382752
349.114697956
349.944800084
350.744725515
351.514546782
352.254402257
352.96445878
353.644904797
354.295968221
354.917932416
355.511097624
356.075792326
356.612392964
357.121313389
357.602980161
358.057847495
358.486392355
358.889119063
359.266540727
359.619174523
359.947550229
360.252196949
360.533626246
360.792348972
361.028856884
361.243605379
361.437021602
361.609483598
361.761314414
361.892570538
362.003278825
362.09348338
362.163229003
362.212970047
362.243903711
362.257695631
278.223698737
278.312710111
278.495065404
278.773370095
279.145497453
279.6092095
280.161805173
280.800177521
281.520879192
282.320190714
283.194183569
284.138777341
285.149794772
286.223007231
287.354172173
288.539065398
289.773506173
291.05337674
292.374638606
293.733344332
295.125644025
296.547792763
297.996152828
299.467197153
300.957516285
302.463822769
303.982944308
305.51182662
307.047537599
308.587268749
310.128332164
311.6681652
313.204332303
314.73452012
316.256540553
317.768327241
319.267934338
320.753540625
322.223441383
323.676053252
325.109904806
326.523634379
327.915986205
329.285811025
330.63206218
331.95378835
333.250128591
334.520311514
335.763652426
336.979539497
338.167435434
339.326867031
340.45742453
341.558759671
342.630565268
343.67258983
344.684624071
345.666501343
346.618089519
347.539295021
348.430074778
349.290384088
350.120237752
350.919698345
351.688847904
352.427828084
353.136800663
353.815948611
354.465515382
355.085792384
355.677080854
356.239715914
356.774092666
357.280631023
357.759781581
358.212017365
358.637828789
359.03773818
359.412287849
359.762017721
360.087478782
360.389224714
360.667789735
360.923707431
361.157489036
361.369613608
361.560520977
361.730594033
361.880173421
362.009447255
362.118594829
362.207832754
362.2774193
362.32776105
362.359843826
362.374838558
277.593978548
277.686133936
277.874880481
278.162816772
278.547600408
279.026741919
279.597249526
280.255701633
280.99832484
281.821074873
282.719709241
283.689854005
284.727063264
285.826867436
286.9848129
288.196493444
289.457572757
290.76380393
292.111041959
293.495250561
294.912508235
296.359011644
297.831072052
299.325127342
300.837740868
302.365594907
303.905497165
305.454376757
307.009286343
308.567406729
310.126045879
311.682636479
313.234740039
314.780042857
316.316361184
317.841636141
319.353930916
320.851435235
322.332462723
323.79544651
325.23892807
326.661566699
328.062133548
329.43950319
330.7926491
332.120647677
333.422671291
334.697977945
335.945911211
337.165889898
338.357407966
339.520023859
340.653358336
341.757085437
342.830927611
343.874653027
344.888071204
345.871036345
346.823427253
347.7451452
348.636142204
349.496406804
350.32597599
351.124902811
351.893272786
352.63121379
353.338903404
354.01652875
354.664332186
355.282616259
355.871680127
356.431874982
356.963618256
357.467339512
357.943505091
358.392607488
358.815165707
359.211733544
359.582873656
359.929148087
360.251149743
360.549454281
360.824630761
361.077240596
361.307820851
361.516879216
361.704875606
361.872239643
362.019348825
362.146491741
362.253926139
362.341973681
362.411021261
362.461377811
362.493791477
362.509267853
276.863575158
276.959501345
277.155909392
277.455379279
277.855294632
278.352846479
278.94467714
279.626970994
280.395550663
281.245973435
282.17361691
283.173754752
284.241623434
285.372472376
286.561604656
287.804408188
289.096374697
290.433114979
291.810367748
293.224003308
294.670025349
296.144565537
297.643890344
299.164400885
300.70262637
302.255224254
303.818978704
305.390799655
306.967727264
308.546932849
310.125714706
311.701501545
313.271850864
314.834452995
316.387128363
317.927823663
319.454615457
320.965709519
322.459437161
323.934244548
325.388697588
326.821481673
328.231391299
329.617326237
330.978292357
332.313399947
333.621852413
334.902940969
336.156044575
337.38062506
338.576209558
339.742394038
340.878833796
341.985234281
343.061348215
344.106968497
345.121929976
346.106106611
347.059348948
347.981585903
348.872823097
349.733049611
350.562289149
351.360595601
352.128053717
352.864805072
353.571022535
354.246880475
354.892646117
355.508618262
356.095103342
356.652471397
357.181152798
357.681594276
358.154281725
358.599736275
359.018507929
359.411174736
359.778325938
360.120577732
360.438544345
360.732841407
361.00407332
361.252839364
361.479708979
361.685227343
361.869901068
362.034200892
362.178538222
362.30328343
362.408771514
362.495357466
362.563445814
362.613442746
362.645668502
362.661209795
276.028381054
276.128792714
276.334306458
276.647464574
277.065303596
277.584609368
278.201564613
278.911863285
279.710830508
280.593538597
281.55490971
282.589800674
283.693076818
284.859666637
286.084600354
287.363037218
288.6902825
290.061796383
291.473197048
292.920259723
294.398910848
295.905223249
297.435416806
298.985856724
300.553040974
302.133599718
303.724293524
305.32201605
306.923794447
308.526786518
310.128282597
311.725704073
313.316609348
314.898690608
316.469771206
318.027809331
319.570897982
321.09725613
322.605231408
324.093297216
325.560044521
327.004179541
328.424526755
329.820023035
331.18970872
332.532722949
333.848308761
335.135804084
336.394625971
337.624279359
338.824337148
339.994440291
341.134282268
342.243608572
343.322202944
344.369891227
345.386534606
346.371973232
347.326109502
348.248939539
349.1404388
350.000602268
350.829454644
351.627050286
352.393477796
353.128877773
353.833407685
354.507272732
355.150721135
355.764050742
356.347590913
356.901727539
357.426901395
357.923583086
358.392277272
358.833538362
359.247950051
359.636123039
359.998689333
360.336305916
360.649628849
360.939316904
361.206014259
361.450367889
361.672985113
361.874462658
362.055351062
362.216156761
362.357351986
362.479373796
362.582616435
362.667449352
362.734246144
362.783475614
362.815256992
362.83060214
275.083511972
275.189235801
275.405521339
275.734843959
276.173798615
276.718657375
277.36502483
278.107985321
278.942253347
279.862313865
280.862546115
281.937319962
283.081074764
284.288376349
285.553954408
286.872722841
288.239790997
289.650464999
291.100243309
292.584809176
294.100014974
295.641881309
297.206588736
298.790464692
300.38997923
302.001736055
303.622476308
305.249077413
306.878548994
308.508037433
310.134821943
311.756320357
313.370089506
314.973821372
316.565348001
318.142641847
319.703807198
321.247081804
322.770838517
324.273573368
325.753901768
327.210564211
328.642420646
330.048440769
331.427700162
332.779380746
334.102772781
335.397253418
336.662293585
337.897448961
339.102345952
340.276676171
341.420181637
342.532651552
343.613911106
344.663810976
345.682188017
346.668948933
347.624076509
348.547536668
349.439297986
350.299368591
351.127773607
351.924577917
352.689865927
353.423743073
354.126394771
354.798014644
355.43885432
356.049207676
356.629419869
357.179909917
357.701123383
358.193529993
358.657677698
359.094165109
359.503610735
359.886661412
360.24400853
360.576346523
360.884370786
361.168795122
361.430329985
361.669655162
361.887442984
362.084331749
362.260921286
362.417767034
362.555396665
362.674303934
362.774916316
362.857644855
362.922866828
362.970943976
363.00208689
363.017115615
274.023185041
274.135192433
274.364200784
274.7125746
275.176344283
275.751126966
276.431798233
277.21268361
278.087748641
279.050770942
280.095485804
281.215697647
282.405364347
283.658651517
284.969964142
286.333960283
287.745551416
289.199893514
290.692373113
292.218588731
293.774332903
295.355580259
296.958478683
298.579326751
300.214566335
301.860781511
303.514695496
305.173165946
306.833185068
308.491885777
310.146541214
311.794560258
313.433495978
315.061045379
316.675051566
318.273495868
319.854499901
321.416326001
322.957368893
324.476150157
325.971320564
327.441659577
328.886055334
330.303518059
331.69317158
333.05423852
334.386054753
335.688052347
336.959761236
338.200795311
339.410846595
340.589664548
341.737051167
342.852845512
343.936903918
344.989069242
346.009259528
346.997451338
347.953624322
348.87772589
349.769734725
350.629695654
351.457623187
352.253549169
353.017546629
353.749757938
354.45032993
355.119460481
355.757392303
356.364425343
356.940943908
357.487354478
358.004088104
358.491671786
358.950707877
359.381813518
359.785650608
360.162919067
360.514355009
360.84069665
361.142721001
361.421192618
361.676875488
361.910516725
362.122838873
362.314539119
362.486266249
362.638635326
362.772232804
362.887588238
362.985165509
363.065401352
363.128691218
363.175367536
363.20563968
363.220289967
272.840564544
272.960013369
273.204063235
273.574902792
274.067832976
274.677631158
275.398249275
276.223065841
277.145127611
278.157361392
279.252745669
280.424435525
281.665850153
282.970722414
284.333118345
285.747438939
287.208405814
288.711038612
290.250628185
291.822702337
293.423013005
295.047507431
296.692304972
298.353682775
300.028065487
301.712021015
303.402252073
305.095595818
306.7890299
308.479674587
310.16478695
311.841768841
313.508172926
315.161702747
316.800206168
318.421679321
320.024267515
321.606250073
323.166050783
324.702228899
326.213471846
327.698590547
329.156517118
330.586308539
331.987126672
333.358247276
334.699056491
336.009047368
337.287813699
338.53504297
339.750501854
340.934014251
342.085450505
343.204700278
344.291600987
345.346104737
346.368213024
347.357878682
348.315105777
349.23986201
350.132144804
350.991974235
351.819347534
352.614295188
353.376922428
354.107312248
354.805612512
355.472003428
356.106728429
356.710125195
357.282549699
357.824383233
358.336117656
358.818339266
359.271652038
359.696718288
360.094251245
360.465007121
360.809778577
361.129378508
361.424640647
361.696400855
361.945489204
362.172725296
362.378891438
362.564744242
362.73100364
362.878339035
363.007385075
363.118705075
363.212815433
363.290178028
363.3511959
363.396208977
363.425406894
363.439588386
271.527561733
271.655853305
271.917743403
272.315145616
272.842409707
273.49322714
274.260372578
275.136038297
276.112143101
277.180593277
278.333483043
279.563231232
280.862666752
282.225066156
283.644155079
285.114090263
286.629425282
288.185068551
289.776242426
291.398436894
293.047378012
294.71900492
296.409428753
298.114915863
299.831879904
301.556874546
303.28658208
305.017821995
306.747556012
308.472882109
310.191043487
311.899435115
313.595609976
315.277271145
316.942275708
318.588640821
320.214525617
321.818241918
323.398249906
324.953138136
326.481635945
327.982603426
329.455013042
330.897963933
332.310673128
333.692463233
335.042775739
336.361169579
337.647312365
338.900977447
340.122027103
341.310374497
342.4659654
343.588684424
344.678477134
345.735409374
346.759460348
347.750621241
348.708924929
349.634346559
350.526876338
351.386545793
352.213321777
353.007259727
353.76841828
354.496844952
355.192680181
355.856088241
356.487349164
357.086759115
357.654628742
358.191401285
358.697627876
359.173883231
359.620814581
360.039134238
360.429612724
360.793070752
361.130370383
361.442400361
361.7300703
361.994292153
362.235975498
362.456024663
362.655281917
362.834574208
362.99470437
363.136384433
363.260307149
363.367083276
363.457268234
363.531358655
363.589765321
363.632850156
363.660812872
363.674396885
270.074570774
270.213431041
270.496591339
270.925544799
271.493386546
272.192388596
273.013815541
273.948367621
274.986577649
276.119132578
277.337102199
278.632083333
279.996273988
281.422488299
282.904129293
284.435142114
286.009951562
287.623398454
289.270674592
290.947268941
292.648920465
294.371578688
296.111364324
297.864550179
299.627548831
301.396897345
303.169262537
304.941442143
306.710372204
308.473130169
310.226944211
311.969199271
313.697441269
315.409376193
317.102873289
318.775962864
320.426833387
322.053833532
323.655450943
325.230321429
326.777224417
328.295059979
329.782855051
331.239756311
332.6650277
334.058044681
335.418306021
336.745439768
338.03919285
339.299443512
340.526182991
341.719429631
342.879128811
344.005321711
345.098078245
346.157436628
347.183422761
348.176079833
349.135473556
350.061528538
350.954295889
351.813814282
352.639982478
353.432870795
354.192467497
354.918821783
355.612028279
356.272269458
356.899772917
357.494786483
358.057666935
358.588917704
359.089060379
359.558706833
359.998550817
360.409359729
360.791969619
361.147274985
361.476219847
361.779777332
362.058946602
362.314720471
362.548133371
362.760133539
362.951653092
363.123614068
363.276877323
363.41223035
363.530426561
363.632108547
363.717879818
363.788274508
363.843738341
363.884620964
363.911161661
363.924047345
268.470120399
268.621712405
268.930416775
269.397088043
270.013146629
270.768989818
271.653928294
272.656779647
273.76637359
274.97194598
276.263395311
277.631421599
279.067571806
280.564218886
282.114489723
283.712176701
285.351640958
287.027715583
288.735620054
290.470888713
292.229314171
294.006890536
295.799772148
297.604252152
299.416746192
301.233782841
303.052007429
304.868190419
306.67923729
308.482198361
310.274279681
312.05285236
313.815454446
315.559794732
317.283753098
318.985379511
320.662897797
322.314685389
323.939278148
325.535361198
327.101761293
328.637439959
330.141474173
331.613062807
333.051517668
334.456265535
335.826855911
337.16297852
338.464469531
339.731341906
340.96376562
342.161790072
343.325518889
344.455215909
345.550905899
346.612637849
347.640506356
348.634643682
349.595061911
350.521738182
351.414786187
352.27413548
353.099728186
353.891569137
354.649597598
355.37379962
356.06422271
356.721065417
357.344499484
357.934770236
358.492270204
359.017473926
359.510925584
359.973276569
360.405272112
360.80774153
361.181595419
361.527812574
361.847434349
362.141524671
362.411200697
362.657569211
362.881735166
363.084735685
363.267617814
363.431395003
363.576998958
363.705293479
363.817089532
363.913084061
363.993933741
364.060195845
364.11234862
364.150770055
364.175690493
364.187787977
266.700409128
266.867492676
267.207160766
267.719295318
268.393045928
269.216311954
270.175856669
271.25811036
272.449815543
273.73849549
275.11273043
276.562273173
278.078039944
279.652024473
281.27716348
282.947193521
284.656505177
286.400007347
288.173022983
289.971195584
291.790416248
293.626762262
295.476452178
297.335814939
299.201277424
301.069356466
302.936669242
304.799948565
306.656059521
308.502015357
310.334993295
312.152344805
313.95159855
315.730464158
317.48683448
319.218783019
320.924563734
322.602605377
324.251489369
325.869960163
327.456904976
329.01134326
330.532419689
332.019383172
333.471593729
334.888518751
336.269747538
337.615018649
338.924253898
340.197627869
341.435489171
342.638123887
343.805789773
344.939008336
346.037650523
347.101601713
348.131150522
349.126554112
350.087971978
351.015339033
351.908653609
352.767941316
353.593052877
354.383864551
355.140278458
355.862256217
356.549859384
357.203135068
357.822257701
358.407446472
358.959087629
359.477696396
359.963813156
360.418130898
360.841455407
361.234682605
361.598807704
361.934901145
362.24413759
362.527705039
362.786815039
363.022680625
363.236501156
363.429462422
363.602713599
363.75738505
363.894463132
364.014901244
364.119573232
364.209249741
364.284625166
364.34629499
364.394758029
364.430423136
364.453544213
364.464773368
264.748669617
264.934835325
265.312465969
265.879954817
266.623321831
267.527097778
268.574705282
269.749540579
271.035795603
272.418999302
273.886290247
275.426469849
277.029903868
278.688332579
280.394648202
282.142671217
283.926950147
285.742582818
287.585088288
289.450295117
291.334248048
293.233155223
295.143329826
297.061153056
298.983066545
300.905570189
302.825235483
304.73874362
306.642901369
308.534672268
310.411195503
312.26979718
314.107992418
315.923491387
317.714199778
319.478217796
321.213844166
322.919550341
324.593984333
326.235957183
327.844429573
329.41849261
330.957355424
332.460334193
333.926828839
335.356336193
336.748457379
338.102947039
339.41976184
340.699171076
341.942187153
343.149552037
344.321015089
345.457090478
346.557395348
347.622393491
348.653222662
349.650061451
350.612798824
351.541091609
352.435236736
353.295031363
354.119976666
354.910113376
355.665050912
356.384968377
357.069674663
357.719193825
358.333772192
358.913490305
359.458840334
359.970312338
360.448412424
360.893894198
361.307655359
361.690653901
362.043982782
362.368850402
362.666555453
362.938393397
363.185693147
363.409821072
363.612118696
363.793893056
363.956456065
364.100998328
364.228598944
364.340317884
364.437089928
364.519766844
364.589079251
364.645656976
364.690031407
364.722649654
364.743780906
364.754046079
262.594283152
262.804307922
263.229119298
263.864810906
264.693018292
265.69367827
266.845807108
268.128945767
269.524190265
271.014794082
272.586385333
274.226899625
275.926327865
277.67637251
279.470100737
281.301618945
283.165801943
285.058080417
286.974275577
288.910485354
290.862983397
292.828153189
294.802433233
296.782277239
298.764140951
300.744486943
302.719825281
304.686750081
306.641986121
308.582429931
310.505173739
312.407509635
314.286936795
316.141163492
317.968110812
319.765910776
321.532903106
323.267629327
324.968805023
326.635323465
328.266234527
329.860716685
331.41806006
332.937645253
334.41892469
335.861402423
337.264640036
338.62834041
339.952346824
341.237286494
342.485602183
343.695204437
344.866197574
346.002469302
347.104204531
348.171527401
349.204746434
350.203945983
351.168671754
352.098976477
352.994691164
353.855395672
354.680644729
355.47032552
356.224125464
356.942335173
357.624177168
358.269967211
358.879744291
359.453702781
359.992365389
360.496089713
360.965427118
361.401276378
361.804524086
362.176206653
362.517582448
362.830006647
363.114838804
363.3735728
363.607710934
363.818770498
364.008241382
364.177601142
364.328285005
364.46155736
364.578641281
364.680714002
364.768752776
364.843696027
364.906311833
364.957279841
364.997161244
365.026415449
365.045342235
365.054546812
260.211528442
260.451923933
260.936322122
261.65721027
262.589976801
263.708233378
264.985160989
266.395416588
267.916387512
269.528810484
271.216851284
272.967810564
274.771626915
276.620311517
278.507420941
280.427617757
282.376320254
284.349455038
286.343275119
288.354234679
290.378909376
292.413915404
294.455853481
296.501263161
298.546603796
300.588280083
302.622688415
304.646295743
306.655708146
308.647733285
310.619404511
312.567975893
314.490926159
316.385960701
318.251015388
320.084259901
321.884088704
323.649113367
325.378139049
327.070160231
328.724337363
330.339953228
331.916401509
333.453150796
334.949700849
336.405546835
337.820146897
339.193192168
340.524436748
341.811578364
343.057162099
344.263660039
345.435807622
346.575168723
347.680451292
348.751442323
349.787932129
350.789652355
351.756816081
352.689631278
353.587228737
354.449118924
355.274792042
356.064458861
356.817801738
357.534382439
358.213643948
358.855879458
359.460869773
360.028996697
360.560493189
361.055920414
361.515810155
361.94111833
362.332734882
362.691956661
363.020082597
363.318634595
363.589156929
363.833295599
364.052767725
364.249272817
364.424466855
364.580048679
364.717517012
364.838303117
364.94376877
365.035174295
365.11358238
365.179984591
365.235238096
365.280031651
365.314985585
365.340554976
365.357064385
365.365090869
257.56776014
257.847656981
258.408736265
259.237723558
260.300953722
261.563271879
262.990126605
264.550029938
266.2160219
267.966204825
269.783539295
271.655160808
273.571494689
275.525377236
277.51130052
279.524827329
281.56217758
283.619952233
285.694963738
287.784125385
289.884377076
291.992631486
294.105693774
296.22020205
298.33261096
300.439206281
302.536204419
304.619874783
306.686649368
308.733223643
310.756569467
312.753897733
314.722666168
316.660572504
318.565567384
320.435863669
322.269921601
324.066439805
325.824329574
327.542708896
329.220866947
330.858227699
332.45432442
334.008747048
335.521060902
336.990732399
338.417315773
339.80109098
341.132580123
342.409285581
343.650214593
344.859121291
346.036119195
347.179840448
348.289300085
349.363999813
350.403836273
351.408459499
352.37880555
353.314204987
354.213694357
355.076563677
355.90331154
356.693189966
357.446124792
358.161424334
358.83841392
359.477074571
360.077525127
360.639803323
361.164060907
361.650774675
362.100508509
362.514288259
362.893195055
363.238632406
363.552046027
363.835153636
364.089732546
364.317625068
364.520740066
364.701032847
364.860367997
365.000612848
365.123417235
365.230374061
365.323024412
365.402643419
365.470465042
365.527492791
365.574651338
365.612697756
365.642256603
365.663787001
365.677660375
365.684397809
254.620684353
254.953313708
255.615253725
256.583808063
257.811988929
259.252469352
260.860501408
262.596971456
264.42999078
266.335176734
268.294908257
270.296996922
272.333211082
274.397953693
276.48723704
278.597950214
280.727397007
282.873036893
285.03235085
287.202787416
289.381729711
291.566441936
293.753991182
295.941145219
298.124318201
300.299592099
302.462886775
304.610159022
306.737603484
308.841771867
310.919574876
312.968203133
314.985091178
316.967917036
318.914643287
320.823532383
322.693127133
324.522227877
326.309872471
328.055330365
329.758051193
331.41764194
333.033824577
334.606354373
336.134911774
337.619290564
339.060086699
340.446609735
341.761320756
343.023985509
344.269699163
345.486976347
346.669833481
347.817929044
348.932115705
350.010754541
351.054191816
352.062359649
353.035605681
353.973108245
354.87444696
355.739050274
356.566742843
357.35720996
358.110213264
358.824161443
359.498834492
360.134219956
360.730407611
361.286707174
361.80360802
362.281266667
362.720277973
363.121722819
363.486810595
363.817022545
364.114150353
364.380091094
364.616852187
364.826587898