/*--------------------------------*- C++ -*----------------------------------*\
| =========                 |                                                 |
| \\      /  F ield         | OpenFOAM: The Open Source CFD Toolbox           |
|  \\    /   O peration     | Version:  v1906                                 |
|   \\  /    A nd           | Web:      www.OpenFOAM.com                      |
|    \\/     M anipulation  |                                                 |
\*---------------------------------------------------------------------------*/
FoamFile
{
    version     2.0;
    format      ascii;
    class       surfaceScalarField;
    location    "117";
    object      phia;
}
// * * * * * * * * * * * * * * * * * * * * * * * * * * * * * * * * * * * * * //

dimensions      [0 3 -1 0 0 0 0];
oriented        oriented;


internalField   nonuniform List<scalar> 
18240
(
0.00129236645727
-0.00129711130925
0.00270738875495
-0.00142079909109
0.00412414932947
-0.00142154611835
0.00552490828788
-0.00140670204378
0.00690510993632
-0.00138469479477
0.00825662733626
-0.00135755415461
0.00957727771228
-0.0013248246049
0.0108593363974
-0.00128813205364
0.012102134509
-0.00124663064106
0.0132982541737
-0.00120217158577
0.0144484830204
-0.00115369778315
0.0155457844487
-0.00110327661745
0.0165923273404
-0.00104963871738
0.0175815033965
-0.000995022156353
0.0185167604643
-0.000937972224878
0.0193919327304
-0.00088084149726
0.020211555641
-0.000821961794278
0.0209698624385
-0.000763755851111
0.0216722872841
-0.000704392729652
0.0223134443621
-0.000646349003974
0.022899481171
-0.00058765039902
0.0234253626625
-0.00053078547812
0.0238977678464
-0.000473681304898
0.0243119882118
-0.00041881323427
0.0246750628236
-0.000364040345567
0.0249826119898
-0.000311814704732
0.0252418840613
-0.00025995357559
0.0254488185578
-0.000210864514956
0.0256107717658
-0.000162384813428
0.0257240154079
-0.000116836977981
0.025795891474
-7.20896439299e-05
0.0258229561985
-3.03276016044e-05
0.0258123454782
1.05777473153e-05
0.0257609576013
4.84434056084e-05
0.0256757650803
8.53067001316e-05
0.0255539299987
0.00011919078759
0.0254020812532
0.000152073493573
0.0252176280446
0.000182086446204
0.0250068211958
0.0002111107463
0.0247672993646
0.000237406159267
0.0245049030389
0.000262747141889
0.0242174507516
0.000285559324968
0.0239103012573
0.00030752115325
0.0235814508972
0.000327150705536
0.0232357953
0.000346023095371
0.0228714716632
0.000362788410035
0.0224929092822
0.000378907345624
0.0220983517775
0.000393158846599
0.0216917825405
0.000406875345932
0.0212715536436
0.000418940738987
0.0208412237463
0.000430587047358
0.0203992495316
0.000440772204489
0.019948825063
0.000450624595328
0.0194884965847
0.000459190376756
0.0190211479191
0.000467489126676
0.0185454239026
0.000474629835527
0.0180639545893
0.000481549317723
0.0175754887958
0.000487398546443
0.0170824927175
0.000493019819582
0.0165838160715
0.000497623035359
0.0160817862758
0.000502003296436
0.0155753477115
0.00050538997235
0.0150667627117
0.000508518766314
0.0145550677835
0.000510647886036
0.0140424756256
0.000512497790949
0.0135280789533
0.000513353563415
0.0130141006598
0.000513870639575
0.0124997019364
0.000513367229699
0.0119870825679
0.000512512577965
0.0114754157795
0.000510659266297
0.0109668440158
0.000508480804764
0.0104605403013
0.000505335717997
0.00995860019997
0.000501876847293
0.00946016925616
0.000497519869474
0.00896722179639
0.000492921953126
0.00847887876392
0.00048750587523
0.00799697919745
0.000481916439345
0.00752060296214
0.000475627526151
0.00705140333701
0.000469259038845
0.00658840947311
0.000462343189285
0.00613306279313
0.000455442101017
0.00568441060574
0.000448105378255
0.00524369209808
0.00044084265954
0.00481006702488
0.000433191333598
0.00438470511965
0.00042551429749
0.00396712810916
0.000417267875901
0.00355894042194
0.000408364819914
0.00316113484577
0.000397597717412
0.00277753779278
0.000383776043237
0.00241159764065
0.000365788666771
0.00207338335657
0.000338347134741
0.00177889527791
0.000294383792161
0.00148684818112
0.000292068369693
0.00110826859806
0.000378673027965
0.000598550402115
0.000509946832724
0.000598647615166
0.0014272223897
-0.00272957429956
0.00302083876622
-0.00302022829385
0.00460829273663
-0.00301450690581
0.00617589882893
-0.0029801095555
0.00771852383033
-0.00293268613135
0.00922945108563
-0.00287421546606
0.0107044070615
-0.00280496291495
0.0121370460048
-0.00272639253328
0.0135241857738
-0.00263872713842
0.0148602011874
-0.00254364905343
0.016143136029
-0.0024413290738
0.0173681820933
-0.00233358252659
0.0185345998217
-0.00222046224922
0.0196384054962
-0.00210384755404
0.0206799661806
-0.00198362579541
0.0216560341474
-0.00186165695885
0.0225679690264
-0.00173765877029
0.0234132227129
-0.00161345828492
0.0241939977159
-0.00148858921126
0.0249082960295
-0.00136477755861
0.0255589647259
-0.00124139500286
0.0261444840808
-0.00112010328798
0.0266682062542
-0.00100013680681
0.0271290268904
-0.000883094424684
0.0275306986675
-0.000768110678985
0.0278724604475
-0.000656699587524
0.0281583534616
-0.000547925260065
0.0283879231026
-0.000443227036372
0.0285653526012
-0.000341592010862
0.0286904373954
-0.000244397411245
0.0287674458442
-0.000150599108208
0.0287963882781
-6.14469534563e-05
0.0287815879524
2.41269666684e-05
0.0287231854422
0.000104945023885
0.028625404707
0.00018205598807
0.0284885293718
0.000254414544328
0.0283166384084
0.000323121499588
0.0281100795681
0.000387213834289
0.0278727417581
0.000447761702188
0.0276049801478
0.00050392567009
0.0273103946962
0.00055677059008
0.0269893310933
0.000605539304247
0.0266451389468
0.000651245997631
0.0262781236743
0.000693210913091
0.0258913232135
0.000732423878033
0.0254849621403
0.000768295149525
0.0250617365037
0.000801776591999
0.0246218108644
0.000832305649195
0.0241676118219
0.00086074089255
0.0236992145754
0.000886612354051
0.0232187446382
0.000910729029454
0.0227262202123
0.000932604721648
0.0222235276689
0.000952981082705
0.0217106226182
0.000971420585728
0.0211891946338
0.00098856207667
0.0206591796698
0.00100397322839
0.0201221165612
0.00101823123132
0.0195779403129
0.00103089598184
0.0190280663264
0.00104248239817
0.0184724489131
0.00105254772454
0.017912477186
0.00106153370395
0.0173481550015
0.00106900325072
0.0167808408742
0.00107536552661
0.0162105718849
0.00108019411991
0.0156387404003
0.00108384414571
0.0150654630338
0.00108590152079
0.0144921078432
0.00108673436977
0.0139188105506
0.00108593975954
0.013346940338
0.00108389933529
0.0127766563179
0.00108023762387
0.012209316779
0.00107536014958
0.0116450397556
0.00106894233207
0.0110851400761
0.00106135495584
0.0105296931527
0.00105234794659
0.00997989586649
0.00104234961941
0.00943576967467
0.00103107929521
0.00889840203159
0.00101897645387
0.00836770516643
0.00100584850186
0.00784462163177
0.000992101648255
0.00732896842857
0.000977602539588
0.00682144311894
0.000962792060815
0.00632180382322
0.000947433710304
0.00583063469184
0.000931899642104
0.00534765357317
0.000915948337708
0.00487337470691
0.000899748530472
0.00440760671258
0.000882905021359
0.00395099387701
0.000864996467366
0.00350376060657
0.000844773595289
0.00306696202099
0.000820631591448
0.00264140691823
0.000791339820651
0.00222555974879
0.000754246613537
0.00181748199624
0.000702464437111
0.00143251157875
0.000677129361197
0.00100929038581
0.000802042317616
0.000507895049293
0.00101152540645
0.0011066836901
0.00145032154132
-0.0041852429175
0.00306223437591
-0.00463787654709
0.00467016761902
-0.00462812991377
0.00625857232443
-0.00457423226482
0.00782103826767
-0.0045007310531
0.00935127070376
-0.00441006073988
0.0108440857014
-0.00430320339013
0.0122939064601
-0.00418167361585
0.0136965424566
-0.0040465940862
0.0150473429572
-0.0038997128329
0.0163432339973
-0.0037422161744
0.0175805563359
-0.00357593187794
0.0187573612228
-0.00340199520906
0.0198709637259
-0.00322220680228
0.0209204573941
-0.00303755028682
0.0219040389147
-0.00284969736992
0.0228217031318
-0.00265943549574
0.0236723978351
-0.00246829215354
0.0244568665908
-0.00227683537571
0.025174698684
-0.0020864143372
0.0258272639617
-0.00189739469071
0.026414657525
-0.00171095858893
0.0269387354147
-0.00152730286978
0.0274000063069
-0.00134748298847
0.027800706434
-0.00117155821325
0.0281417011733
-0.00100047288303
0.0284254996706
-0.00083414014273
0.0286531895819
-0.000673368125556
0.0288275124934
-0.000518017613682
0.0289497777096
-0.000368803203789
0.0290228572434
-0.000225488051986
0.0290482437389
-8.86856604935e-05
0.0290288760532
4.19523110581e-05
0.0289663447876
0.000165886752991
0.0288635639393
0.000283533568339
0.0287221214386
0.000394500621101
0.0285448944595
0.000499252397942
0.0283334746117
0.000597479167674
0.028090612725
0.000689703053812
0.0278178191049
0.000775734286709
0.0275176698952
0.000856141950967
0.0271915664683
0.000930795695273
0.026841877523
0.00100026947813
0.0264698961961
0.00106445311312
0.0260777298822
0.00112400823103
0.0256664811789
0.00117888555811
0.0252380863608
0.00122964823715
0.0247934834845
0.00127630693715
0.0243343052265
0.00131943262221
0.0238613536027
0.00135899843422
0.0233760925825
0.0013955221864
0.0228791381017
0.00142901185991
0.0223717349283
0.00145991937412
0.0218544392302
0.00148817225007
0.021328376558
0.00151415075243
0.0207940081951
0.00153778871682
0.0202523331225
0.00155941345561
0.0197037654398
0.00157889318054
0.01914925304
0.00159647751263
0.0185892134047
0.00161199430691
0.0180245655426
0.00162563772404
0.0174557476348
0.00163720499987
0.0168836915941
0.00164685395101
0.0163088822598
0.00165436817089
0.0157322829877
0.00165985874444
0.0151544106683
0.00166312823519
0.0145762445224
0.00166431022376
0.0139983184996
0.00166322247195
0.0134216262188
0.00166000973948
0.012846697475
0.00165454085525
0.012274534716
0.00164696585267
0.0117057116903
0.00163717435486
0.0111411258384
0.0016254247701
0.0105812892535
0.0016116444723
0.010027094295
0.00159608471344
0.00947891539896
0.00157878310546
0.00893746860481
0.00156003100443
0.0084030308612
0.00153988617406
0.00787612665927
0.00151868787748
0.00735696457616
0.0014964436243
0.00684600462891
0.00147350874465
0.00634322445075
0.00144997158735
0.00584886524877
0.00142608964705
0.00536278669949
0.00140186485301
0.00488505817581
0.00137738666183
0.00441542159925
0.00135246325286
0.00395377157382
0.00132662876578
0.00349946909944
0.00129906818735
0.00305151525075
0.00126862101212
0.00260954776415
0.00123335113002
0.00216859095106
0.00119530156002
0.00171628510264
0.00115483682251
0.00125230659883
0.00114119958688
0.000794479544895
0.00126007624052
0.000374992532003
0.00143125039061
0.00148177165576
0.00146956830132
-0.00566021353584
0.00310018542521
-0.0062743024421
0.00472699295885
-0.00626069451568
0.00633390151467
-0.00618688593079
0.0079139263997
-0.00608641700775
0.00946074366676
-0.00596249947155
0.0109687312729
-0.00581670572116
0.0124324887049
-0.00565088718475
0.0138474335431
-0.00546686136211
0.0152092120011
-0.00526673877587
0.0165143799682
-0.00505247350555
0.0177596928242
-0.00482624456748
0.0189428407446
-0.00458996317123
0.0200616324651
-0.00434571719609
0.0211147776031
-0.00409521702242
0.0221010177244
-0.00384034775552
0.0230199735255
-0.00358259057774
0.0238711800997
-0.00332357956544
0.0246549924195
-0.00306450844264
0.0253715868568
-0.00280674623757
0.0260219082426
-0.00255122806725
0.0266066529901
-0.00229909034843
0.0271272147093
-0.00205102549195
0.0275846951957
-0.00180800010544
0.0279808765028
-0.00157055290666
0.0283171589603
-0.00133944819629
0.0285955848969
-0.00111504277992
0.0288178331398
-0.000897978456951
0.0289861784961
-0.000688518935087
0.0291025052032
-0.000487179549323
0.029169226853
-0.000294066683845
0.0291883451851
-0.000109564665914
0.0291623888354
6.63251345118e-05
0.0290934368025
0.000233339827671
0.0289840245579
0.000391605886078
0.0288362394635
0.000541017516365
0.0286525766863
0.000681786839358
0.0284350485838
0.000813936994506
0.0281860240265
0.000937777154028
0.0279074458263
0.00105340648722
0.0276015540236
0.00116122806095
0.0272701749958
0.00126140029098
0.0269153116318
0.00135444011279
0.0265385156023
0.00144057576605
0.026141641959
0.00152027355782
0.0257261124693
0.00159381554328
0.0252935038907
0.00166170755714
0.0248450618622
0.0017241997207
0.0243821966355
0.00178178624513
0.0239059321613
0.00183474391151
0.0234174558197
0.00188350616966
0.0229176408505
0.00192832102785
0.0224075156894
0.0019695560166
0.021887764444
0.00200741645651
0.0213592475826
0.00204216981812
0.0208226229137
0.00207389320814
0.0202786712418
0.002102848064
0.0197279624407
0.00212905990894
0.0191712440552
0.00215265287675
0.0186090868856
0.00217358266507
0.0180422222891
0.00219193110277
0.0174712422049
0.00220758913826
0.0168969044507
0.00222059443356
0.0163198384184
0.00223081551079
0.0157408904218
0.00223819077701
0.0151607378622
0.00224264873431
0.0145801898504
0.00224423524059
0.0139999297867
0.00224285057962
0.0134208401464
0.0022384846998
0.0128436304136
0.00223113511892
0.0122691378322
0.00222086924438
0.0116980778164
0.00220765311839
0.0111313327841
0.00219162382528
0.0105695498836
0.00217289751266
0.0100134416764
0.00215170609999
0.00946357210229
0.00212818892242
0.00892057281591
0.00210261523075
0.00838487607494
0.00207519564976
0.00785695558913
0.00204627216028
0.0073370431035
0.00201604964266
0.00682541793321
0.00198487774723
0.0063221038172
0.00195305971848
0.00582719358754
0.00192082310999
0.00534055955977
0.00188835428571
0.00486207553567
0.00185577625009
0.00439132989269
0.00182314706727
0.00392750920693
0.00179043129313
0.00346961799055
0.00175696848887
0.00301557798752
0.00172270837155
0.00256143079749
0.00168758029918
0.0021017134576
0.00165511095785
0.00162406243171
0.00163260132837
0.00112166437387
0.00164379008741
0.000665861983598
0.00171606265022
0.000289736912412
0.0018075744351
0.00177164408947
0.00149399658987
-0.00715968075932
0.00315051455024
-0.00793663885905
0.00480275468874
-0.00791877599526
0.00643424394588
-0.00782416562215
0.00803756697303
-0.00769547369821
0.00960620214233
-0.00753680169788
0.0111342230452
-0.00735030855039
0.012616165427
-0.00713832483718
0.014047235385
-0.0069033179757
0.0154231528798
-0.00664793486241
0.0167403437485
-0.00637481341135
0.0179957331171
-0.00608665595292
0.0191869387071
-0.00578604372848
0.0203119947096
-0.00547550470638
0.0213695784056
-0.00515737048195
0.0223587262668
-0.00483390914756
0.0232790233921
-0.00450712839641
0.0241303081954
-0.00417893923897
0.0249128991722
-0.00385099337424
0.0256272779798
-0.00352484781338
0.0262743148547
-0.00320180262475
0.0268549711442
-0.0028831110607
0.0273705817435
-0.00256981448044
0.0278225186052
-0.00226294392114
0.0282124490264
-0.00196330718259
0.0285420085804
-0.0016716647471
0.0288131416351
-0.00138865576813
0.0290277760571
-0.00111493383913
0.0291880605929
-0.000850956710943
0.0292961066474
-0.00059722989383
0.0293542429388
-0.000354051317509
0.0293647255857
-0.000121759637041
0.0293299838197
9.94964126661e-05
0.0292522936758
0.000309580823919
0.0291340722634
0.000508504101224
0.0289776241817
0.000696246928977
0.0287853515613
0.000872949522736
0.0285594991662
0.00103876650521
0.0283023540754
0.00119399067481
0.0280160299773
0.00133886822618
0.0277026231658
0.00147384663399
0.0273640362508
0.00159925151374
0.0270022227152
0.00171557626752
0.0266189100853
0.00182324842519
0.0262158479818
0.00192273975189
0.0257945823259
0.0020145099675
0.0253566411862
0.00209910930338
0.0249033033047
0.00217701219597
0.0244358275439
0.00224875789752
0.023955330347
0.00231474228738
0.0234629051325
0.00237544495212
0.0229594635288
0.0024312737696
0.02244591248
0.00248262284513
0.0219230203632
0.00252981511341
0.0213915383896
0.00257315659819
0.0208521017777
0.00261281949351
0.0203054055065
0.00264902726569
0.0197520411319
0.00268188791512
0.0191926658625
0.00271148206092
0.0186278876922
0.00273779329809
0.0180583442235
0.00276089648395
0.0174846787321
0.00278065546766
0.016907592894
0.00279707236481
0.0163277769565
0.00281000557821
0.0157460922593
0.00281924510589
0.0151631562125
0.00282494247986
0.014579679119
0.00282707209551
0.0139964464341
0.00282543924605
0.0134143401629
0.00281995707392
0.0128341337051
0.00281071361868
0.0122566679491
0.00279772614639
0.0116827850005
0.00278094335362
0.0111133241977
0.00276051974528
0.0105489825342
0.00273670019591
0.00999045893106
0.00270972616803
0.0094384132739
0.00267976501623
0.00889350101949
0.00264709886753
0.00835620931043
0.00261209817861
0.0078269370732
0.00257519869409
0.00730597750505
0.00253670505391
0.00679357886532
0.00249701530045
0.00628985212169
0.00245656703389
0.00579478773927
0.00241571051311
0.00530820927959
0.00237479780861
0.00482972638558
0.00233416767816
0.00435877000469
0.00229405294383
0.00389452770047
0.00225466058674
0.00343554199518
0.00221598114538
0.00297995010259
0.0021783551508
0.00252210292111
0.00214551731521
0.00205932463161
0.00211803140211
0.00158904412342
0.00210302488106
0.00111859958879
0.00211436762369
0.000675255228147
0.00215966798936
0.000281622282748
0.00220147662918
0.00205336986095
0.00152478353434
-0.00868999735334
0.00321472226498
-0.00963252128249
0.00489969699026
-0.00960965306611
0.00656262335121
-0.00949296308994
0.00819569390297
-0.00933434737423
0.0097920709975
-0.00913891532425
0.0113455341954
-0.00890942160169
0.0128504531781
-0.00864880252708
0.014301893787
-0.00836020698087
0.0156955419735
-0.00804691871378
0.0170277962617
-0.00771227093294
0.01829567939
-0.00735961062424
0.0194968521126
-0.00699213616026
0.020629517696
-0.00661294254361
0.0216924838531
-0.00622494139542
0.0226849889334
-0.00583085878341
0.0236067573071
-0.00543316180034
0.0244578551478
-0.00503413268432
0.0252387169374
-0.00463576355125
0.0259500098213
-0.00423987387967
0.0265927230244
-0.00384805798814
0.0271680075357
-0.00346176055025
0.0276772801441
-0.00308226128833
0.0281220496445
-0.00271071180136
0.0285039906581
-0.00234805936422
0.0288249088788
-0.00199522318926
0.0290867841094
-0.0016529910168
0.0292916475693
-0.0013220941689
0.0294417178412
-0.00100315345827
0.029539225287
-0.000696711132059
0.0295865470268
-0.000403189291804
0.0295860355693
-0.000122924701366
0.0295401159257
0.000143881969356
0.0294512309263
0.000397056301682
0.0293218598318
0.000636590389096
0.0291544253957
0.000862504290031
0.0289513415712
0.00107496194048
0.0287149531643
0.00127417347111
0.0284475463744
0.00146050207859
0.0281512727243
0.00163431878145
0.0278282780472
0.00179608549188
0.0274805447067
0.00194628466728
0.0271100355128
0.00208543550632
0.0267185858227
0.00221408910575
0.0263078693567
0.0023328829468
0.0258794230559
0.00244241143976
0.0254347396684
0.00254327156737
0.0249751778904
0.00263607103981
0.0245019972318
0.00272144952606
0.0240162654387
0.0027999946465
0.0235189705219
0.00287226574963
0.0230110366017
0.002938735703
0.022493314345
0.00299987044796
0.0219665430222
0.0030561071729
0.0214314000279
0.00310781032453
0.0208884934063
0.00315522653912
0.0203384461033
0.00319855910452
0.0197818521214
0.00323795194729
0.0192192707091
0.00327351380264
0.01865131664
0.00330518118034
0.0180785558673
0.00333307011288
0.0175016130971
0.00335699500367
0.0169214155943
0.00337664746853
0.0163384735426
0.00339231235996
0.0157533056087
0.00340376373804
0.0151666852128
0.00341090658815
0.0145794511609
0.00341364367683
0.0139924654561
0.00341176356294
0.013406571361
0.00340519352501
0.012822609802
0.00339402805516
0.0122414603073
0.00337824326213
0.0116639430118
0.00335784872466
0.011090886845
0.0033329897108
0.0105231961038
0.00330383437893
0.00996167356573
0.00327072754541
0.00940688283283
0.00323407173375
0.00885944714568
0.0031940931926
0.00831998452267
0.00315116142037
0.00778899495039
0.00310583533991
0.00726672731061
0.00305866331779
0.00675345257947
0.00301002764857
0.00624921452685
0.00296058568801
0.00575392426084
0.00291082790499
0.00526742153003
0.00286117012492
0.00478932371404
0.00281218157229
0.00431896176668
0.00276437199256
0.00385548938673
0.00271813218062
0.0033976844875
0.00267382189274
0.00294387666132
0.00263223812293
0.00249120055554
0.00259830926089
0.00203593499995
0.00257341661379
0.00158108734574
0.00255802289752
0.00113612734111
0.0025595728481
0.000712144972679
0.00258387760396
0.000316483635184
0.00259738107665
0.00237001554883
0.00156257042502
-0.0102581933676
0.00329383736979
-0.0113697670199
0.00501918735275
-0.0113410108702
0.00672082639904
-0.0112005507804
0.00839043002171
-0.0110098442739
0.0100207691568
-0.0107750712641
0.0116052887925
-0.0104996735794
0.0131381505986
-0.0101872976092
0.0146142626255
-0.00984184377652
0.0160292731807
-0.00946733095663
0.017379592524
-0.00906786220116
0.0186623222126
-0.00864746736763
0.0198752360733
-0.00821002933479
0.0210167578445
-0.0077592801453
0.0220858672384
-0.00729870420636
0.0230820464161
-0.00683151339196
0.0240052326928
-0.0063606500458
0.0248557244224
-0.00588873832526
0.0256341448657
-0.00541811683545
0.0263414071427
-0.00495087573182
0.0269786487077
-0.00448885430377
0.027547213274
-0.00403368560271
0.0280486374895
-0.00358686089829
0.0284845353571
-0.00314959362692
0.028856668582
-0.00272299486206
0.0291669695795
-0.00230814086083
0.0294175001708
-0.00190596337111
0.0296104294139
-0.00151728841706
0.0297480351908
-0.00114285925639
0.0298326812487
-0.000783291798247
0.029866774365
-0.000439064763368
0.0298527854934
-0.000110567266564
0.0297932600696
0.000201912968524
0.0296907522715
0.000498203443901
0.0295478314882
0.000778269999178
0.0293670111079
0.00104219765026
0.0291507687544
0.0012901778622
0.0289015125373
0.00152249668527
0.0286215734851
0.00173958964023
0.0283131965161
0.00194191703963
0.0279785937687
0.0021299728665
0.0276198633274
0.00230435364429
0.0272389205331
0.00246576413316
0.026837558852
0.00261487440805
0.0264175357036
0.00275236348763
0.0259804732137
0.00287895624504
0.025527792741
0.00299545713353
0.0250607970563
0.00310258677574
0.0245807188708
0.00320106135079
0.0240886539824
0.00329159998393
0.0235856084693
0.00337485716334
0.0230723988467
0.00345149008732
0.0225497718903
0.00352204004143
0.0220184374275
0.00358697509438
0.0214790192496
0.00364675301402
0.0209320773384
0.00370167643251
0.020378146827
0.00375198313725
0.0198177090113
0.0037978611907
0.0192513186726
0.00383935763585
0.018679580306
0.00387634779743
0.0181033478964
0.00390871185691
0.0175230493562
0.00393667760822
0.0169389461512
0.00396011790446
0.0163517295587
0.00397887455207
0.0157620903991
0.00399273680322
0.0151709726208
0.00400134375877
0.0145792299564
0.00400470194595
0.013987561897
0.00400274254988
0.0133969510855
0.0039951213489
0.0128083212023
0.00398198201736
0.0122225837817
0.00396332171649
0.0116407062131
0.00393908682015
0.0110634975544
0.00390958648173
0.0104917540915
0.00387499721629
0.00992640262138
0.00383553518784
0.00936827742966
0.0037916940555
0.00881800072303
0.0037439105503
0.0082760848053
0.00369266547277
0.00774300460983
0.00363855051778
0.00721920325934
0.00358214981012
0.00670488062961
0.0035240823182
0.00620013072719
0.00346511756765
0.00570486555706
0.00340592085419
0.00521880174911
0.00334711041576
0.0047415401767
0.00328936483719
0.00427252907616
0.00323335139884
0.0038108270211
0.00317984352139
0.00335532810145
0.00312937569866
0.00290442918071
0.00308322337219
0.00245847035493
0.00304438641784
0.00201559700801
0.00301646686067
0.00157517709015
0.0029986153718
0.00114461834519
0.00299028645698
0.000732502199367
0.00299629996893
0.000336776430157
0.00299344001787
0.00270691844603
0.00160802110557
-0.0118719230567
0.00338899165931
-0.0131568724251
0.00516292122944
-0.013121032139
0.00691100566607
-0.0129546924665
0.00862433551734
-0.0127291607316
0.0102951744976
-0.0124518243311
0.0119165990801
-0.0121269214382
0.01348250589
-0.0117589287244
0.0149876543043
-0.0113526001321
0.01642764843
-0.0109128103999
0.017798935662
-0.010444493951
0.0190987314269
-0.00995246413621
0.0203250168137
-0.00944135352699
0.0214764357386
-0.00891557690549
0.0225522368989
-0.00837920383469
0.0235521855087
-0.0078359858078
0.0244764967531
-0.00728929327552
0.0253257459984
-0.00674213526145
0.0261008499429
-0.00619716935445
0.0268029491493
-0.00565673385278
0.0274334009963
-0.00512286336165
0.0279937669766
-0.00459741791649
0.0284856655185
-0.00408192556139
0.0289108430906
-0.00357774877371
0.0292712507972
-0.0030861846463
0.0295689005866
-0.00260838998526
0.029805960853
-0.00214543524372
0.029984716077
-0.00169828129215
0.0301075277109
-0.00126773143577
0.030176826734
-0.000854488930362
0.0301951790883
-0.000459151982539
0.0301651986193
-8.21738180132e-05
0.0300895565118
0.00027611429739
0.0299708958737
0.000615553742109
0.0298118747945
0.000936106751964
0.0296151411418
0.00123785777124
0.0293832705116
0.00152107889147
0.0291187453484
0.00178614236835
0.0288240026844
0.0020335342847
0.028501422939
0.00226376864346
0.0281532159371
0.00247751227484
0.0277814597187
0.00267549388973
0.0273881757177
0.00285847486584
0.0269752539953
0.00302725933378
0.0265444017343
0.00318270757784
0.0260971788397
0.00332569559881
0.0256350758628
0.00345709450991
0.025159428417
0.00357778403169
0.0246714570124
0.00368859209728
0.0241721742477
0.00379044964751
0.0236624880749
0.00388411164895
0.0231432092698
0.00397033728221
0.0226150194242
0.00404979083626
0.0220785110387
0.00412303699803
0.0215342280617
0.0041905733068
0.0209826626677
0.00425276487028
0.0204242395459
0.0043099057959
0.0198594795313
0.00436210116653
0.0192890331695
0.0044092554699
0.0187135274649
0.00445128240626
0.0181329862884
0.00448865165274
0.0175478721006
0.00452116790961
0.0169588439267
0.00454849406825
0.0163666379115
0.004570409687
0.0157720344874
0.00458664743924
0.0151756844353
0.00459698930951
0.0145784086284
0.00460126101237
0.0139812305826
0.0045992021227
0.0133850559076
0.00459057765305
0.0127909429914
0.0045753865507
0.0121997319643
0.00455383820326
0.0116124704358
0.00452567610247
0.0110301631108
0.00449124909609
0.0104537458847
0.00445080343869
0.00988406054279
0.00440464908188
0.00932193352069
0.00435329261007
0.00876805681905
0.00429730739374
0.0082231509123
0.00423714050739
0.00768776210445
0.00417356202958
0.00716223597275
0.00410734975572
0.00664678605708
0.00403926049484
0.00614158223052
0.00397009992883
0.00564656461474
0.00390077007089
0.00516152424589
0.00383203082033
0.00468599706175
0.00376482317226
0.00421935258423
0.00369997356301
0.00376065749062
0.00363856412701
0.00330886174327
0.00358123832482
0.00286300420997
0.0035291931017
0.0024232642379
0.0034842804896
0.00199057185062
0.00344930814506
0.00156391801886
0.00342545053126
0.00114353059903
0.00341096329855
0.000738020616355
0.00340207220689
0.000344623251967
0.00338712678804
0.00305173331116
0.00166182326469
-0.013539572126
0.00350167608301
-0.015002917726
0.00533300739469
-0.0149585851607
0.00713587623773
-0.0147637209644
0.0089006003063
-0.0144999853802
0.0106188615814
-0.0141761052792
0.012283293951
-0.0137972833844
0.0138875045469
-0.0133689630056
0.0154260953788
-0.0128968982606
0.0168946519004
-0.0123869412701
0.0182896943668
-0.0118449708369
0.0196086282318
-0.0112766743057
0.0208496814121
-0.0106875230121
0.0220117953511
-0.0100826276018
0.0230945384917
-0.00946670782656
0.0240980475848
-0.00884405992855
0.0250228946063
-0.00821851792627
0.0258700349253
-0.00759344726394
0.0266406862015
-0.00697179765291
0.027336292608
-0.00635610750187
0.0279584797665
-0.00574862011341
0.0285089573582
-0.00515125653849
0.0289895160121
-0.0045656482181
0.0294021006046
-0.00399329350755
0.02974873207
-0.00343558337563
0.0300315774639
-0.00289380583793
0.0302529118911
-0.00236915485982
0.0304150944448
-0.00186266160843
0.0305205935771
-0.00137525394063
0.0305720199068
-0.000907763239704
0.0305720489298
-0.000460868743451
0.0305234540531
-3.51071447059e-05
0.0304289999233
0.000369182953529
0.0302914981637
0.000751809781572
0.0301137604757
0.00111272089134
0.0298985278172
0.00145208357619
0.0296484738312
0.00177022591958
0.029366237735
0.002067563609
0.0290544048086
0.00234463000965
0.0287153489213
0.00260215548713
0.0283513457476
0.00284090371619
0.0279645987475
0.00306167642835
0.0275571762916
0.00326537334627
0.0271309234162
0.00345301910093
0.0266875695416
0.00362559606361
0.0262287604161
0.0037840584138
0.025755997682
0.00392942904288
0.0252705502456
0.00406281426483
0.0247735479086
0.00418518698535
0.0242660652758
0.00429752890687
0.0237489231943
0.00440085200039
0.0232228551814
0.00449599934554
0.0226884438103
0.00458378980457
0.0221462038804
0.00466485064203
0.021596561646
0.00473977495034
0.0210399468523
0.00480891586002
0.0204767635904
0.00487260415453
0.0199076986757
0.0049306503483
0.0193329469407
0.00498346551009
0.0187523703717
0.00503128189081
0.0181666123925
0.00507380474609
0.0175762521526
0.00511088743816
0.0169818454159
0.00514223431347
0.0163840106716
0.00516754651427
0.0157833860147
0.00518655462717
0.0151809745578
0.00519866078422
0.0145775952637
0.00520389069797
0.0139740823143
0.00520195545888
0.013371349033
0.0051925542321
0.0127706964218
0.0051752873685
0.0121731009036
0.00515069868452
0.011579540154
0.00511852250864
0.0109911671318
0.00507893816859
0.010409018901
0.0050323032892
0.00983409370214
0.00497896805635
0.00926729149349
0.00491953650952
0.00870943936881
0.00485465193335
0.00816115920461
0.00478496939064
0.00762297592002
0.00471134912447
0.00709541572555
0.00463457356472
0.00657879036094
0.00455560488122
0.00607315377229
0.00447551460912
0.00557856670536
0.00439518858383
0.00509472942641
0.00431575572582
0.0046213801554
0.00423811122539
0.00415782480958
0.00416352084267
0.00370338709254
0.00409304129871
0.00325705658003
0.00402766046056
0.00281790142679
0.00396847594773
0.00238552786148
0.003916814211
0.00196062780502
0.00387443209561
0.00154427790279
0.00384201371894
0.00113503435223
0.00382038865611
0.000734236899297
0.00380322618653
0.000344974662012
0.00377677869033
0.00339685444604
0.00172489437365
-0.0152703926934
0.00363364173998
-0.01691803406
0.00553208013324
-0.016863350667
0.0073987749765
-0.0166367052859
0.00922315591298
-0.0163305825916
0.0109962015069
-0.0159552898041
0.0127100432852