/*--------------------------------*- C++ -*----------------------------------*\
| =========                 |                                                 |
| \\      /  F ield         | OpenFOAM: The Open Source CFD Toolbox           |
|  \\    /   O peration     | Version:  v1906                                 |
|   \\  /    A nd           | Web:      www.OpenFOAM.com                      |
|    \\/     M anipulation  |                                                 |
\*---------------------------------------------------------------------------*/
FoamFile
{
    version     2.0;
    format      ascii;
    class       surfaceScalarField;
    location    "710";
    object      phi;
}
// * * * * * * * * * * * * * * * * * * * * * * * * * * * * * * * * * * * * * //

dimensions      [0 3 -1 0 0 0 0];
oriented        oriented;


internalField   nonuniform List<scalar> 
18240
(
-0.00035216324707
0.000352138108703
-0.00073776696006
0.000385575989214
-0.00112301935892
0.00038522594106
-0.00150331096449
0.00038026336978
-0.0018765585673
0.000373221391889
-0.00224103223718
0.000364444912705
-0.00259520138007
0.000354143208033
-0.0029377227757
0.000342492001249
-0.003267415615
0.000329667206882
-0.00358328499096
0.000315839243531
-0.00388449129194
0.000301181036733
-0.00417037597668
0.000285853736398
-0.00444041714155
0.000270016346571
-0.00469425830675
0.000253809349245
-0.00493165129014
0.00023736872591
-0.00515249190669
0.000220807910694
-0.00535675204213
0.000204236551486
-0.00554452579344
0.000187740164877
-0.00571595199841
0.000171403439734
-0.00587127324865
0.000155286823666
-0.0060107491902
0.000139454121268
-0.00613472970629
0.000123945320632
-0.0062435586918
0.000108808263014
-0.00633766181778
9.40672595549e-05
-0.00641744007371
7.97587478892e-05
-0.00648337192742
6.58954393075e-05
-0.00653589599097
5.25059081136e-05
-0.00657552706582
3.95942537173e-05
-0.00660272744985
2.71836686045e-05
-0.00661803632393
1.52718040626e-05
-0.00662193015471
3.878661778e-06
-0.00661496250635
-7.00479986501e-06
-0.00659761131468
-1.73647686556e-05
-0.00657043433565
-2.72140345927e-05
-0.00653390733286
-3.65389235143e-05
-0.00648858737756
-4.53567380948e-05
-0.00643494055803
-5.36570876404e-05
-0.00637351539868
-6.1461492209e-05
-0.00630476199084
-6.87620064586e-05
-0.00622921397214
-7.55837321581e-05
-0.00614730016579
-8.19207877195e-05
-0.00605953384257
-8.78012535363e-05
-0.0059663182956
-9.32209390016e-05
-0.00586814202239
-9.82102697979e-05
-0.00576537961999
-0.000102766299932
-0.00565849144703
-0.000106921095265
-0.0055478213934
-0.000110672523106
-0.00543379950691
-0.000114053610841
-0.00531673807684
-0.000117062600001
-0.00519703568159
-0.000119732810833
-0.0050749731405
-0.000122062507904
-0.00495091741492
-0.000124084740674
-0.00482511882376
-0.000125797506502
-0.00469791325901
-0.000127233102147
-0.00456952213045
-0.000128389109209
-0.00444025138597
-0.000129296746917
-0.00431029546378
-0.000129953131792
-0.00417993169273
-0.00013038819626
-0.00404932956489
-0.000130598693149
-0.00391873917412
-0.00013061321583
-0.00378830692216
-0.000130428337032
-0.00365825679076
-0.000130071347326
-0.00352871360118
-0.000129538920136
-0.00339987604248
-0.000128857173463
-0.00327184840025
-0.000128023171001
-0.00314480443413
-0.00012706199896
-0.00301882846983
-0.000125971405324
-0.00289406936499
-0.000124775588187
-0.00277059165097
-0.000123473198797
-0.00264851899902
-0.000122087626223
-0.00252789604674
-0.000120618575853
-0.0024088209119
-0.0001190886503
-0.00229131813346
-0.000117498647368
-0.0021754599288
-0.000115870317779
-0.00206125061157
-0.000114205508967
-0.00194873639138
-0.000112524996012
-0.00183790145211
-0.000110831541647
-0.00172876620164
-0.000109144759827
-0.00162129513872
-0.000107468145011
-0.00151548352291
-0.000105819935792
-0.00141127703441
-0.000104204126337
-0.00130864690427
-0.000102637335518
-0.00120752135253
-0.000101123796467
-0.00110784927234
-9.96782271485e-05
-0.00100954339333
-9.83047475514e-05
-0.000912532772451
-9.70157231164e-05
-0.000816717803712
-9.5814416869e-05
-0.000722012346143
-9.47094896186e-05
-0.00062831189138
-9.37004032062e-05
-0.000535529675929
-9.27852188029e-05
-0.000443588184186
-9.19419683188e-05
-0.000352477748045
-9.1112551182e-05
-0.000262350433197
-9.01284888361e-05
-0.000173949209011
-8.84022919967e-05
-9.0310089054e-05
-8.36399007883e-05
-9.03107403891e-05
-0.000389265220305
0.000741376432731
-0.000823859931808
0.000820141883441
-0.00125598191774
0.000817319300716
-0.00168180092288
0.000806053241059
-0.00209938845835
0.000790780280773
-0.00250696581875
0.000771992896391
-0.00290287249094
0.000750021180234
-0.00328561860269
0.000725208427198
-0.00365389602901
0.000697915856894
-0.00400659512492
0.000668508296052
-0.00434279250099
0.00063734955864
-0.00466175747393
0.000604788285516
-0.00496292733918
0.000571157314582
-0.00524591033627
0.00053676154716
-0.00551045285031
0.000501882350087
-0.00575644347778
0.000466767395259
-0.00598387543287
0.000431639708531
-0.00619285515152
0.000396688456062
-0.00638356198306
0.00036208165778
-0.00655626343112
0.00032795664192
-0.00671127301809
0.000294435400421
-0.0068489730562
0.000261613631092
-0.0069697706542
0.00022957797781
-0.00707412803808
0.000198392937644
-0.00716251615343
0.000168119543712
-0.00723545206095
0.000138799796496
-0.00729344942027
0.000110476637348
-0.00733706227294
8.31758507095e-05
-0.00736683174935
5.69273416004e-05
-0.00738333539527
3.17446333034e-05
-0.00738712897728
7.64738226209e-06
-0.0073788031933
-1.5360819779e-05
-0.00735892336496
-3.72683953144e-05
-0.0073280863135
-5.80806007902e-05
-0.00728685425394
-7.77936271313e-05
-0.0072358190599
-9.64205974467e-05
-0.00717553306588
-0.00011396448126
-0.00710657660423
-0.000130445650329
-0.00702948539667
-0.000145873311739
-0.00694482149859
-0.000160274253876
-0.00685309794012
-0.000173663087585
-0.00675485265695
-0.000186071995836
-0.00665057097231
-0.000197519987216
-0.00654076200351
-0.000208043459408
-0.0064258795703
-0.000217664701133
-0.00630640052392
-0.000226423064151
-0.00618274468005
-0.000234342952576
-0.00605535446796
-0.00024146540562
-0.00592461446032
-0.000247815827389
-0.00579093171951
-0.000253435766948
-0.00565465549313
-0.000258350632073
-0.00551615760905
-0.000262601462856
-0.00537575286269
-0.000266212874952
-0.00523377881714
-0.000269224611901
-0.00509051739607
-0.000271659945693
-0.0049462734476
-0.00027355680501
-0.0048012980065
-0.000274936851502
-0.00465586501506
-0.000275835973506
-0.00451019670637
-0.000276274230901
-0.00436453791098
-0.000276285517189
-0.00421908396606
-0.000275888547359
-0.0040740521029
-0.000275115489188
-0.00392961228078
-0.000273984141009
-0.00378595521498
-0.00027252535253
-0.00364322649046
-0.00027075652035
-0.00350159087554
-0.000268707628284
-0.00336117006179
-0.000266396167245
-0.00322210298212
-0.00026385165468
-0.00308448747128
-0.000261092071581
-0.00294843638719
-0.000258146741975
-0.00281402346256
-0.000255034366138
-0.00268133508792
-0.000251784175515
-0.00255042055815
-0.000248415629847
-0.00242133943321
-0.000244957786573
-0.0022941163459
-0.00024143071804
-0.00216878389268
-0.000237863062802
-0.00204534209916
-0.000234275205496
-0.0019237968271
-0.000230694993547
-0.00180412396009
-0.000227142710266
-0.00168630333025
-0.000223644955801
-0.00157028763293
-0.000220221427674
-0.00145603189495
-0.000216896968032
-0.00134346711275
-0.000213690150631
-0.00123252530105
-0.000210623489176
-0.00112311782174
-0.000207713790324
-0.0010151560801
-0.000204980471546
-0.000908534486155
-0.000202437529326
-0.000803146778344
-0.000200099724666
-0.000698872982782
-0.000197975608243
-0.000595589505227
-0.00019607069649
-0.00049315292593
-0.000194380049925
-0.000391380003455
-0.000192887282052
-0.000289953516327
-0.000191556124927
-0.000188046952496
-0.000190309878416
-8.33875530701e-05
-0.000188300232059
-0.000173698574579
-0.000396223419625
0.00113757280565
-0.000836461890419
0.00126035151569
-0.00127484038077
0.0012556689361
-0.00170684425391
0.00123802806244
-0.00213034311047
0.0012142501661
-0.00254346863646
0.00118508920499
-0.00294451647808
0.00115103990227
-0.00333196849767
0.00111263100021
-0.00370450405515
0.00107042210422
-0.00406100845803
0.00102498298576
-0.00440056689435
0.000976878483225
-0.00472246072382
0.00092665212736
-0.00502615054805
0.000874817436757
-0.00531126653588
0.000821847293268
-0.00557758592031
0.000768171887137
-0.00582502223031
0.000714173256756
-0.00605360116241
0.000660188710657
-0.00626345211656
0.000606508827952
-0.00645478486429
0.000553384487197
-0.00662788522715
0.000501026383403
-0.00678309352282
0.00044961389259
-0.0069208049385
0.000399294500152
-0.00704144972641
0.000350193205707
-0.00714549798302
0.000302410848677
-0.00723344097467
0.000256033344807
-0.00730579962443
0.000211128438493
-0.00736310619038
0.000167754526043
-0.00740591567225
0.000125955801437
-0.00743478711713
8.57707520658e-05
-0.00745029728006
4.72258825929e-05
-0.00745302118997
1.03440417039e-05
-0.00744354758807
-2.48625825868e-05
-0.00742245841166
-5.83839189636e-05
-0.00739034569849
-9.02205913677e-05
-0.00734778986206
-0.000120374784846
-0.00729537794887
-0.000148858790577
-0.00723368094594
-0.00017568568875
-0.00716327332684
-0.000200878448229
-0.00708470953184
-0.000224460101458
-0.00699854465495
-0.000246463123439
-0.00690531029239
-0.000266919176834
-0.00680553628807
-0.00028586873437
-0.006699726187
-0.000303350487521
-0.00658837991326
-0.000319411157173
-0.0064719690091
-0.000334094653587
-0.00635096009788
-0.000347452050502
-0.00622579011147
-0.000359530611367
-0.0060968903485
-0.000370383876776
-0.00596466183041
-0.000380060651736
-0.00582949975274
-0.000388615179875
-0.005691769129
-0.000396096203252
-0.00555182940098
-0.000402557166617
-0.00541001046702
-0.000408045436927
-0.00526663721722
-0.000412612501708
-0.00512200606353
-0.000416303443581
-0.00497640914785
-0.00041916706593
-0.00483011143642
-0.000421245687162
-0.00468337436757
-0.000422585141787
-0.00453643360308
-0.000423224958041
-0.00438952188727
-0.000423208149587
-0.0042428475111
-0.000422571806101
-0.0040966161977
-0.000421356603963
-0.00395101037855
-0.000419597836411
-0.00380620994777
-0.000417334546735
-0.0036623724292
-0.000414600999451
-0.00351965249875
-0.000411435362039
-0.00337818316557
-0.000407871625475
-0.00323809399292
-0.000403947753122
-0.00309949339478
-0.000399698050016
-0.0029624855333
-0.000395160731377
-0.00282715385777
-0.000390370756277
-0.00269357667181
-0.000385366772755
-0.0025618120054
-0.000380184430904
-0.00243191186975
-0.00037486269469
-0.00230390855604
-0.000369437662984
-0.00217782759176
-0.000363948240688
-0.00205367551573
-0.000358430492284
-0.00193145155725
-0.000352922685588
-0.00181113693036
-0.000347460205344
-0.00169270524438
-0.000342079976727
-0.00157611332238
-0.000336815956303
-0.00146131035313
-0.000331702948031
-0.00134823023197
-0.000326772680295
-0.00123679944807
-0.000322057009231
-0.00112693090741
-0.000317584566473
-0.00101853051238
-0.000313383323201
-0.000911492320488
-0.000309477750937
-0.000805703496463
-0.000305890674273
-0.000701039997004
-0.000302640894629
-0.000597368069079
-0.000299744455319
-0.000494536106239
-0.000297213552556
-0.000392364395102
-0.000295060702613
-0.000290617781073
-0.000293304419324
-0.000188991872968
-0.00029193655497
-8.76456177984e-05
-0.000289647052316
-0.000261344701951
-0.000402427957693
0.00153997369904
-0.00084878438274
0.00170667922
-0.00129326524547
0.00170012087425
-0.00173112831893
0.00167586214004
-0.00216010791668
0.00164320071001
-0.00257824455134
0.00160319667464
-0.00298377711837
0.0015565432328
-0.00337515441132
0.001503978905
-0.00375104410953
0.00144628233418
-0.00411033578003
0.00138424500946
-0.00445213453802
0.00131864751984
-0.00477575123906
0.0012502389166
-0.00508068583127
0.00117972206807
-0.0053666109353
0.00110774224373
-0.00563335085858
0.00103488164725
-0.0058808639739
0.000961656027563
-0.00610922187516
0.000888516316117
-0.00631859411458
0.000815850608929
-0.00650923001699
0.000743990048394
-0.00668144744173
0.000673213334557
-0.00683561809306
0.000603754271075
-0.00697216054491
0.000535806580836
-0.00709152875724
0.000469531335338
-0.00719420875862
0.000405060711319
-0.00728070952827
0.000342504361557
-0.00735156239887
0.000281951542008
-0.0074073133317
0.000223476172618
-0.0074485241165
0.000167137332245
-0.00747576523016
0.000112983191532
-0.00748961814804
6.1050201563e-05
-0.00749066831494
1.13662807939e-05
-0.00747950785769
-3.60508467693e-05
-0.00745672836319
-8.11904568596e-05
-0.00742292431325
-0.000124051526189
-0.00737868552728
-0.000164639615214
-0.00732460092073
-0.000202969246866
-0.00726125063912
-0.000239060906843
-0.00718921030844
-0.000272943493318
-0.00710904306694
-0.000304651087059
-0.00702130428818
-0.000334225398489
-0.00692653362307
-0.000361712316967
-0.0068252602243
-0.000387164343855
-0.0067179949041
-0.000410636963059
-0.00660523585898
-0.00043219107886
-0.00648746102937
-0.000451889277161
-0.00636513429885
-0.000469798290573
-0.0062386981109
-0.000485985215629
-0.00610858008259
-0.000500520033231
-0.00597518591094
-0.000513471854408
-0.00583890632244
-0.000524911515381
-0.00570011027613
-0.000534907910981
-0.00555915214275
-0.000543530683002
-0.00541636519281
-0.000550846701944
-0.00527206888807
-0.000556922855404
-0.00512656262426
-0.000561822719694
-0.00498013300063
-0.000565609448972
-0.00483304777605
-0.000568342670851
-0.00468556298659
-0.000570081455896
-0.00453791707161
-0.000570881444934
-0.00439033771344
-0.000570797863797
-0.00424303609965
-0.000569882874201
-0.0040962133871
-0.000568188576893
-0.00395005508761
-0.000565764553662
-0.003804737086
-0.000562660793085
-0.00366042016282
-0.000558925385133
-0.00351725553812
-0.00055460729838
-0.00337537957406
-0.000549754183857
-0.00323491884668
-0.000544414943941
-0.00309598509121
-0.000538637615626
-0.00295867983467
-0.000532471686729
-0.00282308966016
-0.000525966041982
-0.00268929044385
-0.000519171006208
-0.00255734301097
-0.000512136357282
-0.00242729702678
-0.000504913095219
-0.00229918710856
-0.000497551538623
-0.00217303641014
-0.000490102835557
-0.00204885323383
-0.000482617170058
-0.00192663433888
-0.000475145037911
-0.00180636208084
-0.000467735590273
-0.0016880074581
-0.00046043769947
-0.00157152778313
-0.000453298463056
-0.00145686946915
-0.000446364079994
-0.00134396622078
-0.000439678530185
-0.00123274154121
-0.000433284273314
-0.00112310739427
-0.000427221108578
-0.00101496635823
-0.000421526703829
-0.000908210613791
-0.000416235648113
-0.000802723482761
-0.00041137986944
-0.000698378215162
-0.000406988025513
-0.000595038098583
-0.000403086306751
-0.000492554147237
-0.000399699321875
-0.000390763353166
-0.000396853274876
-0.00028949108433
-0.000394577853754
-0.00018860768745
-0.000392821035977
-8.86004460385e-05
-0.000389655212577
-0.000349945382446
-0.000410427676675
0.00195037432791
-0.000865274365856
0.00216149710738
-0.00131802054707
0.00215283816577
-0.00176373180377
0.00212154439074
-0.00220000769473
0.00207944754211
-0.00262478317098
0.00202794297433
-0.00303622429477
0.001967955089
-0.00343273768479
0.0019004628773
-0.00381297712964
0.00182649225123
-0.00417584223123
0.00174708041209
-0.00452046846573
0.00166324394532
-0.00484621196145
0.00157595242616
-0.00515262913872
0.00148610916319
-0.00543945497868
0.00139453783521
-0.00570657936831
0.00130197572242
-0.00595402512503
0.00120907132821
-0.0061819261109
0.00111638682116
-0.00639050878448
0.00102440269959
-0.00658007460427
0.000933525315063
-0.00675098652373
0.000844094648276
-0.00690365618463
0.000756393417487
-0.00703853515729
0.000670655046714
-0.00715610622681
0.000587072059879
-0.0072568783531
0.000505802565192
-0.00734138084638
0.000426976816381
-0.00741016078553
0.000350701586149
-0.00746377886842
0.00027706467094
-0.00750280817436
0.000206137266675
-0.00752783073709
0.000137976766262
-0.00753943688282
7.26276442924e-05
-0.00753822199727
1.01231496294e-05
-0.00752478575269
-4.95149842323e-05
-0.0074997289985
-0.00010627457869
-0.00746365312841
-0.000160154347228
-0.00741715665262
-0.000211162455138
-0.00736083473436
-0.000259317059272
-0.00729527564301
-0.000304645254735
-0.0072210604707
-0.000347183403069
-0.00713875969381
-0.000386975918066
-0.00704893315226
-0.000424075437477
-0.00695212681955
-0.000458541430209
-0.00684887312264
-0.000490440232119
-0.00673968800971
-0.000519843522732
-0.0066250716548
-0.000546828270957
-0.006505505867
-0.00057147514216
-0.0063814551922
-0.000593868417632
-0.00625336468751
-0.000614094402966
-0.0061216613995
-0.000632241375285
-0.00598675248753
-0.00064839805285
-0.0058490270348
-0.000662653626589
-0.00570885449293
-0.000675096351006
-0.00556658675614
-0.000685813701301
-0.00542255686554
-0.000694891131411
-0.0052770812611
-0.000702412396835
-0.00513045867686
-0.000708458520278
-0.00498297246661
-0.000713108297903
-0.00483488959862
-0.000716437487709
-0.00468646294842
-0.000718519503854
-0.00453793031149
-0.000719424823695
-0.00438951656085
-0.000719221839449
-0.00424143259793
-0.000717976446741
-0.00409387729865
-0.000715753004146
-0.00394703636027
-0.000712614046454
-0.00380108398971
-0.000708621276899
-0.00365618162973
-0.000703835330645
-0.0035124793863
-0.000698316725664
-0.0033701146638
-0.000692125607611
-0.00322921336065
-0.00068532258884
-0.00308988846371
-0.00067796841829
-0.00295224107042
-0.000670124665798
-0.00281635901751
-0.000661853289245
-0.00268231779507
-0.000653217143555
-0.00255017927891
-0.000644279441902
-0.00241999260171
-0.000635104099289
-0.00229179305497
-0.00062575510937
-0.00216560296561
-0.000616296746164
-0.00204143080922
-0.000606792889278
-0.00191927212508
-0.000597307119501
-0.00179910886821
-0.000587902030453
-0.00168091037355
-0.000578639250071
-0.00156463294933
-0.000569578772131
-0.00145022088633
-0.00056077893263
-0.00133760627896
-0.000552295788934
-0.00122671005189
-0.000544183071585
-0.00111744196664
-0.000536491635062
-0.00100970160111
-0.000529269413696
-0.000903378453791
-0.000522560992657
-0.000798352726131
-0.000516407655803
-0.000694495396693
-0.000510847284133
-0.000591668730233
-0.000505914827156
-0.000489726546538
-0.000501643123086
-0.000388516818906
-0.00049806475859
-0.000287889360665
-0.000495207172484
-0.000187743811522
-0.000492967361836
-8.85459599902e-05
-0.000488853597274
-0.000438491906387
-0.000420599523626
0.00237094680734
-0.000886474019603
0.00262734295649
-0.00134990058836
0.00261623581496
-0.00180570389269
0.0025773187267
-0.00225132034995
0.00252503491686
-0.00268455696483
0.00246115041498
-0.00310349110322
0.0023868599148
-0.00350648000476
0.00230342233863
-0.00389216497591
0.00221214761775
-0.00425946493467
0.00211435062282
-0.00460756088547
0.00201130997294
-0.00493587382408
0.00190423530056
-0.00524403843652
0.00179424354426
-0.00553187500278
0.00168234404603
-0.00579936122074
0.00156943144164
-0.00604660559954
0.00145628511609
-0.00627382315424
0.00134357368215
-0.0064813142699
0.00123186307252
-0.00666944661643
0.0011216268686
-0.00683864048812
0.00101325773252
-0.00698935688285
0.000907079039374
-0.00712208851199
0.000803355969797
-0.00723735273455
0.000702305662443
-0.007335686658
0.000604106003455
-0.0074176432361
0.000508903073743
-0.00748378879526
0.000416817028921
-0.00753470074637
0.00032794674916
-0.00757096618425
0.000242373107398
-0.00759318009923
0.000160161408183
-0.00760194418945
8.13628065649e-05
-0.0075978650975
6.01553104525e-06
-0.0075815526967
-6.58554973985e-05
-0.00755361826795
-0.000134236642098
-0.00751467285994
-0.000199126916099
-0.00746532488882
-0.000260537045423
-0.00740617851375
-0.000318489526323
-0.00733783117872
-0.000373018082071
-0.00726087208253
-0.00042416742017
-0.00717587983406
-0.000471992440622
-0.0070834211625
-0.00051655777419
-0.00698404882225
-0.000557936749054
-0.00687830064845
-0.000596210748114
-0.00676669780007
-0.000631467998624
-0.00664974421888
-0.000663802822884
-0.00652792525905
-0.000693314337583
-0.00640170756817
-0.000720105676788
-0.00627153811166
-0.000744282683368
-0.00613784445968
-0.00076595318
-0.00600103418801
-0.000785225730714
-0.00586149552991
-0.00080220902488
-0.00571959710771
-0.000817010774914
-0.00557568888344
-0.00082973727232
-0.00543010215501
-0.000840492482419
-0.00528315071857
-0.000849377819739
-0.00513513103998
-0.00085649148438
-0.0049863235218
-0.000861928489225
-0.00483699274664
-0.000865780263511
-0.00468738873456
-0.000868134934248
-0.00453774715148
-0.000869077188337
-0.00438829044639
-0.000868688777355
-0.0042392279344
-0.00086704859426
-0.0040907567295
-0.000864233333732
-0.00394306164247
-0.00086031770535
-0.00379631586298
-0.000855375156992
-0.00365068065673
-0.000849478130741
-0.0035063057985
-0.000842698747984
-0.00336332909692
-0.000835109014847
-0.0032218766209
-0.000826781381916
-0.00308206211626
-0.000817788829293
-0.00294398709809
-0.000808205242799
-0.00280774024188
-0.000798105341374
-0.00267339742382
-0.000787564849735
-0.00254102116921
-0.000776660267958
-0.0024106607171
-0.000765468854286
-0.00228235159431
-0.000754068264155
-0.00215611576149
-0.000742536381093
-0.00203196135783
-0.000730950869058
-0.00190988296377
-0.000719388898741
-0.00178986153801
-0.000707926660028
-0.00167186480899
-0.000696639030689
-0.00155584740307
-0.000685599090237
-0.00144175135868
-0.000674877771121
-0.00132950642601
-0.000664543407252
-0.0012190306803
-0.000654661401503
-0.00111023095709
-0.000645293839591
-0.0010030035231
-0.000636499213221
-0.000897234603963
-0.00062833215027
-0.000792801087692
-0.000620843279067
-0.000689571142615
-0.000614079178498
-0.000587405144373
-0.00060808261876
-0.000486157230905
-0.000602892991182
-0.000385677711255
-0.000598546159467
-0.000285819590095
-0.000595066479139
-0.000186476661691
-0.000592311499585
-8.80700291573e-05
-0.000587261275032
-0.000526562195346
-0.000433207229673
0.0028041270395
-0.000912814918622
0.00310692187683
-0.00138951567556
0.0030929077363
-0.00185781880791
0.00304559287846
-0.00231495334715
0.00298214040314
-0.00275856893429
0.00290473680953
-0.00318663717618
0.00281489883882
-0.00359746115112
0.00271421682191
-0.00398967560101
0.00260433242394
-0.00436223384405
0.00248687902593
-0.00471438387186
0.00236343000328
-0.00504563744477
0.00223545867599
-0.0053557350893
0.00210431084529
-0.00564461033456
0.00197118876299
-0.00591235497221
0.00183714543273
-0.006159187471
0.00170308681563
-0.00638542498837
0.00156978032291
-0.00659146000329
0.00143786710568
-0.00677774103027
0.00130787688985
-0.00694475775926
0.00118024341038
-0.00709302957592
0.00105531984288
-0.00722309752386
0.0009333929293
-0.00733551851169
0.000814695769409
-0.00743086178391
0.000699418496106
-0.00750970650574
0.000587717196425
-0.00757264056237
0.000479720668909
-0.0076202595821
0.000375535608036
-0.00765316642099
0.000275250049255
-0.00767197032426
0.000178935744016
-0.00767728612506
8.6649385527e-05
-0.00766973319717
-1.56621592532e-06
-0.00764993375563
-8.56833323039e-05
-0.00761851110305
-0.000165687216571
-0.00757608815624
-0.000241577288173
-0.00752328506374
-0.000313367032537
-0.00746071720315
-0.000381083723381
-0.00738899295867
-0.000444768082115
-0.00730871171121
-0.000504473811297
-0.00722046175936
-0.000560266912329
-0.00712481852526
-0.000612224872851
-0.00702234278517
-0.000660435696997
-0.00691357922297
-0.000704996828313
-0.00679905506944
-0.000746013988425
-0.00667927907436
-0.000783599940612
-0.00655474059533
-0.00081787324249
-0.00642590901069
-0.000848956958476
-0.0062932332601
-0.00087697742667
-0.00615714168442
-0.000902063014493
-0.0060180419867
-0.00092434298458
-0.0058763214588
-0.000943946377585
-0.00573234731058
-0.000961001053613
-0.00558646721843
-0.000975632775247
-0.0054390099426
-0.000987964491141
-0.00529028610829
-0.000998115685494
-0.00514058900901
-0.00100620195936
-0.00499019550634
-0.00101233469226
-0.00483936689418
-0.00101662094926
-0.00468834979002
-0.00101916346825
-0.00453737693222
-0.00102006088251
-0.00438666794012
-0.00101940800006
-0.00423642992933
-0.00101729628052
-0.00408685804654
-0.00101381432793
-0.00393813582929
-0.0010090485197
-0.00379043546792
-0.00100308359732
-0.00364391788649
-0.000996003320252
-0.00349873274148
-0.000987891030261
-0.00335501825861
-0.000978830207838
-0.00321290102743
-0.000968904901271
-0.00307249566966
-0.000958200092129
-0.00293390452282
-0.000946801920862
-0.00279721723982
-0.00093479781523
-0.0026625104633
-0.000922276491009
-0.00252984745275
-0.000909327844988
-0.00239927783939
-0.000896042754198
-0.00227083735984
-0.000882512772955
-0.00214454775474
-0.000868829781149
-0.00202041665787
-0.000855085544459
-0.00189843767239
-0.000841371272929
-0.00177859043809
-0.00082777710712
-0.00166084089198
-0.000814391643317
-0.00154514151101
-0.000801301400304
-0.00143143174466
-0.000788590357817
-0.00131963841442
-0.000776339448314
-0.00120967629205
-0.000764626144892
-0.00110144862949
-0.000753524016203
-0.00099484785382
-0.000743102400301
-0.000889756219249
-0.000733426067385
-0.000786046610671
-0.000724555026052
-0.000683583438891
-0.000716544381766
-0.000582223751784
-0.000709444278944
-0.000481818587599
-0.000703299851965
-0.000382215678153
-0.00069815092882
-0.00028326352111
-0.000694020697295
-0.00018484197839
-0.000690733907876
-8.7339541228e-05
-0.000684764332016
-0.000613902403375
-0.000448529297234
0.0032526293696
-0.000944833214073
0.00360319728716
-0.001437638217
0.00358568389452
-0.00192105015059
0.00352897591686
-0.00239203668168
0.00345309788624
-0.00284805507324
0.00336072604007
-0.00328695391991
0.00325376834623
-0.00370698085513
0.00313421425971
-0.00410677657018
0.00300409843082
-0.00448535177347
0.00286542434378
-0.00484205178603
0.00272009990535
-0.00517651330857
0.00256988991293
-0.00548861815661
0.00241638518948
-0.00577844727556
0.00226098722288
-0.0060462381209
0.00210490542637
-0.0062923467789
0.00194916450264
-0.00651721612072
0.00179461854414
-0.00672134983342
0.00164196962744
-0.0069052924513
0.00149178822422
-0.00706961444148
0.00134453410702
-0.00721490195603
0.00120057604049
-0.00734175009034
0.0010602098049
-0.00745075915021
0.000923673624565
-0.00754253285559
0.000791161129431
-0.00761767804998
0.00066283145634
-0.00767680506716
0.000538816961187
-0.00772052846991
0.000419228508935
-0.00774946761378
0.000304158978553
-0.00776424692917
0.00019368515355
-0.00776549568264
8.78685968919e-05
-0.00775384701311
-1.32440342843e-05
-0.0077299372508
-0.000109621803733
-0.00769440389416
-0.000201248808467
-0.00764788370081
-0.000288125212718
-0.0075910105703
-0.000370267352128
-0.00752441329094
-0.000447707631285
-0.00744871318557
-0.000520494213833
-0.00736452190023
-0.000588690515058
-0.00727243918474
-0.000652374394265
-0.00717305095455
-0.000711637222724
-0.00706692740154
-0.00076658267743
-0.00695462147667
-0.000817325504881
-0.00683666744085
-0.000863990054269
-0.00671357983887
-0.000906708876661
-0.00658585253481
-0.000945621138923
-0.00645395819164
-0.000980871187278
-0.00631834778771
-0.00101260696471
-0.00617945057895
-0.00104097864783
-0.00603767406441
-0.00106613717088
-0.00589340438321
-0.00108823302665
-0.00574700667326
-0.0011074149864
-0.0055988258315
-0.00112382914858
-0.00544918718503
-0.00113761793941
-0.00529839751472
-0.00114891948627
-0.00514674592601
-0.00115786697206
-0.00499450500474
-0.00116458839201
-0.00484193174895
-0.00116920630681
-0.0046892687047
-0.0011718380006
-0.00453674480869
-0.00117259562636
-0.00438457635461
-0.00117158672469
-0.00423296761397
-0.00116891469288
-0.00408211151599
-0.00116467956088
-0.00393218995986
-0.00115897865809
-0.00378337414898
-0.00115190749674
-0.00363582457455
-0.0011435604793
-0.0034896910156
-0.00113403172496
-0.00334511224162
-0.0011234156644
-0.00320221575277
-0.00111180766893
-0.00306111730207
-0.00109930441934
-0.00292192049058
-0.00108600424986
-0.00278471623341
-0.00107200723805
-0.0026495823336
-0.0010574152411
-0.00251658301034
-0.00104233171576
-0.00238576855774
-0.00102686148162
-0.00225717502428
-0.00101111032632
-0.00213082402871
-0.000995184565707
-0.00200672264224
-0.000979190511489
-0.00188486339697
-0.000963233909208
-0.0017652243872
-0.000947419344683
-0.00164776947573
-0.000931849633489
-0.00153244860387
-0.000916625229372
-0.00141919818105
-0.000901843623881
-0.00130794157701
-0.000887598803865
-0.00119858967056
-0.000873980705726
-0.00109104149606
-0.000861074757148
-0.000985184930148
-0.000848961421528
-0.000880897485258
-0.000837715853465
-0.00077804716285
-0.000827407566759
-0.000676493420472
-0.000818100190486
-0.000576088306896
-0.000809851300331
-0.000476678065333
-0.000802712218191
-0.000378104399174
-0.000796726623754
-0.000280207638831
-0.00079191870704
-0.000182856172201
-0.000788086770067
-8.64145018441e-05
-0.000781207256156
-0.000700317232418
-0.000466904390234
0.00371950690895
-0.000983211508186
0.00411947576123
-0.00149525733441
0.00409770104624
-0.00199664107151
0.00403033078809
-0.0024840044034
0.00394043226159
-0.00295457274674
0.00383126524682
-0.00340605541451
0.00370522171688
-0.00383664944855
0.00356477877687
-0.00424502331282
0.00341244258363
-0.00463027960332
0.00325065067556
-0.00499190303831
0.00308169317876
-0.0053297008916
0.00290765735223
-0.00564374144006
0.00273039513342
-0.00593429546506
0.00255151040772
-0.00620178353941
0.00237236250041
-0.00644673136093
0.00219408112415
-0.00666973331945
0.00201758918787
-0.00687142460779
0.00184362945387
-0.0070524606523
0.0016727927503
-0.00721350332282
0.00150554517809
-0.00735521227306
0.0013422534027
-0.00747824073382
0.00118320667355
-0.00758323419468
0.0010286355802
-0.00767083143132
0.000878726941114
-0.00774166657112
0.000733635337676
-0.00779637186389
0.000593491164795
-0.00783558019186
0.000458405995883
-0.00785992724738
0.000328475451922
-0.0078700528068
0.000203780459303
-0.00786660127206
8.43871571543e-05
-0.00785022097117
-2.96538312435e-05
-0.0078215639529
-0.000138307880362
-0.00778128360012
-0.000241557736915
-0.00773003274046
-0.00033940413401
-0.00766846128951
-0.000431866319453
-0.0075972137395
-0.000518982116901
-0.0075169266114
-0.000600807678881
-0.00742822594865
-0.000677416876863