/*--------------------------------*- C++ -*----------------------------------*\
| =========                 |                                                 |
| \\      /  F ield         | OpenFOAM: The Open Source CFD Toolbox           |
|  \\    /   O peration     | Version:  v1906                                 |
|   \\  /    A nd           | Web:      www.OpenFOAM.com                      |
|    \\/     M anipulation  |                                                 |
\*---------------------------------------------------------------------------*/
FoamFile
{
    version     2.0;
    format      ascii;
    class       surfaceScalarField;
    location    "994";
    object      phi;
}
// * * * * * * * * * * * * * * * * * * * * * * * * * * * * * * * * * * * * * //

dimensions      [0 3 -1 0 0 0 0];
oriented        oriented;


internalField   nonuniform List<scalar> 
18240
(
-0.000352218595557
0.000352214439385
-0.000737874318974
0.000385655585126
-0.00112318456526
0.000385304123422
-0.00150352589913
0.000380342196965
-0.00187683184559
0.000373298146384
-0.00224135263263
0.000364522495325
-0.00259558005042
0.000354217987011
-0.00293814549733
0.000342567772959
-0.00326789607001
0.000329739478992
-0.0035838060351
0.000315912676978
-0.00388506913411
0.000301250297776
-0.00417099059527
0.000285924353954
-0.00444108723896
0.000270082160864
-0.00469496107265
0.000253876726206
-0.00493240790594
0.00023743069678
-0.00515327684493
0.000220871676088
-0.00535758889982
0.000204294355978
-0.0055453864523
0.000187799999916
-0.0057168624249
0.000171456790249
-0.00587220283633
0.000155342461128
-0.00601172617119
0.00013950280421
-0.00613572114988
0.000123996543387
-0.00624459501314
0.00010885209624
-0.00633870789642
9.41139004382e-05
-0.00641852836391
7.97976236741e-05
-0.0064844653195
6.59373801175e-05
-0.00653702886129
5.25397473116e-05
-0.00657666047979
3.9631425549e-05
-0.00660389752784
2.72124673779e-05
-0.00661920253998
1.53041889749e-05
-0.00662313023406
3.90245003351e-06
-0.00661615451416
-6.97717256507e-06
-0.00659883434115
-1.7345926928e-05
-0.0065716452679
-2.7191150969e-05
-0.00653514645527
-3.65249701254e-05
-0.00648981061142
-4.533853392e-05
-0.00643618915032
-5.36478900735e-05
-0.0063747445733
-6.14478645316e-05
-0.00630601376515
-6.87574229398e-05
-0.00623044308117
-7.55745489283e-05
-0.00614854914724
-8.19206262494e-05
-0.00606075720919
-8.77963613812e-05
-0.00596755890197
-9.32250140138e-05
-0.00586935436261
-9.82094998121e-05
-0.00576660661089
-0.000102774388976
-0.00565968782226
-0.000106924267912
-0.00554902992846
-0.000110684419516
-0.00543497536833
-0.000114060539544
-0.00531792365065
-0.000117078069349
-0.0051981868106
-0.000119743304864
-0.00507613162691
-0.000122081336492
-0.00495203995571
-0.000124098607212
-0.00482624640511
-0.000125819459093
-0.00469900365477
-0.000127250147799
-0.0045706153332
-0.000128413973148
-0.00444130640461
-0.000129316778785
-0.0043113510887
-0.00012998067726
-0.00418094836502
-0.000130411022555
-0.0040503447184
-0.000130628712624
-0.00391971481718
-0.000130638646307
-0.00378927895358
-0.000130460609032
-0.00365918895414
-0.00013009919335
-0.00352964013426
-0.000129573243864
-0.00340076253371
-0.00012888724828
-0.00327272728245
-0.000128059334597
-0.00314564327679
-0.000127094117867
-0.00301965780558
-0.000126009216013
-0.00289485882624
-0.000124809569457
-0.00277136976148
-0.000123512456867
-0.00264925755512
-0.000122123292362
-0.00252862149583
-0.000120659101057
-0.00240950726433
-0.000119125830731
-0.00229198967994
-0.00011754026
-0.0021760929543
-0.000115908852661
-0.00206186719918
-0.000114248054088
-0.00194931511457
-0.000112564742938
-0.00183846212017
-0.000110874880421
-0.00172928969409
-0.000109185604724
-0.0016217989393
-0.000107512183645
-0.00151595079256
-0.000105861814834
-0.00141172285542
-0.000104248836129
-0.00130905668236
-0.000102680283545
-0.00120790767328
-0.000101169299674
-0.00110819967026
-9.97225064929e-05
-0.0010098677489
-9.83515358548e-05
-0.000912820401812
-9.70622331897e-05
-0.000816975190989
-9.58641449782e-05
-0.000722229126264
-9.47613659128e-05
-0.000628488088666
-9.37592933934e-05
-0.000535648154302
-9.28555058682e-05
-0.000443626180155
-9.20392765449e-05
-0.000352371313572
-9.12703103839e-05
-0.000261951429848
-9.043544509e-05
-0.000172834351796
-8.91319446541e-05
-8.71876615956e-05
-8.56630663952e-05
-8.71962010319e-05
-0.000389322190277
0.000741533242453
-0.000823972518287
0.00082030407618
-0.00125615239606
0.000817479925943
-0.00168202566159
0.00080621332813
-0.00209967058462
0.00079093836754
-0.00250730039159
0.000772150018206
-0.00290326340558
0.000750175551213
-0.00328605961864
0.000725361431489
-0.00365439187413
0.000698065382482
-0.00400713829152
0.000668656104517
-0.00434338856747
0.000637493215124
-0.00466239770199
0.000604929925759
-0.00496361816971
0.000571294186533
-0.00524664184687
0.000536896160147
-0.00551123234833
0.000502011642497
-0.005757259909
0.000466894235811
-0.00598473697207
0.000431760734815
-0.00619374967403
0.000396806890141
-0.00638449852128
0.000362193847889
-0.00655722885347
0.000328066144094
-0.0067122771988
0.000294538287092
-0.00685000193065
0.000261713782157
-0.00697083491231
0.000229671206153
-0.00707521275679
0.00019848342297
-0.00716363280603
0.00016820285784
-0.0072365849523
0.000138880404683
-0.00729461076604
0.000110549890923
-0.00733823569068
8.32464721704e-05
-0.00736803014989
5.69904848161e-05
-0.00738454180577
3.18052605592e-05
-0.00738835694746
7.70047473605e-06
-0.00738003524541
-1.53101076898e-05
-0.00736017361997
-3.72252590649e-05
-0.00732933688208
-5.80397148152e-05
-0.00728811975032
-7.7760307519e-05
-0.00723708127841
-9.63893674728e-05
-0.00717680704431
-0.000113940752788
-0.0071078439265
-0.000130423825682
-0.00703076144647
-0.000145858875046
-0.00694608774154
-0.000160261526353
-0.00685437002076
-0.000173657599421
-0.00675611202218
-0.000186068014566
-0.00665183344136
-0.000197523063074
-0.00654200909004
-0.000208047844179
-0.00642712717728
-0.000217675937602
-0.00630763032507
-0.000226435414377
-0.00618397257372
-0.000234361925556
-0.00605656236635
-0.000241485309089
-0.00592581816603
-0.000247842109239
-0.00579211346937
-0.000253462804631
-0.00565583090861
-0.000258383787009
-0.00551730932213
-0.000262635214423
-0.00537689622701
-0.000266252472188
-0.00523489693773
-0.000269264657737
-0.00509162528027
-0.000271705553461
-0.00494735473531
-0.000273602729644
-0.0048023672803
-0.000274988047096
-0.00465690651832
-0.000275887365777
-0.00451122452877
-0.000276330594216
-0.00436553695209
-0.000276341972255
-0.00422006775571
-0.000275949668421
-0.00407500625583
-0.000275176607584
-0.00393054971197
-0.000274049613904
-0.00378686229775
-0.000272590741655
-0.00364411547196
-0.000270825949274
-0.00350244893634
-0.000268776901661
-0.00336200874049
-0.00026646916233
-0.00322291029956
-0.000263924434558
-0.00308527421788
-0.000261168255258
-0.00294919145978
-0.000258222660767
-0.00281475687365
-0.000255113372911
-0.00268203662847
-0.000251862881687
-0.00255109943001
-0.00024849711539
-0.00242198633767
-0.000245038951111
-0.00229473964575
-0.000241514366291
-0.00216937519557
-0.000237946392754
-0.00204590889189
-0.000234360746499
-0.00192433161409
-0.00023078025234
-0.00180463331316
-0.000227229948033
-0.00168678061858
-0.000223732005324
-0.00157073845752
-0.000220310299882
-0.00145645044421
-0.000216985856363
-0.00134385794526
-0.000213780866074
-0.00123288333842
-0.000210714671892
-0.00112344645543
-0.000207807193813
-0.00101545078973
-0.000205075436539
-0.000908797219482
-0.000202536207249
-0.000803373141896
-0.000200202985968
-0.000699063073787
-0.000198087576267
-0.000595739362654
-0.000196196676044
-0.000493264687976
-0.000194531434348
-0.000391468565698
-0.00019308319511
-0.000290091363384
-0.000191829258742
-0.000188537016551
-0.000190702216125
-8.54025453739e-05
-0.000188813274665
-0.000172606580289
-0.000396280097242
0.00113781036199
-0.000836575457415
0.00126059642142
-0.0012750109149
0.00125591228203
-0.00170707047253
0.00123826990169
-0.00213062549473
0.00121448975933
-0.00254380522238
0.00118532645812
-0.00294490781499
0.00115127393189
-0.00333241204226
0.0011128618763
-0.00370500044206
0.00107064886552
-0.00406155462234
0.00102520584708
-0.00440116357847
0.00097709642101
-0.00472310437042
0.000926865504544
-0.00502684202418
0.00087502517286
-0.00531200183111
0.000822049891002
-0.00557836605055
0.000768368212247
-0.00582584276263
0.000714363954115
-0.00605446327681
0.0006603725942
-0.00626435100178
0.000606686673015
-0.00645572188465
0.000553555059302
-0.00662885522431
0.000501190590271
-0.00678409805369
0.000449770454495
-0.00692183854453
0.00039944444384
-0.00704251417141
0.00035033521145
-0.00714658754
0.000302546064172
-0.00723455761623
0.000256160414842
-0.00730693740498
0.000211248616662
-0.00736426730034
0.000167866428198
-0.00740709397958
0.000126060788393
-0.00743598502596
8.58674160713e-05
-0.00745150852387
4.7315675377e-05
-0.0074542483899
1.04255390007e-05
-0.00744478436427
-2.47878628698e-05
-0.0074237075766
-5.83174479447e-05
-0.00739160080954
-9.01607888713e-05
-0.0073490539259
-0.000120323123494
-0.00729664448892
-0.000148813618912
-0.00723495314435
-0.000175648481491
-0.00716454472016
-0.000200847508472
-0.00708598346702
-0.00022443690369
-0.00699981470366
-0.000246445930647
-0.0069065799401
-0.000266909461704
-0.00680679918213
-0.000285864742607
-0.00670098593357
-0.000303353685187
-0.00658963025082
-0.000319419775992
-0.00647321363267
-0.000334110149648
-0.00635219287202
-0.000347472662068
-0.00622701479823
-0.000359557778235
-0.00609810094928
-0.000370415845368
-0.00596586214045
-0.000380098841108
-0.00583068394081
-0.000388657862831
-0.00569294100064
-0.000396144771059
-0.0055529832998
-0.00040260991884
-0.00541115017563
-0.000408103732233
-0.00526775728085
-0.000412674682455
-0.00512311022005
-0.00041637082876
-0.00497749214919
-0.000419238040164
-0.00483117694515
-0.000421321525087
-0.00468441736597
-0.00042266428411
-0.00453745765952
-0.000423308628373
-0.00439052221803
-0.000423294843476
-0.0042438275646
-0.000422662691962
-0.00409757144551
-0.000421450243834
-0.00395194413483
-0.000419695337725
-0.0038071179427
-0.000417434536465
-0.00366325782316
-0.000414704520935
-0.00352051129967
-0.000411541117079
-0.00337901837078
-0.000407980589112
-0.00323890189069
-0.000404058700842
-0.00310027680501
-0.000399811887231
-0.00296324103925
-0.000395276316109
-0.00282788409443
-0.000390488922487
-0.00269427851476
-0.000385486461194
-0.00256248788943
-0.000380306405417
-0.00243255896609
-0.000374985987753
-0.00230452908515
-0.000369562970169
-0.00217841900491
-0.000364074689832
-0.00205423979438
-0.000358558717252
-0.00193198641843
-0.000353051922944
-0.00181164408898
-0.000347591038522
-0.00169318265126
-0.000342211767621
-0.00157656238845
-0.000336949263706
-0.00146172923339
-0.00033183730011
-0.00134862000047
-0.000326908668482
-0.00123715843839
-0.000322194417961
-0.00112725985283
-0.000317724163455
-0.00101882796796
-0.000313525379695
-0.000911758805335
-0.000309623579502
-0.000805938141085
-0.000306041622813
-0.000701244033923
-0.000302799706514
-0.000597543616579
-0.000299914812268
-0.00049469151975
-0.000297401129107
-0.000392520133641
-0.000295271540243
-0.000290824316349
-0.000293541311906
-0.000189361466186
-0.000292181418544
-8.83678583971e-05
-0.00028982306958
-0.000260982104347
-0.000402485048892
0.00154029251464
-0.000848898870116
0.00170700799875
-0.001293436997
0.00170044738128
-0.00173135651446
0.00167618652444
-0.0021603923069
0.00164352220898
-0.00257858403835
0.00160351480921
-0.00298417121507
0.00155685727182
-0.00337560170504
0.00150428840932
-0.00375154395514
0.00144658660713
-0.00411088647219
0.00138454368944
-0.00445273530727
0.00131893994327
-0.00477640011489
0.00125052480451
-0.00508138194954
0.00118000078995
-0.00536735208849
0.00110801360676
-0.00563413611224
0.00103514505432
-0.00588169091479
0.000961911367209
-0.00611008952686
0.000888763022983
-0.00631949988748
0.000816088653631
-0.00651017291423
0.000744218897408
-0.00668242472733
0.000673433034862
-0.00683662877451
0.000603964320099
-0.006973201768
0.000536007103173
-0.00709259955179
0.000469721860663
-0.00719530618097
0.000405241436182
-0.00728183265251
0.000342674847813
-0.00735270821953
0.000282112059369
-0.00740848098227
0.00022362631665
-0.00744971055698
0.000167277439314
-0.00747696967187
0.000113112890779
-0.00749083754388
6.11698960586e-05
-0.00749190196566
1.1475634074e-05
-0.00748075272039
-3.59514091921e-05
-0.00745798382609
-8.1101279369e-05
-0.00742418736753
-0.00012397212408
-0.00737995566772
-0.000164570293173
-0.00732587519408
-0.000202909472254
-0.00726252865324
-0.000239010956555
-0.0071904891826
-0.000272902794567
-0.00711032252114
-0.000304619894317
-0.00702258152706
-0.000334203112665
-0.00692780847907
-0.00036169917598
-0.00682652999802
-0.000387159727951
-0.006719259533
-0.00041064109667
-0.00660649274598
-0.000432203332797
-0.00648871021142
-0.000451909865849
-0.00636637328675
-0.000469826578742
-0.00623992702973
-0.0004860214086
-0.00610979655314
-0.000500563498309
-0.00597639013776
-0.000513522789317
-0.00584009603895
-0.000524969291563
-0.00570128575351
-0.000534972718023
-0.0055603112267
-0.000543601903152
-0.0054175082113
-0.000550924516947
-0.00527319380022
-0.00055700665877
-0.00512766980205
-0.000561912684002
-0.00498122051501
-0.000565704984116
-0.00483411603345
-0.000568443939788
-0.00468661017051
-0.000570187884608
-0.00453894361177
-0.000570993184984
-0.00439134190437
-0.000570914361055
-0.00424401838666
-0.000570004267947
-0.00409717217739
-0.000568314332204
-0.0039509908341
-0.000565894795794
-0.00380564830841
-0.000562795009301
-0.00366130731699
-0.00055906368604
-0.0035181172595
-0.000554749193101
-0.00337621631697
-0.000549899767527
-0.00323572936311
-0.000544563750598
-0.00309676983125
-0.000538789725565
-0.00295943766942
-0.00053262665992
-0.00282382103133
-0.00052612394503
-0.00268999433896
-0.000519331429193
-0.00255801985684
-0.000512299356163
-0.00242794592258
-0.000505078293854
-0.00229980845476
-0.000497718987027
-0.00217362940418
-0.000490272198799
-0.00204941823283
-0.000482788500465
-0.00192717062167
-0.000475318052161
-0.00180686993975
-0.000467910356946
-0.0016884862305
-0.000460614006145
-0.00157197767551
-0.000453476420761
-0.00145728986478
-0.000446543583889
-0.00134435724225
-0.00043985978617
-0.00123310264834
-0.000433467359271
-0.00112343871303
-0.000427406433621
-0.00101526761003
-0.00042171468317
-0.00090848227598
-0.000416427105145
-0.000802966167266
-0.00041157581358
-0.000698593952288
-0.000407189973783
-0.000595230735245
-0.00040329591088
-0.000492731354187
-0.000399917926109
-0.000390939413229
-0.00039708049539
-0.000289690379338
-0.000394807186616
-0.000188858105736
-0.000393029810396
-8.89000546239e-05
-0.000389797093801
-0.000349890154019
-0.000410485213742
0.00195077517932
-0.000865390286113
0.00216191011209
-0.00131819409489
0.0021532486727
-0.00176396257367
0.00212195208408
-0.00220029510198
0.0020798516979
-0.00262512639849
0.002028342798
-0.00303662253494
0.00196834980883
-0.00343318982079
0.00190085179681
-0.00381348214585
0.00182687464603
-0.0041763987705
0.00174745566634
-0.00452107533094
0.00166361139915
-0.00484686758766
0.00157631154546
-0.00515333217299
0.00148645935694
-0.00544020367958
0.00139487864802
-0.0057073722561
0.00130230663169
-0.00595486031
0.00120939195686
-0.0061828020124
0.00111669671343
-0.00639142339445
0.00102470155167
-0.00658102626824
0.000933812736353
-0.00675197314055
0.000844370408427
-0.00690467604885
0.000756657190111
-0.00703958610256
0.000670906670703
-0.00715718652163
0.000587311272612
-0.00725798578916
0.000506029276249
-0.00734251368715
0.000427190826504
-0.00741131680761
0.000350902871378
-0.00746495635362
0.000277253094705
-0.00750400490505
0.00020631287246
-0.0075290450321
0.000138139478408
-0.00754066655633
7.27775677349e-05
-0.00753946542563
1.0260267208e-05
-0.00752604078358
-4.93905576812e-05
-0.00750099406327
-0.000106162848821
-0.00746492614283
-0.000160055127482
-0.00741843613686
-0.000211075688523
-0.00736211868573
-0.000259242508568
-0.00729656267744
-0.000304582819693
-0.0072223486806
-0.000347132809355
-0.00714004779899
-0.00038693703163
-0.00705021934453
-0.000424047953621
-0.00695340992349
-0.000458525190063
-0.00685015143644
-0.000490434912471
-0.00674096046416
-0.00051984894705
-0.00662633665243
-0.000546844101621
-0.00650676244009
-0.000571501191115
-0.00638270184956
-0.000593904341647
-0.00625460056009
-0.000614140006687
-0.00612288509665
-0.000632296311269
-0.00598796323124
-0.00064846212203
-0.00585022353438
-0.000662726483588
-0.00571003605652
-0.000675177795145
-0.00556775218558
-0.000685903388931
-0.0054237055465
-0.000694988862221
-0.00527821208615
-0.000702517833471
-0.00513157110359
-0.00070857146358
-0.00498406547051
-0.000713228415417
-0.0048359627008
-0.000716564582302
-0.00468751520547
-0.000718653251164
-0.00453896130315
-0.000719565028427
-0.00439052541798
-0.000719368183207
-0.0042424189523
-0.000718128736193
-0.00409484035508
-0.000715910929065
-0.00394797579988
-0.000712777414868
-0.00380199908698
-0.000708789784635
-0.00365707211156
-0.00070400878728
-0.00351334459876
-0.000698494835275
-0.00337095437947
-0.000692308181394
-0.00323002699516
-0.000685509338249
-0.00309067583366
-0.000678159157601
-0.00295300166309
-0.000670319117293
-0.00281709269273
-0.00066205127224
-0.00268302410771
-0.000653418392819
-0.00255085812662
-0.000644483785771
-0.00242064360276
-0.000635311291122
-0.00229241613642
-0.000625964991937
-0.00216619779642
-0.000616509097559
-0.00204199733142
-0.000607007575654
-0.00191981004484
-0.000597523955741
-0.00179961812675
-0.00058812091949
-0.00168139069843
-0.000578860060649
-0.00156508427097
-0.000569801466979
-0.0014506429571
-0.000561003465006
-0.00133799904377
-0.000552522219886
-0.00122707335192
-0.000544411488885
-0.00111777589397
-0.000536722260904
-0.00101000632253
-0.000529502541896
-0.000903654587532
-0.000522797071516
-0.000798601377712
-0.000516647209611
-0.00069471859172
-0.000511090835355
-0.000591869746987
-0.000506162635041
-0.000489910750013
-0.000501894654006
-0.000388691433286
-0.000498316931188
-0.000288062360065
-0.000495452536624
-0.000187917328681
-0.000493191426011
-8.86967864024e-05
-0.000489034098779
-0.00043859467766
-0.000420657980069
0.00237143063127
-0.00088659139434
0.0026278417699
-0.00135007656716
0.00261673124168
-0.0018059378342
0.00257781081467
-0.00225161169775
0.002525522652
-0.00268490488849
0.00246163289852
-0.00310389471314
0.00238733621101
-0.0035069382263
0.00230389158563
-0.00389267667631
0.00221260897294
-0.0042600288177
0.00211480330669
-0.00460817561734
0.00201175323304
-0.00493653791596
0.00190466844831
-0.00524475038633
0.00179466591631
-0.00553263315759
0.00168275504628
-0.00580016393897
0.00156983049345
-0.00604745109358
0.00145667171215
-0.00627470967214
0.00134394732892
-0.00648223991582
0.00123222334994
-0.00667040955338
0.00112197336368
-0.00683963873841
0.0010135901091
-0.00699038855051
0.000907396962974
-0.00712315156161
0.000803659188312
-0.00723844523433
0.000702593919211
-0.00733680653985
0.000604379128271
-0.00741878855724
0.000509160886721
-0.00748495747826
0.000417059442207
-0.00753589085935
0.000328173658715
-0.00757217566388
0.000242584504288
-0.00759440704747
0.000160357261559
-0.00760318658001
8.15431831726e-05
-0.00759912108339
6.1804676165e-06
-0.00758282028828
-6.57059306398e-05
-0.00755489567354
-0.000134102385998
-0.00751595816611
-0.000199007794125
-0.00746661639409
-0.000260432923979
-0.00740747439552
-0.000318400171675
-0.00733912983597
-0.000372943311031
-0.00726217179267
-0.000424106951635
-0.0071771791022
-0.000471946052764
-0.00708471837231
-0.000516525151648
-0.00698534258887
-0.000557917642158
-0.00687958946383
-0.000596204816302
-0.00676798038806
-0.000631474972986
-0.00665101917937
-0.000663822347611
-0.00652919142271
-0.000693346131862
-0.00640296363999
-0.000720149375074
-0.00627278302374
-0.00074433799801
-0.0061390770182
-0.000766019742124
-0.00600225342183
-0.000785303250028
-0.00586270034135
-0.000802297131892
-0.00572078661535
-0.00081710917928
-0.00557686208032
-0.000829845607966
-0.00543125824358
-0.000840610461199
-0.00528428877677
-0.000849505080048
-0.00513625034668
-0.000856627741328
-0.00498742323398
-0.000862073388071
-0.00483807221371
-0.000865933523463
-0.00468844718711
-0.000868296207249
-0.00453878400289
-0.000869246197505
-0.00438930499608
-0.00086886518237
-0.00424021965539
-0.000867232121923
-0.00409172498666
-0.000864423650534
-0.00394400596455
-0.000860514541004
-0.0037972356781
-0.000855578185342
-0.00365157554797
-0.00084968708418
-0.00350717525684
-0.000842913307257
-0.00336417275895
-0.000835328915086
-0.0032226940406
-0.000827006312239
-0.00308285298418
-0.000818018528891
-0.0029447510317
-0.000808439410663
-0.00280847698476
-0.000798343723147
-0.00267410665505
-0.000787807158057
-0.00254170268226
-0.00077690625919
-0.00241131424769
-0.000765718259481
-0.00228297697825
-0.000754320856525
-0.00215671278123
-0.0007427919177
-0.00203252988029
-0.000731209148948
-0.00191042280597
-0.000719649715233
-0.00179037258604
-0.000708189850662
-0.00167234690463
-0.000696904440032
-0.00155630044935
-0.000685866612418
-0.00144217523331
-0.000675147322753
-0.00132990108535
-0.000664814963113
-0.00121939611363
-0.000654934975194
-0.0011105673126
-0.000645569508315
-0.00100331112498
-0.000636777095712
-0.000897514116855
-0.00062861239688
-0.000793053580616
-0.00062112599225
-0.00068979828549
-0.000614364325875
-0.000587609289501
-0.000608369688028
-0.000486341019
-0.000603180445217
-0.000385843907625
-0.000598831207729
-0.000285969815657
-0.000595343722262
-0.000186605767079
-0.000592571728834
-8.81598069744e-05
-0.000587496189545
-0.000526762619249
-0.000433266485049
0.00280469507238
-0.000912934427953
0.003107507134
-0.00138969454641
0.00309348938745
-0.00185805668004
0.00304617047337
-0.00231524950412
0.00298271292126
-0.00275892258559
0.00290530309113
-0.00318704735865
0.00281545782279
-0.00359792677738
0.00271476747671
-0.00399019547534
0.00260487377236
-0.00436280665053
0.00248741014656
-0.00471500821232
0.00236395002282
-0.00504631181304
0.00223596678184
-0.0053564579146
0.00210480627143
-0.00564537995275
0.00197167080206
-0.00591316966978
0.00183761342324
-0.00616004545508
0.00170354015153
-0.00638632442981
0.0015702184435
-0.00659239900788
0.00143828950137
-0.00677871767931
0.00130828309759
-0.00694577008232
0.00118063301496
-0.00709407558867
0.00105569247733
-0.00722417520458
0.000933748270555
-0.00733662583501
0.000815033545837
-0.00743199670083
0.000699738476904
-0.00751086697327
0.00058801920496
-0.00757382452892
0.00048000456496
-0.00762146501148
0.000375801308797
-0.00765439128173
0.000275497504293
-0.0076732126106
0.00017916496161
-0.00767854385387
8.68604006534e-05
-0.00767100440205
-1.3733275294e-06
-0.00765121648353
-8.55085436037e-05
-0.0076198034513
-0.000165530387727
-0.00757738826609
-0.000241438259748
-0.00752459112231
-0.000313245585116
-0.00746202745068
-0.000380979631638
-0.00739030568468
-0.00044468106591
-0.00731002526515
-0.000504403594614
-0.00722177454095
-0.000560213168569
-0.0071261289971
-0.00061218728767
-0.00702364945946
-0.000660413910328
-0.00691488067685
-0.00070499050007
-0.00680034992762
-0.000746022736118
-0.00668056602553
-0.000783623406957
-0.00655601837309
-0.000817911031345
-0.00642717641181
-0.00084900870355
-0.00629448912304
-0.000877042724842
-0.0061583849079
-0.000902141494961
-0.00601927150794
-0.000924434242231
-0.00587753627314
-0.000944050041929
-0.00573354644843
-0.000961116721234
-0.00558764976452
-0.000975760077979
-0.0054401750136
-0.000988103030023
-0.00529143287233
-0.000998265097486
-0.00514171666293
-0.00100636185179
-0.00499130329428
-0.00101250470759
-0.00484045408631
-0.00101680070221
-0.0046894157009
-0.00101935260785
-0.00453842090012
-0.00102025903111
-0.00438768934393
-0.00101961481221
-0.00423742817045
-0.00101751138598
-0.00408783256487
-0.00101403738662
-0.00393908608683
-0.00100927916815
-0.00379136096258
-0.0010033214994
-0.0036448181393
-0.000996248118972
-0.00349960730842
-0.000988142393593
-0.00335586672035
-0.000979087785478
-0.00321372299802
-0.000969168365348
-0.00307329079012
-0.000958469100446
-0.00293467246653
-0.000947076152075
-0.00279795770866
-0.000935076937964
-0.00266322318861
-0.000922560193565
-0.00253053219467
-0.000909615811327
-0.00239993438358
-0.00089633468809
-0.00227146551866
-0.000882808379979
-0.00214514735967
-0.000869128787792
-0.00202098756355
-0.000855387686516
-0.00189897974637
-0.000841676309798
-0.00177910356773
-0.00082808481553
-0.00166132497413
-0.000814701827515
-0.00154559646609
-0.000801613890585
-0.0014318575129
-0.000788905016365
-0.00132003498582
-0.000776656169592
-0.00121004372115
-0.000764944854758
-0.00110178709778
-0.000753844667121
-0.000995157710887
-0.000743424950735
-0.000890038061652
-0.000733750450515
-0.000786301346091
-0.000724881084468
-0.000683812215037
-0.000716871708928
-0.000582427846862
-0.000709772107455
-0.000481999368575
-0.000703626880251
-0.000382373440977
-0.000698474449291
-0.000283396598808
-0.000694336933349
-0.000184946027935
-0.000691039132672
-8.74033672109e-05
-0.000685055579641
-0.000614173797777
-0.000448589872452
0.00325328293881
-0.000944954867503
0.00360387109633
-0.00143782062998
0.00358635311024
-0.00192129261915
0.00352964052773
-0.00239233857828
0.00345375652858
-0.00284841550978
0.00336137747365
-0.00328737190608
0.0032544113136
-0.00370745525364
0.00313484758382
-0.00410730613217
0.00300472098703
-0.00448593513951
0.00286603507132
-0.00484268749966
0.00272069780761
-0.00517719982157
0.00257047405437
-0.00548935384145
0.00241695469777
-0.00577923042651
0.00226154128577
-0.0060470669703
0.00210544328986
-0.00629321949256
0.00194968547194
-0.00651813081903
0.00179512197752
-0.00672230457939
0.00164245494326
-0.00690628527844
0.0014922548888
-0.00707064333461
0.00134498164866
-0.00721596488634
0.0012010040313
-0.00734284498796
0.00106061788258
-0.0074518839478
0.000924061466418
-0.007543685453
0.000791528482061
-0.00761885636614
0.000663178101958
-0.00767800699587
0.0005391427556
-0.00772175194038
0.000419533338582
-0.00775071053837
0.000304442806243
-0.00776550727241
0.000193947967635
-0.00776677140315
8.81104641772e-05
-0.00775513611702
-1.3023068219e-05
-0.00773123772712
-0.00010942168105
-0.00769571382062
-0.000201069384049
-0.00764920116178
-0.000287966261094
-0.0075923337442
-0.000370128645316
-0.00752574036661
-0.000447588866306
-0.00745004245389
-0.000520395096665
-0.0073658516637
-0.000588610682043
-0.00727376785262
-0.000652313501494
-0.00717437694753
-0.000711594862429
-0.00706824924907
-0.000766558470511
-0.00695593771744
-0.000817319013046
-0.00683797672205
-0.000864000875334
-0.00671488081441
-0.00090673655362
-0.00658714396539
-0.000945665256059
-0.00645523884132
-0.000980931277131
-0.00631961652452
-0.00101268260497
-0.00618070627144
-0.00104106936745
-0.00603891568164
-0.00106624254612
-0.00589463089169
-0.00108835258725
-0.00574821713589
-0.0011075483109
-0.00560001930623
-0.00112397577143
-0.00545036282166
-0.00113777744416
-0.00529955445568
-0.00114909141433
-0.00514788340048
-0.00115805091365
-0.00499562223291
-0.00116478389741
-0.00484302803255
-0.00116941297373
-0.00469034333525
-0.0011720553885
-0.00453779715392
-0.00117282334016
-0.00438560577209
-0.00117182433304
-0.00423397353262
-0.00116916180698
-0.00408309335562
-0.00116493575746
-0.00393314720716
-0.00115924355323
-0.00378430628415
-0.00115218067456
-0.00363673114107
-0.00114384155965
-0.00349057155408
-0.00113432029869
-0.00334596635276
-0.00112371135477
-0.00320304303899
-0.00111211007428
-0.00306191742293
-0.00109961316745
-0.00292269311193
-0.00108631894843
-0.00278546107462
-0.00107232752211
-0.00265029912396
-0.00105774073166
-0.00251727152775
-0.00104266205981
-0.00238642859172
-0.00102719631901
-0.0022578064062
-0.0010114493227
-0.00213142660122
-0.000995527387323
-0.00200729628185
-0.00097953685118
-0.00188540799014
-0.000963583468459
-0.00176573984721
-0.000947771853118
-0.00164825572671
-0.000932204837087
-0.00153290559641
-0.000916982903372
-0.0014196258881
-0.000902203564966
-0.00130834001741
-0.000887960835032
-0.00119895892384
-0.000874344667394
-0.0010913817443
-0.00086144049823
-0.000985496490967
-0.000849328779878
-0.000881180853103
-0.000838084617755
-0.000778302981842
-0.000827777414599
-0.00067672245922
-0.000818470650217
-0.000576291309191
-0.00081022154922
-0.000476855037184
-0.000803080848923
-0.000378254683548
-0.000797092176037
-0.000280329860973
-0.000792279162861
-0.000182946193184
-0.000788439230599
-8.6465984325e-05
-0.000781552102297
-0.00070064807558
-0.000466966103376
0.00372024771808
-0.000983336076492
0.00412023911177
-0.00149544376423
0.00409845959665
-0.00199688896575
0.00403108394444
-0.00248431295367
0.003941178663
-0.00295494108234
0.00383200337385
-0.00340648246782
0.00370595017769
-0.00383713403364
0.00356549622333
-0.0042455641203
0.00341314774569
-0.00463087521336
0.0032513423561
-0.00499255193642
0.0030823702509
-0.00533040146981
0.00290831876474
-0.00564449201335
0.00273103990239
-0.00593509427246
0.00255213762005
-0.00620262875615
0.00237297130809
-0.00644762110239
0.00219467074368
-0.00667066564754
0.00201815889999
-0.00687239753983
0.00184417859786
-0.00705347216102
0.00167332073095
-0.00721455135115
0.00150605145405
-0.00735629472744
0.00134273750105
-0.00747935550634
0.00118366817103
-0.00758437914911
0.00102907412629
-0.00767200443319
0.000879142231159
-0.00774286546575
0.000734027144409
-0.00779759451543
0.00059385930226
-0.00783682445276
0.000458750359964
-0.00786119100512
0.00032879597498
-0.00787133394654
0.00020407715799
-0.00786789773441
8.46600784998e-05
-0.00785153067588
-2.94046221436e-05
-0.00782288487838
-0.000138082346627
-0.00778261374248
-0.000241355663922
-0.00773137018247
-0.000339225293904
-0.00766980413403
-0.000431710401275
-0.00759856018535
-0.000518848809083
-0.00751827487935
-0.000600696593429
-0.0074295743621
-0.000677327637974