/*--------------------------------*- C++ -*----------------------------------*\
| =========                 |                                                 |
| \\      /  F ield         | OpenFOAM: The Open Source CFD Toolbox           |
|  \\    /   O peration     | Version:  v1906                                 |
|   \\  /    A nd           | Web:      www.OpenFOAM.com                      |
|    \\/     M anipulation  |                                                 |
\*---------------------------------------------------------------------------*/
FoamFile
{
    version     2.0;
    format      ascii;
    class       surfaceScalarField;
    location    "43";
    object      phia;
}
// * * * * * * * * * * * * * * * * * * * * * * * * * * * * * * * * * * * * * //

dimensions      [0 3 -1 0 0 0 0];
oriented        oriented;


internalField   nonuniform List<scalar> 
18240
(
0.00121161936178
-0.00117627768977
0.00226223933367
-0.0010159278392
0.00336016804483
-0.00107075022379
0.00447343709433
-0.00107726401066
0.00557129576366
-0.00107281057725
0.00666676277647
-0.00105866479556
0.00773473300945
-0.00104548905748
0.00879772556039
-0.00102588275772
0.00982797559704
-0.00101076082426
0.0108540094454
-0.000989191130164
0.0118446356092
-0.000974533502344
0.0128185519249
-0.000937892476353
0.0137374925269
-0.000906566759788
0.0146431201103
-0.000870994281177
0.0154909890362
-0.000839551654153
0.0163179958316
-0.000794526897429
0.017072915849
-0.000750954246578
0.0178182222949
-0.000715833752889
0.0185100908795
-0.000692460988786
0.0192030600961
-0.000667050342278
0.019846540085
-0.000648715437351
0.0204565740784
-0.000588532665926
0.0209638918538
-0.000517098816274
0.0214430992096
-0.000462382507913
0.0218660198226
-0.000437039987721
0.0222934305811
-0.000415265357606
0.0226695027811
-0.000394124249997
0.0230202046752
-0.00034350450824
0.0232937787691
-0.000295026874754
0.0235236800813
-0.000227869909397
0.0237023608308
-0.000203222983015
0.0238095086531
-0.000110424608263
0.0237390713413
4.35715776861e-05
0.0236188091938
0.000112078533129
0.0234432230285
0.000147447396836
0.0232361693269
0.000194383774045
0.0229809865102
0.000226383215808
0.0226963674272
0.000268063406715
0.0223592252703
0.000308207389258
0.0219876291071
0.000351802316999
0.0215863583052
0.00037273838328
0.0211596825
0.000404085036253
0.0206547414229
0.000477153228838
0.0200664712312
0.000563370258448
0.0194365516302
0.000603389870391
0.0187788569871
0.000630982736785
0.0180802081531
0.000673721805556
0.017334250198
0.000717688368917
0.0165403808011
0.000771053994268
0.0156976443996
0.000813699698038
0.0148288717427
0.000848781012205
0.0139242271457
0.000876263574793
0.0129998780749
0.000907995177621
0.0120511466511
0.00092268494454
0.0111173667874
0.000921690260014
0.0101815722777
0.000913615030698
0.00925767078178
0.000916250528646
0.0083191089335
0.000921434450131
0.00739357357324
0.000922192662329
0.00648889508767
0.000893255823312
0.00564175103051
0.000848153263133
0.0048511781981
0.000785111455657
0.00414195408767
0.000713726728844
0.00350290779757
0.000639000063234
0.00292992668087
0.000579501694718
0.00241155795826
0.00052284578561
0.00196467830247
0.000454198137412
0.00159765960105
0.000373494213228
0.00129531127466
0.000308262426301
0.001043546614
0.000258697285222
0.000833787503793
0.000213155867253
0.000670472564035
0.000168056643673
0.000545912314701
0.000124132020434
0.000465677558311
8.14888900697e-05
0.000413751291297
4.80615390518e-05
0.000387461050078
2.47504434078e-05
0.00037092193165
1.05650676443e-05
0.000363369385504
5.00038006986e-06
0.000351422874458
5.66884371279e-06
0.000335218529733
1.30129939554e-05
0.000310374435343
1.83198252795e-05
0.00028704442941
1.92798104484e-05
0.000264367101839
1.54335743438e-05
0.000244431222309
1.46893765356e-05
0.000220020387519
1.62523310466e-05
0.000196828001047
1.66936267797e-05
0.000175154129372
1.2890048027e-05
0.000157929042832
8.39010136186e-06
0.00013801474748
8.45554847678e-06
0.000113957166033
1.12206990158e-05
8.87835026273e-05
9.64705177284e-06
6.64873042868e-05
5.8687993093e-06
4.4177292786e-05
5.04847601211e-06
2.24845037666e-05
3.78254916164e-06
3.97264171985e-06
2.98214185334e-07
-4.77000094929e-06
0.00105727725185
-0.00220301454741
0.00233494668135
-0.00225985019669
0.00355541629275
-0.0022595614692
0.0047547249785
-0.0022427709434
0.00593762574763
-0.00222497932875
0.0071102968305
-0.00219796491504
0.00826215905271
-0.0021680321141
0.00939847643434
-0.00212972465368
0.0105024918331
-0.00208739088305
0.0115828362011
-0.00203857476692
0.0126271829152
-0.00199391330294
0.0136612230905
-0.00194294061041
0.0146656812864
-0.00188888481616
0.0156264054745
-0.00180516253321
0.0165462293436
-0.00174047121456
0.0174429902879
-0.00166775608096
0.0182908913647
-0.00158380925321
0.019104563033
-0.00150971928173
0.0198622951743
-0.00143942337077
0.0205597858795
-0.00134903859235
0.0211904506573
-0.00127335757326
0.021818713142
-0.00120604105162
0.0224056374501
-0.00110276508242
0.0229480467328
-0.000998738036589
0.0234133166398
-0.000905615132168
0.0238136915533
-0.000814369372261
0.0241543555361
-0.000742428430143
0.0244743074481
-0.000666911880524
0.0247743279883
-0.000607012610676
0.0250466253767
-0.000508315570203
0.0252027786118
-0.000375329154519
0.025277781491
-0.000198128783712
0.0253257451041
-2.38478800785e-05
0.0253266828668
9.44618311173e-05
0.0252443169411
0.000207371307128
0.0250956399952
0.000322998423939
0.024891191851
0.000406045386972
0.0246373517818
0.000499124256529
0.0243213822528
0.000597840571931
0.0239416633889
0.00070682974894
0.0234735276772
0.000813620218326
0.0229419324577
0.000909649054941
0.0224039286326
0.000987433187409
0.0218436258235
0.00109640003567
0.0212022030426
0.00121694802795
0.0205022560592
0.00130284617873
0.0197462839164
0.00140205548183
0.0189398623474
0.00149568248166
0.0180703914053
0.00161361733506
0.0171560092164
0.00170003583328
0.016222200037
0.00175739284924
0.0152602160998
0.00181198536496
0.0142914254858
0.00185462936587
0.0133089632222
0.00188207426201
0.0122989731727
0.00191368189287
0.0112767498075
0.00191726068299
0.0102793926143
0.00190051728268
0.00931985095595
0.00186780928056
0.00837895368264
0.00185523005259
0.00742157716689
0.00184335762541
0.00648866435279
0.00177863520908
0.00560841976965
0.00166395938538
0.00479727490979
0.00152719022224
0.00406304742664
0.00137630559742
0.00341896691342
0.00122925862643
0.00284395453575
0.00110484691881
0.00232417768456
0.000981686630383
0.00186270797792
0.000842958180053
0.0014656933237
0.00071218374673
0.00114482800776
0.000587204542323
0.000898922773281
0.000464073569313
0.000720810531589
0.000350261415738
0.000588363905868
0.000257387642908
0.000507835520916
0.000161547306702
0.000460148296147
9.27080988159e-05
0.00043692235121
4.39911695539e-05
0.000418383838595
2.39368193119e-05
0.000399358634678
1.93734539134e-05
0.000379589631273
2.0022586239e-05
0.000358197364254
2.97795660125e-05
0.000331522287386
3.90272414258e-05
0.000301936513149
4.34877954189e-05
0.000271814623199
3.8901531346e-05
0.000244735703359
3.54363240586e-05
0.00021798844177
3.58757288927e-05
0.000191896384606
3.55559902485e-05
0.00016862198562
2.79348356477e-05
0.000150106524693
1.80747641375e-05
0.000132149126277
1.62379602829e-05
0.000112842910542
1.77213590202e-05
9.02658038554e-05
1.64189376533e-05
6.76121635329e-05
1.27029925978e-05
4.61403609301e-05
9.20860658268e-06
2.4530771642e-05
5.71321274988e-06
4.27660209017e-06
1.76753503754e-06
-8.52157198194e-06
0.00112013390979
-0.00329183670126
0.00235667973304
-0.00346316878181
0.00357882522719
-0.00344876090352
0.0047888186412
-0.00341956864331
0.00598765159571
-0.00339154058067
0.00716868108207
-0.00334647810354
0.00832626454078
-0.00329452397565
0.00946158764099
-0.00323378213699
0.010574498627
-0.00317088139219
0.0116675903742
-0.00310214134984
0.0127275309961
-0.00302657631326
0.013749760707
-0.00293787593883
0.0147338248803
-0.00284831538486
0.0157279249337
-0.00277464864065
0.016687423252
-0.00267829816741
0.0175832706007
-0.00254222587746
0.0184452298856
-0.00242782116847
0.019263348462
-0.00231037119828
0.0200263000807
-0.00218871802603
0.0207483141226
-0.00205809819088
0.0214084315273
-0.00192454487355
0.0220102535503
-0.00179976774331
0.0225862918262
-0.00167456697198
0.0231286454219
-0.00153768403456
0.0236477212466
-0.00142507315846
0.0241554370983
-0.00132336729689
0.0246148398828
-0.00120691245459
0.0249909907053
-0.00104919602245
0.0252662732887
-0.000892064053619
0.0255006873904
-0.000753527868208
0.0256811352455
-0.00056996446827
0.0258290200564
-0.00036102206411
0.025930459715
-0.000143494930061
0.0259345964762
7.1524804248e-05
0.0258516093983
0.000268863079391
0.0256796107582
0.000472979535742
0.0254244098242
0.000637185471479
0.0251128806295
0.000786406110478
0.0247472815668
0.000937743304158
0.0243257052349
0.00110263645066
0.0238577439404
0.00125476899619
0.0233889963122
0.0013512160939
0.0228857275402
0.00146286242483
0.0223718371329
0.00158213505074
0.0218172844341
0.00174297699637
0.021208964321
0.00188240008575
0.0205403027148
0.00204190631485
0.019814347452
0.00219264597519
0.0190723327661
0.00232707230735
0.0182156528278
0.00252820410367
0.0172380562965
0.00270778629288
0.0162042984656
0.00281935181723
0.0151172259905
0.0029177004697
0.0140054610357
0.00297122676
0.0128815506027
0.00301813062288
0.0117495270966
0.00303183624516
0.0106359266238
0.00300051981837
0.00955885556811
0.00293365513473
0.00853905464039
0.00286757246317
0.0075491483307
0.00282843593588
0.00658854430788
0.00273793357077
0.00568838824234
0.00256484518383
0.00488514030501
0.00233337385908
0.00418259052996
0.0020836234808
0.00356734815737
0.00185054078809
0.00301259199247
0.00166782334856
0.0025151415695
0.00148766318369
0.00207885814136
0.00128746778488
0.00169796196855
0.00110200208824
0.00135890516767
0.000934504413603
0.00105254005392
0.00077753345984
0.000811391900794
0.000595358534896
0.000633989478428
0.000436217659624
0.000531799608005
0.000262543528606
0.000498876914094
0.000121886480242
0.000502169207196
3.54739905089e-05
0.000504282763935
1.56949384037e-05
0.000501777793655
1.59333473224e-05
0.000481049233233
3.49100732894e-05
0.000430639347838
7.40853578712e-05
0.000373075749419
9.06885418424e-05
0.000322884335909
8.67234503238e-05
0.000284860556727
6.99237409995e-05
0.000252963708184
6.03458777682e-05
0.000222271344924
5.9075382602e-05
0.000194421337406
5.55136140107e-05
0.000163918552242
4.96723435252e-05
0.000134029794525
3.91388614428e-05
0.000111356726124
2.88831103343e-05
9.57576777364e-05
2.07357117781e-05
7.59109240321e-05
2.14095221722e-05
5.38599814227e-05
1.88280618597e-05
3.4911895042e-05
1.04828397109e-05
1.68401046955e-05
6.36006155476e-06
1.03973603613e-06
6.54713072011e-07
-1.62354994779e-05
0.00114626359073
-0.00440635590453
0.00237892676027
-0.00466211002574
0.00360542944294
-0.00464187188413
0.00482690616788
-0.00460767802492
0.00603398661945
-0.00456576661485
0.00722227631648
-0.00450221962365
0.00838898305602
-0.0044294718799
0.00954029608623
-0.00435382859744
0.0106675413026
-0.00426790680932
0.0117610161144
-0.00416614890683
0.0128191617176
-0.00405658950394
0.0138452772376
-0.00393683795066
0.0148644553595
-0.00384188077227
0.0158526163006
-0.00373833628434
0.0167881322055
-0.00359124222348
0.0176998569793
-0.00343279028207
0.0185660246345
-0.00327510404743
0.0193887517295
-0.00311591610908
0.0201609107052
-0.00294633957683
0.0208943598548
-0.00277899001388
0.0215942117884
-0.00261462912093
0.0222381321094
-0.00243590444131
0.022842022639
-0.00227340776707
0.0234423752403
-0.00213489023127
0.0240274546977
-0.00200987309817
0.024552787103
-0.00185045817452
0.0249967613288
-0.00165557112149
0.0254007037587
-0.00145991004425
0.0257358023175
-0.00123679742936
0.0259508422093
-0.000980122927806
0.0260916574389
-0.000724886221492
0.0261643695792
-0.000449668519614
0.0261836450599
-0.000180887337441
0.0261670786955
6.84264937659e-05
0.0260882600862
0.000326214098246
0.0259786700471
0.000559938894816
0.0258062178895
0.000785673830387
0.0255235024507
0.00104427110369
0.0252046524514
0.00123088559925
0.0249968160948
0.00128389465842
0.0248224335241
0.00140165886174
0.0245248216164
0.00162068320976
0.0240738899042
0.00188505333012
0.0234569704347
0.00216999476974
0.0227587820947
0.00241183874111
0.0220183697551
0.0025932619279
0.0212162752779
0.00281452990349
0.0203549091433
0.00302449813052
0.0194498648159
0.00320314304682
0.0185666125887
0.00338274079265
0.0176422150484
0.00360465369674
0.0165876234648
0.00384743491267
0.0154499234713
0.00403102992099
0.014298373745
0.00410033227325
0.0131194614252
0.00417788035652
0.0119203534272
0.00421444592632
0.0107130160728
0.00419545996543
0.00951271967452
0.0041242236237
0.00837689390727
0.00399839136569
0.00731282630106
0.00389026347121
0.00632213911041
0.00372927916515
0.00541562202746
0.00347393457774
0.00461766505987
0.00313616139408
0.00391897901261
0.00278714657083
0.0033210396
0.00245606174705
0.0027969334371
0.00219976351217
0.00233794794124
0.00195531292203
0.00193387162106
0.00169977099428
0.00157162364568
0.00147259819625
0.0012439648064
0.00127086670999
0.000955709228154
0.00107207990659
0.000733586865527
0.000821474929147
0.000576524125095
0.000594206440674
0.000488419104776
0.0003484094804
0.000497922116853
0.000107798826418
0.000556862977445
-3.02466539327e-05
0.00058878334178
-2.28779079264e-05
0.000605038045791
-6.64827713559e-06
0.000593532805385
3.99023750548e-05
0.00053577916963
0.000125834511389
0.000463870896025
0.00015522472456
0.000388330593734
0.000154621937188
0.000331132800952
0.000119470548652
0.0002849214866
9.86216021346e-05
0.000240285066454
9.59175429843e-05
0.000198422278976
8.84049951779e-05
0.000156287296015
8.24151015953e-05
0.000121075331522
6.47811128819e-05
9.02000659757e-05
4.96453848671e-05
6.29892506933e-05
3.71834546194e-05
4.59462164453e-05
2.54935941891e-05
3.0187562466e-05
1.89699045542e-05
1.4751878635e-05
1.02704109595e-05
3.53174986234e-06
1.16442173439e-06
-4.51262470905e-06
-8.50045687882e-06
-2.88493703642e-05
0.00116637658011
-0.00554050364431
0.00240867233842
-0.00587066358204
0.00364712688198
-0.00584639241959
0.00488188158928
-0.00580876512906
0.00609802500721
-0.00574860527745
0.00729629365414
-0.00566763500778
0.00848030543191
-0.00558123127032
0.00964200256986
-0.00548390181123
0.0107713829055
-0.00536656633559
0.0118721211426
-0.00523705197676
0.0129410748987
-0.00509689119231
0.0139994984538
-0.0049676609341
0.0150299030789
-0.00484604485078
0.0160015187412
-0.00468507425499
0.0169441568238
-0.00451073794761
0.0178583024835
-0.00432543253694
0.0187293672458
-0.00412669944345
0.019566384155
-0.0039355288655
0.0203797218087
-0.00374464316026
0.0211463936369
-0.00353291837666
0.0218323515512
-0.00329033562469
0.0224932616251
-0.00308887787396
0.0231546496048
-0.00292926608668
0.0238047916685
-0.00278194277927
0.024400340205
-0.00260488619475
0.0249278933691
-0.00238004928011
0.0253858971291
-0.00211824537266
0.0257350839553
-0.0018162685375
0.0260133603524
-0.00152476204159
0.0262287811327
-0.00120760751416
0.0263938111218
-0.000904305507941
0.0265534427865
-0.00062585786349
0.0266501004616
-0.000296148869164
0.0266427326931
5.55245022822e-05
0.0265474535953
0.000399708107868
0.026370785994
0.000713534779403
0.0262548926069
0.000877233423207
0.0262629817201
0.00101077589523
0.0262321337375
0.00123506211254
0.0259828241569
0.00150578229924
0.0255480207504
0.00180843068571
0.0250203837896
0.00211987024252
0.0244467533906
0.00242970599463
0.0239111160153
0.00267633052381
0.0233160688805
0.00297708038664
0.0225965288618
0.00328297410614
0.0217818225265
0.0035992694025
0.0208841399704
0.00389233788371
0.0199400373354
0.00411767564724
0.0189337153525
0.00436028618329
0.0179167498807
0.0045936886695
0.0169041183724
0.0048336978827
0.0158072482038
0.00510314865201
0.014636360722
0.00524923341423
0.0134084534147
0.0053869656729
0.0121372778545
0.00546999888129
0.0108575294971
0.00546374599723
0.00956572142068
0.0054089130851
0.00835522475914
0.00520533495888
0.00723650278171
0.00500871209331
0.00618389548848
0.00478529951465
0.00525530541301
0.00440643697276
0.00448401843724
0.00391348007275
0.0038144437255
0.00346345568013
0.00326117305968
0.00301742317519
0.00282744231016
0.00264249037859
0.00238578939834
0.00240651433037
0.00201758473667
0.00207591071048
0.00172130613021
0.00177829244178
0.00138385353261
0.00161511720003
0.00102191054223
0.00144237307279
0.000773189549935
0.00107064635744
0.000618737492447
0.000751199957214
0.000510152257546
0.000450719186651
0.000548759908633
6.4695186598e-05
0.000671353620218
-0.000161885017344
0.000712251939498
-7.02499138304e-05
0.000731443683857
-3.33155391745e-05
0.00070710004294
5.84004823564e-05
0.000597118090103
0.000229431628185
0.000486934758535
0.000258842818164
0.000387262182918
0.000247031110223
0.000341403481514
0.000157533500341
0.000313262019634
0.000119186868529
0.000269435993242
0.000130841657511
0.000219658803474
0.00012839529917
0.000164147890579
0.000127695185712
0.000108814748205
0.000110042426872
6.41390004509e-05
8.43577042533e-05
3.37293433126e-05
5.65676577431e-05
1.53502681773e-05
3.26064252334e-05
2.22798149674e-06
1.77329514517e-05
-6.74376882381e-06
2.15032850567e-06
-1.01366117184e-05
-1.054177505e-05
-1.00400418551e-05
-2.33434247484e-05
-4.6882175695e-05
0.00118559335386
-0.00669352358743
0.00244498401963
-0.00709554555913
0.00370066260844
-0.00706781912036
0.00494992860402
-0.00702389819135
0.00617971364039
-0.00694467535601
0.00739815392541
-0.00685277880378
0.00859421482072
-0.0067445343508
0.00976067891935
-0.00661829309623
0.0109010628745
-0.00647570086956
0.0120120353229
-0.00631771232502
0.0130962200511
-0.00615180284078
0.0141680628293
-0.00601133955956
0.0151948663256
-0.00584595009499
0.0161768681229
-0.00564168213942
0.0171336957396
-0.00544372922164
0.0180635091153
-0.0052332221627
0.0189721967593
-0.00501536662851
0.0198411937802
-0.00478664352733
0.0206455447044
-0.00453352410052
0.0213967759182
-0.00427103844071
0.0221180060936
-0.00400090878399
0.022832606268
-0.00379516325785
0.0235470691801
-0.00363796178935
0.0242316376024
-0.00346326650097
0.0248179201711
-0.00319068282897
0.0252985994658
-0.00286285424783
0.0257013154835
-0.00252579717072
0.0260446004205
-0.00216693787415
0.0263479971883
-0.0018382076451
0.0266504042414
-0.00152250853824
0.0268873934562
-0.00115631484532
0.026997982078
-0.000753588633052
0.0270276540518
-0.000344874643008
0.0270229345538
3.94610529189e-05
0.0270274528679
0.000372985794818
0.0271012937076
0.000615886254421
0.0271038402643
0.000849443884873
0.0269669072958
0.00112148316705
0.0267298937763
0.0014449215397
0.0263564212952
0.00185150744494
0.0259177397516
0.00221876859717
0.0255124727055
0.00249624831485
0.0250407657143
0.00287203519063
0.0243925113592
0.00329487564971
0.0236761941595
0.00366343488061
0.0229564347904
0.00397262638793
0.0222516729323
0.0042738844328
0.0214740909511
0.00463966217499
0.0205494272364
0.00501254168359
0.0195239572208
0.0053562957124
0.0184755511796
0.00561405439981
0.017420372195
0.00586195436845
0.0162937378164
0.00620509269742
0.0150970008239
0.00642428114775
0.0138785083135
0.00658646991457
0.0126579458189
0.00667647995136
0.0113554846399
0.00675592440667
0.0100568577532
0.00670138277023
0.00872066852543
0.00653917094159
0.00759427221003
0.0061385384733
0.00686857369485
0.00551504046092
0.00609843660596
0.00518443735455
0.00550290730134
0.00451707728248
0.0050168309332
0.00395919177428
0.00460216862384
0.00344277106477
0.00447892018116
0.00277795785951
0.0043643202251
0.00253109857275
0.00433529849753
0.00211656219348
0.00439764919541
0.0017233167213
0.00400328581796
0.00202476198502
0.0033748977934
0.00207089732205
0.0029965258122
0.0014589108747
0.00264976125764
0.00108923661982
0.00221828483217
0.000880844592318
0.00190358944353
0.000365870797998
0.00184090079002
-0.000107637388658
0.00171945076909
4.05952832881e-05
0.00153913592936
0.000138162145621
0.00131260677293
0.000278516940369
0.000947184506717
0.000586986594415
0.000664855439189
0.00053568438165
0.000459623551084
0.000443725799327
0.000395440951177
0.000214173485276
0.00034188208028
0.000164576103493
0.000276578660052
0.000187175640033
0.000209571016553
0.000185663525922
0.000142378176413
0.000184958066573
8.61604871036e-05
0.000155672453622
3.85858678029e-05
0.00012044835565
7.43189695259e-06
7.64108131849e-05
-1.27453751835e-05
4.14880545485e-05
-2.43479883627e-05
1.68731617721e-05
-3.03139030618e-05
-6.10859921972e-06
-2.53007563363e-05
-3.10427471886e-05
-1.71889616138e-05
-4.62766886939e-05
-7.13043802804e-05
0.0012065225122
-0.00786696570005
0.00248757334257
-0.00834205674581
0.00376482506264
-0.0083102576614
0.00503191483241
-0.00825647726221
0.00628663407828
-0.00816518116553
0.00752083825924
-0.00805319385479
0.00872153386765
-0.00791197796328
0.00990335129184
-0.00776749401409
0.0110583389055
-0.00759886686721
0.0121810272859
-0.00740946703191
0.0132932828758
-0.00723411125966
0.0143750903175
-0.00706423155343
0.0154045675803
-0.0068478665229
0.0164257493056
-0.00663668276642
0.0174175315609
-0.00641096550453
0.0183589530127
-0.00615190353567
0.0192542976399
-0.00589005841266
0.020102491418
-0.00561645228063
0.0209109222699
-0.0053259303099
0.0216731715739
-0.00501969982739
0.0224480735715
-0.00476457610706
0.0232356857225
-0.00457408429074
0.0239793460001
-0.00437549677676
0.024617500884
-0.00409810972562
0.0251599198694
-0.00373251095062
0.0256444649372
-0.00334965864727
0.0260707271215
-0.00295696671991
0.0264989032238
-0.00260290382455
0.026879092305
-0.00222885229268
0.02713731586
-0.00179392246179
0.0273111880609
-0.00134565569625
0.0274288461303
-0.000888946345129
0.0275470347168
-0.000482708395824
0.0276280896658
-6.29446379508e-05
0.0277304599845
0.000247571296346
0.0278404968598
0.000481071985564
0.0277723085462
0.000891644269144
0.027512848208
0.00135399967748
0.0271845636691
0.00174551490814
0.0269159926591
0.0020916884728
0.0265766211808
0.00252914170048
0.0260745085461
0.00296900537063
0.0255126431577
0.00340422098327
0.0249695016355
0.00380791071904
0.0243769979908
0.0042254248163
0.0236419542007
0.00467730424098
0.0228016832714
0.00508361359466
0.0219040019519
0.00550720549603
0.021071655187
0.00581459573604
0.0201749597216
0.00622370359938
0.0191139136303
0.00664622044938
0.0180410187206
0.00690791331287
0.0168979974944
0.00732319534956
0.0157251983223
0.00757467133741
0.0144321704155
0.00786233413845
0.0131866075719
0.00790822435481
0.0118913664839
0.00804269048637
0.0106695042543
0.00791757579682
0.0101386387573
0.00707068833097
0.00959065865984
0.00669195818587
0.00923409105014
0.00588182453242
0.00885315047407
0.00557614135251
0.00858345643641
0.00479991406211
0.00899227839182
0.00356320665919
0.0101583678689
0.00229044101439
0.0110255510857
0.00192502433945
0.0122141838655
0.00135496062802
0.0149466248748
-0.000602843977274
0.0180201056512
-0.00133287959303
0.0185851146661
0.00146882432633
0.0180040024138
0.00266915382508
0.0177072345859
0.00175466817293
0.0168329213033
0.00196303230614
0.0151551546944
0.00254053878087
0.0126988086559
0.00280176479761
0.0105934374216
0.00197898917132
0.008919659345
0.00169612532978
0.00689450488107
0.00215346337484
0.00515852630618
0.00200117527552
0.00353583786326
0.00220376537468
0.00227625486768
0.00178414557957
0.00135336507494
0.00135747109662
0.00102447264851
0.000533326656504
0.000748750314158
0.000429775787204
0.000484068147946
0.000442054001772
0.000305538242156
0.000353585336195
0.000151339741393
0.000328072672474
4.07402432853e-05
0.000255266934797
-7.3731387465e-06
0.000157177917667
-2.92491552508e-05
8.71873278483e-05
-4.34157543699e-05
4.41654298951e-05
-4.89504587617e-05
1.10710695696e-05
-5.17311393298e-05
-1.62929161619e-05
-4.23780882103e-05
-5.47678690434e-05
-2.43833514093e-05
-7.80212855349e-05
-0.000103356323684
0.00122885852902
-0.00906242387988
0.00253704424517
-0.00961483178314
0.00384095480307
-0.00957903681896
0.00512449758138
-0.0095049914361
0.00639620485142
-0.00940222916056
0.0076420840489
-0.00926481673036
0.00886586268988
-0.00910197420235
0.0100727925861
-0.00894121865774
0.0112475868287
-0.00874116804641
0.0123960198451
-0.00852628564777
0.0135221625284
-0.0083294667477
0.0145995962455
-0.00811202562885
0.0156660007269
-0.00788582619956
0.0167014487763
-0.00764513527028
0.0176814763536
-0.0073656385166
0.0186263081666
-0.00707326829925
0.0195302909295
-0.00677270543523
0.0203933137109
-0.00646036471684
0.0212165775343
-0.00613250847424
0.0220167820014
-0.00580555824516
0.0228399898596
-0.00557600032672
0.0236538378037
-0.00537866855272
0.0243779935467
-0.00509326190676
0.0249885655042
-0.00470508118887
0.0255437192716
-0.00428707347185
0.0260470129528
-0.00385514123545
0.0265507377211
-0.00346593695781
0.0269961382194
-0.00305638903604
0.0273296092943
-0.00257338846415
0.0275919247617
-0.00206982593107
0.0277782454847
-0.00154813351576
0.0279748425873
-0.00110379137453
0.0281191078479
-0.00064733045953
0.0282926621729
-0.00025870338283
0.0284836818875
3.23500805915e-05
0.0284555108835
0.000483635162269
0.0282846576708
0.00103580462786
0.0281295162463
0.00148137434572
0.0279222533881
0.00192416694261
0.0275426725671
0.00244217126902
0.0270686472146
0.00297370353039
0.0265546148153
0.00345310411669
0.0261007181708
0.0038278625133
0.0255617906199
0.00431617983369
0.0248663810016
0.00489037724519
0.0241124265537
0.00540043659769
0.0234065610375
0.00575924960714
0.022628471802
0.0062544417792
0.0216729493231
0.0067403969386
0.020791611837
0.00707495366181
0.0198251789648
0.00758395144142
0.0187525693587
0.00795273431928
0.0175808157515
0.00846894597694
0.0163085713712
0.00882657605023
0.0150017449787
0.00915204036216
0.0138113411242
0.0090876377266
0.0133233790491
0.00852259685972
0.013351157293
0.00788600034334
0.0130180166721
0.00740725823908
0.0126647329647
0.00705792936303
0.0130463878276
0.00551482144226
0.014452062976
0.00418898199135
0.0174363314514
0.00183020529182
0.0225541351186
-0.00153847064697
0.0316882908854
-0.00682669145947
0.0411697052568
-0.00754090468573
0.0537372070496
-0.0111902687353
0.0673675934724
-0.0142124258067
0.0776788036115
-0.0116209604697
0.0905520308006
-0.0113811924658
0.101415883337
-0.00817713081022
0.10398478058
-0.000809739023729
0.10132190415
0.00460966043383
0.0944594726733
0.00936733614411
0.0828740784409
0.0143496852272
0.0676894276049
0.0171227338454
0.0535343292434
0.0158274055209
0.0403505836733
0.0153099946026
0.0288001283528
0.0135358326649
0.0200365114535
0.0109474931412
0.0130419200298
0.00876045350824
0.00836002070362
0.00602048880993
0.00514163859661
0.00373497994872
0.00294696828918
0.00261238498884
0.00154609995513
0.00183043010014
0.000844735038613
0.00104260922146
0.000405791081075
0.000755412888972
9.16511357634e-05
0.00055765318682
-1.75782397592e-05
0.000254858695429
-6.29197796342e-05
0.000120890879828
-7.93766907384e-05
4.92118830064e-05
-8.12881369009e-05
1.33846218481e-06
-7.47822938598e-05
-3.42588278499e-05
-6.41162984036e-05
-7.97779936013e-05
-3.33203148452e-05
-0.000123337366037
-0.000143638874029
0.00125386702172
-0.01028237503
0.00259225784182
-0.0109178079658
0.00392287743635
-0.0108739305399
0.00523059429548
-0.0107773086664
0.00652966402934
-0.0106660867459
0.00780401139728
-0.0105043415125
0.00905156656221
-0.0103151537212
0.0102745125221
-0.0101302799032
0.0114645015797
-0.0098980098661
0.0126288111278
-0.00965816563222
0.0137660725336
-0.0094352035513
0.0148762097669
-0.00919158438594
0.0159585179477
-0.00893879533535
0.0169843265088
-0.00864301056672
0.0179738063011
-0.00832889484607
0.0189278552624
-0.00800296925482
0.0198433565407
-0.00766599698777
0.0207188588452
-0.00731589069618
0.0215477824768
-0.0069438373873
0.0223912856609
-0.00663397193955
0.0232570993428
-0.00642919430738
0.0240642419055
-0.0061760452384
0.0247748552103
-0.00579697535543
0.0254061079266
-0.00533254659742
0.0259843977011
-0.00486453298479
0.0265667965622
-0.00443989582038
0.0270892363894
-0.00399374737648
0.0274895996306
-0.00346533001683
0.0278352315859
-0.00293043388453
0.0281183387976
-0.00236730051947
0.0283784387536
-0.00182490281035
0.0286040001322
-0.00134858024859
0.0288598258035
-0.000924359969264
0.0291172754867
-0.000539688708964
0.0291576124518
-3.31392054321e-05
0.0290356709223
0.000579146003709
0.0289441911143
0.00109955148266
0.0287793293542
0.00161755331842
0.028473368178
0.00220082068503
0.0281094144131
0.00277635636234
0.0277628483699
0.00328992704663
0.027368141462
0.00381695921078
0.0268009549091
0.00436405541266
0.0261749466998
0.00491147676379
0.02558134446
0.00545272507723
0.0249439117951
0.00600756275468
0.0241164515816
0.0065554481636
0.0233523982639
0.00698895075857
0.0225154037448
0.00754627759809
0.0216376105424
0.00792335848295
0.0207077871686
0.0084841876305
0.0195983600855
0.00903356780231
0.0184567370696
0.0095869111764
0.0171472859016
0.0101161598344
0.016158427844
0.0101257199765
0.0164493637689
0.00878755413371
0.0170165565694
0.00794878887257
0.0171930262305
0.00770907096013
0.0175474733327
0.00706188800117
0.0187821100634
0.0058442800548
0.02236226973
0.00195616849365
0.0296141743523
-0.00304147089974
0.042362789206
-0.0108975902895
0.0653401988981
-0.0244942210145
0.0916695908468
-0.0331354944307
0.120248533127
-0.0360967577093
0.145592712846
-0.0365066047754
0.15914849841
-0.0277392277065
0.166630860773
-0.0190762578886
0.167962043718
-0.0126878305432
0.165778706425
-0.00597968671708
0.162788328576
0.00218197465513
0.157939149898
0.00944212983752
0.151412015385
0.0158650736465
0.144183817181
0.0215393006284
0.136138936467
0.0251290338586
0.125695401008
0.0262335108024
0.113949807676
0.0270231155116
0.100753155906
0.0266999469423
0.0858843155006
0.0257820153208
0.0691693269529
0.0254396339371
0.0492757243402
0.0258748057611
0.0300483542161
0.0229356033415
0.0161516298768
0.0164849794522
0.0079585493678
0.0100005155471
0.00398676922359
0.00499968750169
0.00178099501237
0.00294801943834
0.000539945150957
0.00178628518118
0.000137179486454
0.000644429472683