/*--------------------------------*- C++ -*----------------------------------*\
| =========                 |                                                 |
| \\      /  F ield         | OpenFOAM: The Open Source CFD Toolbox           |
|  \\    /   O peration     | Version:  v1906                                 |
|   \\  /    A nd           | Web:      www.OpenFOAM.com                      |
|    \\/     M anipulation  |                                                 |
\*---------------------------------------------------------------------------*/
FoamFile
{
    version     2.0;
    format      ascii;
    class       surfaceScalarField;
    location    "43";
    object      phia;
}
// * * * * * * * * * * * * * * * * * * * * * * * * * * * * * * * * * * * * * //

dimensions      [0 3 -1 0 0 0 0];
oriented        oriented;


internalField   nonuniform List<scalar> 
18240
(
0.01221008926
-0.0122109948363
0.0251108021914
-0.0129019352981
0.0379373514721
-0.0128274194051
0.0506020740091
-0.0126660058362
0.0630462572757
-0.0124449574493
0.0752163275874
-0.012171393206
0.0870655596956
-0.0118499023432
0.0985499334357
-0.0114857228112
0.109632683072
-0.011083314661
0.120279571421
-0.0106482520013
0.130464219252
-0.0101851072651
0.140162392279
-0.00969954142082
0.149357903889
-0.00919586880725
0.158035988858
-0.00867944949097
0.166189747733
-0.00815401663312
0.173812749229
-0.00762435504236
0.180906011099
-0.00709342593894
0.187469974042
-0.00656529921898
0.193512000842
-0.00604210135862
0.199037848987
-0.00552716204838
0.204059660657
-0.0050218033843
0.208587039158
-0.00452866546939
0.212635482297
-0.00404835656685
0.21621714855
-0.00358292269354
0.219349681896
-0.00313237528976
0.222046736457
-0.00269827715202
0.224327129452
-0.00228016774316
0.226205182667
-0.00187923935072
0.22770014709
-0.00149467832799
0.228826414934
-0.00112741520226
0.229603167319
-0.000776409273471
0.230044527795
-0.000442468026786
0.230169459772
-0.000124538047743
0.229992042028
0.000176350635725
0.229528490245
0.000463993573448
0.22879099981
0.000736466331908
0.227796506884
0.000994977849521
0.226556436841
0.00123909192709
0.225086677506
0.00147028526599
0.223397638749
0.00168810921017
0.221504165365
0.0018940356626
0.219415669394
0.00208761731255
0.217145957385
0.00227030795038
0.21470347598
0.00244165523062
0.212101017537
0.00260308311077
0.209346114554
0.00275413080434
0.206450582616
0.00289618250364
0.203421098222
0.00302876714605
0.200268546265
0.00315322357946
0.196998812677
0.00326907215566
0.193621900893
0.00337760164042
0.190142969909
0.00347832569782
0.186571192252
0.00357248107394
0.182911064687
0.00365957869495
0.179170977754
0.00374080111596
0.175354825281
0.00381565976899
0.171470263091
0.00388528268324
0.167520640024
0.0039491862358
0.163512921256
0.00400844286275
0.159449962339
0.00406257723917
0.155338079468
0.00411260643652
0.151179684759
0.00415806751466
0.146980483808
0.00419992150343
0.142742489387
0.00423772078086
0.138470832681
0.00427237062665
0.134167169692
0.00430344216605
0.129836090596
0.0043317843036
0.125478932461
0.00435698929431
0.12109977619
0.00437984978526
0.116699676805
0.00439998191062
0.112282235565
0.00441812134528
0.107848258681
0.00443390997474
0.103400896382
0.0044480263844
0.0989407387853
0.00446014032762
0.0944705124222
0.00447087253303
0.0899906212426
0.00447992199445
0.0855033951806
0.00448785136686
0.0810090815673
0.00449439031445
0.0765096404169
0.00450004282563
0.0720051898372
0.00450456999135
0.0674973470278
0.00450841706762
0.0629861282769
0.00451137720621
0.0584728351823
0.00451383657748
0.0539574093141
0.00451562063779
0.0494408642703
0.00451705598657
0.044923095689
0.00451800052903
0.0404048566619
0.00451871942562
0.0358860272143
0.00451910129364
0.0313671344865
0.00451934329818
0.0268480900855
0.00451935013148
0.0223292858606
0.00451921471278
0.0178108581088
0.00451875419547
0.0132935726132
0.00451764709169
0.00877923034571
0.00451469524581
0.00428234050327
0.00449724101366
0.00428250926434
0.0128242407249
-0.0250362589236
0.0265258155486
-0.0266046599381
0.0401058748208
-0.0264085366571
0.0535037123615
-0.0260649977614
0.0666654203493
-0.0256076780007
0.0795386583063
-0.0250457687475
0.0920749340905
-0.0243871363509
0.104229285768
-0.0236411857315
0.115962558316
-0.0228174852802
0.127239753807
-0.0219265250209
0.138032210776
-0.0209783989679
0.148315346361
-0.0199837152744
0.158070888381
-0.0189521799066
0.167284145168
-0.0178937012098
0.175946341653
-0.0168169164229
0.184051523968
-0.0157304862295
0.191599042674
-0.0146415822207
0.19859018969
-0.0135573471667
0.205030860249
-0.0124833453405
0.21092800317
-0.0114251569272
0.216292476808
-0.0103867875372
0.221135373805
-0.00937236488729
0.225471070192
-0.00838450298259
0.229313468285
-0.00742607366796
0.2326792257
-0.00649852405107
0.235583945852
-0.00560370081083
0.238045564987
-0.00474212220302
0.240080509877
-0.00391483882338
0.24170721564
-0.00312166521482
0.242942259631
-0.00236306544632
0.243803970831
-0.00163835017116
0.244308519506
-0.000947575709971
0.24447350096
-0.000289700239426
0.244313611295
0.000335727098559
0.243847203334
0.000930267849906
0.243089216817
0.00149398599152
0.242055816183
0.0020282908736
0.24076076197
0.00253372576337
0.239219212094
0.00301179208492
0.237443895813
0.00346305172324
0.235448916053
0.00388901585392
0.233245958013
0.00429024807056
0.230848065521
0.00466824236869
0.228265898176
0.00502354124626
0.225511464268
0.00535759888151
0.222594437739
0.00567092130817
0.219525831473
0.00596490830171
0.216314385715
0.00624002125021
0.212970167716
0.00649759697566
0.209501042667
0.00673804892237
0.205916186342
0.00696264680553
0.202222649478
0.00717175638236
0.19842877193
0.00736657889288
0.194540850516
0.00754743469505
0.190566443683
0.00771545709708
0.186511152483
0.00787092474132
0.182381806452
0.00801490454738
0.178183366365
0.0081476376578
0.173921982361
0.00827012677253
0.169602026655
0.00838258004965
0.165229016552
0.00848593826941
0.160806784236
0.00858038095884
0.156340257505
0.00866678929621
0.151832773329
0.008745318335
0.147288710546
0.00881679172647
0.142710952951
0.00888134379426
0.138103368194
0.00893974250235
0.133468425858
0.00899210481883
0.128809517986
0.00903914449796
0.124128736849
0.00908096408576
0.119429032375
0.00911822429993
0.114712154099
0.00915101580459
0.109980641842
0.00917994711281
0.105235935611
0.00920509915953
0.10048019579
0.00922702882443
0.0957145844104
0.00924580908262
0.0909409123342
0.00926194552365
0.0861600943375
0.0092755045922
0.0813736210336
0.00928694078114
0.076582189518
0.00929631503535
0.071786999261
0.00930403083991
0.0669885590647
0.00931014436604
0.0621878064012
0.00931500798625
0.0573850911155
0.00931867345012
0.0525811181216
0.00932144146856
0.0477761081685
0.00932335936389
0.0429705619399
0.00932467441015
0.038164598659
0.00932542755151
0.0333585397276
0.00932580770653
0.0285524222915
0.00932583990769
0.0237463867403
0.00932563712719
0.0189403191969
0.00932518522051
0.0141338740279
0.00932446602789
0.00932598940505
0.00932294788285
0.00452071867375
0.00930287005851
0.00880340373586
0.0129889726207
-0.038026278827
0.0268253298418
-0.0404421436303
0.0405522913943
-0.0401365958445
0.0540952462164
-0.0396090656415
0.0673952660657
-0.0389087631725
0.0803980780836
-0.0380496625912
0.0930535867315
-0.0370436679178
0.105316154389
-0.0359047966501
0.117145641884
-0.0346479474151
0.128507011396
-0.0332888931947
0.139371120241
-0.0318434292166
0.149713913531
-0.0303274582717
0.159517054439
-0.0287561863537
0.168766819485
-0.0271443640214
0.177454647612
-0.0255055522223
0.185575837608
-0.023852520444
0.193130089907
-0.0221965841294
0.200120090784
-0.0205481378131
0.206552101953
-0.018916047779
0.212434496081
-0.0173082863318
0.21777843037
-0.0157313558632
0.222596375654
-0.0141909912091
0.226902889194
-0.0126915939764
0.230713162116
-0.0112369742296
0.234043894051
-0.00982977863755
0.236911869604
-0.00847225143828
0.239334925818
-0.0071656472568
0.241330560327
-0.00591099698748
0.242916978423
-0.00470850028573
0.244111727533
-0.00355828783803
0.244932801639
-0.00245979051948
0.245397289262
-0.00141248775997
0.245522518737
-0.000415247809844
0.245324922612
0.000532946002562
0.244821648147
0.00143327211807
0.244028032594
0.00228727177637
0.242959579477
0.00309652030178
0.241630718161
0.00386230400123
0.240055999855
0.00458633275535
0.238248817853
0.00526999663907
0.236222653981
0.00591504671608
0.233989831264
0.00652287900334
0.231562761379
0.00709522305211
0.228952717798
0.00763343718657
0.226171073832
0.00813919562785
0.223228096618
0.00861379392571
0.220134168031
0.00905883048952
0.216898602359
0.00947552389826
0.213530845503
0.00986538619448
0.210039318724
0.0102295528727
0.206432590367
0.0105694448659
0.202718249121
0.0108861132605
0.198904044922
0.0111808878806
0.194996794321
0.0114547377458
0.191003485955
0.011708903664
0.186930221428
0.0119442765615
0.182783282835
0.012162012332
0.178568111631
0.0123629291313
0.174290334455
0.0125481022722
0.169954783092
0.0127182825407
0.165566476706
0.0128744696498
0.161129685071
0.0130173526475
0.156648864144
0.0131478600284
0.15212776527
0.0132666241477
0.147570322656
0.0133745066971
0.142979810394
0.0134720881439
0.138359679286
0.0135601669092
0.133712764024
0.0136392755965
0.129042068205
0.013710152695
0.124350023232
0.0137732865866
0.11963921936
0.0138293582805
0.114911718354
0.0138788148329
0.110169729565
0.0139222819942
0.105414977673
0.0139601680148
0.100649322012
0.0139930448562
0.0958741810656
0.0140212838575
0.0910910942813
0.0140454044871
0.0863012042631
0.0140657427371
0.0815057598167
0.0140827663173
0.0767056569495
0.0140967769397
0.0719018828409
0.0141081911762
0.0670951161252
0.0141172772199
0.062286111215
0.0141244006588
0.0574753584383
0.0141297965236
0.0526634086079
0.0141337792507
0.0478505926056
0.0141365506347
0.0430372848268
0.0141383729689
0.038223682027
0.01413941383
0.0334100021026
0.0141398809127
0.0285963220053
0.0141399053477
0.0237827046636
0.01413963992
0.0189690741823
0.0141391845735
0.0141552686974
0.0141386360895
0.00934123670507
0.0141373554034
0.00453593859188
0.0141085320045
0.0133395132765
0.0131658610114
-0.0511931911132
0.0271805458012
-0.0544579409612
0.0410827112149
-0.0540398671901
0.054794364061
-0.0533218168921
0.0682531761864
-0.0523686497888
0.081402642119
-0.0512001929049
0.0941909211436
-0.0498329816614
0.106571356925
-0.0482862557396
0.118503042519
-0.0465806219223
0.1299508165
-0.0447376437859
0.140885538885
-0.0427790902417
0.151283738748
-0.0407265839395
0.161127650778
-0.0386009833507
0.170404619686
-0.0364222052666
0.179106997592
-0.0342087598233
0.187231410271
-0.0319777505841
0.194778605279
-0.0297445525094
0.201752665829
-0.0275229603314
0.208160876678
-0.0253249758095
0.214012945518
-0.0231610617286
0.219320927397
-0.0210399989285
0.224098488325
-0.0189692037637
0.228360907606
-0.0169546195078
0.232124399246
-0.0150010634601
0.235406195496
-0.0131121270507
0.238223928466
-0.0112905289651
0.240595789022
-0.00953800730603
0.242539963852
-0.00785566448829
0.244074858868
-0.00624384308378
0.24521858385
-0.0047024547722
0.245989230906
-0.00323083521645
0.246404404621
-0.00182805390675
0.246481560895
-0.000492753213165
0.246237592267
0.000776569904383
0.245688679088
0.00198188435098
0.244850702403
0.00312495190939
0.243739175183
0.00420779400707
0.242368830032
0.0052323994971
0.240754037058
0.00620091842476
0.23890841677
0.00711541324275
0.236845232484
0.0079780690806
0.234577007005
0.00879094577919
0.232115917178
0.00955619495318
0.229473419635
0.0102758197578
0.226660644928
0.0109518952262
0.223688031534
0.0115863347572
0.220565716501
0.0121811115691
0.21730317756
0.0127380311621
0.213909617647
0.0132589518701
0.210393615134
0.0137455630238
0.206763500289
0.0141996033158
0.203027014209
0.0146226445361
0.199191675504
0.0150163063471
0.195264448452
0.0153820457436
0.191252098615
0.0157213673381
0.187160871123
0.0160356187664
0.182996834031
0.0163261954298
0.178765567443
0.0165943421953
0.174472493697
0.0168413519705
0.170122578309
0.0170683740533
0.165720646128
0.0172766057177
0.161271094834
0.0174671076673
0.156778196369
0.0176409881419
0.152245823918
0.0177992258977
0.147677737984
0.0179428461666
0.143077327521
0.0180727516471
0.138447880085
0.0181898898991
0.133792337964
0.0182950927963
0.129113551898
0.0183892347869
0.124414052811
0.0184730812942
0.119696288584
0.0185474374537
0.114962412153
0.0186130059273
0.110214500904
0.0186705256062
0.105454361683
0.0187206393188
0.100683732342
0.0187640221183
0.0959041043077
0.0188012593383
0.0911169059523
0.0188329640206
0.0863233431371
0.0188596657489
0.0815245640112
0.0188819168734
0.0767215180376
0.0189001925058
0.0719151020089
0.0189149852083
0.0671060379132
0.0189267164604
0.0622949999648
0.0189358195345
0.0574825115309
0.0189426627305
0.0526690531754
0.0189476201617
0.047854977982
0.0189510071252
0.0430405996817
0.0189531383151
0.0382261254281
0.0189542758764
0.0334117225927
0.0189546755448
0.0285974698786
0.0189545473548
0.0237833977195
0.0189540917876
0.0189694674254
0.0189534857594
0.0141556230365
0.0189528550049
0.00934209841839
0.0189512476197
0.00453861590997
0.0189123715554
0.0178783049946
0.013397920062
-0.0645921601634
0.0276586283092
-0.0687197603282
0.0417990332864
-0.0681813742552
0.0557385940893
-0.0672624691537
0.0694114449628
-0.0660425727518
0.0827583257996
-0.0645481294628
0.095725203178
-0.0628008921875
0.108263946703
-0.0608260132613
0.120332724292
-0.0586503879862
0.131896098964
-0.0563019854935
0.142925083457
-0.0538090137255
0.153396883876
-0.0511993004848
0.163294677296
-0.0484996632289
0.172607123379
-0.045735514076
0.181327986151
-0.0429304545338
0.189455533325
-0.0401061057597
0.196992108528
-0.0372819044219
0.203943511099
-0.0344751156668
0.210318592558
-0.031700778436
0.216128676182
-0.0289718429719
0.22138721991
-0.0262992087844
0.226109305548
-0.0236919323877
0.230311384616
-0.0211573102271
0.234010846295
-0.0187011143356
0.237225846878
-0.016327685928
0.239974952658
-0.0140401711349
0.242277043984
-0.0118406044449
0.244151023203
-0.00973012832217
0.245615781178
-0.00770905564277
0.246689958203
-0.00577706571042
0.247391960064
-0.00393324127942
0.247739763958
-0.00217624205519
0.24775098058
-0.000504325527257
0.247442646592
0.00108456761726
0.246831332256
0.00259289180548
0.24593300594
0.00402299069256
0.244763144644
0.005377396098
0.243336596813
0.00665870696614
0.241667692475
0.00786961021395
0.239770128547
0.00901278287128
0.23765709129
0.0100909391656
0.235341148498
0.011106739191
0.232834376062
0.0120628444976
0.230148255506
0.0129618345321
0.227293802644
0.0138062679519
0.224281468909
0.014598604902
0.221121269868
0.0153412718715
0.217822689491
0.0160365885806
0.214394807342
0.0166868349349
0.21084620508
0.0172941813322
0.207185090982
0.0178607564018
0.203419208561
0.0183885802319
0.199555957929
0.0188796320893
0.195602306387
0.0193357859404
0.191564905791
0.0197588773553
0.18745000537
0.0201506412323
0.183263564976
0.0205127774175
0.179011170211
0.020846890362
0.174698141027
0.0211545529384
0.170329449578
0.0214372481455
0.165909824183
0.0216964308787
0.161443670103
0.0219334715664
0.156935168481
0.0221497155445
0.152388200491
0.0223464288558
0.14780644134
0.0225248550774
0.143193287995
0.0226861632673
0.138551947944
0.0228315019917
0.133885370931
0.0229619496919
0.129196332568
0.0230785658027
0.124487370265
0.0231823435843
0.119760861435
0.0232742581283
0.115018964019
0.0233552219398
0.110263689333
0.0234261297339
0.105496847383
0.0234878168474
0.100720114122
0.023541100653
0.0959349818922
0.0235867420749
0.0911428211322
0.0236254835244
0.0863448360955
0.0236580136108
0.0815421207791
0.0236850014557
0.076735620242
0.0237070648389
0.0719261807317
0.0237248008044
0.0671145168188
0.0237387573045
0.062301255611
0.0237494600078
0.0574869098351
0.023757387647
0.0526719163046
0.0237629949333
0.0478566139805
0.0237666917205
0.0430412762438
0.0237688620678
0.03822609348
0.023769847617
0.0334111967784
0.0237699624964
0.0285966494004
0.023769483094
0.0237824657928
0.0237686603138
0.0189686095269
0.0237677119365
0.0141550530498
0.023766773496
0.00934208497189
0.0237645904018
0.00453943146402
0.0237153879123
0.0224179058275
0.0136927733853
-0.0782859789742
0.0282700079074
-0.0832980947719
0.0427160671588
-0.0826285322784
0.0569471464597
-0.0814946324986
0.0708930130805
-0.0799895065462
0.0844909774795
-0.0781471426486
0.0976842995396
-0.0759952422889
0.110422995003
-0.0735657159178
0.122664163058
-0.0708925395379
0.134372073953
-0.068010856819
0.145518088819
-0.0649559631577
0.15608035417
-0.0617624756717
0.166043413495
-0.0584636050443
0.175397666457
-0.0550906238779
0.184138824914
-0.0516724417406
0.192267280318
-0.0482353637609
0.199787528269
-0.044802926487
0.206707547303
-0.0413958825821
0.213038271999
-0.03803222255
0.218793042444
-0.0347273066793
0.223987165475
-0.0314939967616
0.228637459166
-0.0283428652068
0.232761913398
-0.0252823756837
0.236379331135
-0.0223191178546
0.239509082386
-0.0194579954578
0.242170831891
-0.0167024539702
0.244384372822
-0.0140546517317
0.246169425852
-0.0115156631645
0.24754553663
-0.00908562163194
0.24853193062
-0.00676389094576
0.249147459872
-0.00454917564542
0.249410502483
-0.0024396659877
0.249338942684
-0.000433122082034
0.248950030957
0.00147314612658
0.248260489568
0.00328212588439
0.247286461807
0.00499673437343
0.246043498642
0.00662010012323
0.244546525532
0.00815544341664
0.242809878534
0.0096060448161
0.240847277853
0.0109751930569
0.238671871579
0.0122661786185
0.236296214566
0.0134822506194
0.23373231614
0.0146266202825
0.230991622414
0.0157024262078
0.22808506585
0.0167127447035
0.225023049497
0.0176605612789
0.22181549702
0.0185487857668
0.21847183788
0.0193802282365
0.215001056724
0.0201576171798
0.211411678848
0.0208835785554
0.20771181833
0.0215606558926
0.203909163458
0.0221912914968
0.200011023136
0.0227778474984
0.196024312069
0.0233225885774
0.19195559527
0.0238277033663
0.18781107303
0.0242952882329
0.183596623312
0.0247273685016
0.179317786583
0.0251258829925
0.174979806096
0.0254927048123
0.170587612729
0.0258296264479
0.166145863133
0.0261383798247
0.161658924714
0.0264206218781
0.15713091171
0.0266779537669
0.152565670532
0.0269119068684
0.1479668138
0.0271239609917
0.143337706185
0.0273155308093
0.138681496485
0.0274879830377
0.134001104183
0.0276426233287
0.129299249603
0.0277807123315
0.124578441315
0.027903453103
0.119841004445
0.0280120060516
0.115089069105
0.028107476926
0.110324596895
0.028190930592
0.105549370492
0.0282633796775
0.100765018378
0.0283257971851
0.0959730057454
0.0283791058758
0.091174657473
0.0284241896866
0.0863711504596
0.0284618839185
0.0815635348208
0.0284929854755
0.0767527278223
0.0285182439312
0.0719395332698
0.0285383705662
0.0671246372404
0.0285540303821
0.0623086256981
0.0285658499438
0.0574919820366
0.0285744104111
0.0526751031115
0.0285802542059
0.0478582977629
0.0285838792187
0.0430418009138
0.0285857442277
0.0382257722472
0.0285862645102
0.0334103084147
0.0285858169426
0.0285954450078
0.0285847359053
0.0237811650946
0.0285833180427
0.018967420083
0.0285818271538
0.0141541678028
0.0285804005946
0.00934163674969
0.0285774861011
0.00453948605623
0.028517892598
0.0269575672043
0.0140560683605
-0.0923430870424
0.0290245774765
-0.098267703655
0.0438480461741
-0.0974530918733
0.0584382959196
-0.0960859608028
0.072719602042
-0.0942718732415
0.0866250299686
-0.0920536127224
0.100094556819
-0.0894657909297
0.113075993989
-0.0865481534283
0.125525264984
-0.0833427881102
0.137406430277
-0.0798929758126
0.148691471547
-0.0762419333618
0.159359865497
-0.0724317730399
0.169398027676
-0.0685026446146
0.17879864625
-0.0644920933648
0.187559980896
-0.0604346005378
0.195685131505
-0.0563613116362
0.203181338222
-0.0522999034257
0.210059299969
-0.0482745875579
0.216332560054
-0.0443061987507
0.22201693194
-0.0404123678548
0.227130004878
-0.0366077320602
0.231690693077
-0.0329041892291
0.235718863375
-0.0293111551451
0.239235000067
-0.0258358376157
0.242259940137
-0.0224834923327
0.244814635217
-0.0192576801816
0.246919973703
-0.0161604954151
0.248596618875
-0.0131927882881
0.249864897445
-0.0103543546369
0.250744694464
-0.0076441175899
0.25125539067
-0.00506027607298
0.251415800483
-0.00260045547553
0.251244137153
-0.000261814128761
0.250757879122
0.00195907273274
0.249973972428
0.00406572649763
0.248908705977
0.00606171886677
0.247577718393
0.00795083002678
0.245995994691
0.00973693281363
0.244177885083
0.0114239437135
0.242137108413
0.0130157816816
0.239886777104
0.0145163447764
0.237439404438
0.0159294801366
0.234806932312
0.0172589714765
0.232000740485
0.0185085183559
0.229031675457
0.0196817315024
0.225910060322
0.020782118692
0.222645723547
0.0218130855037
0.2192480086
0.0227779258163
0.215725801994
0.0236798262478
0.212087542146
0.0245218597013
0.208341246169
0.025306992136
0.204494517727
0.026038078113
0.200554572437
0.0267178689806
0.196528244586
0.0273490095944
0.192422010974
0.0279340471971
0.188241996548
0.0284754288328
0.183993996759
0.0289755104773
0.179683482163
0.0294365547151
0.175315619289
0.029860739788
0.170895274371
0.0302501573451
0.166427032876
0.0306068212071
0.161915202492
0.0309326650134
0.157363831371
0.0312295505392
0.152776710552
0.0314992652077
0.148157391099
0.0317435298979
0.143509186089
0.0319639962589
0.138835186696
0.0321622539464
0.134138263927
0.0323398277825
0.129421083811
0.0324981844215
0.124686108985
0.0326387293523
0.11993561304
0.0327628129796
0.115171682113
0.0328717275416
0.110396228516
0.0329667126393
0.105610992426
0.0330489520942
0.100817554822
0.0331195789177
0.0960173394185
0.0331796722109
0.0912116249955
0.0332302616008
0.086401547636
0.0332723242104
0.0815881124307
0.0333067885819
0.0767721961838
0.0333345317964
0.0719545584845
0.0333563829112
0.0671358450725
0.0333731202652
0.0623165983122
0.0333854744507
0.0574972612475
0.0333941259004
0.052678187741
0.033399707423
0.0478596462203
0.0334028020916
0.0430418294176
0.0334039455414
0.0382248576114
0.033403624333
0.0334087858311
0.0334022773867
0.0285936119335
0.0334002966518
0.0237792864988
0.0333980277608
0.0189657177855
0.0333957643959
0.0141528187878
0.0333936582959
0.00934077133053
0.0333899068796
0.00453916725562
0.0333198579316
0.0314969020641
0.0144940616821
-0.106838183925
0.0299347987575
-0.113709527792
0.045213136323
-0.112732516039
0.0602352842167
-0.111109179609
0.0749186711235
-0.108956314521
0.0891911790074
-0.10632715587
0.102988870621
-0.103264497509
0.116257028313
-0.099817304693
0.128950362768
-0.096037093171
0.141032923583
-0.0919764837164
0.152477714031
-0.0876876459848
0.163266078975
-0.0832210351111
0.173386948313
-0.0786243849504
0.182835985808
-0.0739419759484
0.19161471172
-0.0692141448227
0.199729627019
-0.0644770189737
0.207191385369
-0.0597624268728
0.214014019138
-0.0550979599848
0.220214246836
-0.0505071382245
0.225810852913
-0.0460096593337
0.230824155083
-0.0416216929535
0.23527554182
-0.0373562085561
0.239187088796
-0.0332233083861
0.242581233646
-0.0292305629001
0.24548051545
-0.0253833286172
0.247907358175
-0.0216850518846
0.249883904179
-0.0181375448297
0.251431878435
-0.0147412407322
0.252572490126
-0.0114954192202
0.253326353877
-0.00839840941694
0.25371343926
-0.00544776445767
0.25375303441
-0.00264042852668
0.253463716554
2.71498290829e-05
0.252863196745
0.00255926292265
0.251968660348
0.00495995840371
0.250796540271
0.0072335590134
0.249362561892
0.00938455262409
0.247681756221
0.011417506409
0.245768479248
0.0133370119718
0.243636429297
0.0151476458844
0.24129867057
0.0168539404042
0.238767652653
0.018460357187
0.236055235434
0.019971269727
0.233172709126
0.0213909471971
0.230130819025
0.0227235452747
0.226939785009
0.0239730970926
0.223609325335
0.0251435098768
0.220148675015
0.0262385607436
0.216566608165
0.027261897177
0.212871454959
0.0282170360309
0.209071122328
0.0291073664539
0.205173109387
0.0299361508924
0.20118452641
0.0307065294255
0.197112108731
0.0314215219352
0.192962234059
0.0320840331611
0.188740934948
0.0326968554412
0.184453914554
0.0332626739778
0.180106557787
0.0337840697597
0.175703945664
0.0342635247324
0.171250865332
0.0347034246363
0.16675182314
0.0351060638555
0.162211053697
0.0354736480188
0.157632531845
0.0358082984216
0.153019980923
0.036112054296
0.148376883781
0.0363868767284
0.143706490398
0.0366346505649
0.139011828105
0.0368571878195
0.134295708693
0.0370562292066
0.129560737983
0.0372334470368
0.124809322539
0.037390446395
0.120043678707
0.0375287675702
0.115265839057
0.0376498869114
0.110477660994
0.0377552188058
0.105680833028
0.0378461162728
0.100876883049
0.0379238725446
0.0960671845107
0.0379897214336
0.0912529644497
0.0380448385638
0.0864353096585
0.0380903415594
0.0816151744638
0.0381272909796
0.0767933870146
0.038156690376
0.0719706568123
0.0381794869745
0.067147581303
0.0381965716474
0.0623246532526
0.0382087793958
0.0575022676204
0.0382168892753
0.0526807290265
0.0382216247387
0.0478602581128
0.0382236536393
0.0430409989097
0.0382235883467
0.0382230238607
0.0382219858766
0.0334063414931
0.0382193486902
0.0285909029371
0.0382161230458
0.0237766063586
0.0382126995276
0.0189633197426
0.0382094194187
0.0141509080313
0.0382064443663
0.00933946695853
0.0382017092984
0.004538564643
0.0381211108488
0.0360356413504
0.0150143091098
-0.121853521606
0.0310162487426
-0.129712555113
0.0468341815322
-0.128551526676
0.0623672783438
-0.12664334179
0.077524542137
-0.124114625355
0.0922276034388
-0.121031245451
0.106407941129
-0.117445843076
0.120008032897
-0.11341838262
0.132981449324
-0.109011473185
0.14529258914
-0.104288563166
0.15691605722
-0.0993120293809
0.167835798675
-0.0941416664772
0.178044080272
-0.0888335310774
0.187540401192
-0.083439135224
0.196330397699
-0.0780049537555
0.204424790768
-0.0725721979995
0.211838409488
-0.0671768054236
0.218589310207
-0.0618495940386
0.224698000972
-0.0566165361902
0.230186772252
-0.0514991114787
0.235079130698
-0.0465147062858
0.239399327266
-0.0416770339422
0.243171971543
-0.036996555741
0.246421720299
-0.0324808890122
0.249173031807
-0.0281351920202
0.251449973926
-0.0239625205008
0.253276079372
-0.0199641515419
0.254674237561
-0.0161398750325
0.255666618773
-0.0124882515563
0.256274621592
-0.00900683865404
0.256518843317
-0.00569238744866
0.25641906825
-0.0025410296551
0.255994255569
0.000451610488496
0.255262349275
0.0032908414942
0.254240774875
0.0059812302994
0.252946097448
0.00852795858898
0.251394115967
0.0109362805123
0.249599889106
0.0132115034426
0.247577760737
0.0153589339367
0.24534138646
0.0173838367078
0.242903761883
0.0192914041768
0.240277249322
0.021086731132
0.237473605699
0.0227747966375
0.234504008094
0.0243604494926
0.231379080178
0.0258483990008
0.228108915936
0.0272432077438
0.224703104142
0.0285492883978
0.221170749966
0.0297709013963
0.217520497347
0.0309121557417
0.21376054841
0.0319770097862
0.209898683731
0.0329692745406
0.205942279644
0.0338926163304
0.201898326518
0.0347505615562
0.197773444105
0.0355465003336
0.193573897973
0.0362836919601
0.1893056131
0.0369652689457
0.184974188676
0.0375942426944
0.180584910143
0.0381735075115
0.17614276256
0.0387058461611
0.171652441305
0.0391939336036
0.167118364227
0.0396403422286
0.162544681214
0.0400475451609
0.157935285304
0.040417921041
0.153293821323
0.0407537568322
0.148623696145
0.0410572520971
0.143928086577
0.0413305212704
0.139209948914
0.0415755974095
0.134472026227
0.0417944339547
0.129716857379
0.0419889079706
0.124946783841
0.0421608214197
0.120163958281
0.0423119039232
0.11537035104
0.0424438136051
0.110567758412
0.0425581394181
0.105757808875
0.0426564016111
0.100941971143
0.0427400536641
0.096121560267
0.0428104824476
0.0912977455152
0.0428690098201
0.0864715564241
0.0429168925366
0.0816438905331
0.0429553235545
0.0768155194997
0.0429854317592
0.0719870966776
0.0430082830283
0.0671591635044
0.0430248798259
0.0623321569889
0.0430361620663
0.0575064163885
0.0430430066587
0.0526821908879
0.0430462282073
0.0478596455702
0.04304657849
0.0430388693025
0.043044747197
0.0382198798512
0.0430413614213
0.0334026294727
0.0430369855229
0.0285870143794
0.0430321226234
0.0237728833414
0.0430272135187
0.0189600392132
0.043022630005
0.0141482829473
0.043018555527
0.00933766158682
0.0430127021644
0.00453769914738
0.0429214325726
0.0405735061911
0.0156261082781
-0.137480654083
0.0322883189432
-0.146375839553
0.0487396157517
-0.145003897128
0.064870491772
-0.142775275112
0.0805796439298
-0.139824818012
0.0957812522548
-0.136233874728
0.110401521756
-0.132067112948
0.124379939001
-0.127397778625
0.137669177677
-0.122301667585
0.150234566963
-0.116854884681
0.162053142123
-0.111131512041
0.173112429643
-0.105201836732
0.183409092715
-0.0991310512034
0.192947534549
-0.0929784086888
0.201738541926
-0.0867967666844
0.209798017606
-0.0806324535402
0.217145839442
-0.0745253809513
0.223804857614
-0.0685093401739
0.229800038276
-0.062612418745
0.23515774411
-0.0568574935631
0.239905145375
-0.051262757937
0.244069743853
-0.045842257355
0.247678998492
-0.040606409738
0.250760034512
-0.0355624991602
0.253339425123
-0.0307151314703
0.25544303039
-0.0260666495678
0.257095884623
-0.0216175045147
0.258322120515
-0.0173665847928
0.259144923711
-0.013311503774
0.259586509052
-0.00944884847444
0.259668117055
-0.00577439499877
0.259410030056
-0.00228331686212
0.258831585166
0.00102970537527
0.257950979991
0.00417112112614
0.256785830577
0.00714607937187
0.255352819401
0.00996069424748
0.253667795943
0.0126210527399
0.251745821361
0.0151332506696
0.249601201039
0.0175033502709
0.247247520417
0.0197373363705
0.244697679487
0.0218410867025
0.241963926204
0.0238203482467
0.239057888483
0.0256807199489
0.235990604681
0.0274276403399
0.232772552506
0.0290663791715
0.229413676412
0.0306020324783
0.225923413367
0.0320395201914
0.222310717233
0.0333835860905
0.218584081534
0.0346387992426
0.214751561024
0.0358095570354
0.210820791714
0.0369000889205
0.206799009898
0.037914461244
0.20269306972
0.0388565822159
0.198509459955
0.0397302076514
0.194254319417
0.0405389464367
0.189933451807
0.0412862665713
0.185552339242
0.0419755006329
0.181116155452
0.042609851722