/*--------------------------------*- C++ -*----------------------------------*\
| =========                 |                                                 |
| \\      /  F ield         | OpenFOAM: The Open Source CFD Toolbox           |
|  \\    /   O peration     | Version:  v1906                                 |
|   \\  /    A nd           | Web:      www.OpenFOAM.com                      |
|    \\/     M anipulation  |                                                 |
\*---------------------------------------------------------------------------*/
FoamFile
{
    version     2.0;
    format      ascii;
    class       volVectorField;
    location    "490";
    object      U;
}
// * * * * * * * * * * * * * * * * * * * * * * * * * * * * * * * * * * * * * //

dimensions      [0 1 -1 0 0 0 0];


internalField   nonuniform List<vector> 
9216
(
(0.00157103855391 -0.00157247116427 0)
(0.00153340061755 -0.0047015692651 7.41586407877e-28)
(0.00152940959419 -0.00792044916361 1.05892455415e-31)
(0.00150805190501 -0.0110906025723 0)
(0.00147605530695 -0.0142045830763 0)
(0.00143578090203 -0.0172425048674 0)
(0.00138847200271 -0.0201887240551 0)
(0.00133507775904 -0.023029641934 0)
(0.00127646251379 -0.0257534988234 0)
(0.00121345995057 -0.0283502904188 0)
(0.00114687607678 -0.0308117219047 0)
(0.00107748140962 -0.0331311451338 0)
(0.0010059974774 -0.0353034712806 0)
(0.00093308941768 -0.0373250595425 0)
(0.000859357717598 -0.0391935902494 0)
(0.000785337896967 -0.0409079280707 0)
(0.000711498439025 -0.0424679839227 0)
(0.000638246149272 -0.0438745795495 0)
(0.00056592793689 -0.0451293207745 0)
(0.000494839243425 -0.0462344806299 0)
(0.000425227169438 -0.0471928957029 0)
(0.000357299763547 -0.0480078745832 0)
(0.000291228689734 -0.0486831198778 0)
(0.000227158008711 -0.0492226612095 0)
(0.000165205424284 -0.0496307997435 0)
(0.00010547002946 -0.0499120610185 0)
(4.80320196105e-05 -0.050071156289 0)
(-7.04066914085e-06 -0.0501129489925 0)
(-5.96975522375e-05 -0.0500424332558 0)
(-0.000109896262525 -0.0498646870302 0)
(-0.000157604204852 -0.0495848759742 0)
(-0.000202796219347 -0.0492082223968 0)
(-0.000245458344089 -0.0487399896371 0)
(-0.000285581995873 -0.0481854637757 0)
(-0.000323168981035 -0.0475499383507 0)
(-0.000358225338091 -0.0468386978862 0)
(-0.000390767076795 -0.0460570044767 0)
(-0.000420813271832 -0.0452100826248 0)
(-0.00044839258878 -0.0443031078098 0)
(-0.000473535381251 -0.0433411927077 0)
(-0.000496281237854 -0.042329378079 0)
(-0.000516669829136 -0.0412726204734 0)
(-0.000534749809868 -0.0401757857166 0)
(-0.000550568110205 -0.0390436380036 0)
(-0.000564180648023 -0.037880836133 0)
(-0.000575639643345 -0.0366919237081 0)
(-0.000585006678021 -0.0354813281293 0)
(-0.000592337484155 -0.0342533514005 0)
(-0.000597698045319 -0.0330121718349 0)
(-0.000601146124748 -0.031761834884 0)
(-0.000602751224375 -0.0305062574764 0)
(-0.000602571950677 -0.029249218148 0)
(-0.000600680884581 -0.0279943639619 0)
(-0.000597136653433 -0.0267451992429 0)
(-0.000592014921362 -0.0255050949552 0)
(-0.000585373873875 -0.0242772752226 0)
(-0.00057729281172 -0.0230648289822 0)
(-0.000567829538251 -0.0218706935672 0)
(-0.000557068121564 -0.0206976681598 0)
(-0.000545066624675 -0.0195483936128 0)
(-0.000531915749086 -0.0184253670124 0)
(-0.000517675262423 -0.0173309171786 0)
(-0.00050244502819 -0.0162672191963 0)
(-0.000486288684833 -0.0152362651943 0)
(-0.000469318334056 -0.0142398776853 0)
(-0.000451604194558 -0.0132796761095 0)
(-0.000433273481925 -0.0123570878448 0)
(-0.000414405325705 -0.0114733120919 0)
(-0.000395143590711 -0.0106293285025 0)
(-0.000375576940922 -0.00982586215813 0)
(-0.000355864135728 -0.00906339103171 0)
(-0.000336100305448 -0.00834211785415 0)
(-0.000316452346362 -0.00766197972011 0)
(-0.000297013764896 -0.00702263447223 0)
(-0.00027794695511 -0.00642347644549 0)
(-0.000259330750325 -0.00586364427796 0)
(-0.000241306083021 -0.00534204616167 0)
(-0.000223921471668 -0.00485739297539 0)
(-0.000207278023467 -0.00440823372373 0)
(-0.000191378004477 -0.00399301385758 0)
(-0.00017626391803 -0.00361012162939 0)
(-0.000161872256558 -0.00325797317228 0)
(-0.000148156855682 -0.00293508103653 0)
(-0.000134937772673 -0.00264018899079 0)
(-0.000121972563598 -0.00237243561703 0)
(-0.000108715801929 -0.00213165939211 0)
(-9.38250936881e-05 -0.00192071954357 0)
(-7.31852804428e-05 -0.00172527866773 0)
(-6.57715995988e-05 -0.00156383723344 0)
(-7.53388049876e-05 -0.00145734482093 0)
(-7.96742980178e-05 -0.00130204090755 0)
(-8.50419451325e-05 -0.0011343568358 0)
(-9.58373980923e-05 -0.000951983324487 0)
(-0.000113957684143 -0.000750322712652 0)
(-0.000146889223445 -0.000499604106757 0)
(-0.000183491709275 -0.000181131803466 0)
(0.00471462926339 -0.00155220387829 0)
(0.00495219800436 -0.00499374562458 0)
(0.00492076209812 -0.00842317558722 -7.6253922861e-28)
(0.00484371589162 -0.0118157676166 0)
(0.00473808636759 -0.0151373956852 0)
(0.0046075116093 -0.0183746848895 0)
(0.00445488072582 -0.0215123759821 0)
(0.00428289604753 -0.0245364752094 0)
(0.00409423322191 -0.0274346403635 0)
(0.00389154560458 -0.0301963280537 0)
(0.00367742223862 -0.0328128120643 0)
(0.00345434163467 -0.035277134759 0)
(0.00322462580374 -0.0375840141296 0)
(0.00299041108373 -0.0397297201904 0)
(0.00275362522479 -0.0417119328649 0)
(0.00251598266281 -0.043529590301 0)
(0.00227898279581 -0.0451827363799 0)
(0.00204392330362 -0.0466723729919 0)
(0.00181191127443 -0.0480003223728 0)
(0.00158388577621 -0.0491691017329 0)
(0.0013606335801 -0.0501818124462 0)
(0.00114281381499 -0.0510420434622 0)
(0.000930972450446 -0.0517537891802 0)
(0.000725564639381 -0.0523213799211 0)
(0.000526964916483 -0.0527494242409 0)
(0.000335485450945 -0.0530427605566 0)
(0.000151381221592 -0.0532064171719 0)
(-2.51357705187e-05 -0.0532455784288 0)
(-0.000193898632331 -0.0531655512858 0)
(-0.000354771459022 -0.0529717585974 0)
(-0.000507651385712 -0.0526696966001 0)
(-0.000652461467231 -0.0522649222437 0)
(-0.000789155512438 -0.0517630336375 0)
(-0.000917708998935 -0.0511696521081 0)
(-0.00103812569532 -0.0504904056339 0)
(-0.00115042811664 -0.0497309121367 0)
(-0.00125466520758 -0.0488967644927 0)
(-0.0013509016435 -0.0479935152671 0)
(-0.00143922655732 -0.04702666357 0)
(-0.00151974127426 -0.0460016414979 0)
(-0.00159256942171 -0.0449238031882 0)
(-0.00165784277662 -0.0437984131801 0)
(-0.001715713322 -0.0426306379115 0)
(-0.00176633683787 -0.041425536022 0)
(-0.00180988763646 -0.0401880523299 0)
(-0.00184653936308 -0.0389230098656 0)
(-0.00187648326478 -0.0376351062076 0)
(-0.00189990544266 -0.036328906872 0)
(-0.00191700968229 -0.0350088437694 0)
(-0.00192799012154 -0.0336792094608 0)
(-0.00193305986323 -0.0323441574762 0)
(-0.00193241774647 -0.0310076969127 0)
(-0.00192628425821 -0.029673694326 0)
(-0.00191486079215 -0.0283458680943 0)
(-0.00189837466302 -0.0270277915855 0)
(-0.00187702898454 -0.0257228866975 0)
(-0.00185105894282 -0.0244344278885 0)
(-0.00182067017477 -0.023165534214 0)
(-0.00178610865932 -0.0219191736627 0)
(-0.00174758536906 -0.0206981529635 0)
(-0.00170536226573 -0.0195051214121 0)
(-0.0016596609239 -0.0183425576429 0)
(-0.00161076684077 -0.0172127719352 0)
(-0.00155891987369 -0.0161178892769 0)
(-0.00150443850211 -0.0150598490967 0)
(-0.00144759007666 -0.0140403843735 0)
(-0.00138873543386 -0.0130610181554 0)
(-0.00132817741174 -0.0121230395675 0)
(-0.00126632467423 -0.0112274976747 0)
(-0.00120351758861 -0.0103751771162 0)
(-0.00114020824155 -0.00956659180457 0)
(-0.00107676427379 -0.00880196539344 0)
(-0.00101366084312 -0.00808122966872 0)
(-0.00095126541533 -0.00740401710289 0)
(-0.000890037125841 -0.00676967001599 0)
(-0.000830299040466 -0.00617725227319 0)
(-0.000772441104385 -0.0056255739298 0)
(-0.000716689033471 -0.00511322566184 0)
(-0.000663306723074 -0.00463861950464 0)
(-0.00061237027851 -0.00420004454865 0)
(-0.000563962201571 -0.00379572128476 0)
(-0.000517952054148 -0.0034238753258 0)
(-0.000474164767389 -0.00308280412223 0)
(-0.000432149459245 -0.00277096429936 0)
(-0.000391270489834 -0.00248703214254 0)
(-0.000350351251754 -0.00222991569065 0)
(-0.000307479722049 -0.00199860774582 0)
(-0.000257244824226 -0.00179179291688 0)
(-0.00021865374714 -0.00154817960241 0)
(-0.000230322897919 -0.00144206091786 0)
(-0.000244713673944 -0.00128344470695 0)
(-0.000263490842451 -0.0011058731137 0)
(-0.000292032122832 -0.000911887389236 0)
(-0.000361423947522 -0.000714556464253 0)
(-0.000469401113212 -0.000462729288887 0)
(-0.000488468335046 -0.000140892632849 0)
(0.00800206074914 -0.00158268602436 0)
(0.00841636694217 -0.00507275626604 0)
(0.00833629383711 -0.00852911860446 -7.61613052585e-28)
(0.0081972019555 -0.0119623439213 0)
(0.00801421559065 -0.0153230566547 0)
(0.00779061869975 -0.018596647571 0)
(0.00753025738364 -0.0217672240211 0)
(0.00723738312849 -0.0248205570432 0)
(0.00691644872118 -0.0277442082514 0)
(0.00657195146664 -0.0305276404526 0)
(0.00620830352395 -0.0331622203663 0)
(0.00582972721879 -0.0356411561245 0)
(0.00544017234676 -0.0379593874407 0)
(0.00504326078917 -0.0401134442583 0)
(0.00464225229009 -0.0421012874119 0)
(0.00424003397845 -0.043922142045 0)
(0.00383912427668 -0.0455763328025 0)
(0.00344169304142 -0.0470651270952 0)
(0.00304958758953 -0.0483905911703 0)
(0.0026643675259 -0.0495554613718 0)
(0.0022873383151 -0.0505630319568 0)
(0.00191958836074 -0.0514170591066 0)
(0.00156202019745 -0.0521216804212 0)
(0.00121538245565 -0.0526813480687 0)
(0.000880293682815 -0.053100773975 0)
(0.000557266305154 -0.0533848847745 0)
(0.000246721823772 -0.0535387847227 0)
(-5.09928476742e-05 -0.0535677254605 0)
(-0.000335596982285 -0.0534770793133 0)
(-0.000606865512544 -0.0532723142296 0)
(-0.000864627740739 -0.0529589762822 0)
(-0.00110875893846 -0.0525426688107 0)
(-0.00133918076209 -0.0520290343791 0)
(-0.00155585586847 -0.0514237371884 0)
(-0.0017587893171 -0.0507324463797 0)
(-0.00194802319662 -0.0499608196192 0)
(-0.00212363843676 -0.0491144876839 0)
(-0.00228574874218 -0.0481990394227 0)
(-0.00243450255748 -0.0472200080312 0)
(-0.00257007604014 -0.046182857826 0)
(-0.00269267535378 -0.045092972656 0)
(-0.00280252867226 -0.0439556448241 0)
(-0.00289988921896 -0.0427760658815 0)
(-0.0029850263466 -0.0415593177674 0)
(-0.00305822982382 -0.0403103659756 0)
(-0.00311979994512 -0.0390340527387 0)
(-0.0031700535712 -0.0377350923519 0)
(-0.00320931305821 -0.036418066043 0)
(-0.00323791455377 -0.035087419125 0)
(-0.0032561953648 -0.0337474571293 0)
(-0.00326450505428 -0.0324023444213 0)
(-0.0032631907146 -0.0310561011319 0)
(-0.00325261150903 -0.0297126028715 0)
(-0.00323312120827 -0.0283755780111 0)
(-0.00320508697802 -0.0270486081083 0)
(-0.00316886845828 -0.0257351250261 0)
(-0.00312484177002 -0.0244384116229 0)
(-0.00307337437913 -0.0231615981461 0)
(-0.0030148554428 -0.0219076625702 0)
(-0.00294966567649 -0.0206794255204 0)
(-0.00287821519147 -0.0194795494514 0)
(-0.00280090753611 -0.0183105312264 0)
(-0.00271818598003 -0.0171746990721 0)
(-0.00263049076308 -0.0160742018097 0)
(-0.00253831421037 -0.0150110025162 0)
(-0.00244214988103 -0.0139868636701 0)
(-0.00234255583332 -0.0130033367821 0)
(-0.0022400938516 -0.0120617435666 0)
(-0.00213539871089 -0.011163162142 0)
(-0.00202910518515 -0.0103084063112 0)
(-0.00192191975494 -0.00949801114752 0)
(-0.00181453340401 -0.00873221528749 0)
(-0.00170769195011 -0.00801095185026 0)
(-0.00160209469048 -0.00733384151944 0)
(-0.00149846138593 -0.00670019658878 0)
(-0.00139742098023 -0.00610903289721 0)
(-0.00129957671048 -0.0055590932484 0)
(-0.00120539300271 -0.00504888201038 0)
(-0.00111526160957 -0.00457670798405 0)
(-0.00102939369998 -0.00414073795484 0)
(-0.000947884935862 -0.0037390527185 0)
(-0.000870610782008 -0.00336971121377 0)
(-0.000797277315988 -0.00303081148329 0)
(-0.000727305507869 -0.00272055562193 0)
(-0.000659849883544 -0.00243729664415 0)
(-0.000593677668407 -0.00217957404774 0)
(-0.000527268706511 -0.0019459864533 0)
(-0.000459279689833 -0.00173865877364 0)
(-0.000390483059765 -0.00149624001711 0)
(-0.000392359137129 -0.00138103037971 0)
(-0.000420796718494 -0.00122109964359 0)
(-0.000451517678518 -0.00102336433137 0)
(-0.000517497031181 -0.000829615773387 0)
(-0.00061289906897 -0.000594431902529 0)
(-0.000706329063045 -0.00034492123941 0)
(-0.000737152698645 -0.000109481151609 0)
(0.0113310981864 -0.00161362399437 0)
(0.0119390320824 -0.00516316891416 0)
(0.0118234452643 -0.00867208694314 7.61515088575e-28)
(0.0116226449764 -0.0121591102981 0)
(0.011359186 -0.0155706524448 0)
(0.0110381037494 -0.0188910011077 0)
(0.0106649042624 -0.0221034918897 0)
(0.0102456902913 -0.0251934866051 0)
(0.00978688091973 -0.0281483748126 0)
(0.00929496574103 -0.0309576350381 0)
(0.00877630152574 -0.0336128006188 0)
(0.00823695100559 -0.0361073640101 0)
(0.00768256229921 -0.0384366343551 0)
(0.00711828927193 -0.0405975651824 0)
(0.00654874755841 -0.0425885671338 0)
(0.00597800293929 -0.0444093178803 0)
(0.00540958381002 -0.0460605787403 0)
(0.00484651336802 -0.0475440245743 0)
(0.00429135305254 -0.0488620911921 0)
(0.00374625412215 -0.0500178422123 0)
(0.00321301033453 -0.0510148557988 0)
(0.00269311080913 -0.0518571302819 0)
(0.00218778782078 -0.0525490069987 0)
(0.00169806073218 -0.0530951080105 0)
(0.00122477224329 -0.0535002863152 0)
(0.000768619802263 -0.0537695860107 0)
(0.00033017916885 -0.0539082098596 0)
(-9.00755802122e-05 -0.0539214939613 0)
(-0.000491759523947 -0.0538148842457 0)
(-0.00087456453849 -0.0535939132417 0)
(-0.00123825448234 -0.0532641871109 0)
(-0.00158265851264 -0.052831364925 0)
(-0.00190766867546 -0.0523011420204 0)
(-0.0022132360309 -0.051679233008 0)
(-0.00249936946892 -0.0509713551899 0)
(-0.00276613205894 -0.0501832122306 0)
(-0.00301363982039 -0.0493204784504 0)
(-0.00324205739558 -0.0483887836843 0)
(-0.00345159635182 -0.0473936991571 0)
(-0.00364251000463 -0.0463407242265 0)
(-0.00381509142278 -0.0452352744523 0)
(-0.00396966763186 -0.0440826706808 0)
(-0.00410659776908 -0.0428881296054 0)
(-0.00422626700542 -0.0416567552962 0)
(-0.00432908533329 -0.0403935322014 0)
(-0.00441548145496 -0.0391033189149 0)
(-0.00448590258851 -0.0377908433313 0)
(-0.00454080840256 -0.0364606982731 0)
(-0.00458067211896 -0.0351173383903 0)
(-0.00460597441656 -0.0337650771993 0)
(-0.00461720604615 -0.032408085316 0)
(-0.00461486153133 -0.0310503884796 0)
(-0.00459944353802 -0.0296958667213 0)
(-0.00457145617066 -0.0283482529522 0)
(-0.00453141142208 -0.0270111326919 0)
(-0.00447982190048 -0.0256879428026 0)
(-0.00441720982912 -0.0243819713252 0)
(-0.00434409909953 -0.0230963558269 0)
(-0.00426102741147 -0.0218340827638 0)
(-0.00416853761689 -0.0205979847428 0)
(-0.0040671936469 -0.0193907385493 0)
(-0.00395757105887 -0.0182148603203 0)
(-0.00384027720588 -0.0170727010851 0)
(-0.00371594064134 -0.0159664386064 0)
(-0.00358523539907 -0.0148980690367 0)
(-0.00344886818003 -0.0138693941147 0)
(-0.00330760538224 -0.0128820077853 0)
(-0.00316225579717 -0.0119372781359 0)
(-0.00301369728361 -0.0110363290602 0)
(-0.00286285119879 -0.0101800182658 0)
(-0.0027107039112 -0.00936891677983 0)
(-0.00255826859446 -0.00860328798046 0)
(-0.00240659680453 -0.00788307186123 0)
(-0.00225672530823 -0.00720787420408 0)
(-0.00210967654449 -0.00657696585202 0)
(-0.00196639405874 -0.00598929253622 0)
(-0.00182773742119 -0.0054434977557 0)
(-0.0016944164025 -0.00493795828339 0)
(-0.00156698991507 -0.00447083017911 0)
(-0.00144580860172 -0.00404010351723 0)
(-0.00133102065973 -0.00364366005429 0)
(-0.0012225201622 -0.00327933282242 0)
(-0.00111994694981 -0.00294496195338 0)
(-0.001022622792 -0.00263845008276 0)
(-0.000929524049425 -0.00235781789961 0)
(-0.00083919634091 -0.00210129608296 0)
(-0.000749728119052 -0.00186770539696 0)
(-0.000659068061468 -0.0016561549924 0)
(-0.000571797145415 -0.0014281285196 0)
(-0.000568760352492 -0.00128813510503 0)
(-0.000597122541427 -0.00109778944034 0)
(-0.000672152998814 -0.000927642178705 0)
(-0.00073990692426 -0.000690518630552 0)
(-0.000833813559375 -0.000467126418568 0)
(-0.000911145798385 -0.000266275315821 0)
(-0.000932361033734 -8.59337673244e-05 0)
(0.0147315335183 -0.00165176943915 0)
(0.0155257935232 -0.00528208063973 0)
(0.0153731156791 -0.00886706447609 0)
(0.0151075325258 -0.0124278702997 0)
(0.0147592203017 -0.0159084261472 0)
(0.0143352951205 -0.019291911647 0)
(0.0138432858391 -0.0225607864429 0)
(0.0132914444776 -0.0256998903128 0)
(0.0126884022399 -0.0286963968354 0)
(0.0120428431142 -0.0315398305515 0)
(0.0113632287505 -0.0342219845817 0)
(0.0106575816158 -0.0367367753482 0)
(0.00993332761457 -0.039080051161 0)
(0.00919719613609 -0.0412493742629 0)
(0.0084551708937 -0.0432437934655 0)
(0.00771248382558 -0.0450636211116 0)
(0.00697364193458 -0.0467102244495 0)
(0.00624247827302 -0.048185837918 0)
(0.00552221757426 -0.0494933998179 0)
(0.00481554979425 -0.0506364143273 0)
(0.00412470469458 -0.0516188380244 0)
(0.00345152378029 -0.0524449887815 0)
(0.00279752555492 -0.0531194741834 0)
(0.00216396312029 -0.0536471362184 0)
(0.0015518722612 -0.0540330089853 0)
(0.000962110965547 -0.0542822863241 0)
(0.00039538981588 -0.0544002960119 0)
(-0.000147704292865 -0.0543924815221 0)
(-0.000666692588366 -0.0542643814435 0)
(-0.00116119088259 -0.0540216121849 0)
(-0.00163090329803 -0.0536698573516 0)
(-0.00207561631228 -0.053214848764 0)
(-0.00249519552536 -0.0526623511854 0)
(-0.00288958253563 -0.0520181459583 0)
(-0.00325879283095 -0.0512880145309 0)
(-0.00360291268037 -0.0504777219963 0)
(-0.003922096461 -0.049593001 0)
(-0.00421656252127 -0.0486395362325 0)
(-0.0044865894809 -0.0476229498533 0)
(-0.00473251101666 -0.0465487879677 0)
(-0.00495471143827 -0.0454225084175 0)
(-0.00515361987283 -0.0442494698522 0)
(-0.00532970573579 -0.0430349222417 0)
(-0.00548347290336 -0.0417839986471 0)
(-0.00561545567269 -0.0405017083554 0)
(-0.00572621336997 -0.0391929310792 0)
(-0.00581632720498 -0.0378624123283 0)
(-0.00588639553067 -0.0365147595754 0)
(-0.00593703179299 -0.0351544393781 0)
(-0.00596886047114 -0.0337857750231 0)
(-0.00598251620582 -0.0324129449405 0)
(-0.00597864035495 -0.0310399813873 0)
(-0.00595788136709 -0.0296707697599 0)
(-0.00592089190463 -0.0283090479518 0)
(-0.00586833061948 -0.0269584062138 0)
(-0.00580085988702 -0.0256222868195 0)
(-0.0057191492863 -0.0243039840841 0)
(-0.00562387413981 -0.0230066438956 0)
(-0.00551572117961 -0.0217332633464 0)
(-0.0053953882185 -0.0204866894403 0)
(-0.00526359257893 -0.0192696174783 0)
(-0.00512107223738 -0.0180845878753 0)
(-0.00496859746928 -0.016933981977 0)
(-0.00480697347917 -0.0158200153961 0)
(-0.00463705506344 -0.0147447294608 0)
(-0.00445974976697 -0.0137099791036 0)
(-0.00427603389566 -0.0127174180075 0)
(-0.00408695339433 -0.011768479414 0)
(-0.00389363712109 -0.0108643540641 0)
(-0.00369729011758 -0.0100059643104 0)
(-0.00349919745976 -0.00919393707141 0)
(-0.00330070281616 -0.00842857618175 0)
(-0.00310319574508 -0.00770983835221 0)
(-0.0029080705286 -0.00703731512937 0)
(-0.00271669493268 -0.00641022555323 0)
(-0.00253035295142 -0.00582742254458 0)
(-0.00235020420804 -0.00528741507215 0)
(-0.00217722587233 -0.00478840677244 0)
(-0.00201218037665 -0.0043283472376 0)
(-0.00185557305968 -0.00390499244908 0)
(-0.00170763723207 -0.00351596654241 0)
(-0.00156830583828 -0.00315882000896 0)
(-0.00143719890887 -0.00283107850324 0)
(-0.00131358306065 -0.00253028055989 0)
(-0.00119632468373 -0.00225400275771 0)
(-0.00108379097411 -0.00199988892778 0)
(-0.000973711920694 -0.00176567914125 0)
(-0.00086289441804 -0.00155113513217 0)
(-0.000753801574422 -0.00131230743532 0)
(-0.000754226835033 -0.00116178182582 0)
(-0.000792031213513 -0.000966625355749 0)
(-0.000862995077013 -0.000767811682456 0)
(-0.000973667801341 -0.000581366735046 0)
(-0.00102243890718 -0.000374968530414 0)
(-0.0010650467553 -0.000213005068167 0)
(-0.0010778220574 -6.93965265514e-05 0)
(0.0182207962333 -0.0016996361664 0)
(0.019202536565 -0.00543354559395 0)
(0.0190094723355 -0.00911780538887 0)
(0.018674191294 -0.0127738510465 0)
(0.0182347086333 -0.0163429396874 0)
(0.01770050456 -0.0198069665112 0)
(0.0170815007889 -0.0231473777685 0)
(0.0163884602064 -0.0263484102402 0)
(0.0156325505493 -0.0293970208202 0)
(0.014824924066 -0.0322828575545 0)
(0.0139763639069 -0.0349981152893 0)
(0.0130970100563 -0.0375373222164 0)
(0.0121961673978 -0.0398970805485 0)
(0.0112821914843 -0.0420757859996 0)
(0.0103624421141 -0.0440733466585 0)
(0.00944329224035 -0.0458909169046 0)
(0.00853017829197 -0.047530656942 0)
(0.00762767886714 -0.0489955239021 0)
(0.00673960976388 -0.0502890966945 0)
(0.00586912580216 -0.0514154339138 0)
(0.00501882158232 -0.0523789621805 0)
(0.00419082597267 -0.0531843910897 0)
(0.00338688645796 -0.0538366503888 0)
(0.0026084416583 -0.0543408448658 0)
(0.00185668101387 -0.0547022226405 0)
(0.00113259226211 -0.0549261530125 0)
(0.000436997338143 -0.055018109567 0)
(-0.000229421108612 -0.0549836614512 0)
(-0.000866102168073 -0.0548284555724 0)
(-0.001472593601 -0.0545582083737 0)
(-0.00204854540179 -0.0541786964821 0)
(-0.00259370500134 -0.0536957404495 0)
(-0.00310791454178 -0.0531151907418 0)
(-0.00359110861361 -0.0524429118667 0)
(-0.00404331217962 -0.0516847658062 0)
(-0.00446463770065 -0.0508465951227 0)
(-0.0048552817349 -0.0499342062249 0)
(-0.00521552036133 -0.0489533531994 0)
(-0.00554570408291 -0.0479097226081 0)
(-0.00584625172152 -0.0468089195073 0)
(-0.00611764419901 -0.0456564549158 0)
(-0.00636041770003 -0.0444577347939 0)
(-0.00657515723461 -0.0432180505925 0)
(-0.00676248994163 -0.0419425712713 0)
(-0.00692307922257 -0.0406363367364 0)
(-0.00705761880803 -0.039304252502 0)
(-0.0071668279356 -0.037951085497 0)
(-0.00725144646649 -0.0365814607872 0)
(-0.00731223128066 -0.035199859156 0)
(-0.00734995247878 -0.0338106153212 0)
(-0.0073653909909 -0.0324179167842 0)
(-0.00735933579388 -0.0310258030982 0)
(-0.00733258270983 -0.0296381656052 0)
(-0.00728593260789 -0.0282587474254 0)
(-0.00722019147182 -0.0268911437971 0)
(-0.00713616970345 -0.0255388025149 0)
(-0.00703468374203 -0.0242050245723 0)
(-0.00691655680873 -0.0228929646939 0)
(-0.00678262260446 -0.0216056318312 0)
(-0.00663372807012 -0.0203458891857 0)
(-0.00647073990118 -0.0191164537108 0)
(-0.00629455001146 -0.0179198944999 0)
(-0.00610608557015 -0.0167586298146 0)
(-0.00590631758752 -0.0156349219413 0)
(-0.00569627454033 -0.0145508693763 0)
(-0.00547705337281 -0.0135083953701 0)
(-0.00524983499565 -0.0125092322705 0)
(-0.00501589453672 -0.0115549007186 0)
(-0.00477661370805 -0.0106466837074 0)
(-0.00453348325838 -0.00978559516323 0)
(-0.00428810298176 -0.00897234474161 0)
(-0.00404216578154 -0.00820730030328 0)
(-0.00379743420344 -0.007490452456 0)
(-0.00355569705225 -0.00682138518862 0)
(-0.00331871774761 -0.00619925905576 0)
(-0.00308816669497 -0.0056228116441 0)
(-0.00286555468085 -0.00509037962688 0)
(-0.00265216409738 -0.00459994258356 0)
(-0.00244899735004 -0.00414918474051 0)
(-0.00225673581499 -0.00373556704736 0)
(-0.00207572185816 -0.00335639886374 0)
(-0.00190594698923 -0.00300889993859 0)
(-0.00174704901764 -0.00269024407336 0)
(-0.00159829429254 -0.00239758025553 0)
(-0.00145853877278 -0.00212802959103 0)
(-0.00132613316002 -0.00187868132795 0)
(-0.00119874387031 -0.00164663701286 0)
(-0.00107312755062 -0.00143071342949 0)
(-0.00095097618472 -0.00119237826098 0)
(-0.000968681584002 -0.0010457486031 0)
(-0.000993696934823 -0.000830426992162 0)
(-0.00105620764541 -0.0006361036603 0)
(-0.00113807882869 -0.000469907746295 0)
(-0.00118091486686 -0.000315467495583 0)
(-0.0011989204867 -0.000178795801206 0)
(-0.00120638490972 -5.83723129878e-05 0)
(0.0218210040293 -0.00175876927339 0)
(0.0229936213457 -0.00562133321685 0)
(0.0227555213505 -0.00942935282984 7.5688252023e-28)
(0.0223437619369 -0.0132036563293 0)
(0.0218046248659 -0.0168821447939 0)
(0.021150335878 -0.0204451216946 0)
(0.0203936627807 -0.0238728321752 0)
(0.0195483351831 -0.0271488419671 0)
(0.0186284734682 -0.0302599344511 0)
(0.0176480493129 -0.0331960187345 0)
(0.0166204408329 -0.0359499002038 0)
(0.0155580982149 -0.0385169735481 0)
(0.0144723213405 -0.0408948715077 0)
(0.0133731406572 -0.0430831014083 0)
(0.0122692857279 -0.0450826946584 0)
(0.0111682226545 -0.0468958869681 0)
(0.0100762408645 -0.0485258399384 0)
(0.00899857129365 -0.0499764086368 0)
(0.00793952047547 -0.0512519551416 0)
(0.00690260834676 -0.0523572048275 0)
(0.00589070059954 -0.0532971402242 0)
(0.00490612946121 -0.0540769263195 0)
(0.00395079907214 -0.0547018609467 0)
(0.00302627378761 -0.0551773441387 0)
(0.00213384909368 -0.0555088608771 0)
(0.00127460617898 -0.0557019724898 0)
(0.000449451742561 -0.0557623113038 0)
(-0.000340854490982 -0.0556955840658 0)
(-0.00109568139415 -0.0555075565592 0)
(-0.00181451650612 -0.0552040580203 0)
(-0.00249696047324 -0.0547909713384 0)
(-0.00314272464754 -0.0542742204704 0)
(-0.00375163004075 -0.053659757339 0)
(-0.00432360648427 -0.0529535461078 0)
(-0.00485869125657 -0.0521615460955 0)
(-0.00535702651806 -0.0512896939908 0)
(-0.00581885548032 -0.050343886058 0)
(-0.0062445171223 -0.0493299609324 0)
(-0.0066344397885 -0.0482536835168 0)
(-0.00698913373719 -0.0471207303357 0)
(-0.00730918317182 -0.0459366765941 0)
(-0.00759523786773 -0.0447069850297 0)
(-0.00784800494918 -0.0434369965672 0)
(-0.00806824081935 -0.0421319226593 0)
(-0.00825674372935 -0.040796839185 0)
(-0.0084143468147 -0.0394366816931 0)
(-0.00854191201415 -0.0380562418246 0)
(-0.00864032452913 -0.0366601646944 0)
(-0.00871048822281 -0.0352529470999 0)
(-0.00875332148443 -0.0338389363783 0)
(-0.00876975401189 -0.0324223298358 0)
(-0.0087607239383 -0.0310071746218 0)
(-0.00872717587796 -0.0295973680251 0)
(-0.00867005924052 -0.028196658101 0)
(-0.00859032756438 -0.0268086446331 0)
(-0.00848893814678 -0.0254367803506 0)
(-0.00836685294948 -0.0240843723884 0)
(-0.00822503998592 -0.0227545838959 0)
(-0.00806447643656 -0.0214504356855 0)
(-0.00788615259355 -0.0201748077556 0)
(-0.00769107817851 -0.0189304403801 0)
(-0.00748028994096 -0.0177199344475 0)
(-0.00725486233985 -0.0165457504003 0)
(-0.00701591977918 -0.0154102051583 0)
(-0.00676465230468 -0.014315465984 0)
(-0.00650233232716 -0.0132635402437 0)
(-0.00623033400581 -0.012256259804 0)
(-0.00595015126728 -0.0112952587079 0)
(-0.00566341515253 -0.0103819433174 0)
(-0.00537190432496 -0.00951745406732 0)
(-0.00507754804497 -0.00870262003123 0)
(-0.00478241383673 -0.00793790779563 0)
(-0.00448867893505 -0.00722336997334 0)
(-0.00419857925189 -0.00655859898502 0)
(-0.00391433893758 -0.00594269547172 0)
(-0.00363808151518 -0.00537425972112 0)
(-0.00337173457212 -0.0048514126887 0)
(-0.0031169381701 -0.00437184962963 0)
(-0.00287497354635 -0.00393291911999 0)
(-0.00264671892903 -0.00353171710136 0)
(-0.00243263720919 -0.00316517784264 0)
(-0.0022327856154 -0.00283014727841 0)
(-0.00204683915453 -0.00252342590236 0)
(-0.00187410951635 -0.00224177039235 0)
(-0.00171354431624 -0.00198184147787 0)
(-0.00156367407672 -0.0017400869031 0)
(-0.00142244812396 -0.00151243579245 0)
(-0.0012868399002 -0.00129547688278 0)
(-0.00115425475886 -0.00105894241338 0)
(-0.00114888449403 -0.000882653761722 0)
(-0.00119354116262 -0.00070581549837 0)
(-0.00122868946608 -0.000527769679524 0)
(-0.00126296064915 -0.000380584825569 0)
(-0.00130875516539 -0.000263893443556 0)
(-0.00131335365058 -0.000150131201526 0)
(-0.00131531990722 -4.888468481e-05 0)
(0.0255571597511 -0.00183065442607 0)
(0.0269253620868 -0.00584975592151 0)
(0.0266362362209 -0.00980831154605 -7.56768287438e-28)
(0.0261391536932 -0.0137259711052 0)
(0.0254893501385 -0.0175364030981 0)
(0.0247023589746 -0.0212179301644 0)
(0.0237944013928 -0.0247493788438 0)
(0.0227827685604 -0.0281135997869 0)
(0.0216850676751 -0.0312973068216 0)
(0.0205185317211 -0.0342908902378 0)
(0.0192994677227 -0.0370880663742 0)
(0.0180428599688 -0.0396854416559 0)
(0.0167621253053 -0.0420820380321 0)
(0.0154690040104 -0.0442788215316 0)
(0.0141735616342 -0.0462782645847 0)
(0.0128842740287 -0.0480839617023 0)
(0.0116081683737 -0.0497003082513 0)
(0.0103509961838 -0.0511322442552 0)
(0.00911741868276 -0.0523850596205 0)
(0.00791118976278 -0.0534642537824 0)
(0.00673532617504 -0.0543754410705 0)
(0.00559225847059 -0.0551242926312 0)
(0.00448395921559 -0.0557165060842 0)
(0.00341204740456 -0.0561577948721 0)
(0.00237786969059 -0.0564538902805 0)
(0.00138256038601 -0.0566105503652 0)
(0.000427082923008 -0.0566335692095 0)
(-0.000487744419018 -0.0565287952743 0)
(-0.00136123073562 -0.056302117748 0)
(-0.00219280938962 -0.0559594875972 0)
(-0.00298203443729 -0.0555069047667 0)
(-0.0037285823958 -0.0549504101589 0)
(-0.0044322541259 -0.0542960727187 0)
(-0.0050929761941 -0.0535499732205 0)
(-0.0057108007816 -0.0527181859752 0)
(-0.00628590360957 -0.0518067594786 0)
(-0.00681857977209 -0.0508216969579 0)
(-0.00730923753101 -0.0497689376326 0)
(-0.00775839043183 -0.0486543393442 0)
(-0.00816664810823 -0.0474836630078 0)
(-0.0085347063227 -0.0462625591595 0)
(-0.0088633366533 -0.0449965566805 0)
(-0.00915337632603 -0.0436910536495 0)
(-0.00940571845825 -0.0423513101531 0)
(-0.00962130304688 -0.0409824428298 0)
(-0.00980110876289 -0.0395894208816 0)
(-0.00994614572439 -0.0381770633031 0)
(-0.0100574491449 -0.0367500370846 0)
(-0.0101360739387 -0.0353128561974 0)
(-0.010183090089 -0.033869881194 0)
(-0.0101995788493 -0.0324253193197 0)
(-0.01018662956 -0.0309832250441 0)
(-0.0101453372039 -0.0295475009856 0)
(-0.0100768005035 -0.0281218991887 0)
(-0.0099821207776 -0.0267100227791 0)
(-0.00986240142009 -0.0253153279748 0)
(-0.00971874834716 -0.0239411264854 0)
(-0.00955227136372 -0.0225905882543 0)
(-0.0093640869583 -0.0212667445115 0)
(-0.00915532258637 -0.0199724909995 0)
(-0.00892712313751 -0.018710591129 0)
(-0.00868065971007 -0.0174836787307 0)
(-0.00841714154424 -0.0162942597204 0)
(-0.0081378310899 -0.0151447119709 0)
(-0.00784406301668 -0.0140372819854 0)
(-0.00753726647187 -0.0129740771276 0)
(-0.00721899082312 -0.0119570512609 0)
(-0.00689093251075 -0.0109879819083 0)
(-0.00655496168135 -0.0100684367995 0)
(-0.00621314327494 -0.00919972808036 0)
(-0.00586774868948 -0.00838285426769 0)
(-0.0055212496661 -0.00761843119695 0)
(-0.00517628872543 -0.00690661786435 0)