/*--------------------------------*- C++ -*----------------------------------*\
| =========                 |                                                 |
| \\      /  F ield         | OpenFOAM: The Open Source CFD Toolbox           |
|  \\    /   O peration     | Version:  v1906                                 |
|   \\  /    A nd           | Web:      www.OpenFOAM.com                      |
|    \\/     M anipulation  |                                                 |
\*---------------------------------------------------------------------------*/
FoamFile
{
    version     2.0;
    format      ascii;
    class       volScalarField;
    location    "833";
    object      pa;
}
// * * * * * * * * * * * * * * * * * * * * * * * * * * * * * * * * * * * * * //

dimensions      [0 2 -2 0 0 0 0];


internalField   nonuniform List<scalar> 
9216
(
975.772744724
975.408334263
974.667902222
973.548261605
972.053063204
970.186582556
967.954169416
965.362196309
962.417950673
959.129621101
955.506177744
951.557363955
947.293565608
942.725810295
937.865631297
932.725078678
927.31658394
921.652986897
915.747406152
909.613284242
903.264267435
896.71426987
889.977364284
883.067863808
876.000223167
868.789135032
861.449439591
853.996230821
846.444770952
838.810601012
831.109456076
823.357373782
815.570603854
807.765707782
799.959458785
792.168924957
784.411352829
776.704228246
769.065139993
761.511814394
754.061958063
746.733265994
739.543246466
732.509206133
725.648062861
718.976313116
712.509837306
706.263851841
700.252703906
694.489803
688.987390145
683.756437116
678.806368905
674.144927161
669.777843115
665.708699897
661.938606901
658.466151555
655.287176244
652.394915362
649.779941426
647.430514603
645.332697298
643.470866956
641.827926262
640.385833837
639.125934673
638.029697507
637.079118179
636.257279863
635.548473276
634.938446955
634.414305888
633.964594763
633.579103887
633.248874289
632.965983193
632.723542487
632.51552276
632.336760701
632.18278386
632.049790111
631.93447845
631.834023018
631.745587801
631.669554935
631.607409955
631.558623906
631.521893094
631.495301896
631.476880728
631.464530561
631.456445329
631.451632207
631.449251026
631.448434086
976.136681488
975.77112175
975.029436243
973.906744639
972.407253944
970.535382346
968.296572079
965.697257492
962.744800547
959.447449241
955.814252644
951.85501462
947.580201588
943.0008982
938.128714505
932.975749146
927.554501736
921.877848193
915.958963022
909.81131
903.448577369
896.884685213
890.133734539
883.210030577
876.128044676
868.902450866
861.548097757
854.080054236
846.513587316
838.864211841
831.147669239
823.379974797
815.577391928
807.756471365
799.934013557
792.127092121
784.352999172
776.629246971
768.973491121
761.403506704
753.937087837
746.591998455
739.385851061
732.336036635
725.459588939
718.77310028
712.292577222
706.033345722
700.009896657
694.235773968
688.723395239
683.483905054
678.526947105
673.860467689
669.490432889
665.420607389
661.652271895
658.184078091
655.011888413
652.128824499
649.525299098
647.18929034
645.106558684
643.261106674
641.635494631
640.211194285
638.969037295
637.889962971
636.955598825
636.148761174
635.453642985
634.855945327
634.342824818
633.90288103
633.526018612
633.203365914
632.927111185
632.690433957
632.487397654
632.312913697
632.162615359
632.032783034
631.920232899
631.822283433
631.736619241
631.662302246
631.601203623
631.554020716
631.518221277
631.492228572
631.474556157
631.46276558
631.454949821
631.450474563
631.448372045
631.447537757
976.878502645
976.5097814
975.763874419
974.634850056
973.126953246
971.244661064
968.993513627
966.380050594
963.411755061
960.096996325
956.444956841
952.465567905
948.169431198
943.567754256
938.672273542
933.495195894
928.049129052
922.347034303
916.402169179
910.228054982
903.838434609
897.247256641
890.468649033
883.51691917
876.406541952
869.152173182
861.768648808
854.27100753
846.674496741
838.994599296
831.247041033
823.447815551
815.613186864
807.759706355
799.904203747
792.063788165
784.255820665
776.49789294
768.807775618
761.203370284
753.702631364
746.323491659
739.083760867
732.001030374
725.092556502
718.375153923
711.865072578
705.577886122
699.528363557
693.730346215
688.196597682
682.938643544
677.966565464
673.288769943
668.911703044
664.839555645
661.073957152
657.613738346
654.454781512
651.590012229
649.009472139
646.700587991
644.648431293
642.836278215
641.24600412
639.85810589
638.652238294
637.608220901
636.706862143
635.930481175
635.263067881
634.690285412
634.199382506
633.779114163
633.419604196
633.112197152
632.849284417
632.624198335
632.431156544
632.265244261
632.122289569
631.998743022
631.891582555
631.798262707
631.716515071
631.64556689
631.588604948
631.544737193
631.510764649
631.486326013
631.470144177
631.459148535
631.452109148
631.448166546
631.446129151
631.445128135
978.005705702
977.633323664
976.880916913
975.742144107
974.22133638
972.323074166
970.053037602
967.417927804
964.425408482
961.084039917
957.403205643
953.393039102
949.064345651
944.428528606
939.49751368
934.283681084
928.799798714
923.058966019
917.074561011
910.860200045
904.429701819
897.797064975
890.976449767
883.982172833
876.828704731
869.530678967
862.102901703
854.560370687
846.918292376
839.19210558
831.397500882
823.550442808
815.667184467
807.764282424
799.858599632
791.967303932
784.107851279
776.297960364
768.555568983
760.898779282
753.345784074
745.914782531
738.623879895
731.490980994
724.533674289
717.769116845
711.213916878
704.884022133
698.794606731
692.959958635
687.393351998
682.106898244
677.111350775
672.415857315
668.027635046
663.951600567
660.189957237
656.741868306
653.603235372
650.766714847
648.221721509
645.954846324
643.949966198
642.189264441
640.653794813
639.3225275
638.173031557
637.183209738
636.332542719
635.602661885
634.977339397
634.442271278
633.984884659
633.59421972
633.260768739
632.976252389
632.733375997
632.525683759
632.3475863
632.194448805
632.062413348
631.948193036
631.848990569
631.762459886
631.686355108
631.621075465
631.569707537
631.529875943
631.499707629
631.477997258
631.463186868
631.453441534
631.447373612
631.443863162
631.441943294
631.441003744
979.521271628
979.144187571
978.382989084
977.231002218
975.69269663
973.772805191
971.477199967
968.812803897
965.787526902
962.410192262
958.690458152
954.638736743
950.266111408
945.584255379
940.605352089
935.34202055
929.807245698
924.014316835
917.976773617
911.708362283
905.223000848
898.534755296
891.657824671
884.606536383
877.395348948
870.03886298
862.551837293
854.949210723
847.246126478
839.457959463
831.600343832
823.68919954
815.740755623
807.771570251
799.798542368
791.83891482
783.910264892
776.030481323
768.217724573
760.490370236
752.866934146
745.365981063
738.006018259
730.805378765
723.782098326
716.953793032
710.33754191
703.949780118
697.806202053
691.921671204
686.31012609
680.984459135
675.956349888
671.236001754
666.831780862
662.749707962
658.992903429
655.561041391
652.450079944
649.652325105
647.156253966
644.947359964
643.007487787
641.317296963
639.857576847
638.605102007
637.53385705
636.618640556
635.837024793
635.169906058
634.601016805
634.116266373
633.7033921
633.351881525
633.052811389
632.798504265
632.582116445
632.397401318
632.238915864
632.102445513
631.984632645
631.882546625
631.793673178
631.715967502
631.647304887
631.589647681
631.545213013
631.51072647
631.484411251
631.465773956
631.453438186
631.445376319
631.44020279
631.437210565
631.435553408
631.434730564
981.429825784
981.04684488
980.274493211
979.105715521
977.545172236
975.59780174
973.269727135
970.568159876
967.501328647
964.078397579
960.309379873
956.205048562
951.776845943
947.03679424
941.99740887
936.671616851
931.072681483
925.214135626
919.109724284
912.773358252
906.219078773
899.461034119
892.513467051
885.39071316
878.107208238
870.677504102
863.116290706
855.43842385
847.658956451
839.793172666
831.856623531
823.865161272
815.834971693
807.782603256
799.72498821
791.679454347
783.663723576
775.69589474
767.79440754
759.97798588
752.265559438
744.676164416
737.228825934
729.942427324
722.8355731
715.926455042
709.232729837
702.771418001
696.558825588
690.610491725
684.941140424
679.564626683
674.493810067
669.740332586
665.314180396
661.223049893
657.471452033
654.059877219
650.984291211
648.2367163
645.804109422
643.671014391
641.815305707
640.215361465
638.854513188
637.706294609
636.738144668
635.919844028
635.226448841
634.638472016
634.140179243
633.718043651
633.360234764
633.056866472
632.799923922
632.58270319
632.399015547
632.242669109
632.108079564
631.991698272
631.891047612
631.803609889
631.727149129
631.660078349
631.600916188
631.552584119
631.515146775
631.48620318
631.464837626
631.450512273
631.440620408
631.434368457
631.430511941
631.427928784
631.426557228
631.425866311
983.73716236
983.346992085
982.561014382
981.371710721
979.783984757
977.803036322
975.435305266
972.688365443
969.570844951
966.092334441
962.263290857
958.09493793
953.59916577
948.788431653
943.675664253
938.274173331
932.597567087
926.659678942
920.474505604
914.056157539
907.418822862
900.576744637
893.54421139
886.335559606
878.965186984
871.447574549
863.797316109
856.029153279
848.158014923
840.199059544
832.167720518
824.079750028
815.951262727
807.798776486
799.639245821
791.490085357
783.369179414
775.294873319
767.285942921
759.361538694
751.541102998
743.844260141
736.290682658
728.899939505
721.691336539
714.683761713
707.895550772
701.344386421
695.047245263
689.020387857
683.27939739
677.839210073
672.714125178
667.917633358
663.462013689
659.35744358
655.610659436
652.223354852
649.191259056
646.506575608
644.153317338
642.117199412
640.366704914
638.875631327
637.639914353
636.62719148
635.791747885
635.095198668
634.509746937
634.016886795
633.602825776
633.255134962
632.962319246
632.715213698
632.507237387
632.333353776
632.188435507
632.065843119
631.958864006
631.865198861
631.784192525
631.713595723
631.651181755
631.596196204
631.548033552
631.509592333
631.47990829
631.457752922
631.442152068
631.431641391
631.424411208
631.419994566
631.417674538
631.415917554
631.415002939
631.414557225
986.45034611
986.051605775
985.249389143
984.035622295
982.415507572
980.394567997
977.979633397
975.178722891
972.000954217
968.456440223
964.556180328
960.311948782
955.736182019
950.841867657
945.642437292
940.151665732
934.383578779
928.352372186
922.072343569
915.557839271
908.823216903
901.882824157
894.750992958
887.44204791
879.970326703
872.350210569
864.596162284
856.72277022
848.744796839
840.677230902
832.535343422
824.334743301
816.091434366
807.821871055
799.543007289
791.272335867
783.027912763
774.828361058
766.692848809
758.64103599
750.692986856
742.869046663
735.18968517
727.675314446
720.346093399
713.221738708
706.321362458
699.66336602
693.265401188
687.14443054
681.31685503
675.798730834
670.60595012
665.754329846
661.259280773
657.134800259
653.391257715
650.032272578
647.051989914
644.445068344
642.187678952
640.277128046
638.655735275
637.283758635
636.20433951
635.369472953
634.70429153
634.157468836
633.699258006
633.315938385
632.998711908
632.736839212
632.51815258
632.334039422
632.180321911
632.055071999
631.955290967
631.872613677
631.796119116
631.726242142
631.666924328
631.615201497
631.567766529
631.526081042
631.490024755
631.461920877
631.440878031
631.425727395
631.415600525
631.408838139
631.405048075
631.402732155
631.401755282
631.401422391
631.401106471
631.401006745
989.577791618
989.169001802
988.3477642
987.105347493
985.447315895
983.379584925
980.909457536
978.045491833
974.797397253
971.175916549
967.192702671
962.860192231
958.191478417
953.200185645
947.900348748
942.306299114
936.432560879
930.293759706
923.904547198
917.279542822
910.433295152
903.380262461
896.134812183
888.711236911
881.123784459
873.386698476
865.514267072
857.520876944
849.421072171
841.229616831
832.961563067
824.632319765
816.257725762
807.854123573
799.438428235
791.028187332
782.641625699
774.297667134
766.015925714
757.81665868
749.720675113
741.749196238
733.923669135
726.265540563
718.796008474
711.535774136
704.504832635
697.722332801
691.206555741
684.975022371
679.044776845
673.432802034
668.156580717
663.234595759
658.686503878
654.532222396
650.788606296
647.462778721
644.541941262
642.031977671
639.881715469
638.145417568
636.685500862
635.411391393
634.534052459
633.943928101
633.498532622
633.129165627
632.808354105
632.540166699
632.32975812
632.167955026
632.035268813
631.921338232
631.825836801
631.753265689
631.706069096
631.671804499
631.626516098
631.577506034
631.542005565
631.511876038
631.478798548
631.451178821
631.427496811
631.409990238
631.398042157
631.390264188
631.385660763
631.383280082
631.38257736
631.383018337
631.383740857
631.384880999
631.385314243
631.385630204
993.129354657
992.708920633
991.865674806
990.59011914
988.88825131
986.766459453
984.232614818
981.295921803
977.966797739
974.256737651
970.178173623
965.744331062
960.969084415
955.866815151
950.45227439
944.740453442
938.746465262
932.485440741
925.97244309
919.22240377
912.250081723
905.070046908
897.696686644
890.14423224
882.42680141
874.558452201
866.553244018
858.425303365
850.188893104
841.85848596
833.448844906
824.975106355
816.452871846
807.898303901
799.328219729
790.760178535
782.212553587
773.704579683
765.256364993
756.888856248
748.623746566
740.483318362
732.490218637
724.667173644
717.036660346
709.62057029
702.439909613
695.514600061
688.863427694
682.504210818
676.454203284
670.730815671
665.352648187
660.34084106
655.720376146
651.520484071
647.770755822
644.48670993
641.628194767
639.249650801
637.187330101
635.73372907
634.470070747
633.006860547
632.381854105
632.199469437
632.079892819
631.967344014
631.862827235
631.771899434
631.692372441
631.615587158
631.538264159
631.466298819
631.410367238
631.387646198
631.414714817
631.462682902
631.457702562
631.418676969
631.412367682
631.409668188
631.385479217
631.372609625
631.360984647
631.353988679
631.351643838
631.351673397
631.35309589
631.355574429
631.358182197
631.361123764
631.364138361
631.366731344
631.368173077
631.368917658
997.116439624
996.68262741
995.814140891
994.500592901
992.748499121
990.56481325
987.958085439
984.938290019
981.516685628
977.705659152
973.518564755
968.969559997
964.073441991
958.845485734
953.301287502
947.456616155
941.327276628
934.928989892
928.277294636
921.387474802
914.274516589
906.953095689
899.437593657
891.742138807
883.880665789
875.866986396
867.714865953
859.438101308
851.050600434
842.566465454
834.000084988
825.366232019
816.680176768
807.957808681
799.215761528
790.471535746
781.743607718
773.05151336
764.415891844
755.858472842
747.401991168
739.070013583
730.88666938
722.876285596
715.062947358
707.470022816
700.119722989
693.032775605
686.228309186
679.724011101
673.536640176
667.682997509
662.181545842
657.054958253
652.333729853
648.061250762
644.294200694
641.077865706
638.259327231
636.066368565
633.686578337
632.873520267
632.235425399
631.965069486
631.949290628
631.983825846
631.973423492
631.93270521
631.876197062
631.81208167
631.745542361
631.678806768
631.613762848
631.555278701
631.513060392
631.503076761
631.52624181
631.505210337
631.332222318
631.208206608
631.259084089
631.317026509
631.285335323
631.29197655
631.291706463
631.294817782
631.303170467
631.310804686
631.31795566
631.32551561
631.332417415
631.33830923
631.343368252
631.347587289
631.35027253
631.35148211
1001.55212792
1001.10303738
1000.20578246
998.848952701
997.039680276
994.78559445
992.096053457
988.981945365
985.455523872
981.530227748
977.220496071
972.541581731
967.509365276
962.140171221
956.450588667
950.457299778
944.176920398
937.625859252
930.820202214
923.775628729
916.507365149
909.030177551
901.358401824
893.506005249
885.486669556
877.313884788
869.001044145
860.561535029
852.008826579
843.35655932
834.618646519
825.809386176
816.943596874
808.036770946
799.10523817
790.166333409
781.238555137
772.341699893
763.496953487
754.726916792
746.05554083
737.507946031
729.110104468
720.888376748
712.868917375
705.076998355
697.536342161
690.268589343
683.293032937
676.626700913
670.284849389
664.282018508
658.633989354
653.361519138
648.497468537
644.101788263
640.284734885
637.186526841
633.988737863
632.637689837
632.33359682
632.329563668
632.29509565
632.233405271
632.208927387
632.198190055
632.170183669
632.126250017
632.068071346
631.99928519
631.924183345
631.845208865
631.76495318
631.687783906
631.620589206
631.571741516
631.536036552
631.476908965
631.40110258
631.37304552
631.397254781
631.341253418
631.145485812
631.201403125
631.219357954
631.231147422
631.253949692
631.2687353
631.280950401
631.294156517
631.305653339
631.315224879
631.322641359
631.328388549
631.332414463
631.334210556
1006.45133165
1005.98486123
1005.05495819
1003.64903543
1001.77496022
999.441167833
996.657977364
993.437358647
989.792738603
985.738791379
981.291226676
976.466578002
971.281992511
965.755022674
959.903421156
953.744941447
947.297150031
940.577257713
933.601980437
926.387439288
918.949108563
911.301815637
903.45979118
895.436760257
887.246059773
878.900763982
870.413803049
861.798066304
853.066493088
844.232161681
835.30839408
826.308878859
817.247831853
808.140185541
799.001800548
789.849690382
780.70224488
771.579434061
762.50296938
753.496392346
744.585054835
735.795949871
727.157352766
718.698242625
710.447503317
702.432954649
694.680340309
687.212461191
680.048678382
673.20483246
666.69355208
660.524993572
654.708276689
649.255097998
644.18390313
639.524110817
635.276002612
632.852332627
632.661633902
632.623956868
632.622507161
632.640774662
632.621818181
632.578089087
632.532593848
632.4917358
632.447923852
632.395335405
632.330011991
632.253442586
632.168171655
632.076089947
631.980800059
631.887028949
631.800758063
631.727142754
631.66156093
631.585296931
631.500888934
631.437606403
631.395482098
631.338253661
631.314703998
631.296762131
631.15952371
631.144429333
631.20561807
631.226475633
631.242385126
631.262846502
631.279464665
631.292685577
631.302833211
631.310258536
631.315557951
631.317970412
1011.83097758
1011.34478399
1010.37792981
1008.9164792
1006.96917619
1004.54541947
1001.65667067
998.316179314
994.538752356
990.340509891
985.738643055
980.751175774
975.396729515
969.694289305
963.662969485
957.321781417
950.689408881
943.784002378
936.623006225
929.223034642
921.599810239
913.768173452
905.74216122
897.535142474
889.159986418
880.629234658
871.955250506
863.150332674
854.226798807
845.197060575
836.073720118
826.869698197
817.598420355
808.274049212
798.911754079
789.528007254
780.140890347
770.770391364
761.438665365
752.170221913
742.991990136
733.933199828
725.025007645
716.299800382
707.790136603
699.527362574
691.540071432
683.852709128
676.484784649
669.450623003
662.75940668
656.415284602
650.417843755
644.760682699
639.395278755
634.060576491
633.1718801
632.922384568
632.99334169
633.038045805
633.051570026
633.04242936
633.008331506
632.959640473
632.906451927
632.853344284
632.796874561
632.731855471
632.65475885
632.566799769
632.469109732
632.363107215
632.252618941
632.142127658
632.036496381
631.938950294
631.846441463
631.749758422
631.649624437
631.561130663
631.485621478
631.410029797
631.349700169
631.290353695
631.255062875
631.247012146
631.200363833
631.185293966
631.20002656
631.232935824
631.255411777
631.272254537
631.284895605
631.294067019
631.300482682
631.303555888
1017.71022772
1017.2016732
1016.19305812
1014.66889734
1012.63898588
1010.11387675
1007.10639289
1003.63129797
999.705019936
995.345365544
990.571245256
985.402408468
979.85918509
973.962226311
967.732239503
961.189716331
954.354661243
947.246334314
939.883029968
932.281915507
924.458953036
916.428919647
908.205527689
899.80162685
891.229451497
882.500863502
873.627544899
864.621116328
855.493193842
846.255424821
836.919556229
827.497557653
818.001834487
808.445511406
798.842773287
789.209248504
779.56241864
769.922035921
760.310520894
750.753297567
741.279004347
731.919493769
722.709506876
713.685888393
704.886224462
696.346873336
688.100599572
680.174288888
672.58788274
665.354168161
658.478794909
651.960559381
645.788211221
639.904918915
633.89038397
633.24861209
633.401399341
633.463665763
633.519524983
633.520935481
633.514085659
633.494221494
633.457595308
633.407198883
633.348878233
633.285661495
633.215719295
633.135756455
633.04458793
632.942883418
632.830466414
632.708957546
632.581678941
632.452444022
632.325050888
632.201773937
632.08130348
631.960104836
631.839753712
631.727885516
631.625996372
631.529480141
631.442429387
631.364152651
631.303550608
631.263522008
631.252516216
631.221834733
631.136071197
631.204592522
631.235089122
631.255100172
631.269811045
631.280585805
631.288000071
631.29175929
1024.11074436
1023.57683376
1022.52103527
1020.92608387
1018.80303935
1016.16384468
1013.02294997
1009.39691344
1005.30406531
1000.76417299
995.798131001
990.427673676
984.675099233
978.562990411
972.113918101
965.350123484
958.293184851
950.963689044
943.380937747
935.56272707
927.525238164
919.283068223
910.849409579
902.236354558
893.455267933
884.517143639
875.432861774
866.213301161
856.869331186
847.411763556
837.851357353
828.19892252
818.465563679
808.663029061
798.804138701
788.9032711
778.976895574
769.044139131
759.127364327
749.252715252
739.450561188
729.755727454
720.20734459
710.848079867
701.722475169
692.8741752
684.342234794
676.157091394
668.339435177
660.900652113
653.844212932
647.164178343
640.811783918
634.380399777
633.594918261
633.7766162
633.987651307
634.040956157
634.068029092
634.063119282
634.048335746
634.020346101
633.978485712
633.923978938
633.859620703
633.786621902
633.703600933
633.608682804
633.502985806
633.386246494
633.257395801
633.118418591
632.972018699
632.82138894
632.669642873
632.518839215
632.369166043
632.220166775
632.073955299
631.93489491
631.804718214
631.682902824
631.57160734
631.472000105
631.387029969
631.321101305
631.274036682
631.22592861
631.212953852
631.208812179
631.225911385
631.243384846
631.258395064
631.270383334
631.278940121
631.28338686
1031.05701005
1030.49430766
1029.38516212
1027.71025417
1025.4821775
1022.7145583
1019.42380229
1015.62860117
1011.34951712
1006.60858722
1001.42897891
995.834689611
989.850267837
983.500525054
976.810212777
969.803651273
962.504316055
954.934407398
947.114448123
939.062967267
930.796333136
922.328788199
913.672710893
904.839078707
895.838045202
886.67948707
877.373366099
867.929813436
858.358984124
848.670841655
838.875042315
828.981000056
818.998174956
808.936513738
798.806987552
788.62219495
778.397030758
768.149427036
757.901156062
747.678659699
737.51383947
727.444688097
717.515543056
707.776588152
698.282051925
689.086420803
680.238609459
671.773890592
663.713508554
656.067708413
648.835944627
641.973332746
635.068169461
634.248261468
634.411092174
634.596150092
634.675719419
634.694279509
634.699574746
634.684841198
634.65935705
634.6219976
634.573092093
634.512756091
634.441429989
634.358648362
634.262926245
634.15349461
634.032745559
633.899665912
633.752858252
633.594355892
633.426511925
633.252107014
633.073891796
632.894019132
632.713748389
632.534222638
632.357823707
632.187774763
632.026229795
631.874561656
631.734952984
631.609315393
631.500202094
631.410162331
631.337513633
631.276864526
631.2417741
631.231722327
631.222092047
631.233217902
631.24953738
631.263463476
631.273915837
631.279257272
1038.5767154
1037.9812419
1036.81167858
1035.04632885
1032.69965911
1029.78735026
1026.3281756
1022.34337701
1017.85613736
1012.89110771
1007.47403217
1001.63145582
995.390470317
988.778441876
981.82267307
974.549972683
966.986135685
959.155367826
951.079717795
942.778605442
934.268547066
925.563174104
916.673604213
907.609149221
898.378231647
888.98926497
879.45120024
869.773539359
859.965908866
850.037525963
839.996866096
829.851673182
819.609331882
809.277454913
798.864561877
788.380801887
777.838756215
767.254365816
756.647996244
746.045620969
735.48008534
724.99236704
714.632609852
704.460424808
694.543518307
684.952925528
675.754126044
666.988247678
658.676156255
650.822988238
643.384900895
635.931470655
635.086050229
635.298500068
635.457949062
635.481592525
635.470887676
635.448128099
635.42187209
635.387490158
635.347723091
635.300242852
635.243531912
635.175911425
635.095967545
635.001999031
634.892518122
634.768372618
634.631335398
634.479717683
634.313064144
634.133220089
633.942302667
633.742768471
633.537110942
633.327553881
633.115961542
632.904268463
632.695043352
632.491253336
632.295516196
632.110209782
631.937959104
631.781325621
631.643022209
631.525051585
631.427056824
631.347502157
631.290196817
631.255654873
631.233304184
631.222602788
631.241852074
631.259814018
631.273742692
631.280348324
1046.70123279
1046.06832839
1044.83016056
1042.96226724
1040.48142044
1037.40583003
1033.75716624
1029.55974523
1024.83983425
1019.62507426
1013.94408605
1007.82622693
1001.30141351
994.399910414
987.152002042
979.587499753
971.735082365
963.621512666
955.27081881
946.703568699
937.936398183
928.981960398
919.849428789
910.545577241
901.076269236
891.447941597
881.668505879
871.747205229
861.693617574
851.516520958
841.223189755
830.819352459
820.30975252
809.698997845
798.992428853
788.196934955
777.321853768
766.380073109
755.389376338
744.374023055
733.366588641
722.410102491
711.560393672
700.888163263
690.479526389
680.431313292
670.840144462
661.752916101
653.182259789
645.083072169
637.00008908
636.109986739
636.387297844
636.563694048
636.522759585
636.431614958
636.351370415
636.282124868
636.222439333
636.166710244
636.111947473
636.053197986
635.986524115
635.908513168
635.816438329
635.707900542
635.58179031
635.440794957
635.28494992
635.112295264
634.924069951
634.721816424
634.507408409
634.282936216
634.050563989
633.812389152
633.57044607
633.326944786
633.084521061
632.846132254
632.614762667
632.393430458
632.18530237
631.993553533
631.821270618
631.670823791
631.543190873
631.438554
631.358184632
631.300945078
631.260739123
631.234709739
631.230277841
631.25911019
631.280117952
631.288131685
1055.46619696
1054.79035065
1053.47399683
1051.48946322
1048.85637095
1045.59606939
1041.73382481
1037.29771069
1032.31764203
1026.82464779
1020.85048374
1014.42751601
1007.58871413
1000.36757994
992.797874058
984.913063245
976.745477466
968.325231774
959.679029519
950.829028401
941.792011241
932.579147962
923.196620474
913.647251358
903.932962027
894.05738643
884.02750818
873.853190974
863.544998003
853.111928105
842.560099469
831.89272057
821.11108893
810.215952763
799.208636688
788.091850345
776.87057647
765.553303341
754.153646793
742.692309782
731.199484881
719.718011298
708.307603672
697.050146273
686.055380852
675.460129083
665.429577469
656.004342056
647.130301708
638.319260404
637.342799811
637.670147173
637.870881615
637.785523775
637.602028362
637.428488698
637.288561474
637.178005918
637.089524852
637.013762475
636.943088722
636.870111016
636.788999956
636.695175319
636.585232514
636.456741003
636.309412288
636.146926794
635.968663338
635.773108051
635.562247337
635.337586228
635.10070934
634.853227927
634.596801059
634.333132271
634.064037888
633.791606072
633.51833366
633.247099964
632.981053261
632.723586122
632.478329108
632.249032516
632.039366553
631.85246989
631.690555557
631.555073399
631.447076743
631.365615585
631.307022448
631.26755711
631.246671941
631.258060065
631.29688646
631.30465672
1064.91221936
1064.18685926
1062.78096436
1060.66321692
1057.85673471
1054.38678477
1050.28319115
1045.57871911
1040.30763795
1034.50476221
1028.20512892
1021.44415378
1014.25795887
1006.68357363
998.758792313
990.521571028
982.008948046
973.255553306
964.291854436
955.142375269
945.824235731
936.346475861
926.710695103
916.913431402
906.950248884
896.82052009
886.53070607
876.093209774
865.521657234
854.826515377
844.01281162
833.080352855
822.025727633
810.844715858
799.533758001
788.090448617
776.514170086
764.807390803
752.977577108
741.039418145
729.017517113
716.950325916
704.896389861
692.944249186
681.228842488
669.944084401
659.423039301
649.612093401
639.947951116
638.810743599
639.145560202
639.359065387
639.232945462
638.965311347
638.686681631
638.450336926
638.265347387
638.122727769
638.009716525
637.913526066
637.823558576
637.730869999
637.628611304
637.511704412
637.376596442
637.221390798
637.047282926
636.858083938
636.653233213
636.432637755
636.198572891
635.9524563
635.695412321
635.428379686
635.152278904
634.868134287
634.577203843
634.281119225
633.981988238
633.682409791
633.385437661
633.094558897
632.813661113
632.546928235
632.29863886
632.072820486
631.872919468
631.701670828
631.56093974
631.450952735
631.370195361
631.316498862
631.287336635
631.28494365
631.341644775
631.33323854
1075.08575724
1074.30305416
1072.79391071
1070.52330744
1067.51845802
1063.80950562
1059.43223184
1054.42546069
1048.82874199
1042.68102483
1036.02052812
1028.88544862
1021.31490525
1013.34962464
1005.03204431
996.405679573
987.513740173
978.397080373
969.091646842
959.625703506
950.017287408
940.272599511
930.386297027
920.344740359
910.132744554
899.742590808
889.181227688
878.467703482
867.622752473
856.66050084
845.584779892
834.390234883
823.066555827
811.603098762
799.990758294
788.2212841
776.287157299
764.182950309
751.907717405
739.467299858
726.876573799
714.163102363
701.374056406
688.58964477
675.955791808
663.710465762
652.619145969
641.940394662
640.52939972
640.795163739
641.001988536
640.834489509
640.489112441
640.109486222
639.766507068
639.488099594
639.271875232
639.103071769
638.965431181
638.844500471
638.728579208
638.608336295
638.476761393
638.328777218
638.16096879
637.97229879
637.766207331
637.545103429
637.309237059
637.061562347
636.804192521
636.538272355
636.26424137
635.982133065
635.691879678
635.393557647
635.087581554
634.774852916
634.456853437
634.135675907
633.814018265
633.495173177