/*--------------------------------*- C++ -*----------------------------------*\
| =========                 |                                                 |
| \\      /  F ield         | OpenFOAM: The Open Source CFD Toolbox           |
|  \\    /   O peration     | Version:  v1906                                 |
|   \\  /    A nd           | Web:      www.OpenFOAM.com                      |
|    \\/     M anipulation  |                                                 |
\*---------------------------------------------------------------------------*/
FoamFile
{
    version     2.0;
    format      ascii;
    class       surfaceScalarField;
    location    "392";
    object      phi;
}
// * * * * * * * * * * * * * * * * * * * * * * * * * * * * * * * * * * * * * //

dimensions      [0 3 -1 0 0 0 0];
oriented        oriented;


internalField   nonuniform List<scalar> 
18240
(
-0.00019894481157
0.000198909774568
-0.000407302095878
0.000208321184605
-0.000614262511676
0.000206923227353
-0.000818191598124
0.000203892654641
-0.00101803464483
0.000199805316994
-0.00121285740796
0.000194785906402
-0.00140183548069
0.00018893982491
-0.00158424344819
0.000182370394884
-0.00175946254855
0.000175180312728
-0.00192697432882
0.00016747319517
-0.00208636228045
0.000159348645249
-0.00223730408351
0.00015090192628
-0.00237956440103
0.000142220559668
-0.00251298928397
0.000133383455011
-0.00263748988582
0.000124460515553
-0.00275304364148
0.000115510544868
-0.00285966842672
0.000106584528249
-0.00295743477064
9.77211499854e-05
-0.00304642922544
8.89542410677e-05
-0.00312678122381
8.03046595523e-05
-0.00319861363811
7.17924742265e-05
-0.00326208725463
6.34240119645e-05
-0.00331733606027
5.52094220866e-05
-0.00336453186565
4.71438581057e-05
-0.00340380163056
3.92312096339e-05
-0.00343531445356
3.14585026019e-05
-0.0034591784374
2.38265735057e-05
-0.00347555206699
1.63169540242e-05
-0.00348451835991
8.93030238382e-06
-0.0034862224894
1.6451729416e-06
-0.00348072122833
-5.53551612338e-06
-0.00346814802958
-1.26343026427e-05
-0.00344853723049
-1.96430726548e-05
-0.00342201788026
-2.65824013308e-05
-0.00338861114434
-3.3436745884e-05
-0.00334845313625
-4.02227488425e-05
-0.00330156550463
-4.69151987438e-05
-0.0032481068217
-5.35248072793e-05
-0.00318811647394
-6.00152731259e-05
-0.00312179330689
-6.63903533705e-05
-0.0030492131847
-7.26023472663e-05
-0.0029706329944
-7.86481176374e-05
-0.00288618302522
-8.4469408152e-05
-0.00279619434747
-9.00570400528e-05
-0.00270086781257
-9.53432165462e-05
-0.00260062330766
-0.000100312995015
-0.0024957483721
-0.00010488880584
-0.00238676828798
-0.000109048368073
-0.00227407729271
-0.000112702052588
-0.0021583274831
-0.000115817440078
-0.00204004390914
-0.000118291625945
-0.00192002649254
-0.000120083884552
-0.00179894540788
-0.00012108604526
-0.00167774542054
-0.000121264895056
-0.00155721514612
-0.000120532124636
-0.00143838435051
-0.000118893843483
-0.00132206744362
-0.000116315719887
-0.00120925694458
-0.00011287129358
-0.00110065671764
-0.000108595910805
-0.000997086389227
-0.000103628365363
-0.0008990244241
-9.80546959635e-05
-0.000807031877542
-9.20474161091e-05
-0.000721311604293
-8.5710349018e-05
-0.000642142766399
-7.92202690245e-05
-0.000569456266349
-7.26743790791e-05
-0.000503274678499
-6.62297161792e-05
-0.000443306776474
-5.99540960385e-05
-0.00038938732089
-5.39647397065e-05
-0.000341085408234
-4.82870260414e-05
-0.000298133879346
-4.29945003143e-05
-0.000260042572968
-3.80757078585e-05
-0.000226509973402
-3.35732736084e-05
-0.000197039344927
-2.94544552965e-05
-0.000171332825865
-2.57443410996e-05
-0.000148917899179
-2.23979408299e-05
-0.000129524783148
-1.94272973231e-05
-0.000112727904632
-1.67789550897e-05
-9.83019274085e-05
-1.44560392119e-05
-8.588103065e-05
-1.24022500015e-05
-7.52913115974e-05
-1.06159574201e-05
-6.62333091351e-05
-9.03936184095e-06
-5.85964644538e-05
-7.65939143822e-06
-5.21897934987e-05
-6.38821942227e-06
-4.71482661046e-05
-5.06160157344e-06
-4.29155113539e-05
-4.21704099724e-06
-3.89180202852e-05
-4.01462917887e-06
-3.53485036785e-05
-3.55677396569e-06
-3.23261019796e-05
-3.03715573965e-06
-2.93217337372e-05
-2.99581347899e-06
-2.60504247038e-05
-3.284158068e-06
-2.26706462204e-05
-3.37501593406e-06
-1.92043384188e-05
-3.47575635128e-06
-1.52382171802e-05
-3.97032855173e-06
-1.04924305678e-05
-4.74701176884e-06
-5.05165244025e-06
-5.43576884435e-06
-5.05101654629e-06
-0.000210484368742
0.000409357698497
-0.000433502776721
0.000431301863754
-0.000654298989786
0.000427680962027
-0.000871618708018
0.000421174017894
-0.00108445609252
0.00041260380136
-0.00129185801063
0.000402148964164
-0.00149295612137
0.000389998486907
-0.00168698308813
0.00037635781603
-0.00187328275691
0.000361439841196
-0.00205130918854
0.000345459205
-0.00222062567841
0.000328624195371
-0.00238089782041
0.000311132607778
-0.00253188539264
0.000293166334499
-0.00267343372821
0.000274889162108
-0.00280546055144
0.000256444657342
-0.00292794924677
0.000237955350553
-0.00304093200722
0.000219523749065
-0.003144487863
0.000201231800337
-0.00323872258043
0.000183144613422
-0.00332377345988
0.000165309002448
-0.0033997856119
0.000147759582589
-0.00346692483617
0.000130515393088
-0.0035253493368
0.000113588303537
-0.00357523155138
9.69769836662e-05
-0.00361672415213
8.06777884522e-05
-0.00364999149117
6.46756038899e-05
-0.00367516873657
4.89575687214e-05
-0.00369240353072
3.3500490636e-05
-0.00370180729217
1.82878049291e-05
-0.00370350758231
3.29335108423e-06
-0.00369759120753
-1.14979460168e-05
-0.00368416816685
-2.61101105112e-05
-0.00366330518402
-4.0551650821e-05
-0.00363510135062
-5.48394217672e-05
-0.0035996128211
-6.89701748952e-05
-0.00355694031089
-8.29486079751e-05
-0.00350714431915
-9.67551317439e-05
-0.00345034409552
-0.000110378271963
-0.00338662318806
-0.00012377895545
-0.00331613898566
-0.000136927437122
-0.00323901831255
-0.000149764426509
-0.00315547633069
-0.000162242389531
-0.00306570213774
-0.000174283501222
-0.00296998597609
-0.000185824685848
-0.00286859553277
-0.000196771897418
-0.00276191123415
-0.000207047757808
-0.00265029508053
-0.000216541404324
-0.00253423474589
-0.000225157903835
-0.00241420727666
-0.000232763928312
-0.00229083217432
-0.000239240113062
-0.00216473017086
-0.000244425669725
-0.00203668119555
-0.000248178355955
-0.00190747244116
-0.000250324181677
-0.00177805012865
-0.000250730358874
-0.0016493457832
-0.000249263122863
-0.00152241031695
-0.000245869985569
-0.00139821522685
-0.000240534617159
-0.00127777421014
-0.000233350171124
-0.00116193685783
-0.000224453995148
-0.00105151949701
-0.000214080519863
-0.00094711616896
-0.000202475684324
-0.000849253044939
-0.00018994215541
-0.000758218084208
-0.000176759925781
-0.00067422711362
-0.000163239667683
-0.000597266867521
-0.00014964647893
-0.000527271472607
-0.000136250624357
-0.000463982331163
-0.000123252801653
-0.000407131771878
-0.000110838510058
-0.000356312050706
-9.91147204364e-05
-0.000311153900505
-8.81741288843e-05
-0.000271192398538
-7.80439907957e-05
-0.000236031160758
-6.87544281192e-05
-0.000205201945912
-6.02891540691e-05
-0.000178317820567
-5.26463356919e-05
-0.000154935555603
-4.57838933602e-05
-0.000134702752959
-3.96752099807e-05
-0.000117225336812
-3.42578220618e-05
-0.000102204047155
-2.94893636909e-05
-8.93058630142e-05
-2.52997261346e-05
-7.8288310089e-05
-2.16427212987e-05
-6.88755324618e-05
-1.84497133055e-05
-6.08655272681e-05
-1.56757427773e-05
-5.39948384697e-05
-1.32552568345e-05
-4.79203935715e-05
-1.11405967799e-05
-4.26732810627e-05
-9.46168443631e-06
-3.81482331734e-05
-8.54309510442e-06
-3.44434484726e-05
-7.25964181847e-06
-3.13911851577e-05
-6.09335285156e-06
-2.8583064761e-05
-5.804393118e-06
-2.5727210797e-05
-6.14351738964e-06
-2.25197573117e-05
-6.58488090627e-06
-1.9063714821e-05
-6.93674593824e-06
-1.53080999313e-05
-7.72724305016e-06
-1.08451962299e-05
-9.21062487391e-06
-5.31208263838e-06
-1.0967045013e-05
-1.03591806655e-05
-0.00021334963014
0.000622670867445
-0.000438659589923
0.000656573600624
-0.000661929144414
0.0006509121608
-0.000881645011048
0.000640851282242
-0.00109672120166
0.000627641149249
-0.00130616812657
0.000611556814508
-0.00150909725889
0.000592888190416
-0.00170473171593
0.000571952524253
-0.00189241265191
0.000549080606142
-0.0020715989066
0.000524604863043
-0.00224186372476
0.000498847968324
-0.00240288730391
0.000472114608338
-0.00255444734942
0.000444684362803
-0.00269640842968
0.000416807583922
-0.00282870947223
0.000388702654754
-0.00295135320557
0.000360555287415
-0.00306439281973
0.000332519268908
-0.00316792376007
0.000304717786251
-0.00326207069087
0.000277246425716
-0.00334698288234
0.000250175102115
-0.00342282168341
0.000223552295986
-0.00348975997485
0.000197406512885
-0.00354796979006
0.000171751162458
-0.00359762589877
0.000146584933406
-0.00363889296738
0.00012189715147
-0.00367193320228
9.76668166329e-05
-0.00369689247529
7.38685487951e-05
-0.00371391200288
5.04702857766e-05
-0.00372311299705
2.7440089539e-05
-0.00372461248899
4.74258403048e-06
-0.00371850627831
-1.76530654721e-05
-0.00370488904915
-3.97779117493e-05
-0.00368383560743
-6.16539806095e-05
-0.00365542550725
-8.33001656036e-05
-0.00361972252863
-0.000104721759621
-0.00357680384946
-0.000125917748059
-0.00352673765805
-0.000146869410191
-0.00346961654709
-0.00016754940558
-0.00340553288291
-0.000187909939122
-0.00333461564169
-0.000207894030646
-0.00325700280695
-0.000227423621183
-0.00317288055844
-0.000246413101105
-0.00308245203131
-0.000264757214081
-0.00298597800257
-0.000282346077919
-0.00288374199795
-0.000299051731902
-0.00277609279614
-0.000314743005714
-0.00266340749361
-0.000329268944626
-0.00254613787587
-0.000342471976944
-0.00242477437999
-0.000354167762656
-0.00229989868341
-0.000364158224702
-0.00217214990464
-0.000372212415497
-0.00204228091292
-0.000378087303113
-0.00191111973267
-0.000381520659511
-0.00177961627589
-0.000382271134738
-0.0016487812864
-0.000380130682901
-0.00151970523715
-0.000374980546406
-0.00139346532423
-0.000366804145668
-0.00127112250943
-0.000355724389038
-0.00115361969855
-0.000341983163957
-0.00104178965577
-0.000325939021011
-0.000936281380766
-0.000308007231245
-0.000837603614405
-0.00028864527013
-0.000746072066006
-0.00026831173405
-0.000661860734192
-0.000247473255047
-0.000584958438502
-0.000226566149729
-0.000515233465415
-0.000205995004652
-0.000452409617681
-0.00018609166512
-0.00039614415698
-0.000167121326978
-0.000346012432
-0.000149259843261
-0.000301582022609
-0.000132620613254
-0.000262387240123
-0.000117251047509
-0.000227986528732
-0.000103170046527
-0.000197922429247
-9.03642942117e-05
-0.000171769633839
-7.88122283333e-05
-0.000149097449593
-6.84650756069e-05
-0.000129519622039
-5.92635409761e-05
-0.000112659033776
-5.11247835981e-05
-9.81903348936e-05
-4.39657000136e-05
-8.58014210337e-05
-3.76924045443e-05
-7.52290042534e-05
-3.22201198227e-05
-6.62186705996e-05
-2.74615465447e-05
-5.85512437564e-05
-2.33457140654e-05
-5.19958844629e-05
-1.98098938243e-05
-4.62779608588e-05
-1.68603405063e-05
-4.13688749144e-05
-1.4370198253e-05
-3.72236171153e-05
-1.26893401451e-05
-3.32907330236e-05
-1.11917198068e-05
-2.95903520389e-05
-9.7945392871e-06
-2.66276633949e-05
-8.76762310942e-06
-2.42532506993e-05
-8.51944502228e-06
-2.11295045161e-05
-9.70880357028e-06
-1.73133759149e-05
-1.07553727403e-05
-1.3326154111e-05
-1.17187535971e-05
-8.9172582134e-06
-1.36161485703e-05
-4.53564926631e-06
-1.53420037277e-05
-1.48935377177e-05
-0.000216783697624
0.000839418143205
-0.00044546198961
0.0008852141305
-0.000672023490103
0.000877435295851
-0.00089485565164
0.000863644979927
-0.0011128074538
0.000845554177338
-0.00132484389406
0.000823554252333
-0.00153004778436
0.000798052725366
-0.00172762812636
0.000769493174871
-0.00191692427599
0.000738336633946
-0.00209740419616
0.000705044240999
-0.0022686589307
0.000670061666073
-0.00243039311218
0.000633807267068
-0.00258241354488
0.000596662738607
-0.00272461616385
0.000558967607057
-0.00285697256959
0.000521015912953
-0.00297951693808
0.000483055933225
-0.00309233319809
0.000445291265091
-0.00319554404156
0.000407883765729
-0.00328930004059
0.000370957051671
-0.00337377163924
0.000334600719687
-0.00344914044098
0.000298874668018
-0.00351559422281
0.000263813257465
-0.00357332001248
0.000229429543843
-0.00362250178113
0.00019571870219
-0.00366331475199
0.000162661855049
-0.00369592537875
0.000130228605181
-0.00372048638265
9.83805628735e-05
-0.00373713875432
6.70731328725e-05
-0.00374600723343
3.62590334873e-05
-0.0037472042882
5.88961024729e-06
-0.00374082594542
-2.40812945712e-05
-0.00372695786193
-5.3696314306e-05
-0.00370567168311
-8.29901603671e-05
-0.00367703345178
-0.000111988768203
-0.00364110059243
-0.000140704495669
-0.00359793276593
-0.000169135749018
-0.00354758947827
-0.000197262192481
-0.00349014315225
-0.000225045463107
-0.00342567687524
-0.000252425099828
-0.00335429888109
-0.00027932108298
-0.00327613941347
-0.00030563112397
-0.00319136531352
-0.000331235348165
-0.00310017470978
-0.000355994773083
-0.00300281051722
-0.000379757251296
-0.00289955243887
-0.000402355421016
-0.00279072968642
-0.000423611300083
-0.00267671207699
-0.000443330531259
-0.00255792526434
-0.000461302531473
-0.00243484574428
-0.000477289151354
-0.00230802404498
-0.000491021361099
-0.00217808790985
-0.000502187810422
-0.00204577385314
-0.00051044005155
-0.00191193155801
-0.000515399346595
-0.00177754619775
-0.000516692367708
-0.00164371581028
-0.000513994495738
-0.00151163165899
-0.000507097470586
-0.00138250566839
-0.00049596025096
-0.00125751528797
-0.00048074406322
-0.00113771574656
-0.000461809667746
-0.00102399829498
-0.000439682774975
-0.000917055353863
-0.00041497423447
-0.000817399792751
-0.000388324356912
-0.000725353836451
-0.000360378847253
-0.000641061981934
-0.000331785569703
-0.000564480088764
-0.000303166211268
-0.000495406088835
-0.000275086713029
-0.000433497634967
-0.000248015987304
-0.000378325664155
-0.000222309070696
-0.000329403243627
-0.000198196790283
-0.00028623339107
-0.00017580520809
-0.000248320105238
-0.000155178029414
-0.000215189134419
-0.000136315071922
-0.000186372835575
-0.000119193208496
-0.000161419939801
-0.000103777499968
-0.000139888975099
-9.00064646942e-05
-0.000121371483992
-7.77907327959e-05
-0.000105488895213
-6.70149867471e-05
-9.19057532515e-05
-5.75556428114e-05
-8.03180099209e-05
-4.92850571176e-05
-7.0460891708e-05
-4.20814052947e-05
-6.20960871069e-05
-3.58290199307e-05
-5.50162854135e-05
-3.04273029482e-05
-4.90325537747e-05
-2.57946204329e-05
-4.39362296675e-05
-2.19571301986e-05
-3.93818132837e-05
-1.8925344323e-05
-3.52152777616e-05
-1.68553732138e-05
-3.13290390801e-05
-1.50766171451e-05
-2.79082202729e-05
-1.32144396674e-05
-2.44887572212e-05
-1.21854772967e-05
-2.09897128792e-05
-1.20168591887e-05
-1.84080378053e-05
-1.22907505319e-05
-1.48333784678e-05
-1.43311971014e-05
-1.05914688103e-05
-1.59578721909e-05
-6.98953174592e-06
-1.72165635492e-05
-3.61686587697e-06
-1.87111260119e-05
-1.85051691998e-05
-0.000221367708704
0.00106074964903
-0.000454734610814
0.00111854297439
-0.000685808864053
0.00110847148836
-0.000912883525423
0.00109068123132
-0.00113473243331
0.00106736449892
-0.00135026354915
0.00103904646772
-0.00155852228651
0.0010062722523
-0.00175869974713
0.000969631034827
-0.00195013481212
0.000929731697559
-0.00213231024028
0.000887179194155
-0.00230484390131
0.000842554387393
-0.00246747637511
0.000796398258811
-0.00262005622279
0.000749200595496
-0.00276252427011
0.000701393070924
-0.0028948976541
0.000653346182081
-0.00301725481951
0.000605369359508
-0.00312972140245
0.000557713572999
-0.00323245808886
0.000510575541058
-0.00332564958119
0.000464103114002
-0.00340949588232
0.000418400960512
-0.0034842043188
0.000373536557995
-0.00354998388295
0.000329545668725
-0.0036070396864
0.000286437760229
-0.00365556967261
0.000244200532581
-0.00369576076769
0.000202804423788
-0.00372778732606
0.00016220612258
-0.00375180841876
0.000122352325642
-0.00376796761536
8.31825511055e-05
-0.00377639112783
4.46325706246e-05
-0.00377718882619
6.63697025514e-06
-0.00377045326129
-3.0867281117e-05
-0.00375626209384
-6.79381673661e-05
-0.00373467827125
-0.000104624631664
-0.00370575421734
-0.000140963621273
-0.00366953351283
-0.00017697583047
-0.00362605711501
-0.000212662814073
-0.00357536666314
-0.000248003016783
-0.00351751260223
-0.000282949815662
-0.00345255865164
-0.000317428918401
-0.00338059092168
-0.000351338480059
-0.00330172219524
-0.000384548961052
-0.0032161002451
-0.000416906058335
-0.00312390993484
-0.000448233125342
-0.00302537875412
-0.000478335959
-0.00292077535773
-0.000507005457736
-0.00281041216658
-0.000534020425351
-0.00269464225409
-0.000559145263646
-0.00257386365064
-0.000582124981853
-0.00244852222969
-0.000602673048164
-0.00231912764649
-0.000620457108675
-0.00218627269177
-0.000635082381413
-0.00205066705934
-0.000646083833572
-0.00191316895382
-0.000652934100783
-0.00177481452264
-0.000655081808903
-0.00163681686234
-0.000652025625105
-0.00150052983119
-0.000643415895079
-0.001367362094
-0.000629157686634
-0.00123868343217
-0.000609450499922
-0.00111570778992
-0.000584811429506
-0.000999413335926
-0.000556002524598
-0.000890528586133
-0.000523882796628
-0.000789575073942
-0.000489300674101
-0.000696875517008
-0.000453099521288
-0.000612546555431
-0.000416134263261
-0.000536487627647
-0.000379243281922
-0.000468401864517
-0.000343189422548
-0.000407835723972
-0.000308597943736
-0.000354239551523
-0.000275920448677
-0.000307023631694
-0.000245427271478
-0.00026560964957
-0.000217233739339
-0.000229455767014
-0.000191346093887
-0.000198061803232
-0.000167723291574
-0.000170946011813
-0.000146322445266
-0.000147631813503
-0.000127104172782
-0.000127651639463
-0.000109997655785
-0.000110572151453
-9.48798876249e-05
-9.60055451897e-05
-8.15896424324e-05
-8.36119928282e-05
-6.99558956736e-05
-7.30928212547e-05
-5.98094980702e-05
-6.41898404619e-05
-5.09885652239e-05
-5.66803688827e-05
-4.33415509124e-05
-5.03802018277e-05
-3.67298778489e-05
-4.51479068385e-05
-3.10277167158e-05
-4.09550419717e-05
-2.61511016829e-05
-3.69901702359e-05
-2.28903510857e-05
-3.32205268458e-05
-2.06244284271e-05
-2.95280900418e-05
-1.87673136945e-05
-2.53430570841e-05
-1.73964194327e-05
-2.14796778982e-05
-1.60458697621e-05
-1.79109538491e-05
-1.55830205636e-05
-1.50024539385e-05
-1.51964241246e-05
-1.24654456956e-05
-1.68673865024e-05
-8.85037881101e-06
-1.95749181999e-05
-5.459142879e-06
-2.06017539269e-05
-2.76106196068e-06
-2.14004776468e-05
-2.1264426787e-05
-0.000227245728075
0.00128795926242
-0.000466686878957
0.00135794677823
-0.000703585972039
0.00134533254395
-0.000936113304383
0.00132317043533
-0.00116294804972
0.00129416078536
-0.00138292648032
0.00125898619038
-0.00159504829724
0.00121835499687
-0.00179848441689
0.00117302771855
-0.00199257703296
0.00112378442698
-0.00217683214809
0.00107139397694
-0.00235090671336
0.0010165880919
-0.00251459163
0.000960041810056
-0.00266779289655
0.000902359910114
-0.00281051184921
0.000844069526626
-0.0029428262849
0.000785617495485
-0.00306487271752
0.000727372103952
-0.00317683089588
0.000669627420546
-0.00327891020861
0.000612609953122
-0.00337133858837
0.000556485951555
-0.0034543531983
0.000501369472717
-0.00352819322147
0.000447329862948
-0.0035930939647
0.000394399166344
-0.00364928246844
0.000342578433717
-0.003696973953
0.000291843703233
-0.00373636923118
0.000242150857084
-0.00376765263072
0.000193440248501
-0.00379099049509
0.000145640452364
-0.00380653008094
9.86720416286e-05
-0.0038143988336
5.24508503182e-05
-0.00381470416227
6.89155218805e-06
-0.00380753357186
-3.80888920872e-05
-0.00379295561036
-8.25673211998e-05
-0.00377102128117
-0.00012661030702
-0.00374176671747
-0.000170269596331
-0.00370521646989
-0.000213577517455
-0.00366138844352
-0.000256542232066
-0.0036102994218
-0.000299143323826
-0.0035519723497
-0.000341328012822
-0.00348644369053
-0.000383008452308
-0.00341377207409
-0.000424060678449
-0.00333404577281
-0.00046432541161
-0.00324739028133
-0.000503611233438
-0.00315397286204
-0.00054169957939
-0.00305400574737
-0.000578351430894
-0.00294774491894
-0.000613313750529
-0.00283548753328
-0.000646324352778
-0.0027175663722
-0.000677111775712
-0.0025943472594
-0.000705388265919
-0.0024662303185
-0.000730832647078
-0.00233366428054
-0.000753064432588
-0.00219717499597
-0.000771611162898
-0.00205741527669
-0.000785881838185
-0.00191522564774
-0.000795159833789
-0.00177169695858
-0.000798645708279
-0.00162819329992
-0.000795561732921
-0.00148631357841
-0.000785326589356
-0.00134775499152
-0.000767744794801
-0.00121418954421
-0.000743042357062
-0.00108706372185
-0.000711962702104
-0.000967456802774
-0.00067563409754
-0.000856105317824
-0.000635257903832
-0.000753530677893
-0.000591898125578
-0.00066006186794
-0.000546589458092
-0.000575793267935
-0.000500422569233
-0.00050054764008
-0.000454506962526
-0.000433893884364
-0.000409859838233
-0.000375210120562
-0.00036729748942
-0.000323771127564
-0.000327374216723
-0.000278836208432
-0.000290376850815
-0.000239719521227
-0.000256364856086
-0.000205828624679
-0.000225251572358
-0.000176654292967
-0.000196912453581
-0.000151713459921
-0.000171277240712
-0.000130501121419
-0.00014832927631
-0.00011250303312
-0.000128007008986
-9.7249105325e-05
-0.000110143494664
-8.43394023391e-05
-9.45075271476e-05
-7.34346426975e-05
-8.08673153881e-05
-6.42430205547e-05
-6.90064324415e-05
-5.65161309246e-05
-5.87195913126e-05
-5.00431429279e-05
-4.98178402768e-05
-4.46464246444e-05
-4.21290165235e-05
-4.01604830911e-05
-3.55149512763e-05
-3.64011345334e-05
-2.99111657968e-05
-3.27345498017e-05
-2.65571516307e-05
-2.9154317598e-05
-2.42042808959e-05
-2.59291937015e-05
-2.19900227051e-05
-2.29530206468e-05
-2.03695117706e-05
-1.9435034835e-05
-1.95596194915e-05
-1.57656461052e-05
-1.92478982643e-05
-1.19733379201e-05
-1.89867978835e-05
-9.48156090935e-06
-1.9357426625e-05
-7.35783108922e-06
-2.16925092171e-05
-4.53108416258e-06
-2.34248853188e-05
-2.26401789917e-06
-2.36632563084e-05
-2.35228621457e-05
-0.000234563681184
0.00152248716836
-0.00048157988048
0.001604925292
-0.000725724942984
0.00158944000764
-0.000965008997235
0.00156241648595
-0.0011979895187
0.00152710313279
-0.00142341402915
0.00148437218179
-0.00164022794395
0.0014351300683
-0.00184758193751
0.0013803424478
-0.00204482848061
0.00132099128195
-0.00223150955643
0.00125803485567
-0.0024073376452
0.00119237548845
-0.002572172781
0.00112483567191
-0.00272599766767
0.00105614297695
-0.00286889314632
0.000986922550664
-0.00300101501755
0.000917696334959
-0.00312257361362
0.000848887000507
-0.00323381606044
0.000780825576958
-0.00333501190355
0.000713760824959
-0.00342644131834
0.000647869808192
-0.00350838623915
0.00058326815953
-0.00358112330319
0.000520020124786
-0.00364491892004
0.000458147327185
-0.00370002530474
0.000397636827983
-0.00374667792258
0.000338447713786
-0.00378509323699
0.000280517075861
-0.00381546738922
0.000223764741192
-0.00383797478542
0.000168097762309
-0.00385276739407
0.000113414068942
-0.00385997382006
5.96063435277e-05
-0.00385969912283
6.56551530638e-06
-0.00385202455099
-4.58150594844e-05
-0.00383700830597
-9.7635463064e-05
-0.00381468656932
-0.00014898409283
-0.00378507602671
-0.000199932372414
-0.0037481771419
-0.000250528674126
-0.00370397934228
-0.00030079236334
-0.0036524672834
-0.000350707631671
-0.00359362911502
-0.000400218348402
-0.00352746557665
-0.000449223928446
-0.00345400035977
-0.000497577568477
-0.00337328999314
-0.000545087020363
-0.00328543304024
-0.000591518914539
-0.00319057632174
-0.000636606330779
-0.00308891763266
-0.000680059345148
-0.00298070295261
-0.000721576655158
-0.00286621876927
-0.000760855636134
-0.00274577987447
-0.000797596519205
-0.00261971702665
-0.000831495567455
-0.00248837020806
-0.000862222446978
-0.00235209736535
-0.000889378522966
-0.00221131021207
-0.000912438289425
-0.00206654462714
-0.000930685206234
-0.00191857019885
-0.000943171324202
-0.00176851011378
-0.000948740052139
-0.00161792634489
-0.000946178582019
-0.00146878143399
-0.000934501565537
-0.00132319479884
-0.000913359165758
-0.00118332247115
-0.000882940609647
-0.00105096636552
-0.000844343700645
-0.000927289279444
-0.000799335867181
-0.000812941164441
-0.00074963024386
-0.000708419549169
-0.000696443168602
-0.000614092545458
-0.000640938369294
-0.000530059346869
-0.000584475936634
-0.000456048280588
-0.000528536224071
-0.000391433989694
-0.000474491161585
-0.000335342281213
-0.000423404551582
-0.000286789741009
-0.000375941538657
-0.000244815820054
-0.000332364997948
-0.000208592040755
-0.000292603116702
-0.000177482478872
-0.000256375978396
-0.000151015791798
-0.000223394366694
-0.000128750505975
-0.000193556877766
-0.00011014535387
-0.000166947203843
-9.45954862148e-05
-0.00014356781647
-8.15688203951e-05
-0.000123179804117
-7.0657466241e-05
-0.000105426711892
-6.15345956114e-05
-8.99965204739e-05
-5.39202872732e-05
-7.66257316973e-05
-4.75818640609e-05
-6.50618229293e-05
-4.23260228157e-05
-5.50767898321e-05
-3.79941310496e-05
-4.64632545775e-05
-3.4456555786e-05
-3.90537472517e-05
-3.13267202037e-05
-3.30411980354e-05
-2.8195857048e-05
-2.96883625059e-05
-2.53564373266e-05
-2.70425305421e-05
-2.22774303633e-05
-2.50669058545e-05
-1.92700041698e-05
-2.33731490566e-05
-1.61253848158e-05
-2.26995533435e-05
-1.33351794878e-05
-2.20332087352e-05
-1.01627743268e-05
-2.21533321823e-05
-7.18596943487e-06
-2.23300818682e-05
-5.70967628277e-06
-2.31685537714e-05
-3.69487911265e-06
-2.54320834699e-05
-1.83897623659e-06
-2.55099811906e-05
-2.53602638381e-05
-0.00024349644797
0.00176594799243
-0.000499751958625
0.00186114409139
-0.000752710766503
0.00184236130155
-0.00100017541062
0.00180984354762
-0.00124055017826
0.00176743994808
-0.00147247380788
0.00171625759808
-0.00169482978644
0.00165744743923
-0.00190675143934
0.00159222510453
-0.00210761351686
0.00152181387597
-0.00229701236051
0.0014473937382
-0.00247473867482
0.0013700612683
-0.00264074593791
0.00129080185864
-0.0027951180522
0.00121047337491
-0.00293803810709
0.00112980030281
-0.00306976052158
0.00104937576006
-0.00319058686111
0.000969669738452
-0.00330084634769
0.000891040748772
-0.00340088019838
0.000813749739721
-0.00349103012675
0.000737974078923
-0.00357162961161
0.000663821372738
-0.00364299812121
0.00059134164987
-0.00370543682053
0.000520538448726
-0.00375922609722
0.000451377837674
-0.00380462356102
0.000383796352013
-0.00384186307247
0.000317707112303
-0.00387115361747
0.000253005300511
-0.00389267877215
0.000189572337593
-0.00390659573504
0.000127280005711
-0.00391303482589
6.59938891114e-05
-0.00391209860422
5.57738127251e-06
-0.00390386164714
-5.41043522645e-05
-0.00388837035098
-0.000113179365047
-0.00386564387404
-0.000171763489124
-0.00383567580102
-0.000229953529625
-0.00379843763223
-0.000287820117621
-0.00375388374399
-0.000345399572582
-0.00370195873647
-0.000402686005857
-0.00364260668769
-0.000459623667774
-0.00357578265332
-0.00051610108662
-0.00350146548379
-0.000571947559505
-0.0034196712215
-0.000626933679031
-0.00333046536286
-0.000680776569651
-0.00323397191464
-0.000733150798005
-0.00313037690531
-0.000783704400136
-0.0030199238632
-0.000832078608626
-0.0029029000376
-0.000877927170112
-0.00277961333993
-0.000920929585254
-0.00265036450899
-0.000960789272362
-0.00251542244627
-0.000997207971704
-0.00237501790438
-0.00102982493251
-0.00222937635756
-0.00105811987147
-0.00207881535779
-0.00108128541941
-0.00192391799408
-0.0010981052327
-0.0017657748812
-0.00110691931788
-0.00160618716639
-0.00110579918919
-0.00144768915826
-0.00109302963922
-0.00129298290364
-0.00106809368025
-0.00114505134821
-0.00103089744893
-0.00100629046428
-0.000983130391531
-0.000877834029966
-0.000927818021418
-0.00075997585379
-0.000867514256555
-0.000653155290096
-0.00080328892259
-0.000557887966313
-0.000736229388835
-0.000474361751076
-0.000668023436357
-0.000402195478829
-0.000600722283311
-0.000340470517657
-0.00053623314035
-0.000287931041083
-0.000475960257471
-0.000243206355014
-0.000420680587513
-0.000205014115499
-0.000370571730437
-0.000172327366184
-0.000325304482924
-0.000144493140868
-0.000284225208511
-0.000121190864865
-0.000246712653897
-0.000102131700244
-0.00021263050054
-8.67171412934e-05
-0.000182373892826
-7.41412365562e-05
-0.000156154406136
-6.37563444874e-05
-0.000133573373588
-5.5175758418e-05
-0.000114014703462
-4.8115789484e-05
-9.70619496792e-05
-4.23129968946e-05
-8.24327398482e-05
-3.75570480683e-05
-6.98206996831e-05
-3.3675400118e-05
-5.89607415521e-05
-3.05251477368e-05
-4.9615211769e-05
-2.79754175591e-05
-4.16037699469e-05
-2.54880100597e-05
-3.55282948773e-05
-2.31685142923e-05
-3.20067942399e-05
-2.10188491204e-05
-2.91903408088e-05
-1.86936739807e-05
-2.73890424502e-05
-1.59242884618e-05
-2.61381602644e-05
-1.3271648179e-05
-2.53463860997e-05
-1.04284237626e-05
-2.48701421343e-05
-8.36436154723e-06
-2.42125564175e-05
-6.04142386363e-06
-2.46485614943e-05
-4.24511713004e-06
-2.495652777e-05
-3.04366540832e-06
-2.66298371766e-05
-1.47588401195e-06
-2.70739051191e-05
-2.6830726926e-05
-0.000254264545234
0.00202017742416
-0.000521640814895
0.0021284832908
-0.00078516962777
0.00210585322974
-0.00104239077953
0.00206702734896
-0.00129151631399
0.00201652796265
-0.00153105451048
0.0019557578951
-0.00175982071196
0.00188617539362
-0.00197693898575
0.00180930467333
-0.00218182532083
0.00172666104807
-0.00237415720608
0.00163968590554
-0.00255383434057
0.00154969814778
-0.00272093579665
0.00145786242281
-0.00287567730624
0.0013651733981
-0.00301837219079
0.00127245300236
-0.00314939726815
0.00118035801962
-0.0032691652019
0.00108939411423
-0.00337810267465
0.00099993400942
-0.00347663457442
0.000912236664921
-0.00356517259682
0.00082646646698
-0.00364410807769
0.000742710451782
-0.00371380728043
0.000660993799068
-0.0037746091257
0.000581292483732
-0.00382682379304
0.000503544064699
-0.0038707325135
0.000427655901231
-0.00390658724644
0.000353512079101
-0.00393461083511
0.000280978434436
-0.00395499653816
0.000209907042213
-0.00396790772991
0.00014013957057