/*--------------------------------*- C++ -*----------------------------------*\
| =========                 |                                                 |
| \\      /  F ield         | OpenFOAM: The Open Source CFD Toolbox           |
|  \\    /   O peration     | Version:  v1906                                 |
|   \\  /    A nd           | Web:      www.OpenFOAM.com                      |
|    \\/     M anipulation  |                                                 |
\*---------------------------------------------------------------------------*/
FoamFile
{
    version     2.0;
    format      ascii;
    class       volVectorField;
    location    "830";
    object      U;
}
// * * * * * * * * * * * * * * * * * * * * * * * * * * * * * * * * * * * * * //

dimensions      [0 1 -1 0 0 0 0];


internalField   nonuniform List<vector> 
9216
(
(0.00150787732118 -0.00150928227986 0)
(0.00154561069094 -0.00470269638005 7.4149700364e-28)
(0.00153315266637 -0.00790149179287 1.04821434574e-31)
(0.00150853368357 -0.0110769581359 0)
(0.00147546998733 -0.0141902553807 0)
(0.00143475954263 -0.017226339621 0)
(0.00138725577439 -0.020170172734 0)
(0.00133375907943 -0.0230084388839 0)
(0.00127507978243 -0.0257294860638 0)
(0.00121202783562 -0.0283233564262 0)
(0.00114540181987 -0.0307817736548 0)
(0.00107596612832 -0.0330980974838 0)
(0.00100444259467 -0.0352672404146 0)
(0.000931493105485 -0.0372855616132 0)
(0.000857720338775 -0.0391507390216 0)
(0.000783656945775 -0.0408616357245 0)
(0.00070977440835 -0.0424181597476 0)
(0.00063647651494 -0.0438211314485 0)
(0.00056411374784 -0.0450721542962 0)
(0.000492978231635 -0.0461735008423 0)
(0.000423321180226 -0.0471280063812 0)
(0.000355346977758 -0.047938980362 0)
(0.000289231954375 -0.0486101255523 0)
(0.000225116128926 -0.0491454741855 0)
(0.000163122467893 -0.049549329458 0)
(0.000103345641275 -0.0498262217153 0)
(4.58717724651e-05 -0.0499808664862 0)
(-9.23615554624e-06 -0.0500181351296 0)
(-6.19210824649e-05 -0.0499430281696 0)
(-0.000112145767398 -0.0497606347501 0)
(-0.000159870302348 -0.0494761311455 0)
(-0.000205075239717 -0.0490947544212 0)
(-0.000247738440767 -0.0486217828172 0)
(-0.000287857475291 -0.0480625219244 0)
(-0.000325425064381 -0.0474222852342 0)
(-0.000360453876805 -0.0467063825096 0)
(-0.000392949830556 -0.0459201018607 0)
(-0.000422939123728 -0.0450686998375 0)
(-0.00045043923118 -0.0441573851175 0)
(-0.000475488172352 -0.0431913104948 0)
(-0.000498113129768 -0.0421755584029 0)
(-0.000518362033406 -0.0411151349325 0)
(-0.000536269827256 -0.0400149573895 0)
(-0.000551892418455 -0.0388798503625 0)
(-0.000565270623165 -0.0377145352661 0)
(-0.0005764665319 -0.0365236281931 0)
(-0.000585525233279 -0.0353116312686 0)
(-0.000592513563227 -0.0340829318838 0)
(-0.000597479702907 -0.0328417954569 0)
(-0.000600494259153 -0.0315923654077 0)
(-0.000601607920463 -0.030338656878 0)
(-0.000600894713664 -0.0290845567273 0)
(-0.000598407928471 -0.0278338175778 0)
(-0.000594225361273 -0.0265900568995 0)
(-0.000588403832997 -0.0253567507271 0)
(-0.000581026096875 -0.0241372308457 0)
(-0.00057215430909 -0.0229346773746 0)
(-0.000561878190297 -0.0217521129476 0)
(-0.000550267892363 -0.0205923935082 0)
(-0.000537422788604 -0.0194581986327 0)
(-0.000523424143489 -0.0183520201473 0)
(-0.000508383723983 -0.0172761482949 0)
(-0.000492396655436 -0.0162326587376 0)
(-0.00047558877817 -0.0152233955781 0)
(-0.000458069971995 -0.0142499586866 0)
(-0.00043997909224 -0.0133136863525 0)
(-0.000421438102841 -0.0124156467197 0)
(-0.00040259354467 -0.0115566246871 0)
(-0.000383572073684 -0.0107371222846 0)
(-0.000364518007979 -0.00995735487074 0)
(-0.000345551415547 -0.00921726442235 0)
(-0.000326802068849 -0.00851652797999 0)
(-0.000308371614039 -0.00785458409918 0)
(-0.000290364749738 -0.0072306519868 0)
(-0.00027285667182 -0.00664376668933 0)
(-0.000255921834641 -0.00609280351505 0)
(-0.000239606635575 -0.00557651547853 0)
(-0.000223955084371 -0.00509355784062 0)
(-0.000208985438681 -0.00464252436873 0)
(-0.000194711259505 -0.00422197178881 0)
(-0.00018111988387 -0.00383045817548 0)
(-0.0001681864738 -0.00346657530845 0)
(-0.000155850372358 -0.00312900309948 0)
(-0.000144015859267 -0.00281657366324 0)
(-0.000132512640895 -0.00252838221878 0)
(-0.000121052081564 -0.00226396654546 0)
(-0.00010909696545 -0.00202360236046 0)
(-9.52893170872e-05 -0.00181065275733 0)
(-7.58608961615e-05 -0.00161101802255 0)
(-6.91157057005e-05 -0.00144201369089 0)
(-7.90307924998e-05 -0.00133211092445 0)
(-8.49200814154e-05 -0.00116326511923 0)
(-9.5259537218e-05 -0.000981191889833 0)
(-0.000113893930695 -0.000779651516205 0)
(-0.000153308983236 -0.000531046060696 0)
(-0.000202797506794 -0.000200790993252 0)
(0.00471570388725 -0.00156442561903 0)
(0.00496593928787 -0.0050075283982 0)
(0.00492316938728 -0.00841786226968 -7.6244575087e-28)
(0.00484251601896 -0.0118056329484 0)
(0.00473525028923 -0.0151238622129 0)
(0.00460389918219 -0.0183582284601 0)
(0.00445085789016 -0.0214930289921 0)
(0.00427862345522 -0.0245141752769 0)
(0.00408978442479 -0.0274093042654 0)
(0.00388695144333 -0.0301678712451 0)
(0.0036726973353 -0.0327811505586 0)
(0.00344948856353 -0.0352421845827 0)
(0.00321964585487 -0.0375456895949 0)
(0.00298529996459 -0.0396879335604 0)
(0.00274838145419 -0.0416665934406 0)
(0.00251060054796 -0.0434806048525 0)
(0.00227346112758 -0.0451300087543 0)
(0.0020382567798 -0.0466158049683 0)
(0.00180610015014 -0.0479398135371 0)
(0.00157792597496 -0.049104550602 0)
(0.00135452753187 -0.0501131165197 0)
(0.00113655927534 -0.0509691005791 0)
(0.000924574645253 -0.0516764977332 0)
(0.000719023746051 -0.052239640454 0)
(0.000520289622538 -0.0526631398387 0)
(0.000328679028781 -0.0529518387067 0)
(0.000144456605552 -0.0531107704096 0)
(-3.21715127249e-05 -0.0531451261604 0)
(-0.000201027554105 -0.053060221654 0)
(-0.000361981641086 -0.0528614900093 0)
(-0.000514918663992 -0.0525544392673 0)
(-0.000659768139558 -0.0521446411205 0)
(-0.000796470072517 -0.0516377099224 0)
(-0.000925006687958 -0.0510392867415 0)
(-0.00104536624207 -0.0503550211917 0)
(-0.00115757826247 -0.0495905569091 0)
(-0.00126167427386 -0.0487515148481 0)
(-0.00135772619609 -0.0478434804096 0)
(-0.00144580362828 -0.046871988446 0)
(-0.00152601537297 -0.0458425123264 0)
(-0.00159846319501 -0.0447604509678 0)
(-0.00166328662482 -0.0436311200803 0)
(-0.00172061329404 -0.0424597414071 0)
(-0.00177060719048 -0.0412514361786 0)
(-0.00181341572375 -0.0400112165107 0)
(-0.00184922158165 -0.0387439808538 0)
(-0.00187818673632 -0.037454507279 0)
(-0.0019005079407 -0.0361474504948 0)
(-0.00191635789334 -0.0348273365693 0)
(-0.00192594433997 -0.0334985609222 0)
(-0.00192944870274 -0.0321653839061 0)
(-0.00192708862907 -0.0308319290413 0)
(-0.00191905445747 -0.0295021787444 0)
(-0.00190557497646 -0.0281799719325 0)
(-0.00188685223458 -0.0268689990734 0)
(-0.00186313009824 -0.025572798147 0)
(-0.00183462796262 -0.0242947480691 0)
(-0.0018016114902 -0.023038061921 0)
(-0.00176432578816 -0.0218057778296 0)
(-0.00172306730099 -0.0206007485211 0)
(-0.00167811681145 -0.019425629051 0)
(-0.00162981094137 -0.0182828623299 0)
(-0.00157847500358 -0.0171746640219 0)
(-0.00152449191672 -0.0161030050074 0)
(-0.00146823453778 -0.015069595407 0)
(-0.00141012945287 -0.0140758669816 0)
(-0.00135058846151 -0.0131229604259 0)
(-0.00129006512668 -0.012211712881 0)
(-0.00122898602174 -0.0113426542515 0)
(-0.00116779966214 -0.0105160057705 0)
(-0.00110691012825 -0.00973169038749 0)
(-0.00104672047625 -0.0089893459383 0)
(-0.000987573098925 -0.00828835037474 0)
(-0.000929791028173 -0.00762784753564 0)
(-0.000873628681446 -0.00700678202942 0)
(-0.000819312605846 -0.00642393056875 0)
(-0.000767002454992 -0.00587793852141 0)
(-0.000716828873453 -0.00536734999144 0)
(-0.000668860596512 -0.00489064147921 0)
(-0.000623134424928 -0.00444624960517 0)
(-0.000579622175533 -0.00403260445041 0)
(-0.000538245648691 -0.00364816140964 0)
(-0.000498833300405 -0.00329144474657 0)
(-0.000461105633535 -0.00296109816544 0)
(-0.000424595299973 -0.00265595458096 0)
(-0.000388555054759 -0.00237511232979 0)
(-0.000351733460207 -0.00211797908749 0)
(-0.0003120336458 -0.0018844426469 0)
(-0.000264161198775 -0.00167231007473 0)
(-0.000227464463034 -0.00142592576776 0)
(-0.000244214469531 -0.00131775334225 0)
(-0.0002640634837 -0.00113476395683 0)
(-0.000293597979865 -0.000938847814501 0)
(-0.000363369904095 -0.000733212552807 0)
(-0.000479249920573 -0.000473645048005 0)
(-0.000520428807492 -0.000147975237684 0)
(0.00798309924522 -0.00158646013403 0)
(0.00841101475088 -0.00507524909621 0)
(0.0083313621902 -0.00852430212006 -7.61519933969e-28)
(0.00819173237373 -0.0119531590742 0)
(0.00800808507795 -0.0153102784955 0)
(0.00778397946464 -0.0185806766827 0)
(0.00752324409584 -0.0217481870386 0)
(0.0072300812365 -0.0247984675873 0)
(0.00690890601247 -0.0277190296428 0)
(0.00656419030857 -0.030499313686 0)
(0.00620033313554 -0.0331306751374 0)
(0.00582154759544 -0.035606315437 0)
(0.00543178052454 -0.0379211692019 0)
(0.00503465024076 -0.0400717622136 0)
(0.00463341722365 -0.0420560513994 0)
(0.00423096691704 -0.0438732585309 0)
(0.00382982005175 -0.0455237050726 0)
(0.00343214547214 -0.0470086558762 0)
(0.003039793729 -0.0483301749372 0)
(0.00265432371922 -0.0494909971277 0)
(0.00227704490285 -0.0504944156855 0)
(0.00190904519195 -0.0513441867284 0)
(0.0015512318846 -0.0520444484122 0)
(0.00120435335132 -0.0525996546248 0)
(0.000869033746079 -0.0530145198271 0)
(0.000545785522648 -0.0532939745921 0)
(0.000235036722565 -0.0534431281565 0)
(-6.28652916952e-05 -0.0534672389065 0)
(-0.000347632149569 -0.0533716870541 0)
(-0.000619037953002 -0.0531619506399 0)
(-0.00087690310622 -0.0528435874181 0)
(-0.00112110142559 -0.0524222148216 0)
(-0.00135154427647 -0.0519034915388 0)
(-0.00156819214844 -0.0512931007648 0)
(-0.00177103819707 -0.0505967331109 0)
(-0.0019601214769 -0.049820071121 0)
(-0.00213550917115 -0.0489687734482 0)
(-0.00229731091939 -0.048048460842 0)
(-0.00244565933578 -0.0470647020044 0)
(-0.00258072533109 -0.0460230015077 0)
(-0.00270269693322 -0.0449287877523 0)
(-0.00281179580169 -0.0437874031427 0)
(-0.00290825458716 -0.0426040943785 0)
(-0.00299233493516 -0.0413840049623 0)
(-0.00306430368062 -0.0401321677475 0)
(-0.00312445261183 -0.0388534995553 0)
(-0.00317307377609 -0.0375527956814 0)
(-0.00321048118712 -0.0362347262017 0)
(-0.00323698548248 -0.0349038319344 0)
(-0.00325291768348 -0.0335645218434 0)
(-0.00325860344991 -0.0322210698555 0)
(-0.00325438894606 -0.0308776126656 0)
(-0.00324061497591 -0.0295381466537 0)
(-0.00321764497792 -0.0282065252387 0)
(-0.00318583937627 -0.026886455028 0)
(-0.00314558564442 -0.0255814917189 0)
(-0.00309727318454 -0.0242950344164 0)
(-0.00304132520112 -0.02303031892 0)
(-0.00297817423055 -0.0217904090999 0)
(-0.00290829511102 -0.0205781864556 0)
(-0.00283218079103 -0.0193963376167 0)
(-0.00275037491907 -0.0182473395246 0)
(-0.00266344675684 -0.0171334430026 0)
(-0.00257202091833 -0.0160566542376 0)
(-0.00247674934007 -0.0150187161318 0)
(-0.00237833501487 -0.0140210890742 0)
(-0.00227749881 -0.0130649345176 0)
(-0.00217499465286 -0.0121511008858 0)
(-0.00207157063069 -0.0112801162579 0)
(-0.00196797600576 -0.0104521867817 0)
(-0.00186491989616 -0.00966720517244 0)
(-0.00176307501744 -0.00892476651996 0)
(-0.00166304113788 -0.00822419418793 0)
(-0.00156535285518 -0.00756457064116 0)
(-0.00147045434713 -0.00694477417919 0)
(-0.00137871466337 -0.00636351522018 0)
(-0.00129041346049 -0.00581937312169 0)
(-0.0012057595494 -0.00531082846066 0)
(-0.00112488031329 -0.00483629352661 0)
(-0.00104783462937 -0.00439413820173 0)
(-0.000974596122188 -0.00398271558463 0)
(-0.000905049853854 -0.00360038607177 0)
(-0.000838956559693 -0.00324554534735 0)
(-0.000775916611467 -0.0029166556263 0)
(-0.000715292195872 -0.00261228525369 0)
(-0.000656109528738 -0.00233115291082 0)
(-0.000596911345908 -0.00207218892571 0)
(-0.000535654469756 -0.00183468348858 0)
(-0.000469566629524 -0.00162023503915 0)
(-0.000405210403477 -0.00137237639781 0)
(-0.000425474940173 -0.00125895176 0)
(-0.000457873465371 -0.00105628992155 0)
(-0.000525012995643 -0.000853293283682 0)
(-0.000625786787874 -0.000609252945493 0)
(-0.000726244588988 -0.000348868995425 0)
(-0.000768013768101 -0.000110081147126 0)
(0.0113174904576 -0.00161415623625 0)
(0.011928888454 -0.0051621180462 0)
(0.0118141486174 -0.00866684264319 7.61422122627e-28)
(0.0116134178918 -0.0121501497554 0)
(0.0113497072896 -0.0155582623641 0)
(0.0110283066175 -0.0188753973508 0)
(0.0106547940354 -0.0220847728194 0)
(0.0102352849057 -0.0251716763145 0)
(0.00977619328631 -0.0281234529026 0)
(0.00928400019602 -0.0309295553398 0)
(0.00876505610626 -0.0335815013529 0)
(0.00822541884063 -0.0360727732317 0)
(0.00767073439997 -0.0383986727469 0)
(0.00710615493726 -0.0405561476814 0)
(0.00653629641667 -0.0425436038333 0)
(0.0059652245073 -0.0443607147652 0)
(0.00539646923442 -0.0460082381961 0)
(0.0048330545295 -0.0474878459885 0)
(0.00427754430937 -0.0488019714522 0)
(0.00373209115279 -0.0499536763726 0)
(0.00319849202848 -0.0509465376796 0)
(0.00267823792614 -0.0517845532748 0)
(0.00217256509697 -0.0524720648192 0)
(0.00168249538502 -0.0530136956857 0)
(0.00120887633442 -0.0534143011314 0)
(0.000752408595667 -0.0536789287299 0)
(0.000313673772726 -0.0538127858762 0)
(-0.000106849994883 -0.0538212149438 0)
(-0.000508770735993 -0.0537096692299 0)
(-0.00089177526957 -0.0534836908145 0)
(-0.00125561907153 -0.0531488970478 0)
(-0.00160012501206 -0.0527109603778 0)
(-0.00192517518251 -0.0521755917013 0)
(-0.00223071293551 -0.0515485237945 0)
(-0.00251673537689 -0.0508354947654 0)
(-0.00278329619743 -0.0500422321974 0)
(-0.00303049750974 -0.0491744375063 0)
(-0.00325849262588 -0.0482377713394 0)
(-0.00346747677467 -0.0472378395434 0)
(-0.00365768971502 -0.0461801805189 0)
(-0.00382940545722 -0.0450702534151 0)
(-0.00398293503444 -0.0439134279052 0)
(-0.004118615638 -0.0427149748905 0)
(-0.00423681399877 -0.0414800587851 0)
(-0.00433791538262 -0.0402137306512 0)
(-0.00442232799441 -0.0389209227603 0)
(-0.00449047220661 -0.0376064438016 0)
(-0.00454278627573 -0.0362749752548 0)
(-0.00457971608128 -0.0349310681456 0)
(-0.00460172236746 -0.0335791406415 0)
(-0.00460927124121 -0.0322234757207 0)
(-0.00460284311349 -0.0308682192948 0)
(-0.00458292422643 -0.0295173780482 0)
(-0.00455001749364 -0.0281748172635 0)
(-0.00450463537497 -0.0268442579219 0)
(-0.00444731278094 -0.0255292731953 0)
(-0.00437860156024 -0.0242332836587 0)
(-0.00429908545584 -0.0229595511666 0)
(-0.00420937617711 -0.0217111708051 0)
(-0.00411012984165 -0.0204910607138 0)
(-0.00400204385087 -0.0193019494069 0)
(-0.00388587320536 -0.0181463603853 0)
(-0.00376242611688 -0.0170265941526 0)
(-0.00363257705665 -0.0159447077103 0)
(-0.00349725750653 -0.0149024925448 0)
(-0.00335746132147 -0.0139014518504 0)
(-0.00321422639679 -0.0129427792507 0)
(-0.00306862846421 -0.0120273405751 0)
(-0.00292175166946 -0.0111556619981 0)
(-0.00277467123081 -0.0103279261859 0)
(-0.00262841718433 -0.00954397942741 0)
(-0.00248395386829 -0.00880334960236 0)
(-0.00234214826952 -0.0081052754882 0)
(-0.00220375894996 -0.00744874386965 0)
(-0.00206942015587 -0.00683253199603 0)
(-0.00193964651026 -0.00625524995247 0)
(-0.00181483250555 -0.00571538053068 0)
(-0.00169526589156 -0.00521131304416 0)
(-0.00158113084837 -0.00474137142491 0)
(-0.00147251659137 -0.00430383583208 0)
(-0.00136941082491 -0.00389695982688 0)
(-0.0012716905037 -0.00351898327006 0)
(-0.00117909153578 -0.00316814324403 0)
(-0.0010911647169 -0.00284268268169 0)
(-0.00100719877779 -0.00254085856895 0)
(-0.000926109839299 -0.00226094862346 0)
(-0.000846274062487 -0.00200128692657 0)
(-0.000765311872098 -0.0017603023217 0)
(-0.000679710451351 -0.00153959695929 0)
(-0.00059040966328 -0.00128804294612 0)
(-0.000611668124996 -0.00114442326651 0)
(-0.000683147684261 -0.000955693171203 0)
(-0.000759994873206 -0.00071500117184 0)
(-0.000858015385041 -0.000480647552165 0)
(-0.000934981411146 -0.000269800396443 0)
(-0.00096158966898 -8.63333723329e-05 0)
(0.0147173411525 -0.00165126119424 0)
(0.0155123385619 -0.00527948083253 0)
(0.0153602836383 -0.00886130707214 0)
(0.0150948882239 -0.0124188660527 0)
(0.0147464887004 -0.0158962172057 0)
(0.0143223483275 -0.0192765713575 0)
(0.0138300667166 -0.0225423566591 0)
(0.0132779258149 -0.0256783770557 0)
(0.0126745672509 -0.0286717770175 0)
(0.0120286771745 -0.0315120600353 0)
(0.0113487169857 -0.0341910042654 0)
(0.0106427081977 -0.0367025152565 0)
(0.00991807641618 -0.0390424330272 0)
(0.00918155097415 -0.0412083132107 0)
(0.00843911642915 -0.0431991991102 0)
(0.00769600568467 -0.0450153983963 0)
(0.00695672753841 -0.0466582742915 0)
(0.00622511680349 -0.048130057827 0)
(0.00550440079718 -0.0494336844663 0)
(0.00479727194539 -0.0505726561816 0)
(0.00410596336863 -0.0515509279821 0)
(0.00343231978947 -0.0523728169109 0)
(0.00277786393076 -0.0530429304979 0)
(0.00214385297419 -0.0535661115832 0)
(0.00153132792724 -0.05394739608 0)
(0.000941151878359 -0.0541919807662 0)
(0.000374041812705 -0.0543051975144 0)
(-0.000169409097336 -0.0542924954788 0)
(-0.000688714218715 -0.0541594199275 0)
(-0.00118348166904 -0.0539115961394 0)
(-0.00165340615811 -0.0535547181612 0)
(-0.00209826476671 -0.0530945303347 0)
(-0.00251791179429 -0.052536812128 0)
(-0.0029122774895 -0.0518873620495 0)
(-0.00328136383073 -0.0511519813475 0)
(-0.00362524344498 -0.0503364578715 0)
(-0.00394405461941 -0.0494465501928 0)
(-0.00423799938323 -0.048487972473 0)
(-0.0045073372773 -0.0474663801531 0)
(-0.00475238258083 -0.0463873568767 0)
(-0.00497349714284 -0.0452564026033 0)
(-0.00517108727631 -0.0440789231999 0)
(-0.00534559628226 -0.0428602213392 0)
(-0.00549750167507 -0.0416054888695 0)
(-0.00562730803158 -0.0403198003824 0)
(-0.00573554510627 -0.0390081080653 0)
(-0.00582276148038 -0.0376752375171 0)
(-0.00588952395078 -0.0363258845675 0)
(-0.00593641230492 -0.0349646127606 0)
(-0.00596402024935 -0.0335958515209 0)
(-0.00597295157474 -0.0322238946662 0)
(-0.00596382287581 -0.0308528992449 0)
(-0.00593726141493 -0.0294868843494 0)
(-0.00589390994995 -0.0281297298198 0)
(-0.00583442668463 -0.0267851744544 0)
(-0.00575949256431 -0.025456813527 0)
(-0.00566981369059 -0.0241480951524 0)
(-0.00556613129453 -0.0228623151611 0)
(-0.00544922666071 -0.0216026099572 0)
(-0.00531993336978 -0.0203719468835 0)
(-0.00517914382507 -0.0191731115916 0)
(-0.00502782196885 -0.0180086919625 0)
(-0.00486700867838 -0.016881058406 0)
(-0.00469783092692 -0.0157923404835 0)
(-0.00452150086867 -0.0147444005702 0)
(-0.00433931510753 -0.0137388055444 0)
(-0.00415264071575 -0.0127767987952 0)
(-0.0039628982559 -0.0118592750417 0)
(-0.00377153045471 -0.0109867618771 0)
(-0.00357996843946 -0.0101594113521 0)
(-0.0033895881648 -0.00937700529822 0)
(-0.00320167148422 -0.00863897573808 0)
(-0.00301736794772 -0.00794444022695 0)
(-0.0028376713793 -0.00729224844529 0)
(-0.00266340578786 -0.00668103469903 0)
(-0.0024952284575 -0.00610926958942 0)
(-0.00233363948405 -0.0055753055304 0)
(-0.00217899965157 -0.00507741271117 0)
(-0.00203154492366 -0.00461380480751 0)
(-0.00189139930978 -0.00418265514478 0)
(-0.0017585770902 -0.00378210447957 0)
(-0.00163297637293 -0.00341026133265 0)
(-0.00151435583449 -0.00306519515438 0)
(-0.00140229431998 -0.00274492091563 0)
(-0.00129612254438 -0.00244737222949 0)
(-0.00119481719775 -0.00217035503768 0)
(-0.00109682929584 -0.00191149946135 0)
(-0.000999793933394 -0.00166805862693 0)
(-0.00090003118942 -0.00144008650941 0)
(-0.000794239595897 -0.00118235220063 0)
(-0.000817680049838 -0.00101472780555 0)
(-0.000891807197217 -0.000803172136332 0)
(-0.000996238365088 -0.000599036591076 0)
(-0.00105320526184 -0.00038837007433 0)
(-0.00109680253582 -0.000219266200669 0)
(-0.00111194248879 -7.092870142e-05 0)
(0.018204926246 -0.00169872622193 0)
(0.0191863132967 -0.0054302795345 0)
(0.0189935731195 -0.00911172463798 0)
(0.0186584136267 -0.0127647892615 0)
(0.0182188655194 -0.0163308520485 0)
(0.0176844733857 -0.0197918502497 0)
(0.0170652040443 -0.0231292305412 0)
(0.0163718468215 -0.0263272157865 0)
(0.0156155833622 -0.0293727461535 0)
(0.0148075727199 -0.0322554545935 0)
(0.0139586014522 -0.0349675234585 0)
(0.0130788113793 -0.0375034708232 0)
(0.0121775088312 -0.0398598906305 0)
(0.0112630507043 -0.0420351717057 0)
(0.0103427984515 -0.0440292162721 0)
(0.00942312685845 -0.0458431736504 0)
(0.00850947463848 -0.0474791996495 0)
(0.00760642289536 -0.0489402476139 0)
(0.00671779044366 -0.050229893244 0)
(0.00584673536886 -0.0513521925263 0)
(0.00499585612199 -0.0523115700995 0)
(0.00416728572146 -0.0531127342696 0)
(0.00336277648667 -0.0537606142458 0)
(0.00258377224423 -0.0542603151241 0)
(0.00183146844679 -0.054617086263 0)
(0.0011068593044 -0.0548362992565 0)
(0.000410774165239 -0.0549234311033 0)
(-0.000256096413351 -0.0548840559052 0)
(-0.000893182341293 -0.0547238263779 0)
(-0.00150002170588 -0.0544484670087 0)
(-0.00207625350855 -0.0540637639125 0)
(-0.00262161338981 -0.0535755491296 0)
(-0.00313593024843 -0.0529896867336 0)
(-0.00361912447481 -0.0523120571885 0)
(-0.00407120514903 -0.0515485409898 0)
(-0.00449226770013 -0.0507050020387 0)
(-0.00488248970168 -0.0497872711621 0)
(-0.00524212687457 -0.04880113027 0)
(-0.00557150711168 -0.0477522974678 0)
(-0.00587102501499 -0.0466464134732 0)
(-0.00614113473529 -0.0454890294775 0)
(-0.00638234387573 -0.0442855966148 0)
(-0.00659520608425 -0.0430414569958 0)
(-0.00678031525639 -0.0417618363186 0)
(-0.00693829873146 -0.0404518378936 0)
(-0.00706981252086 -0.0391164380044 0)
(-0.00717553569396 -0.0377604823902 0)
(-0.00725616708288 -0.0363886837443 0)
(-0.00731242121086 -0.0350056200092 0)
(-0.00734502676226 -0.0336157333627 0)
(-0.00735472432746 -0.0322233296777 0)
(-0.00734226692421 -0.0308325783444 0)
(-0.00730841990955 -0.0294475122161 0)
(-0.00725396397345 -0.0280720275235 0)
(-0.00717969773369 -0.0267098834405 0)
(-0.00708644376561 -0.0253647010429 0)
(-0.00697505447947 -0.0240399611964 0)
(-0.00684642169937 -0.0227390009439 0)
(-0.00670148614974 -0.0214650077256 0)
(-0.00654125046896 -0.0202210108045 0)
(-0.00636679153798 -0.0190098690605 0)
(-0.00617927511692 -0.0178342544725 0)
(-0.00597996784166 -0.0166966305784 0)
(-0.00577024852263 -0.01559922566 0)
(-0.00555161289375 -0.014544000837 0)
(-0.00532567269993 -0.0135326142244 0)
(-0.00509414295376 -0.012566383406 0)
(-0.00485881847677 -0.0116462498675 0)
(-0.00462153539678 -0.0107727503487 0)
(-0.00438412196941 -0.00994600074422 0)
(-0.0041483394566 -0.00916569806885 0)
(-0.00391582314817 -0.00843114379714 0)
(-0.003688029364 -0.00774128867583 0)
(-0.00346620007204 -0.00709479394717 0)
(-0.00325134770718 -0.00649010031876 0)
(-0.00304426249942 -0.00592549396085 0)
(-0.00284553425228 -0.005399161163 0)
(-0.00265558214681 -0.00490922710434 0)
(-0.00247468262502 -0.00445377893987 0)
(-0.00230299204138 -0.00403087514311 0)
(-0.00214055916431 -0.00363854337135 0)
(-0.00198732671876 -0.00327476787923 0)
(-0.00184311866912 -0.00293746648397 0)
(-0.00170761244262 -0.00262445415482 0)
(-0.00158029276511 -0.00233338571782 0)
(-0.0014603811056 -0.00206165908539 0)
(-0.00134672228165 -0.00180626329589 0)
(-0.00123756761724 -0.00156338307738 0)
(-0.00113029123369 -0.00132995610627 0)
(-0.00102069575799 -0.00107309059171 0)
(-0.00102951005942 -0.000871477557642 0)
(-0.00109714269594 -0.000670543240435 0)
(-0.0011730873525 -0.000490244961168 0)
(-0.00121617649585 -0.000327802984806 0)
(-0.00123681133388 -0.000185461821133 0)
(-0.00124383079026 -5.99764380097e-05 0)
(0.0218029871698 -0.00175770528115 0)
(0.0229747459322 -0.00561778836369 0)
(0.0227367650408 -0.00942312052051 7.56793430648e-28)
(0.0223250325815 -0.0131945951052 0)
(0.0217857952771 -0.0168701893373 0)
(0.021131301085 -0.0204302350403 0)
(0.020374341881 -0.0238549846084 0)
(0.0195286656722 -0.0271279991596 0)
(0.018608405164 -0.0302360526022 0)
(0.0176275398547 -0.0331690434941 0)
(0.0165994529073 -0.0359197672268 0)
(0.0155365979758 -0.038483609577 0)
(0.0144502776795 -0.0408581954855 0)
(0.0133505248904 -0.0430430254606 0)
(0.0122460716195 -0.0450391249136 0)
(0.0111443865314 -0.0468487242522 0)
(0.0100517619012 -0.0484749803782 0)
(0.00897343178789 -0.0499217442202 0)
(0.00791370626062 -0.0511933742587 0)
(0.00687610916757 -0.0522945928284 0)
(0.00586351063143 -0.0532303800057 0)
(0.00487824778543 -0.0540058989649 0)
(0.00392223031284 -0.0546264464281 0)
(0.00299702870101 -0.0550974221024 0)
(0.00210394533884 -0.0554243115174 0)
(0.00124406903554 -0.0556126775363 0)
(0.000418315030088 -0.0556681550855 0)
(-0.000372547666818 -0.055596455004 0)
(-0.00112787730514 -0.0554033478465 0)
(-0.00184715005049 -0.0550946699127 0)
(-0.00252995384328 -0.0546763124365 0)
(-0.00317598615991 -0.0541542096465 0)
(-0.00378505269093 -0.0535343257604 0)
(-0.00435706656639 -0.0528226394684 0)
(-0.0048920466695 -0.0520251270576 0)
(-0.00539011512842 -0.0511477448713 0)
(-0.00585149312844 -0.050196411773 0)
(-0.00627649567812 -0.0491769922439 0)
(-0.00666552480961 -0.0480952806065 0)
(-0.0070190621828 -0.0469569867625 0)
(-0.00733766069546 -0.0457677236728 0)
(-0.00762193620081 -0.044532996702 0)
(-0.00787255887656 -0.0432581948154 0)
(-0.00809024533879 -0.0419485835531 0)
(-0.00827575088916 -0.0406092996226 0)
(-0.00842986293038 -0.0392453469416 0)
(-0.00855339477684 -0.03786159393 0)
(-0.00864718086362 -0.0364627718717 0)
(-0.00871207246867 -0.0350534741631 0)
(-0.00874893497835 -0.033638156296 0)
(-0.00875864576555 -0.0322211364218 0)
(-0.00874209379722 -0.030806596356 0)
(-0.00870018004944 -0.0293985828632 0)
(-0.00863381996818 -0.0280010090443 0)
(-0.00854394708745 -0.0266176555831 0)
(-0.00843151915463 -0.0252521715462 0)
(-0.00829752587796 -0.0239080742971 0)
(-0.00814299965935 -0.0225887479808 0)
(-0.00796902829107 -0.0212974398156 0)
(-0.00777677073255 -0.0200372533011 0)
(-0.00756747448294 -0.0188111372104 0)
(-0.00734249491359 -0.01762186918 0)
(-0.00710331405945 -0.01647203267 0)
(-0.0068515577997 -0.0153639863398 0)
(-0.00658900735407 -0.0142998254996 0)
(-0.00631760226446 -0.0132813363065 0)
(-0.00603942960008 -0.0123099452264 0)
(-0.00575669620941 -0.0113866680938 0)
(-0.00547168057027 -0.0105120659361 0)
(-0.00518666538564 -0.00968621593823 0)
(-0.0049038551196 -0.00890870696562 0)
(-0.0046252894469 -0.00817866609858 0)
(-0.00435276637715 -0.00749481757024 0)
(-0.00408779081612 -0.00685556717582 0)
(-0.00383155769734 -0.00625909748309 0)
(-0.0035849695718 -0.00570345646195 0)
(-0.00334867792528 -0.00518662547745 0)
(-0.0031231331294 -0.00470656135729 0)
(-0.00290863036587 -0.00426121495074 0)
(-0.00270534606465 -0.00384853190959 0)
(-0.00251336248164 -0.00346643936088 0)
(-0.00233267997618 -0.00311282102123 0)
(-0.00216321626178 -0.00278548104317 0)
(-0.00200479505844 -0.00248209515874 0)
(-0.00185713022309 -0.00220014102014 0)
(-0.00171981460389 -0.00193678458188 0)
(-0.00159232546232 -0.00168868321401 0)
(-0.00147404998614 -0.00145153254678 0)
(-0.00136449541598 -0.00122003863414 0)
(-0.00126258963976 -0.000975899631427 0)
(-0.00122531821824 -0.000745029982961 0)
(-0.00127099026314 -0.000561214034514 0)
(-0.00131154133882 -0.000404241148277 0)
(-0.00135319615214 -0.000276908505652 0)
(-0.00136015541667 -0.000155319163574 0)
(-0.00135595426788 -4.93205233433e-05 0)
(0.0255368233165 -0.00182953658975 0)
(0.0269038708841 -0.00584611644859 0)
(0.0266147351324 -0.00980205128499 -7.56679285515e-28)
(0.0261175952229 -0.013716981603 0)
(0.0254676383204 -0.0175246208745 0)
(0.0246804023106 -0.0212033052207 0)
(0.0237721199278 -0.0247318663428 0)
(0.022760093963 -0.0280931527468 0)
(0.0216619411633 -0.031273872112 0)
(0.0204949017813 -0.0342644069084 0)
(0.019275288321 -0.0370584653348 0)
(0.018018089335 -0.0396526460091 0)
(0.0167367252242 -0.042045963653 0)
(0.0154429394582 -0.0442393776962 0)
(0.0141468006851 -0.0462353545659 0)
(0.0128567879177 -0.0480374833141 0)
(0.011579931705 -0.0496501543526 0)
(0.0103219872139 -0.0510783032294 0)
(0.00908761970574 -0.0523272158539 0)
(0.00788058754159 -0.0534023881582 0)
(0.00670391246771 -0.0543094314955 0)
(0.00556003059836 -0.055054014611 0)
(0.00445092073165 -0.05564183336 0)
(0.00337820880844 -0.0560786001331 0)
(0.00234324925404 -0.056370045966 0)
(0.00134718502784 -0.0565219295689 0)
(0.000390989224251 -0.0565400466891 0)
(-0.000524509350457 -0.0564302488896 0)
(-0.00139860777191 -0.056198428931 0)
(-0.0022307264602 -0.0558505437023 0)
(-0.00302040508091 -0.0553926001768 0)
(-0.00376730436067 -0.0548306481317 0)
(-0.00447120780422 -0.0541707672934 0)
(-0.00513202297548 -0.0534190513189 0)
(-0.00574978120952 -0.0525815897016 0)
(-0.00632463542869 -0.051664448645 0)
(-0.00685685573739 -0.0506736518563 0)
(-0.00734682307642 -0.0496151620925 0)
(-0.00779502106099 -0.0484948641105 0)
(-0.00820202662136 -0.0473185494935 0)
(-0.00856849973988 -0.0460919036265 0)
(-0.00889517297585 -0.0448204949232 0)
(-0.00918284100496 -0.0435097662575 0)
(-0.00943235075544 -0.0421650284514 0)
(-0.00964459218501 -0.0407914556018 0)
(-0.00982049012328 -0.0393940820053 0)
(-0.0099609970493 -0.0379778004333 0)
(-0.0100670871231 -0.0365473615428 0)
(-0.0101397512465 -0.0351073742274 0)
(-0.0101799934588 -0.03366230676 0)
(-0.0101888284399 -0.032216488594 0)
(-0.0101672804996 -0.0307741127228 0)
(-0.010116383897 -0.0293392384787 0)
(-0.0100371850039 -0.0279157946502 0)
(-0.00993074627026 -0.0265075827128 0)
(-0.0097981526551 -0.0251182799163 0)
(-0.00964052058415 -0.023751441781 0)
(-0.00945901017417 -0.0224105034336 0)
(-0.00925484075099 -0.021098778872 0)
(-0.00902931019927 -0.019819457066 0)
(-0.00878381773725 -0.0185755933072 0)
(-0.00851988979921 -0.0173700941105 0)
(-0.00823920736688 -0.0162056935215 0)
(-0.00794363245438 -0.0150849190071 0)
(-0.00763522971999 -0.0140100453497 0)
(-0.00731627790477 -0.0129830365141 0)
(-0.00698926443117 -0.0120054773911 0)
(-0.00665685612864 -0.0110785008749 0)
(-0.00632184033282 -0.0102027195602 0)
(-0.0059870347183 -0.00937817532791 0)
(-0.00565517093475 -0.00860432216418 0)
(-0.00532876721167 -0.00788005508869 0)
(-0.00501001304951 -0.00720379007873 0)