/*--------------------------------*- C++ -*----------------------------------*\
| =========                 |                                                 |
| \\      /  F ield         | OpenFOAM: The Open Source CFD Toolbox           |
|  \\    /   O peration     | Version:  v1906                                 |
|   \\  /    A nd           | Web:      www.OpenFOAM.com                      |
|    \\/     M anipulation  |                                                 |
\*---------------------------------------------------------------------------*/
FoamFile
{
    version     2.0;
    format      ascii;
    class       surfaceScalarField;
    location    "297";
    object      phi;
}
// * * * * * * * * * * * * * * * * * * * * * * * * * * * * * * * * * * * * * //

dimensions      [0 3 -1 0 0 0 0];
oriented        oriented;


internalField   nonuniform List<scalar> 
18240
(
-0.000201318617178
0.000201358548461
-0.000408084492846
0.00020681088486
-0.000614500169787
0.000206455259532
-0.000818186274992
0.000203732432084
-0.00101790697937
0.000199759003066
-0.00121264953237
0.000194789920635
-0.00140157835598
0.000188965794965
-0.00158394245538
0.000182412342367
-0.00175913692267
0.000175230074603
-0.00192662192851
0.00016753394505
-0.00208600227181
0.00015941453698
-0.00223693121733
0.000150978409473
-0.00237919961119
0.000142301174883
-0.00251262444363
0.000133474652928
-0.0026371475742
0.000124554481978
-0.00275271194778
0.000115614393305
-0.00285937073129
0.000106688732448
-0.00295715394964
9.78332939143e-05
-0.00304618820586
8.90628021304e-05
-0.00312655576764
8.04175791614e-05
-0.00319842453826
7.18959564906e-05
-0.00326190086592
6.35262070402e-05
-0.00331716900457
5.52939705828e-05
-0.00336433831204
4.72190177789e-05
-0.00340359154453
3.92777563831e-05
-0.00343502663684
3.14846558245e-05
-0.00345881336954
2.38099471225e-05
-0.00347502953823
1.6265676782e-05
-0.00348382617042
8.81857631897e-06
-0.00348525756513
1.48101520901e-06
-0.0034794554351
-5.78146935235e-06
-0.00346645147599
-1.29539678485e-05
-0.00344636281536
-2.00692463969e-05
-0.00341920569298
-2.71064149589e-05
-0.00338509326345
-3.40942853804e-05
-0.00334403798741
-4.10034343193e-05
-0.00329616480208
-4.78562877004e-05
-0.00324149917737
-5.461222288e-05
-0.00318019828346
-6.1285326353e-05
-0.00311232120545
-6.78217786519e-05
-0.00303808079872
-7.42262674703e-05
-0.00295759272027
-8.04308321901e-05
-0.00287114983166
-8.64304994966e-05
-0.00277894796528
-9.21431198027e-05
-0.00268138355888
-9.75542668183e-05
-0.0025787564391
-0.000102568136516
-0.0024715884815
-0.000107160888434
-0.00236030709724
-0.000111224321895
-0.00224557790834
-0.000114726032929
-0.00212797574568
-0.000117550004354
-0.00200831646459
-0.000119660802757
-0.00188732484229
-0.000120947741736
-0.0017659429985
-0.000121388144355
-0.00164500838533
-0.000120901904604
-0.00152551427512
-0.000119504288015
-0.00140831910822
-0.000117174893627
-0.00129434454293
-0.000113986579571
-0.00118434520628
-0.000109990381586
-0.00107904504663
-0.000105311047305
-0.000978992191782
-0.000100051924786
-0.000884640978296
-9.43579220604e-05
-0.000796295380941
-8.83484617749e-05
-0.000714139275775
-8.2156385124e-05
-0.00063825101562
-7.58912407974e-05
-0.000568585177729
-6.96586681674e-05
-0.000505038043771
-6.35476019586e-05
-0.000447390451573
-5.76329852132e-05
-0.000395406891764
-5.19798447002e-05
-0.000348752023631
-4.6633611579e-05
-0.00030710849952
-4.16347989858e-05
-0.000270080241145
-3.7001577095e-05
-0.000237316328132
-3.27501824693e-05
-0.000208410604707
-2.88750796318e-05
-0.000183020119618
-2.53722979062e-05
-0.000160766407295
-2.22205478475e-05
-0.000141340781655
-1.94038050953e-05
-0.000124412359641
-1.68940403288e-05
-0.00010971772034
-1.46701570958e-05
-9.69803185347e-05
-1.270289973e-05
-8.59857357984e-05
-1.09684477366e-05
-7.65180673722e-05
-9.43395714722e-06
-6.84321995487e-05
-8.05913273069e-06
-6.16439159537e-05
-6.75623746397e-06
-5.63601858843e-05
-5.25700283288e-06
-5.16670875509e-05
-4.66119749484e-06
-4.69902588055e-05
-4.64732163084e-06
-4.29002988277e-05
-4.0557147104e-06
-3.94242035303e-05
-3.44156398966e-06
-3.59245696544e-05
-3.4574214609e-06
-3.20032463695e-05
-3.87791316673e-06
-2.7912367833e-05
-4.03540374994e-06
-2.36663500677e-05
-4.18931022675e-06
-1.87682430251e-05
-4.83708752794e-06
-1.28877818129e-05
-5.80330349093e-06
-6.16387187043e-06
-6.61426061972e-06
-6.11022827961e-06
-0.000208893550109
0.000410294005633
-0.000433084476094
0.000431047008774
-0.000654115166961
0.000427529673222
-0.000871445199255
0.000421107961674
-0.00108424224207
0.00041259940118
-0.00129159258926
0.0004021858808
-0.00149264580592
0.000390061900637
-0.00168663106105
0.00037644322557
-0.00187290023271
0.000361541561538
-0.00205089939264
0.000345578620212
-0.00222020094931
0.000328757749581
-0.00238046062974
0.000311283372285
-0.00253144897653
0.000293330433377
-0.00267299932732
0.000275069941031
-0.00280504170462
0.000256636967066
-0.00292754499357
0.000238162173378
-0.00304055512636
0.000219738105876
-0.00314413376152
0.000201455885707
-0.00323840178157
0.000183369161327
-0.00332347588254
0.000165535035485
-0.00339951762233
0.000147975100126
-0.00346666857107
0.000130719867523
-0.00352510466503
0.000113766534573
-0.00357497007975
9.71264900225e-05
-0.00361643647022
8.07796865775e-05
-0.00364963545306
6.47250661826e-05
-0.00367472241252
4.89315625029e-05
-0.00369180736034
3.3391490538e-05
-0.00370102321525
1.80682569751e-05
-0.00370245463028
2.95285388751e-06
-0.00369621137735
-1.19916147485e-05
-0.00368235508413
-2.67700996377e-05
-0.003660977324
-4.14144916268e-05
-0.00363212344091
-5.59201589124e-05
-0.00359587722217
-7.03083919106e-05
-0.00355228098215
-8.45592697164e-05
-0.00350142727709
-9.86781104691e-05
-0.00344337400805
-0.000112624534642
-0.00337824404258
-0.000126383468558
-0.00330613377799
-0.000139890331284
-0.00322722123438
-0.000153107035179
-0.00314166648298
-0.000165943136689
-0.00304972851832
-0.000178336939749
-0.00295165657808
-0.000190172324777
-0.00284781574173
-0.000201364482566
-0.00273856947881
-0.000211772454977
-0.00262441313558
-0.000221288674284
-0.00250584944007
-0.000229748554848
-0.00238352689539
-0.000237023655781
-0.00225810994282
-0.000242932228123
-0.00213041432362
-0.000247336961903
-0.00200127183999
-0.000250062705226
-0.00187164883048
-0.000250998651014
-0.00174250499615
-0.000250027185383
-0.00161488086595
-0.000247123269831
-0.00148975762465
-0.000242288899035
-0.00136811167685
-0.000235633473593
-0.00125079649623
-0.000227303923049
-0.00113857743323
-0.000217534346656
-0.0010320592717
-0.000206572518368
-0.000931715565361
-0.000194705533301
-0.000837866118888
-0.000182200583373
-0.000750697629568
-0.000169325370161
-0.000670274954345
-0.000156313795511
-0.000596546215059
-0.000143382615511
-0.000529374690597
-0.000130714299504
-0.000468529499922
-0.000118467290673
-0.000413729957158
-0.000106768945888
-0.000364625790552
-9.57207811417e-05
-0.00032084804427
-8.53964891297e-05
-0.000281984176052
-7.58430175634e-05
-0.000247631236632
-6.70820242818e-05
-0.000217368726752
-5.91108388505e-05
-0.000190807314421
-5.19085559082e-05
-0.000167558877612
-4.54391559798e-05
-0.000147276366967
-3.96582316214e-05
-0.000129623195578
-3.45154940224e-05
-0.000114304576835
-2.99588477318e-05
-0.000101039030182
-2.59359091721e-05
-8.95816757741e-05
-2.23950377132e-05
-7.96969246625e-05
-1.9286394655e-05
-7.11658161035e-05
-1.65595861108e-05
-6.37248678891e-05
-1.41659517782e-05
-5.68753122291e-05
-1.20769890392e-05
-5.09615724449e-05
-1.05445336967e-05
-4.59226157237e-05
-9.65504035707e-06
-4.1720125992e-05
-8.22442892441e-06
-3.82271031114e-05
-6.89907183359e-06
-3.49685275656e-05
-6.67672719721e-06
-3.15850312589e-05
-7.21617037079e-06
-2.77113022076e-05
-7.85710846889e-06
-2.34866542958e-05
-8.35949452566e-06
-1.88778439474e-05
-9.38070253711e-06
-1.33801155778e-05
-1.12254248939e-05
-6.52968901343e-06
-1.33726414578e-05
-1.25889094292e-05
-0.000212798864687
0.000623135356949
-0.000438339474742
0.000656632385282
-0.000661691258809
0.000650926172966
-0.000881414681835
0.000640876432123
-0.00109646504558
0.000627694273684
-0.00130587313057
0.000611638925377
-0.0015087630273
0.000592996021205
-0.00170436010064
0.000572085061011
-0.00189201057169
0.000549235883114
-0.00207117133678
0.000524783832905
-0.00224141974891
0.000499049530252
-0.00240243264099
0.00047234028921
-0.00255399197664
0.000444932566444
-0.00269595783406
0.000417079299688
-0.00282827360458
0.000388994870945
-0.0029509362415
0.000360867699252
-0.00306400348741
0.000332846752765
-0.00316756351169
0.000305058109405
-0.00326174547604
0.000277591726599
-0.00334668961645
0.000250520629591
-0.00342256157116
0.000223886822538
-0.00348952317443
0.00019772214361
-0.0035477503734
0.000172032642044
-0.00359740457513
0.000146820578682
-0.00363865380568
0.000122066984077
-0.00367164429977
9.77546873207e-05
-0.00369652455432
7.38490753228e-05
-0.00371341688447
5.03222570255e-05
-0.00372244424825
2.71321628923e-05
-0.00372370161393
4.2480830753e-06
-0.00371728558781
-1.83716926214e-05
-0.0037032654875
-4.0752731598e-05
-0.00368171615579
-6.29282690712e-05
-0.00365268867818
-8.49103256493e-05
-0.00361624663649
-0.000106715044259
-0.00357243631243
-0.000128332154727
-0.00352132670296
-0.000149752212791
-0.00346297873998
-0.000170934644498
-0.00339748901377
-0.000191837346913
-0.00332495721927
-0.000212383648777
-0.00324553326285
-0.000232494673941
-0.00315938199121
-0.000252055312086
-0.00306673311194
-0.000270949215555
-0.00296784262582
-0.000289023466857
-0.00286304537745
-0.000306125486799
-0.00275271349498
-0.000322065696465
-0.00263731189636
-0.0003366555767
-0.00251735508592
-0.000349668904165
-0.00239346533268
-0.000360881920938
-0.00226632805563
-0.000370037309904
-0.00213674807747
-0.00037689086671
-0.00200559903383
-0.000381186213018
-0.00187386585936
-0.000382713157361
-0.00174257885285
-0.000381297306272
-0.00161282810773
-0.000376863653261
-0.00148568112365
-0.000369428012624
-0.00136217164994
-0.000359140220569
-0.00124322156407
-0.000346253464727
-0.00112962819043
-0.00033112989963
-0.0010220206987
-0.000314183132018
-0.000920869730032
-0.000295859689222
-0.000826483216201
-0.000276589402136
-0.000739028056535
-0.000256781033907
-0.000658540691621
-0.000236799500616
-0.000584946048553
-0.000216972613124
-0.000518073208064
-0.000197579982893
-0.000457669173204
-0.000178860399043
-0.000403418265437
-0.000161006660951
-0.000354949944829
-0.000144171985726
-0.000311860493646
-0.000128466877824
-0.000273718910121
-0.000113962075413
-0.000240090767562
-0.000100686194587
-0.000210543284014
-8.86314912295e-05
-0.000184665081213
-7.77590426755e-05
-0.000162064839742
-6.80095123093e-05
-0.000142383062496
-5.93097073076e-05
-0.000125286223644
-5.15805938743e-05
-0.000110473145833
-4.47401871332e-05
-9.76677796379e-05
-3.87087280009e-05
-8.66214845214e-05
-3.34091815909e-05
-7.71036091524e-05
-2.87718402769e-05
-6.88958332424e-05
-2.47358260334e-05
-6.17694575514e-05
-2.12609389531e-05
-5.54281272872e-05
-1.8387845673e-05
-4.97792028907e-05
-1.61621069983e-05
-4.50768979966e-05
-1.43244232621e-05
-4.05196708411e-05
-1.27461929072e-05
-3.61496752428e-05
-1.12328952646e-05
-3.26716168077e-05
-1.01151647822e-05
-2.99097146841e-05
-9.93229110235e-06
-2.61295182635e-05
-1.158400701e-05
-2.14475387506e-05
-1.29854422524e-05
-1.65535997555e-05
-1.42199883638e-05
-1.1104516705e-05
-1.66054033754e-05
-5.64292762207e-06
-1.87506683994e-05
-1.81912227981e-05
-0.000216535172011
0.000839713254249
-0.000445217700089
0.000885360008529
-0.000671782808214
0.000877536254709
-0.000894600609164
0.000863739330264
-0.00111252321724
0.000845661742434
-0.00132452277156
0.000823683390936
-0.00152968875779
0.000798206642113
-0.00172723310702
0.00076967406711
-0.00191649852737
0.000738545602433
-0.00209695341285
0.000705283013534
-0.00226819100901
0.000670330982971
-0.00242991531728
0.000634108422756
-0.00258193495119
0.000596995507103
-0.00272414444823
0.000559332050055
-0.00285651690429
0.000521409992896
-0.00297908426542
0.000483477650014
-0.00309193153306
0.000445735957874
-0.00319517816407
0.000408346587058
-0.0032889752202
0.000371429928525
-0.00337348871184
0.00033507516517
-0.00344889996822
0.000299338381962
-0.00351539090422
0.000264253283704
-0.00357314730062
0.000229828482749
-0.00362234559157
0.0001960582264
-0.00366315854683
0.0001629185304
-0.00369574312039
0.000130377797449
-0.0037202481162
9.83918649457e-05
-0.00373680277918
6.6914709649e-05
-0.00374552621939
3.58926948286e-05
-0.00374651664109
5.27567678142e-06
-0.00373986252156
-2.49892543969e-05
-0.00372563256603
-5.49459371755e-05
-0.00370388892135
-8.46356659108e-05
-0.00367467803392
-0.000114084620993
-0.00363804611857
-0.000143310719796
-0.00359403107253
-0.000172310447191
-0.00354268032388
-0.000201066410085
-0.00348404363585
-0.000229534093738
-0.00341819306343
-0.000257650747293
-0.00334521603441
-0.000285322701251
-0.00326523664063
-0.00031243612088
-0.00317840800122
-0.000338845176442
-0.00308493395652
-0.000364384623439
-0.00298505999102
-0.000388858203386
-0.00287909489651
-0.000412051828674
-0.00276740089006
-0.000433720825808
-0.00265041649903
-0.000453602136593
-0.00252864810083
-0.000471400024065
-0.0024026962666
-0.000486798515854
-0.00227324973715
-0.000499450266663
-0.00214111321061
-0.000508997255132
-0.00200719705095
-0.000515075307807
-0.00187253256138
-0.000517355217004
-0.00173823873586
-0.000515572603936
-0.00160550393056
-0.000509585393058
-0.00147551786644
-0.000499405523443
-0.00134942316013
-0.00048523111331
-0.00122824012608
-0.00046743670683
-0.0011128241656
-0.000446548742891
-0.0010038314438
-0.000423180237409
-0.000901724584391
-0.0003979709686
-0.000806786424586
-0.000371530718073
-0.000719146796461
-0.000344421619882
-0.000638800548332
-0.000317143790316
-0.000565629329785
-0.000290138520068
-0.000499417152148
-0.000263783367297
-0.000439868975583
-0.00023839625412
-0.000386625593902
-0.00021423442644
-0.000339277160068
-0.000191501575451
-0.00029737717762
-0.000170345462791
-0.000260456212972
-0.000150858837943
-0.000228041177867
-0.000133074997124
-0.0001996711484
-0.000116973218744
-0.000174911445144
-0.000102488967333
-0.000153359127312
-8.953071227e-05
-0.000134646018774
-7.7990833804e-05
-0.000118437805259
-6.7756067605e-05
-0.000104433043377
-5.8711853584e-05
-9.23606966078e-05
-5.0747757001e-05
-8.19775301115e-05
-4.37591382964e-05
-7.30648316454e-05
-3.76517702355e-05
-6.54240394875e-05
-3.23443068084e-05
-5.88647882608e-05
-2.77884892409e-05
-5.32371644551e-05
-2.39839665056e-05
-4.79550060451e-05
-2.14118229706e-05
-4.30386878458e-05
-1.92058207398e-05
-3.84322254433e-05
-1.7315973428e-05
-3.43692549927e-05
-1.52570392225e-05
-3.02485462137e-05
-1.41947516403e-05
-2.59901553015e-05
-1.4145027529e-05
-2.2908354664e-05
-1.46178845643e-05
-1.85283571281e-05
-1.73131879422e-05
-1.32696507782e-05
-1.9421157134e-05
-8.80402200436e-06
-2.10159067836e-05
-4.5618890437e-06
-2.29264729873e-05
-2.27128200975e-05
-0.000221228569754
0.00106098474756
-0.000454540787339
0.00111871716013
-0.000685578295022
0.00110861903687
-0.000912617448379
0.00109082366162
-0.00113442760916
0.00106751700557
-0.00134991781239
0.00103921861009
-0.00155813633971
0.00100647003241
-0.00175827641957
0.000969858897464
-0.00194967923101
0.000929992949622
-0.00213182867353
0.000887476828166
-0.00230434418802
0.000842890593017
-0.0024669667789
0.000796774893313
-0.00261954609514
0.000749618370833
-0.00276202278293
0.000701852017368
-0.00289441458797
0.000653844691522
-0.00301679909163
0.00060590473471
-0.00312930194322
0.000558280959494
-0.00323208213583
0.000511168578123
-0.00332532363317
0.000464712753697
-0.00340922373412
0.000419016217042
-0.00348398809027
0.000374143192866
-0.00354982177449
0.000330127031632
-0.00360692707045
0.00028697333132
-0.00365549653465
0.000244666858653
-0.00369571285114
0.000203173509933
-0.00372774323234
0.000162446483777
-0.00375174079326
0.000122427251323
-0.0037678398742
8.30513183021e-05
-0.00377615869085
4.42486180646e-05
-0.0037767954647
5.94935435187e-06
-0.00376983238194
-3.19157663309e-05
-0.00375533271897
-6.9409091094e-05
-0.0037333464666
-0.000106585612133
-0.00370390875567
-0.000143485906626
-0.00366704754582
-0.000180135553877
-0.00362278368181
-0.000216537604422
-0.00357114087859
-0.000252672386639
-0.00351214738232
-0.000288490227335
-0.00344584794007
-0.000323912572722
-0.0033723063879
-0.000358825948641
-0.00329161854775
-0.000393085311165
-0.00320391448069
-0.000426509890215
-0.00310937073712
-0.000458888750113
-0.00300821107121
-0.000489977705142
-0.00290071741418
-0.000519505348944
-0.00278722965659
-0.000547168204471
-0.0026681576981
-0.000572634216517
-0.00254398432886
-0.000595533872969
-0.00241528375159
-0.000615461128711
-0.00228273195176
-0.000631965638951
-0.0021471334099
-0.000644562640056
-0.00200943180414
-0.000652746364295
-0.00187072775363
-0.000656033900968
-0.00173225804365
-0.000654021165736
-0.0015953648807
-0.000646463601854
-0.00146141657567
-0.000633343953268
-0.00133172982514
-0.000614914444908
-0.0012074693998
-0.000591697988951
-0.00108957828554
-0.000564444389513
-0.000978739422878
-0.000534025694222
-0.00087539206893
-0.000501324132451
-0.000779772714449
-0.000467154312822
-0.00069195278523
-0.000432242286425
-0.00061186700819
-0.000397226259988
-0.000539335060825
-0.000362662838111
-0.000474079838568
-0.000329026985403
-0.000415746879185
-0.000296713414691
-0.000363921575156
-0.00026604120286
-0.000318139022302
-0.000237262212327
-0.000277896907762
-0.000210563323107
-0.000242668681534
-0.000186060440173
-0.00021192753014
-0.00016378762875
-0.000185170128686
-0.000143700157912
-0.000161933366701
-0.000125694095557
-0.000141798425698
-0.000109632757736
-0.000124390086252
-9.53656092953e-05
-0.00010937325302
-8.27388145136e-05
-9.64496264987e-05
-7.16011516781e-05
-8.53548254375e-05
-6.18082071593e-05
-7.5855550315e-05
-5.32243955576e-05
-6.77478643522e-05
-4.57258474891e-05
-6.08568700337e-05
-3.92026057271e-05
-5.50110757577e-05
-3.36018508497e-05
-5.01552364726e-05
-2.88075440863e-05
-4.56324845759e-05
-2.59001318684e-05
-4.11808908478e-05
-2.36208161574e-05
-3.6720264623e-05
-2.17379035379e-05
-3.15549774558e-05
-2.03820971262e-05
-2.67873589632e-05
-1.89198797259e-05
-2.24050061421e-05
-1.84825864045e-05
-1.8857218778e-05
-1.81182685224e-05
-1.57752378692e-05
-2.03472921828e-05
-1.12549326476e-05
-2.3897774972e-05
-6.96149656014e-06
-2.52565265562e-05
-3.52147532204e-06
-2.63037721596e-05
-2.6205445738e-05
-0.000227148021778
0.00128817584389
-0.000466518500171
0.00135813308435
-0.000703361192522
0.00134550709919
-0.000935838020965
0.00132334590054
-0.00116262412953
0.0012943483907
-0.00138255528892
0.00125919496895
-0.00159463231699
0.00121859212023
-0.00179802760706
0.00117329911379
-0.00199208501796
0.00112409509222
-0.00217631190028
0.00107174825386
-0.0023503665651
0.00101698954261
-0.00251404084363
0.000960493212742
-0.00266724167656
0.000902862920944
-0.0028099708291
0.000844624591316
-0.00294230652659
0.000786223427511
-0.00306438509391
0.000728025995916
-0.00317638606117
0.000670324184179
-0.00327851786161
0.000613342250753
-0.00337100740931
0.00055724369588
-0.00345408998391
0.000502139768534
-0.00352800277418
0.000448096452965
-0.00359297807632
0.000395142368082
-0.00364923974138
0.000343274514093
-0.0036969986067
0.00029246480331
-0.00373645082162
0.000242664299404
-0.0037677746434
0.000193808463628
-0.00379112993328
0.000145820240212
-0.00380665582015
9.86145373294e-05
-0.00381447104358
5.21007993117e-05
-0.00381467239889
6.18739051849e-06
-0.00380733599683
-3.9215727904e-05
-0.00379251682265
-8.41919737516e-05
-0.003770251356
-0.000128814844953
-0.00374055876452
-0.000173142247617
-0.00370344549809
-0.000217212404221
-0.0036589087381
-0.000261037746566
-0.00360694336418
-0.000304600742966
-0.00354754783925
-0.000347848367185
-0.00348073328023
-0.000390689136018
-0.00340653103532
-0.000432989703936
-0.00332500250137
-0.000474574619004
-0.00323624648601
-0.000515226177077
-0.00314040741846
-0.000554687335422
-0.0030376804273
-0.000592663911367
-0.00292831627684
-0.000628828020433
-0.00281262472772
-0.000662818184121
-0.00269097938838
-0.00069423757369
-0.0025638257404
-0.000722645926865
-0.00243169635964
-0.000747549575799
-0.00229523418702
-0.000768388248159
-0.00215522758747
-0.000784532098482
-0.00201264585221
-0.00079529423183
-0.00186867187498
-0.000799978330389
-0.00172469974958
-0.000797967972884
-0.00158229434558
-0.000788850342573
-0.00144308583916
-0.000772540092934
-0.0013086535714
-0.000749340689229
-0.00118037947197
-0.000719972159079
-0.00105932653081
-0.000685500510685
-0.000946192906369
-0.000647164638182
-0.000841359905491
-0.000606161303945
-0.000744980395026
-0.000563534638997
-0.000657040318648
-0.000520178673533
-0.000577391961811
-0.000476865541652
-0.000505773535204
-0.000434267260205
-0.000441827311719
-0.000392954858426
-0.000385123417231
-0.000353395541254
-0.00033517840678
-0.000315962160721
-0.000291461545448
-0.00028095279413
-0.00025339954758
-0.000248597845086
-0.000220386855121
-0.000219043627733
-0.000191820350655
-0.000192322853343
-0.000167138541249
-0.000168349258706
-0.000145843912949
-0.00014695489118
-0.000127502615618
-0.000127939525996
-0.000111735081382
-0.000111098036131
-9.82086557333e-05
-9.62298512527e-05
-8.66313618833e-05
-8.31428768463e-05
-7.67479158894e-05
-7.16562886788e-05
-6.83364767571e-05
-6.16007663942e-05
-6.12082044157e-05
-5.28200700726e-05
-5.5205842125e-05
-4.51713400697e-05
-5.01696946203e-05
-3.8605086915e-05
-4.54220081698e-05
-3.35215437807e-05
-4.10775989069e-05
-3.02092129962e-05
-3.67129218231e-05
-2.79487518212e-05
-3.27428504439e-05
-2.56688382437e-05
-2.90767810665e-05
-2.40067857757e-05
-2.46979602522e-05
-2.32531742724e-05
-2.006828639e-05
-2.30662979692e-05
-1.5278688964e-05
-2.28670005673e-05
-1.21693070032e-05
-2.34152577707e-05
-9.50134785583e-06
-2.65174879211e-05
-5.86212351857e-06
-2.88526044014e-05
-2.92632995806e-06
-2.91922632536e-05
-2.91015015275e-05
-0.000234481043286
0.00152270018951
-0.000481421109728
0.00160511843157
-0.000725499058147
0.00158963073992
-0.00096472176298
0.00156261416713
-0.00119764460494
0.00152731675399
-0.00142301455649
0.00148461032548
-0.00163977768513
0.00143540053504
-0.00184708579091
0.00138065235639
-0.00204429279673
0.00132134705599
-0.00223094207616
0.00125844227943
-0.00240674754045
0.00119283951277
-0.00257157040261
0.00112536030009
-0.00272539448164
0.00105673092546
-0.00286830137215
0.000987575058314
-0.00300044749263
0.000918412767593
-0.00312204333741
0.000849664649502
-0.00323333599802
0.000781659246121
-0.00333459444338
0.00071464263386
-0.00342609801878
0.000648788758287
-0.00350812719286
0.000584209926985
-0.00358095681602
0.000520966579745
-0.00364485076098
0.00045907629078
-0.00370005828746
0.000398521523017
-0.00374681100132
0.000339256473249
-0.00378532094969
0.000281212718613
-0.00381577875559
0.000224304242994
-0.00383835256614
0.000168431579493
-0.00385318674049
0.000113485814124
-0.00386040130348
5.93521040937e-05
-0.00386009108931
5.91361267696e-06
-0.00385232585057
-4.69447626299e-05
-0.00383715030072
-9.93314500517e-05
-0.00381458555022
-0.000151343581927
-0.00378463077317
-0.000203060919225
-0.0037472669443
-0.000254539987857
-0.00370246106643
-0.000305807039972
-0.00365017299241
-0.000356851901254
-0.0035903626442
-0.000407621220975
-0.0035229998876
-0.00045801390581
-0.00344807394352
-0.000507876914648
-0.00336560455716
-0.000557004665686
-0.00327565100322
-0.000605139608226
-0.00317832085012
-0.000651976772675
-0.00307377482054
-0.000697168481101
-0.00296222982031
-0.000740330890483
-0.00284395908729
-0.000781046070724
-0.00271929255318
-0.000818860568847
-0.00258862193833
-0.00085327264587
-0.00245241516131
-0.000883712391432
-0.00231124883686
-0.000909511303833
-0.00216586074057
-0.0009298787962
-0.00201721771058
-0.000943896780262
-0.00186658843895
-0.000950571054352
-0.00171556983001
-0.00094895442256
-0.00156604400453
-0.000938350187579
-0.00142002150173
-0.000918542419792
-0.00127948337086
-0.000889867800734
-0.00114613878931
-0.000853307247299
-0.00102121784748
-0.000810416543916
-0.000905390085126
-0.000762989822602
-0.000798903168944
-0.000712641745732
-0.000701768578884
-0.000660660340001
-0.000613850647258
-0.000608081079408
-0.000534898721202
-0.000555795997745
-0.000464548904324
-0.000504590707929
-0.00040234031161
-0.000455134052127
-0.000347748848645
-0.000407955369175
-0.000300213770149
-0.000363466714584
-0.000259133141313
-0.000322002266328
-0.000223849332602
-0.00028384997898
-0.000193648627837
-0.000249211922896
-0.000167815133978
-0.00021812213558
-0.000145706886663
-0.000190421954095
-0.000126790387145
-0.000165835777413
-0.000110623752456
-0.000144069779591
-9.68310970663e-05
-0.000124854190546
-8.50879180678e-05
-0.000107936406555
-7.51131244315e-05
-9.30808583207e-05
-6.66631427159e-05
-8.0069675866e-05
-5.95293023622e-05
-6.86988690466e-05
-5.35380444308e-05
-5.87760964037e-05
-4.85590184945e-05
-5.01164481651e-05
-4.45475934143e-05
-4.25824689162e-05
-4.04266139899e-05
-3.76078011727e-05
-3.63948345255e-05
-3.42049478833e-05
-3.27609633709e-05
-3.1544783798e-05
-2.8807528686e-05
-2.95828404283e-05
-2.49583967155e-05
-2.78136687284e-05
-2.09234434823e-05
-2.72449369884e-05
-1.73386702929e-05
-2.66077010363e-05
-1.32501890429e-05
-2.69120519069e-05
-9.3936732979e-06
-2.72315564538e-05
-7.48679248794e-06
-2.83913541912e-05
-4.8535806067e-06
-3.14425731812e-05
-2.41079104599e-06
-3.15863633541e-05
-3.14909528654e-05
-0.00024341769445
0.00176616134873
-0.000499593373854
0.00186134001062
-0.00075247746518
0.00184256063316
-0.000999872093172
0.0018100546541
-0.00124018067725
0.00176767107094
-0.00147204194365
0.00171651724798
-0.00169434000453
0.00165774412397
-0.00190620933894
0.00159256707878
-0.00210702611541
0.00152220903369
-0.0022963882398
0.00144784940177
-0.00247408797669
0.00137058398644
-0.00264008029666
0.0012913970878
-0.0027944504278
0.00121114518581
-0.00293738258143
0.00113055100742
-0.00306913202155
0.00105020559172
-0.00319000086066
0.000970576478339
-0.00330031851396
0.000892019412562
-0.00340042602473
0.00081479221088
-0.00349066451864
0.000739068789134
-0.00357136645487
0.000664952911378
-0.0036428497962
0.000592490402234
-0.00370541368022
0.000521680141054
-0.00375933587189
0.000452483097945
-0.00380487070079
0.000384830165252
-0.00384224798427
0.000318628295336
-0.00387167181502
0.000253765872916
-0.00389331988176
0.000190116931785
-0.00390734239719
0.00012754518734
-0.00391386139433
6.59075562298e-05
-0.00391296973608
5.05809960082e-06
-0.00390473058413
-5.51480027073e-05
-0.00388917712165
-0.000114849148537
-0.00386631307376
-0.00017417187304
-0.00383611423362
-0.00023322395001
-0.00379853138729
-0.000292086773474
-0.00375349511238
-0.000350806992836
-0.00370092237155
-0.000409387805867
-0.00364072556773
-0.000467780752259
-0.00357282312535
-0.000525878349475
-0.0034971521139
-0.000583509353884
-0.00341368084835
-0.000640436516107
-0.00332242139663
-0.000696359100731
-0.00322343868447
-0.000750918575597
-0.00311685668494
-0.000803709080653
-0.00300285723109
-0.000854287656032
-0.0028816763311
-0.000902183589141
-0.00275359403371
-0.000946897739099
-0.00261893265701
-0.000987888097919
-0.00247806274658
-0.00102453496624
-0.00233144318239
-0.00105608304327
-0.00217969414436
-0.00108157922815
-0.00202371980996
-0.00109982267851
-0.00186484872173
-0.00110939588484
-0.0017049304877
-0.0011088295086
-0.00154630442966
-0.00109693657964
-0.0013915309206
-0.00107328962676
-0.00124320805446
-0.00103816650331
-0.00110357986727
-0.000992913406111
-0.000974100226947
-0.00093987821792
-0.000855293086876
-0.000881776267398
-0.000747120740226
-0.000820793544957
-0.000649353634453
-0.000758400287192
-0.000561706652733
-0.000695696132675
-0.000483813775641
-0.000633649929226
-0.000415191805892
-0.000573172524818
-0.000355243496062
-0.000515038398628
-0.000303329558406
-0.00045982953056
-0.000258806402544
-0.000407951766573
-0.000221016194409
-0.000359756952534
-0.00018921281628
-0.00031561884961
-0.000162526603122
-0.000275862445026
-0.000140063624463
-0.000240547200096
-0.000121066649343
-0.000209380038388
-0.000104974179646
-0.000181890475264
-9.13612311795e-05
-0.000157645491414
-7.98694637986e-05
-0.000136307633439
-7.01916003538e-05
-0.000117575961619
-6.2063607776e-05
-0.000101170623764
-5.52558377371e-05
-8.68397094307e-05
-4.95700865234e-05
-7.43476532994e-05
-4.48354595335e-05
-6.34751722723e-05
-4.08962741361e-05
-5.40207442403e-05
-3.75646887824e-05
-4.5879942825e-05
-3.42247663673e-05
-4.0912450626e-05
-3.10716148173e-05
-3.73215887851e-05
-2.81471664367e-05
-3.44310216479e-05
-2.50036552688e-05
-3.26866139455e-05
-2.12815228938e-05
-3.14943801348e-05
-1.77101464868e-05
-3.07735831251e-05
-1.39214268262e-05
-3.03542792154e-05
-1.11751185336e-05
-2.96194740884e-05
-8.08122158454e-06
-3.02876495244e-05
-5.68200453023e-06
-3.07488596244e-05
-4.07203333489e-06
-3.30187034869e-05
-1.96647236206e-06
-3.36555938915e-05
-3.34330019984e-05
-0.000254184675504
0.00202038976852
-0.000521476617015
0.00212867766787
-0.000784924059434
0.002106054254
-0.00104206715096
0.00206724379297
-0.00129111806926
0.00201676801333
-0.00153058542745
0.00195603052403
-0.00175928548209
0.00188648998597
-0.00197634357205
0.00180967083261
-0.00218117732638
0.00172708827393
-0.00237346599522
0.00164018333853
-0.00255311115846
0.00155027416878
-0.00272019366549
0.00145852430982
-0.00287493094988
0.0013659268645
-0.00301763776698
0.00127330182857
-0.00314869215937
0.00118130359781
-0.00326850764439
0.00109043510833
-0.00337751147348
0.00100106593281
-0.00347612867428
0.000913451567728
-0.0035647707554
0.000827752517653
-0.00364382838745
0.00074405160487
-0.00371366679376
0.000662369320524
-0.00377462329741
0.000582676538874
-0.00382700600974
0.000504905134099
-0.00387109339481
0.000428956251159
-0.00390713400708
0.00035470704828
-0.00393534637217
0.000282015789105
-0.00395591855016
0.000210726152818
-0.00396900751232
0.000140670690004