/*--------------------------------*- C++ -*----------------------------------*\
| =========                 |                                                 |
| \\      /  F ield         | OpenFOAM: The Open Source CFD Toolbox           |
|  \\    /   O peration     | Version:  v1906                                 |
|   \\  /    A nd           | Web:      www.OpenFOAM.com                      |
|    \\/     M anipulation  |                                                 |
\*---------------------------------------------------------------------------*/
FoamFile
{
    version     2.0;
    format      ascii;
    class       volVectorField;
    location    "803";
    object      U;
}
// * * * * * * * * * * * * * * * * * * * * * * * * * * * * * * * * * * * * * //

dimensions      [0 1 -1 0 0 0 0];


internalField   nonuniform List<vector> 
9216
(
(0.00270952123472 -0.00271198456616 0)
(0.00285678064012 -0.00875197027199 1.17210233352e-27)
(0.00284861894627 -0.0148860023685 1.8407999887e-31)
(0.00281133518133 -0.0210204125839 0)
(0.00275957757104 -0.0270520153669 0)
(0.00269480368089 -0.0329565456844 0)
(0.00261870279028 -0.0387081616316 0)
(0.00253261430561 -0.0442838851146 0)
(0.002437844394 -0.0496635228331 0)
(0.00233565903422 -0.0548296695172 0)
(0.00222733036626 -0.0597676577804 0)
(0.00211405472167 -0.0644655112431 0)
(0.00199699910517 -0.068913805062 0)
(0.00187720960531 -0.0731055279493 0)
(0.00175568162029 -0.0770358670808 0)
(0.00163326442273 -0.0807020214529 0)
(0.00151075690105 -0.0841029583166 0)
(0.00138880511666 -0.0872392218199 0)
(0.00126802101631 -0.0901126991794 0)
(0.00114886847406 -0.0927264543001 0)
(0.00103180208151 -0.095084525384 0)
(0.000917137559255 -0.0971917967322 0)
(0.000805208153607 -0.0990538352541 0)
(0.000696216835395 -0.100676801516 0)
(0.000590408987031 -0.102067322341 0)
(0.000487905012407 -0.103232434383 0)
(0.000388888568773 -0.10417948553 0)
(0.000293419712607 -0.104916101993 0)
(0.000201638899678 -0.105450110158 0)
(0.000113562534991 -0.105789520008 0)
(2.93049547082e-05 -0.105942447898 0)
(-5.11660790578e-05 -0.105917177016 0)
(-0.000127789883413 -0.105721940198 0)
(-0.000200621736471 -0.105365009842 0)
(-0.00026959998568 -0.104854671195 0)
(-0.000334809562102 -0.104199184561 0)
(-0.00039621698317 -0.103406742031 0)
(-0.000453936272985 -0.102485458591 0)
(-0.000507954592384 -0.101443329182 0)
(-0.000558410146635 -0.100288221904 0)
(-0.000605307499157 -0.0990278415197 0)
(-0.000648804935834 -0.0976697233576 0)
(-0.000688921263952 -0.0962212040608 0)
(-0.000725830524352 -0.0946894167451 0)
(-0.000759562111809 -0.0930812691906 0)
(-0.000790301055917 -0.0914034401608 0)
(-0.000818083718718 -0.0896623656261 0)
(-0.000843101494612 -0.0878642364649 0)
(-0.00086539408419 -0.0860149922411 0)
(-0.000885154763407 -0.0841203196827 0)
(-0.000902423530615 -0.0821856538769 0)
(-0.00091739176995 -0.0802161772305 0)
(-0.000930097248645 -0.0782168269373 0)
(-0.000940726337954 -0.0761922933932 0)
(-0.000949313046835 -0.0741470332237 0)
(-0.000956036698465 -0.0720852665249 0)
(-0.000960926820393 -0.0700109939157 0)
(-0.000964154536157 -0.0679279914498 0)
(-0.000965745253116 -0.0658398307682 0)
(-0.000965861824095 -0.0637498711098 0)
(-0.000964526581616 -0.0616612811132 0)
(-0.000961894704104 -0.0595770271218 0)
(-0.00095798719982 -0.057499896012 0)
(-0.000952952784059 -0.0554324797491 0)
(-0.000946813036357 -0.0533771983685 0)
(-0.000939711499239 -0.0513362807155 0)
(-0.000931672253606 -0.049311787597 0)
(-0.000922834906818 -0.0473055893777 0)
(-0.000913227495654 -0.045319389133 0)
(-0.000902986445094 -0.0433546977152 0)
(-0.000892144710254 -0.0414128574369 0)
(-0.00088083580357 -0.0394950156953 0)
(-0.000869097799015 -0.0376021493965 0)
(-0.00085706090365 -0.0357350379709 0)
(-0.000844767924128 -0.0338942891416 0)
(-0.00083234488658 -0.0320803123222 0)
(-0.000819838321028 -0.030293345895 0)
(-0.000807368730548 -0.0285334315965 0)
(-0.000794985002436 -0.0268004436655 0)
(-0.000782800531393 -0.0250940648107 0)
(-0.000770864872833 -0.0234138172035 0)
(-0.00075928250523 -0.0217590403129 0)
(-0.000748101761254 -0.0201289239431 0)
(-0.000737416121672 -0.0185224883904 0)
(-0.000727270178531 -0.0169386198737 0)
(-0.00071774308808 -0.0153760542342 0)
(-0.000708870321287 -0.0138334172731 0)
(-0.000700706577905 -0.012309218039 0)
(-0.000693255902165 -0.0108019080175 0)
(-0.000686494598335 -0.00930992025345 0)
(-0.000680255271508 -0.00783183246778 0)
(-0.000674068258236 -0.0063667173183 0)
(-0.000666595803331 -0.00491523771194 0)
(-0.000651952570864 -0.00348854778441 0)
(-0.000625438108653 -0.00200629783389 0)
(-0.000827380181971 -0.000827180821586 0)
(0.00877181200334 -0.00288699939222 0)
(0.00969922479636 -0.00976970783184 0)
(0.00967680396748 -0.0166396177136 -1.23084355584e-27)
(0.00954734919305 -0.0235149031529 0)
(0.00936820711286 -0.0302656717541 0)
(0.00914672672727 -0.0368701670822 0)
(0.00888731322012 -0.0433009578649 0)
(0.00859417195273 -0.0495327979252 0)
(0.00827161772763 -0.0555432729612 0)
(0.00792396138395 -0.0613130357126 0)
(0.00755550282313 -0.0668258286473 0)
(0.00717035059641 -0.0720684328586 0)
(0.00677244250972 -0.0770305224115 0)
(0.00636537640919 -0.0817044850747 0)
(0.00595249067586 -0.0860851855664 0)
(0.0055367129213 -0.0901697301118 0)
(0.00512069871066 -0.0939572014829 0)
(0.00470668729808 -0.0974484212404 0)
(0.00429668746029 -0.100645700731 0)
(0.00389232570413 -0.103552634534 0)
(0.0034950673979 -0.106173891086 0)
(0.00310604479783 -0.108515051516 0)
(0.00272630430918 -0.110582446521 0)
(0.0023566060122 -0.112383040499 0)
(0.00199769181036 -0.113924310131 0)
(0.00165005237383 -0.115214165601 0)
(0.0013142140163 -0.116260861124 0)
(0.000990472746159 -0.117072942157 0)
(0.000679200223993 -0.117659176852 0)
(0.000380547353002 -0.118028517271 0)
(9.47723697351e-05 -0.1181900502 0)
(-0.000178103255168 -0.118152911384 0)
(-0.000437944330762 -0.117926375921 0)
(-0.000684824964729 -0.117519751957 0)
(-0.000918676645586 -0.116942308185 0)
(-0.00113966826077 -0.11620327853 0)
(-0.00134781764179 -0.115311821063 0)
(-0.00154338177865 -0.114276998308 0)
(-0.00172645253858 -0.113107742725 0)
(-0.001897363494 -0.11181283759 0)
(-0.00205627011561 -0.110400887046 0)
(-0.00220357010876 -0.108880299653 0)
(-0.00233947078179 -0.107259264261 0)
(-0.00246442002408 -0.105545736954 0)
(-0.00257866377707 -0.103747423278 0)
(-0.00268268505597 -0.10187176888 0)
(-0.00277675487944 -0.0999259483955 0)
(-0.00286137643694 -0.0979168598069 0)
(-0.00293683265954 -0.0958511197182 0)
(-0.00300363283581 -0.0937350610422 0)
(-0.00306206023482 -0.0915747342077 0)
(-0.00311261820613 -0.0893759075427 0)
(-0.00315558096203 -0.0871440734539 0)
(-0.00319143644361 -0.0848844505442 0)
(-0.00322044346429 -0.0826019937339 0)
(-0.00324306841064 -0.080301397056 0)
(-0.00325955153545 -0.0779871063511 0)
(-0.00327033483206 -0.075663321544 0)
(-0.00327564022633 -0.0733340107092 0)
(-0.00327588580183 -0.0710029108025 0)
(-0.00327127815228 -0.068673541846 0)
(-0.00326221444629 -0.066349205241 0)
(-0.00324889109441 -0.0640329972852 0)
(-0.00323168909356 -0.0617278046389 0)
(-0.00321080070382 -0.0594363165997 0)
(-0.00318659592712 -0.0571610176381 0)
(-0.00315926880999 -0.0549041984442 0)
(-0.00312918302388 -0.0526679459467 0)
(-0.00309653905138 -0.050454153358 0)
(-0.00306169734571 -0.0482645083352 0)
(-0.0030248676232 -0.0461005026666 0)
(-0.00298640829261 -0.0439634195004 0)
(-0.00294653878865 -0.0418543432865 0)
(-0.00290561445658 -0.0397741469546 0)
(-0.0028638628101 -0.0377235028436 0)
(-0.00282163324491 -0.0357028706879 0)
(-0.00277915782995 -0.0337125100152 0)
(-0.0027367755896 -0.0317524695479 0)
(-0.00269471833595 -0.0298226014981 0)
(-0.00265330934179 -0.0279225528494 0)
(-0.00261277445206 -0.0260517816949 0)
(-0.00257341513873 -0.0242095506166 0)
(-0.00253544494067 -0.0223949452009 0)
(-0.00249913671764 -0.0206068697121 0)
(-0.00246468390458 -0.018844067845 0)
(-0.00243232108974 -0.0171051209009 0)
(-0.00240220766863 -0.0153884709083 0)
(-0.00237451687018 -0.0136924208989 0)
(-0.00234932978397 -0.0120151567108 0)
(-0.00232666553634 -0.0103547347341 0)
(-0.00230631731087 -0.00870904809611 0)
(-0.00228766500096 -0.0070756240605 0)
(-0.00226898353714 -0.00545082136493 0)
(-0.00224520421416 -0.00382691087707 0)
(-0.00218738080085 -0.00218256372855 0)
(-0.00200488483055 -0.000623365007255 0)
(0.0150166518649 -0.00293287611171 0)
(0.016627185802 -0.00993050134426 0)
(0.0165664618483 -0.0168906684267 -1.2288045711e-27)
(0.0163354639045 -0.0238666026377 0)
(0.016023737575 -0.0307143555752 0)
(0.0156410524512 -0.0374106600673 0)
(0.0151939150274 -0.043927047537 0)
(0.0146892583305 -0.0502377190126 0)
(0.0141344103803 -0.0563199372861 0)
(0.013536823316 -0.0621542173101 0)
(0.0129038957674 -0.0677243320462 0)
(0.0122427502592 -0.0730172313166 0)
(0.0115601344884 -0.0780228749191 0)
(0.0108622665373 -0.0827340166508 0)
(0.0101548227756 -0.0871459458895 0)
(0.00944284631416 -0.0912562186398 0)
(0.00873080857095 -0.0950643782983 0)
(0.00802256018029 -0.0985716926135 0)
(0.00732144303254 -0.101780900159 0)
(0.00663025873996 -0.1046959872 0)
(0.00595140839307 -0.107321982261 0)
(0.0052868577114 -0.109664785033 0)
(0.0046382877036 -0.111731012965 0)
(0.00400704298955 -0.113527879467 0)
(0.00339428382918 -0.115063085059 0)
(0.00280091130931 -0.116344734246 0)
(0.00222771737408 -0.117381259213 0)
(0.0016752861575 -0.118181362745 0)
(0.00114414272427 -0.118753962286 0)
(0.000634632718325 -0.119108147624 0)
(0.000147070559134 -0.11925313834 0)
(-0.000318388657042 -0.119198247018 0)
(-0.000761596502238 -0.118952842256 0)
(-0.0011825709812 -0.118526318951 0)
(-0.00158132911636 -0.117928059749 0)
(-0.00195804339033 -0.117167407021 0)
(-0.00231287314839 -0.11625362842 0)
(-0.0026461322225 -0.115195890044 0)
(-0.0029581107526 -0.114003226283 0)
(-0.00324924831437 -0.112684515521 0)
(-0.00351994844884 -0.1112484539 0)
(-0.00377075652963 -0.109703534676 0)
(-0.00400216843155 -0.108058027048 0)
(-0.00421481220062 -0.106319960029 0)
(-0.00440925243145 -0.104497106828 0)
(-0.00458617493845 -0.10259697357 0)
(-0.00474618857718 -0.100626789586 0)
(-0.00489001204101 -0.0985935010448 0)
(-0.00501827482695 -0.0965037668229 0)
(-0.00513170531964 -0.0943639566054 0)
(-0.00523093261858 -0.0921801519095 0)
(-0.00531667494936 -0.0899581480085 0)
(-0.00538954393096 -0.0877034590857 0)
(-0.00545023237164 -0.085421322923 0)
(-0.00549932247853 -0.0831167091759 0)
(-0.00553747194452 -0.0807943256931 0)
(-0.00556522735768 -0.0784586284804 0)
(-0.00558320745593 -0.0761138283103 0)
(-0.00559192280958 -0.0737639011874 0)
(-0.0055919549356 -0.0714125940972 0)
(-0.00558378301023 -0.0690634346807 0)
(-0.00556795751241 -0.0667197351038 0)
(-0.00554493453309 -0.0643846002054 0)
(-0.00551524252149 -0.0620609289583 0)
(-0.00547932452585 -0.0597514205507 0)
(-0.00543769674608 -0.0574585732704 0)
(-0.00539079899605 -0.0551846886658 0)
(-0.00533914387316 -0.0529318682289 0)
(-0.00528317567911 -0.050702015978 0)
(-0.00522340932407 -0.048496833579 0)
(-0.00516029803983 -0.0463178221694 0)
(-0.00509436137119 -0.044166276831 0)
(-0.00502606204455 -0.0420432884053 0)
(-0.00495592272761 -0.0399497381873 0)
(-0.00488441250357 -0.0378863006079 0)
(-0.00481205226109 -0.0358534389701 0)
(-0.00473931118932 -0.0338514095647 0)
(-0.00466670085584 -0.0318802590165 0)
(-0.00459468211635 -0.029939830327 0)
(-0.00452374797291 -0.0280297622162 0)
(-0.00445434115261 -0.0261494972422 0)
(-0.00438692585296 -0.0242982832612 0)
(-0.00432191608288 -0.0224751836771 0)
(-0.00425973619814 -0.020679080954 0)
(-0.00420075966783 -0.0189086886861 0)
(-0.0041453577603 -0.0171625565957 0)
(-0.00409384733634 -0.0154390831659 0)
(-0.00404652538648 -0.0137365190753 0)
(-0.00400362200943 -0.0120529730359 0)
(-0.00396531672708 -0.0103863963127 0)
(-0.00393169764195 -0.00873454288287 0)
(-0.00390279511172 -0.00709484675581 0)
(-0.00387864837082 -0.00546409754864 0)
(-0.00385908765882 -0.00383676321178 0)
(-0.00382771046381 -0.00222773497691 0)
(-0.00347951263055 -0.000646160436734 0)
(0.0214093073452 -0.00297822057158 0)
(0.0237236748709 -0.0100809324837 0)
(0.0236339379595 -0.0171366484856 1.22823404143e-27)
(0.0232993438721 -0.0242088454829 0)
(0.0228486740113 -0.0311475112918 0)
(0.0222963797588 -0.0379278849629 0)
(0.0216519060288 -0.044520320639 0)
(0.0209253422101 -0.0508983140115 0)
(0.0201273486604 -0.0570387756898 0)
(0.0192687791603 -0.0629221666278 0)
(0.0183603634465 -0.0685324585386 0)
(0.0174124196018 -0.073857002362 0)
(0.0164346582802 -0.0788863140039 0)
(0.0154360160904 -0.083613806955 0)
(0.0144245835784 -0.0880354910703 0)
(0.0134075457559 -0.0921496615887 0)
(0.012391208078 -0.0959565903874 0)
(0.0113810099129 -0.0994582358108 0)
(0.0103816109212 -0.10265797496 0)
(0.00939693965212 -0.105560367639 0)
(0.00843030556464 -0.108170949443 0)
(0.00748445236598 -0.110496058156 0)
(0.00656167099605 -0.112542686953 0)
(0.00566383875126 -0.11431836587 0)
(0.0047925198965 -0.115831063331 0)
(0.00394898222259 -0.117089108271 0)
(0.00313428122374 -0.118101124564 0)
(0.00234925367976 -0.118875978567 0)
(0.00159458746844 -0.119422732478 0)
(0.000870796142581 -0.119750605301 0)
(0.000178278755108 -0.119868933513 0)
(-0.000482714688988 -0.119787150686 0)
(-0.00111202556663 -0.119514720594 0)
(-0.00170964068269 -0.119061135314 0)
(-0.00227563110398 -0.118435873102 0)
(-0.00281020086613 -0.11764836686 0)
(-0.00331362801394 -0.116707972241 0)
(-0.00378631634622 -0.115623938209 0)
(-0.00422873253093 -0.114405377746 0)
(-0.00464145830505 -0.113061241407 0)
(-0.00502512405826 -0.111600291835 0)
(-0.00538046135737 -0.110031081466 0)
(-0.00570823375611 -0.108361931931 0)
(-0.00600928969056 -0.10660091678 0)
(-0.00628449146692 -0.10475584644 0)
(-0.00653476880144 -0.10283425643 0)
(-0.00676104707346 -0.100843398107 0)
(-0.00696430169799 -0.09879023235 0)
(-0.00714548666976 -0.0966814258745 0)
(-0.00730559000764 -0.0945233499932 0)
(-0.00744556359939 -0.0923220819308 0)
(-0.00756637978413 -0.0900834078837 0)
(-0.00766896336126 -0.0878128283851 0)
(-0.00775424937093 -0.0855155646175 0)
(-0.00782311802667 -0.0831965666451 0)
(-0.00787645350469 -0.0808605216685 0)
(-0.00791508229932 -0.0785118637218 0)
(-0.0079398327122 -0.0761547824765 0)
(-0.00795147689407 -0.0737932330128 0)
(-0.0079507903839 -0.0714309438219 0)
(-0.00793849775754 -0.0690714253729 0)
(-0.00791533141833 -0.0667179762394 0)
(-0.00788198055173 -0.06437368958 0)
(-0.00783914812934 -0.0620414567238 0)
(-0.00778750267465 -0.0597239711173 0)
(-0.00772773249922 -0.0574237292375 0)
(-0.00766049980455 -0.0551430321304 0)
(-0.00758649121946 -0.0528839840122 0)
(-0.00750637385241 -0.0506484919361 0)
(-0.00742084151497 -0.0484382628395 0)
(-0.00733057258167 -0.0462548022212 0)
(-0.00723627152306 -0.0440994105956 0)
(-0.00713862863846 -0.0419731821266 0)
(-0.00703835687152 -0.0398770014614 0)
(-0.00693615369965 -0.0378115432396 0)
(-0.00683273336902 -0.0357772701352 0)
(-0.00672879131258 -0.0337744339205 0)
(-0.00662503211142 -0.0318030753064 0)
(-0.00652213684989 -0.0298630270258 0)
(-0.00642078708905 -0.0279539158011 0)
(-0.00632163548549 -0.0260751676087 0)
(-0.00622532603752 -0.0242260118325 0)
(-0.00613246816897 -0.0224054886395 0)
(-0.00604365332405 -0.0206124550889 0)
(-0.00595943248064 -0.0188455941389 0)
(-0.00588032896732 -0.0171034218639 0)
(-0.005806819173 -0.0153842965761 0)
(-0.00573934160579 -0.0136864243399 0)
(-0.00567828191159 -0.0120078628229 0)
(-0.00562398342157 -0.010346515659 0)
(-0.00557675261402 -0.00870011999644 0)
(-0.00553691339837 -0.00706621020249 0)
(-0.00550486342139 -0.00544207177934 0)
(-0.00548006367473 -0.00382334080151 0)
(-0.00543630430294 -0.00223216718077 0)
(-0.00488835826434 -0.000655095211376 0)
(0.0279087983167 -0.00303776509544 0)
(0.0309288839213 -0.0102787258612 0)
(0.030807525893 -0.0174669902845 0)
(0.0303639989756 -0.02466857412 0)
(0.0297671052246 -0.0317286101644 0)
(0.0290364255441 -0.038620626663 0)
(0.0281848364745 -0.0453135453559 0)
(0.0272260152787 -0.0517799470766 0)
(0.0261743391657 -0.057996299602 0)
(0.0250443868944 -0.063943040274 0)
(0.023850492824 -0.0696044719948 0)
(0.0226063741635 -0.0749685591344 0)
(0.0213248567613 -0.0800266395958 0)
(0.0200176795095 -0.084773084908 0)
(0.01869539167 -0.0892049346513 0)
(0.0173673092611 -0.0933215293119 0)
(0.0160415418347 -0.0971241580945 0)
(0.0147250488127 -0.100615735283 0)
(0.013423740336 -0.103800511592 0)
(0.0121425798128 -0.1066838252 0)
(0.0108857104493 -0.109271891606 0)
(0.00965656299646 -0.111571631399 0)
(0.00845797530705 -0.113590531114 0)
(0.007292280933 -0.11533653365 0)
(0.00616140512345 -0.116817952056 0)
(0.00506692457438 -0.118043402699 0)
(0.00401013594198 -0.119021752005 0)
(0.00299208748902 -0.119762073635 0)
(0.00201362426086 -0.120273611599 0)
(0.0010753981619 -0.120565747744 0)
(0.000177897543235 -0.120647966836 0)
(-0.000678557013006 -0.120529848082 0)
(-0.00149378411095 -0.120220981893 0)
(-0.0022677618632 -0.119730992987 0)
(-0.0030006021821 -0.119069483901 0)
(-0.00369256288771 -0.118246007188 0)
(-0.00434402672711 -0.117270033459 0)
(-0.00495551179713 -0.116150920611 0)
(-0.00552764800217 -0.114897884082 0)
(-0.00606118577887 -0.113519969051 0)
(-0.0065569697998 -0.112026024476 0)
(-0.00701594612975 -0.110424679717 0)
(-0.00743913380421 -0.108724323677 0)
(-0.00782763101391 -0.106933086902 0)
(-0.0081825855018 -0.105058826541 0)
(-0.00850520054754 -0.103109114397 0)
(-0.00879670518313 -0.101091227969 0)
(-0.00905836072697 -0.0990121444576 0)
(-0.00929143178227 -0.0968785376154 0)
(-0.00949719401351 -0.09469677724 0)
(-0.00967690679253 -0.0924729312441 0)
(-0.00983182279238 -0.0902127698367 0)
(-0.00996316303636 -0.0879217717827 0)
(-0.0100721287673 -0.085605132112 0)
(-0.010159879472 -0.0832677713105 0)
(-0.0102275472546 -0.0809143451594 0)
(-0.0102762181488 -0.0785492553083 0)
(-0.0103069489408 -0.0761766596663 0)
(-0.01032075172 -0.0738004828282 0)
(-0.010318612708 -0.071424425524 0)
(-0.0103014796125 -0.0690519734571 0)
(-0.0102702816778 -0.0666864045703 0)
(-0.0102259190697 -0.0643307953228 0)
(-0.0101692830898 -0.0619880250475 0)
(-0.0101012466349 -0.0596607791842 0)
(-0.0100226834685 -0.0573515505801 0)
(-0.00993445881258 -0.0550626398754 0)
(-0.00983744668942 -0.0527961542104 0)
(-0.00973251991789 -0.0505540054247 0)
(-0.00962056486233 -0.0483379070514 0)
(-0.00950247044619 -0.0461493713877 0)
(-0.00937914001374 -0.0439897058995 0)
(-0.00925147934005 -0.0418600102627 0)
(-0.00912040569212 -0.0397611732659 0)
(-0.00898683511763 -0.0376938708627 0)
(-0.00885168903747 -0.0356585644825 0)
(-0.00871588127332 -0.03365550083 0)
(-0.0085803226465 -0.0316847122085 0)
(-0.00844590825532 -0.0297460185388 0)
(-0.00831352054569 -0.0278390299998 0)
(-0.00818401729154 -0.0259631513917 0)
(-0.00805823353656 -0.02411758709 0)
(-0.00793697062192 -0.0223013476216 0)
(-0.00782099727504 -0.0205132566318 0)
(-0.00771103993235 -0.0187519591598 0)
(-0.00760778327514 -0.0170159298544 0)
(-0.00751186235794 -0.0153034818383 0)
(-0.00742386374784 -0.0136127744724 0)
(-0.00734432218812 -0.0119418206991 0)
(-0.0072737285586 -0.0102884923011 0)
(-0.00721254387601 -0.00865052850977 0)
(-0.00716123383252 -0.00702554587857 0)
(-0.00712023358591 -0.00541107595249 0)
(-0.00708822493371 -0.00380308358178 0)
(-0.00702967096669 -0.00222480696994 0)
(-0.00630753284592 -0.000654883374695 0)
(0.0345530301381 -0.00311321352783 0)
(0.038289796195 -0.0105319249435 0)
(0.0381322071993 -0.0178922488233 0)
(0.0375717269123 -0.0252605726344 0)
(0.0368182376288 -0.0324763310077 0)
(0.0358969462109 -0.0395109572144 0)
(0.0348247239276 -0.0463316338262 0)
(0.03361939238 -0.0529098400198 0)
(0.0322995617916 -0.0592215552106 0)
(0.0308839824071 -0.0652472811575 0)
(0.0293909616883 -0.0709718507274 0)
(0.0278378931005 -0.0763841231206 0)
(0.0262409113907 -0.0814765923898 0)
(0.0246146661903 -0.0862449484893 0)
(0.0229722082133 -0.0906876240918 0)
(0.0213249648159 -0.0948053541251 0)
(0.0196827920178 -0.0986007670991 0)
(0.0180540757538 -0.102078020827 0)
(0.016445871542 -0.105242488529 0)
(0.014864058111 -0.108100497058 0)
(0.0133135006257 -0.110659114821 0)
(0.0117982039968 -0.112925985106 0)
(0.0103214589595 -0.114909198472 0)
(0.00888596583181 -0.116617197735 0)
(0.0074939445341 -0.118058708374 0)
(0.00614721876287 -0.11924268811 0)
(0.00484728725589 -0.120178289454 0)
(0.0035953714912 -0.120874830576 0)
(0.00239245551932 -0.121341770223 0)
(0.00123930718628 -0.121588684045 0)
(0.000136499032521 -0.121625236031 0)
(-0.000915592255347 -0.121461183489 0)
(-0.00191676045883 -0.121106271575 0)
(-0.00286698610404 -0.120570291118 0)
(-0.00376642032965 -0.119863000101 0)
(-0.00461538674245 -0.118994102436 0)
(-0.00541437165761 -0.117973214233 0)
(-0.00616402162553 -0.116809831797 0)
(-0.00686513057761 -0.115513300622 0)
(-0.00751863427347 -0.11409278621 0)
(-0.00812559422162 -0.112557246998 0)
(-0.00868718950467 -0.110915409955 0)
(-0.00920469833112 -0.109175748995 0)
(-0.00967948822101 -0.107346466537 0)
(-0.0101129963435 -0.105435478244 0)
(-0.0105067192139 -0.103450401076 0)
(-0.0108621930101 -0.101398544564 0)
(-0.0111809838507 -0.0992869052982 0)
(-0.011464669176 -0.0971221644654 0)
(-0.0117148295928 -0.0949106882771 0)
(-0.0119330322986 -0.0926585310789 0)
(-0.0121208253295 -0.0903714408382 0)
(-0.0122797238615 -0.0880548667594 0)
(-0.0124112075711 -0.0857139685972 0)
(-0.012516710464 -0.0833536273677 0)
(-0.0125976217749 -0.0809784569175 0)
(-0.0126552796333 -0.0785928160428 0)
(-0.0126909755678 -0.0762008205606 0)
(-0.0127059518762 -0.0738063550575 0)
(-0.0127014092733 -0.0714130837229 0)
(-0.0126785073051 -0.0690244601115 0)
(-0.012638374213 -0.0666437353262 0)
(-0.0125821092983 -0.0642739646379 0)
(-0.012510793693 -0.0619180121693 0)
(-0.0124254933242 -0.0595785538762 0)
(-0.0123272692028 -0.0572580786154 0)
(-0.0122171796821 -0.0549588877314 0)
(-0.0120962890296 -0.0526830930838 0)
(-0.0119656679657 -0.0504326141001 0)
(-0.0118263997176 -0.0482091738607 0)
(-0.0116795783056 -0.0460142948692 0)
(-0.0115263117675 -0.0438492945214 0)
(-0.0113677181592 -0.0417152809214 0)
(-0.0112049261335 -0.0396131490101 0)
(-0.0110390690344 -0.0375435775906 0)
(-0.0108712833261 -0.0355070271238 0)
(-0.0107027013884 -0.0335037387843 0)
(-0.0105344484565 -0.0315337345638 0)
(-0.010367634788 -0.0295968188139 0)
(-0.0102033517487 -0.0276925809285 0)
(-0.010042663952 -0.0258203994689 0)
(-0.00988660504019 -0.0239794473737 0)
(-0.00973617028331 -0.0221686984739 0)
(-0.00959231249494 -0.0203869349042 0)
(-0.00945593552837 -0.0186327555502 0)
(-0.00932789085275 -0.0169045850781 0)
(-0.00920897270845 -0.0152006836544 0)
(-0.0090999166337 -0.0135191570015 0)
(-0.00900139855965 -0.0118579670877 0)
(-0.00891403928313 -0.0102149441778 0)
(-0.00883841320883 -0.00858780700179 0)
(-0.00877505834765 -0.00697418267172 0)
(-0.00872436668878 -0.00537164570115 0)
(-0.00868432676665 -0.00377615185776 0)
(-0.00861077137745 -0.00221071765426 0)
(-0.00772158119117 -0.000651411833144 0)
(0.0413790654142 -0.00320666996478 0)
(0.0458484010174 -0.0108462409039 0)
(0.0456481425069 -0.0184207412002 1.21866393348e-27)
(0.0449598510689 -0.0259959612583 0)
(0.0440359671853 -0.0334041901893 0)
(0.0429079943731 -0.0406142304247 0)
(0.041597515334 -0.0475911558549 0)
(0.0401272168866 -0.0543051705463 0)
(0.0385206131314 -0.0607317774553 0)
(0.0368012058144 -0.0668517146419 0)
(0.0349917440685 -0.0726506416752 0)
(0.0331136434641 -0.078118695626 0)
(0.0311865756686 -0.0832499582206 0)
(0.0292282192895 -0.0880418850042 0)
(0.0272541543471 -0.0924947378186 0)
(0.0252778728399 -0.0966110518289 0)
(0.0233108791374 -0.100395157653 0)
(0.021362850688 -0.103852770069 0)
(0.0194418366111 -0.106990646997 0)
(0.017554471226 -0.109816316969 0)
(0.015706188741 -0.112337869309 0)
(0.0139014245432 -0.114563799042 0)
(0.0121437976763 -0.116502897308 0)
(0.0104362668258 -0.118164177832 0)
(0.00878126071342 -0.119556830298 0)
(0.00718077994843 -0.120690192267 0)
(0.00563647543925 -0.1215737324 0)
(0.00414970311607 -0.122217039057 0)
(0.00272156225627 -0.122629809879 0)
(0.00135291774829 -0.122821837995 0)
(4.44196727618e-05 -0.122802995323 0)
(-0.00120350927668 -0.122583241976 0)
(-0.00239064159267 -0.122172510031 0)
(-0.00351696411824 -0.121580786687 0)
(-0.0045826700821 -0.120818017711 0)
(-0.00558815656184 -0.11989409085 0)
(-0.00653401814607 -0.118818799668 0)
(-0.00742104048997 -0.117601809689 0)
(-0.00825018931531 -0.11625262557 0)
(-0.00902259946044 -0.114780560078 0)
(-0.00973955968951 -0.113194705501 0)
(-0.0104024981726 -0.111503907911 0)
(-0.0110129643694 -0.109716744655 0)
(-0.0115726123712 -0.10784150525 0)
(-0.0120831813791 -0.105886175847 0)
(-0.012546478405 -0.103858427268 0)
(-0.0129643587996 -0.101765606622 0)
(-0.0133387096763 -0.0996147323801 0)
(-0.0136714317844 -0.0974124927886 0)
(-0.0139644248544 -0.0951652474114 0)
(-0.0142195719547 -0.0928790315949 0)
(-0.0144387278193 -0.0905595635346 0)
(-0.0146237067002 -0.0882122536404 0)
(-0.0147762745855 -0.0858422157791 0)
(-0.0148981413443 -0.0834542799981 0)
(-0.0149909574559 -0.0810530062097 0)
(-0.0150563108643 -0.0786426983604 0)
(-0.0150957283538 -0.0762274185341 0)
(-0.0151106769491 -0.0738110005141 0)
(-0.0151025694249 -0.0713970622847 0)
(-0.0150727694127 -0.0689890170784 0)
(-0.0150225998782 -0.0665900825986 0)
(-0.0149533504987 -0.0642032881969 0)
(-0.0148662874563 -0.0618314798372 0)
(-0.0147626613252 -0.05947732284 0)
(-0.0146437163872 -0.0571433024829 0)
(-0.0145106973141 -0.0548317226642 0)
(-0.0143648564486 -0.0525447028956 0)
(-0.014207457977 -0.0502841739772 0)
(-0.0140397821702 -0.0480518727455 0)
(-0.0138631263787 -0.0458493363093 0)
(-0.0136788059031 -0.0436778961727 0)
(-0.0134881518167 -0.0415386726271 0)
(-0.0132925087558 -0.0394325697517 0)
(-0.0130932300993 -0.0373602713112 0)
(-0.0128916733793 -0.0353222377727 0)
(-0.0126891936339 -0.033318704611 0)
(-0.0124871373039 -0.0313496820086 0)
(-0.0122868346274 -0.0294149560163 0)
(-0.0120895928498 -0.0275140911688 0)
(-0.0118966884245 -0.0256464345416 0)
(-0.0117093602288 -0.0238111211667 0)
(-0.0115288021884 -0.0220070807408 0)
(-0.011356157055 -0.0202330454915 0)
(-0.0111925099949 -0.0184875591119 0)
(-0.0110388835082 -0.0167689866364 0)
(-0.0108962326949 -0.015075525255 0)
(-0.0107654422772 -0.0134052160193 0)
(-0.0106473248815 -0.0117559571558 0)
(-0.0105426217634 -0.0101255193976 0)
(-0.0104520048796 -0.00851156751539 0)
(-0.0103760714164 -0.00691168087462 0)
(-0.0103151874764 -0.00532337946881 0)
(-0.0102667899948 -0.00374250311285 0)
(-0.0101784843534 -0.00219161345945 0)
(-0.00912557319634 -0.000646010103965 0)
(0.0484280267571 -0.00332024622545 0)
(0.0536498997811 -0.0112283070107 0)
(0.0533986140758 -0.0190629764413 -1.21801516032e-27)
(0.0525684313918 -0.0268887801238 0)
(0.0514563407095 -0.0345291026263 0)
(0.0501010858236 -0.041949465649 0)
(0.0485299188119 -0.0491124190032 0)
(0.0467713373353 -0.0559867469266 0)
(0.0448546253691 -0.0625475706418 0)
(0.0428087723743 -0.0687761544612 0)
(0.0406615479193 -0.0746594173107 0)
(0.03843880172 -0.0801892958496 0)
(0.0361639952981 -0.0853620210826 0)
(0.0338579475689 -0.0901773745903 0)
(0.0315387631775 -0.0946379756316 0)
(0.0292219047298 -0.0987486347619 0)
(0.0269203694167 -0.102515795021 0)
(0.0246449325692 -0.105947069457 0)
(0.0224044267151 -0.109050874405 0)
(0.0202060301602 -0.111836151624 0)
(0.0180555463769 -0.114312168445 0)
(0.0159576602647 -0.116488383321 0)
(0.0139161633058 -0.118374363511 0)
(0.0119341425644 -0.119979742156 0)
(0.0100141329136 -0.121314202811 0)
(0.00815823322843 -0.122387481014 0)
(0.00636819059686 -0.123209373959 0)
(0.00464545661413 -0.123789751447 0)
(0.00299122201069 -0.124138563273 0)
(0.0014064341764 -0.124265834433 0)
(-0.000108189505262 -0.124181679313 0)
(-0.00155217836189 -0.123896253152 0)
(-0.00292528824913 -0.123419734963 0)
(-0.00422751517344 -0.122762328149 0)
(-0.00545909720568 -0.121934201064 0)
(-0.00662051081884 -0.120945458988 0)
(-0.00771246583618 -0.119806106608 0)
(-0.00873589748184 -0.118526011362 0)
(-0.00969195467745 -0.117114867928 0)
(-0.0105819859494 -0.115582164853 0)
(-0.011407522269 -0.113937153903 0)
(-0.012170258406 -0.112188822746 0)
(-0.0128720321634 -0.110345871215 0)
(-0.0135148031296 -0.108416691472 0)
(-0.0141006302729 -0.106409352101 0)
(-0.0146316499847 -0.104331586211 0)
(-0.0151100538104 -0.102190783436 0)
(-0.0155380674145 -0.0999939857651 0)
(-0.015917929954 -0.0977478870012 0)
(-0.0162518753663 -0.0954588356758 0)
(-0.0165421147093 -0.0931328411379 0)
(-0.0167908210314 -0.0907755825392 0)
(-0.0170001158889 -0.0883924203377 0)
(-0.0171720589357 -0.0859884099061 0)
(-0.0173086396393 -0.0835683167512 0)
(-0.0174117724196 -0.081136632795 0)
(-0.0174832941404 -0.0786975931387 0)
(-0.0175249650448 -0.0762551926805 0)
(-0.0175384718763 -0.0738132019969 0)
(-0.0175254340209 -0.0713751818851 0)
(-0.0174874112265 -0.0689444960907 0)
(-0.0174259134971 -0.0665243217629 0)
(-0.0173424115918 -0.064117657389 0)
(-0.0172383485665 -0.0617273279892 0)
(-0.0171151507898 -0.0593559876192 0)
(-0.0169742388382 -0.0570061192344 0)
(-0.0168170368342 -0.0546800322398 0)
(-0.016644980715 -0.0523798580107 0)
(-0.0164595242459 -0.050107543903 0)
(-0.0162621434186 -0.0478648461617 0)
(-0.0160543383435 -0.0456533223208 0)
(-0.0158376334275 -0.0434743234991 0)
(-0.0156135752242 -0.0413289871366 0)
(-0.015383728845 -0.0392182304805 0)
(-0.0151496725158 -0.0371427452301 0)
(-0.0149129911761 -0.0351029935052 0)
(-0.0146752688254 -0.0330992053897 0)
(-0.014438080438 -0.0311313780755 0)
(-0.0142029832059 -0.0291992767185 0)
(-0.0139715078078 -0.0273024369285 0)
(-0.0137451494885 -0.0254401688983 0)
(-0.0135253595196 -0.0236115630389 0)
(-0.0133135368437 -0.0218154970557 0)
(-0.0131110203649 -0.0200506443236 0)
(-0.0129190817338 -0.0183154834768 0)
(-0.0127389190162 -0.0166083091149 0)
(-0.0125716511722 -0.0149272436263 0)
(-0.012418313675 -0.0132702502619 0)
(-0.0122798551937 -0.0116351475555 0)
(-0.0121571353641 -0.0100196256676 0)
(-0.0120509222649 -0.00842126909654 0)
(-0.0119618785586 -0.00683757072317 0)